Title
29469
    1NLYS     N    1   2.048   2.854   1.975  0.4737  0.3181  0.7245
    1NLYS    H1    2   2.061   2.802   2.060 -1.1953 -0.9687  0.2149
    1NLYS    H2    3   1.981   2.804   1.919  0.6335  0.1376  0.6944
    1NLYS    H3    4   2.024   2.950   1.996  0.3179  0.2426  0.8904
    1NLYS    CA    5   2.183   2.854   1.913 -0.2397  0.3312 -0.8454
    1NLYS    HA    6   2.219   2.751   1.914 -1.6219 -0.1543 -0.9723
    1NLYS    CB    7   2.173   2.901   1.770 -1.2777 -0.0303 -0.3478
    1NLYS   HB2    8   2.094   2.848   1.717 -2.6724 -0.3858  2.0112
    1NLYS   HB3    9   2.160   3.009   1.776 -1.0512 -0.1337  3.0553
    1NLYS    CG   10   2.301   2.880   1.687 -0.1506  0.5978 -0.2502
    1NLYS   HG2   11   2.383   2.929   1.741  0.9028 -1.4610  0.0694
    1NLYS   HG3   12   2.322   2.773   1.684 -0.1287  0.6455 -2.9716
    1NLYS    CD   13   2.295   2.942   1.550 -0.1200 -0.0394 -0.0092
    1NLYS   HD2   14   2.226   2.881   1.492 -0.4301  0.2535  0.0546
    1NLYS   HD3   15   2.258   3.044   1.555  0.1205  0.1599 -1.8735
    1NLYS    CE   16   2.433   2.947   1.478 -0.0614  0.2504 -0.1395
    1NLYS   HE2   17   2.483   3.025   1.534  0.3845  2.4551 -3.4476
    1NLYS   HE3   18   2.492   2.855   1.483 -2.1390 -1.1162  0.1057
    1NLYS    NZ   19   2.420   3.002   1.338  0.5060 -0.0013  0.8078
    1NLYS   HZ1   20   2.510   3.024   1.297  0.6995  1.9322  2.2102
    1NLYS   HZ2   21   2.387   2.933   1.271  2.1690  1.7845 -1.9707
    1NLYS   HZ3   22   2.352   3.076   1.332  0.4222 -0.0487  1.1906
    1NLYS     C   23   2.286   2.934   2.000  0.4783  0.1459  0.3891
    1NLYS     O   24   2.256   3.046   2.051  0.1987 -0.6936  0.4545
    2GLY      N   25   2.397   2.875   2.044  0.6063  0.4856 -0.0612
    2GLY      H   26   2.412   2.779   2.015  0.4377  0.6846 -0.8346
    2GLY     CA   27   2.494   2.934   2.138 -0.4674  0.1832  0.4834
    2GLY    HA2   28   2.473   3.041   2.151 -0.8212  0.0400  1.1179
    2GLY    HA3   29   2.470   2.885   2.232  2.1712  0.2590  1.2397
    2GLY      C   30   2.644   2.913   2.123  0.2157  0.0900  0.1962
    2GLY      O   31   2.682   2.799   2.104 -0.6483 -0.0688  0.2238
    3PRO      N   32   2.726   3.024   2.136 -0.7743  0.2274  0.1475
    3PRO     CD   33   2.691   3.151   2.082  0.6791 -0.3000  0.1408
    3PRO    HD2   34   2.626   3.211   2.144  1.5790  0.5290  0.3006
    3PRO    HD3   35   2.653   3.148   1.980 -1.3667  2.1326  0.7942
    3PRO     CG   36   2.817   3.233   2.074 -0.4853 -0.5164  0.0854
    3PRO    HG2   37   2.815   3.285   2.170 -1.5610 -1.9248  0.8379
    3PRO    HG3   38   2.818   3.298   1.986 -1.2326  0.0469  0.4926
    3PRO     CB   39   2.921   3.123   2.057  0.2153  0.2183 -0.8142
    3PRO    HB2   40   3.021   3.151   2.090  0.4741 -0.8298 -0.7045
    3PRO    HB3   41   2.928   3.089   1.953  1.0828  2.4414 -1.5102
    3PRO     CA   42   2.873   3.009   2.148  0.1932  0.0041  0.1213
    3PRO     HA   43   2.910   2.917   2.103  1.0608 -0.0944  1.0111
    3PRO      C   44   2.942   3.007   2.284 -0.1621 -0.2410 -0.9982
    3PRO      O   45   3.065   2.991   2.281 -0.2064 -0.9255  0.1374
    4PRO      N   46   2.875   3.012   2.405 -0.4936  0.2182 -0.9752
    4PRO     CD   47   2.732   3.036   2.425 -0.4567 -0.5592  0.4251
    4PRO    HD2   48   2.677   2.953   2.381  1.5914 -0.5342 -2.3932
    4PRO    HD3   49   2.709   3.135   2.385 -1.9132 -0.8660  0.4780
    4PRO     CG   50   2.710   3.040   2.577  0.0128 -0.2665  1.4052
    4PRO    HG2   51   2.677   2.941   2.611 -0.7340 -0.2042  0.8722
    4PRO    HG3   52   2.642   3.122   2.600 -1.9198 -1.7828  1.2901
    4PRO     CB   53   2.851   3.066   2.626  0.0269 -0.0681  0.4547
    4PRO    HB2   54   2.858   3.033   2.730 -2.1524  0.7308  0.9017
    4PRO    HB3   55   2.881   3.171   2.629  0.4984 -0.1939  0.1514
    4PRO     CA   56   2.942   2.987   2.533  0.6834 -0.2710  0.3098
    4PRO     HA   57   3.044   3.025   2.527  0.1008  1.3470  0.2331
    4PRO      C   58   2.942   2.838   2.558  0.7125  0.8281 -0.4749
    4PRO      O   59   2.899   2.759   2.471 -0.1469  0.0195 -0.1952
    5ARG      N   60   2.997   2.797   2.675 -0.4654  0.1506 -0.0901
    5ARG      H   61   3.035   2.866   2.739 -0.3496  0.3624 -0.3879
    5ARG     CA   62   2.979   2.660   2.725 -0.1492  0.1443 -0.2903
    5ARG     HA   63   3.027   2.595   2.651  0.4126  0.7164 -0.4330
    5ARG     CB   64   3.053   2.641   2.855 -0.3614 -0.4630  0.2828
    5ARG    HB2   65   3.046   2.534   2.874 -0.3912 -0.4339  0.4361
    5ARG    HB3   66   3.158   2.666   2.840 -1.0685 -0.0364 -4.7871
    5ARG     CG   67   2.993   2.718   2.970 -0.2866 -0.1201 -0.3557
    5ARG    HG2   68   2.884   2.723   2.960 -0.2818 -0.8765 -0.8903
    5ARG    HG3   69   3.007   2.655   3.059 -1.2952  1.3598  0.8735
    5ARG     CD   70   3.059   2.857   3.009 -0.8447 -0.4283 -0.4328
    5ARG    HD2   71   3.016   2.936   2.948 -1.1777 -0.2271  0.0604
    5ARG    HD3   72   3.024   2.873   3.111 -1.2139 -1.0050 -0.4638
    5ARG     NE   73   3.206   2.857   3.005 -0.5639  0.2543  0.3806
    5ARG     HE   74   3.249   2.929   2.949 -1.3749  0.1101 -0.4398
    5ARG     CZ   75   3.298   2.794   3.067  0.0131  0.7724  0.1321
    5ARG    NH1   76   3.273   2.710   3.161 -0.5801  0.6570 -0.2866
    5ARG   HH11   77   3.179   2.685   3.190 -0.2330 -0.1368  0.1787
    5ARG   HH12   78   3.357   2.681   3.209 -0.0747  1.5645 -0.6176
    5ARG    NH2   79   3.422   2.829   3.039 -0.3263  0.2352  0.2252
    5ARG   HH21   80   3.444   2.903   2.973  2.2293 -0.2002  0.5362
    5ARG   HH22   81   3.493   2.790   3.099 -1.4123 -0.1959  1.2636
    5ARG      C   82   2.828   2.617   2.736 -0.6224 -0.6089 -0.1072
    5ARG      O   83   2.741   2.702   2.739  0.2001  0.0018 -0.5495
    6CARG     N   84   2.799   2.490   2.749 -0.3876  0.2324 -0.0147
    6CARG     H   85   2.883   2.433   2.750  0.3898  1.3352  2.7372
    6CARG    CA   86   2.670   2.423   2.773  0.1638 -0.4003  0.2026
    6CARG    HA   87   2.601   2.460   2.697  1.4372  0.5738 -0.5126
    6CARG    CB   88   2.672   2.270   2.752  0.2338 -0.3149  0.5044
    6CARG   HB2   89   2.573   2.241   2.719  0.7226  0.1785 -1.4414
    6CARG   HB3   90   2.734   2.239   2.668  1.1513 -1.2615  1.4934
    6CARG    CG   91   2.716   2.180   2.879  0.1001  0.0831 -0.1298
    6CARG   HG2   92   2.659   2.203   2.969 -0.5199 -2.2854  0.1089
    6CARG   HG3   93   2.711   2.072   2.862 -1.9482  0.5152 -2.5372
    6CARG    CD   94   2.859   2.206   2.914  0.3442  0.0582 -0.5015
    6CARG   HD2   95   2.914   2.192   2.821 -0.3460  1.1929 -1.0836
    6CARG   HD3   96   2.872   2.306   2.954  0.7468  0.7931 -2.4010
    6CARG    NE   97   2.912   2.105   3.011 -0.5083 -0.0378  0.0481
    6CARG    HE   98   2.852   2.075   3.086  1.0387 -2.9487  0.1926
    6CARG    CZ   99   3.031   2.054   3.025  0.9609  0.3179  0.1580
    6CARG   NH1  100   3.125   2.073   2.942  0.3609  0.5827  0.6121
    6CARG  HH11  101   3.096   2.122   2.858 -1.4456 -1.6282 -0.0876
    6CARG  HH12  102   3.219   2.042   2.963  0.5422  0.7784  0.1111
    6CARG   NH2  103   3.055   1.992   3.137  0.1817 -0.1905 -0.1064
    6CARG  HH21  104   2.983   1.974   3.207  0.4278 -0.5693  0.0531
    6CARG  HH22  105   3.150   1.966   3.158 -0.1791 -1.4231  0.0817
    6CARG     C  106   2.606   2.464   2.904  0.1069 -0.0833  0.0202
    6CARG     O  107   2.675   2.514   2.991 -0.4973 -0.3962 -0.2675
    6CARG   OXT  108   2.485   2.451   2.925 -0.2161  0.1599  0.7855
    1PA    C116  109   3.306   2.339   5.592  0.2762 -0.0974 -0.9163
    1PA    H16R  110   3.356   2.424   5.545  0.3743 -0.4562 -1.4628
    1PA    H16S  111   3.225   2.383   5.650 -1.2733 -0.1576 -3.0053
    1PA    H16T  112   3.267   2.275   5.513 -0.5686  0.8472 -1.2817
    1PA    C115  113   3.409   2.263   5.685  0.3004  0.3132 -0.0229
    1PA    H15R  114   3.501   2.253   5.628 -0.1316 -1.1913 -0.4880
    1PA    H15S  115   3.448   2.309   5.776  0.3768  0.3406 -0.0694
    1PA    C114  116   3.358   2.115   5.708 -0.4193  0.2472 -0.5071
    1PA    H14R  117   3.347   2.065   5.612  0.1982  0.0936 -0.5006
    1PA    H14S  118   3.425   2.050   5.765  0.5557  2.1648  0.6063
    1PA    C113  119   3.219   2.099   5.781  0.2065 -0.4996  0.1467
    1PA    H13R  120   3.148   2.163   5.729 -3.6535 -3.2442  1.8219
    1PA    H13S  121   3.181   1.996   5.782 -0.5952 -0.2181  1.9065
    1PA    C112  122   3.231   2.158   5.925 -0.1701  1.0439 -0.1178
    1PA    H12R  123   3.299   2.085   5.971 -1.2240 -0.4690 -0.9113
    1PA    H12S  124   3.276   2.256   5.936 -0.1820  0.7992  2.4865
    1PA    C111  125   3.095   2.153   6.003  0.6149  0.5984  0.2773
    1PA    H11R  126   3.016   2.198   5.942 -2.1120 -0.3591  3.0035
    1PA    H11S  127   3.063   2.050   6.021  3.3982 -0.2364  0.7593
    1PA    C110  128   3.090   2.230   6.134 -0.7798 -0.1395  0.3465
    1PA    H10R  129   3.127   2.332   6.121 -1.2648 -0.3891 -3.4417
    1PA    H10S  130   2.988   2.233   6.173 -0.3760 -1.9693  1.5932
    1PA     C19  131   3.161   2.160   6.251  0.2496 -0.4668 -0.1511
    1PA     H9R  132   3.093   2.080   6.280  1.8691 -1.5942  0.6094
    1PA     H9S  133   3.247   2.101   6.221 -1.2010 -2.2401 -0.9006
    1PA     C18  134   3.179   2.259   6.372 -0.2877 -0.0713  0.1046
    1PA     H8R  135   3.254   2.333   6.343  0.3399 -1.1045 -0.9560
    1PA     H8S  136   3.093   2.314   6.410  0.0288  0.2370  0.3818
    1PA     C17  137   3.234   2.184   6.494 -0.1549  0.1099  0.1053
    1PA     H7R  138   3.174   2.093   6.501 -0.1363  0.1030  0.1759
    1PA     H7S  139   3.334   2.153   6.465  0.3250  0.9193  0.8705
    1PA     C16  140   3.240   2.265   6.627  0.1823 -0.0476  0.1454
    1PA     H6R  141   3.137   2.280   6.658  1.0057  0.9104  2.5855
    1PA     H6S  142   3.279   2.195   6.702 -2.5897 -0.4109  1.3071
    1PA     C15  143   3.328   2.392   6.628  0.4174  0.0774  0.0669
    1PA     H5R  144   3.433   2.362   6.621  0.1702 -0.8314  0.1597
    1PA     H5S  145   3.307   2.447   6.537  2.0671 -0.0801 -0.4327
    1PA     C14  146   3.305   2.485   6.750  0.3278 -0.0364  0.0954
    1PA     H4R  147   3.387   2.556   6.761  1.6498 -1.6976  1.3103
    1PA     H4S  148   3.216   2.547   6.738  0.9990  0.9587  0.1978
    1PA     C13  149   3.292   2.417   6.891  0.0927  0.0788 -0.0575
    1PA     H3R  150   3.214   2.340   6.885  0.2858 -0.0986 -0.3170
    1PA     H3S  151   3.386   2.370   6.921  0.6200  0.9348 -0.3531
    1PA     C12  152   3.245   2.519   7.000  0.0532 -0.6734 -0.0068
    1PA     H2R  153   3.242   2.473   7.100 -0.0829  1.0052  0.7781
    1PA     H2S  154   3.307   2.609   7.004 -0.6089 -0.1454 -1.2927
    1PC     C11  155   3.102   2.555   6.978  0.2859  0.3041  0.1902
    1PC     O12  156   3.074   2.640   6.894  0.0425  0.5096  0.3311
    1PC     O11  157   3.018   2.495   7.061 -1.0680  0.1526 -0.0959
    1PC      C1  158   2.875   2.523   7.053 -0.0887 -0.6100  0.1117
    1PC      HR  159   2.842   2.515   7.157  1.1595 -4.8167  0.2901
    1PC      HS  160   2.865   2.625   7.014  0.9994  0.0032  1.4067
    1PC      C2  161   2.812   2.415   6.962  0.9286  0.3445 -0.4991
    1PC      HX  162   2.706   2.440   6.957  0.7596 -0.3977 -0.5863
    1PC      C3  163   2.837   2.265   7.006  0.0722  1.1048 -0.7248
    1PC      HA  164   2.851   2.189   6.929 -2.0616 -1.2991  1.1808
    1PC      HB  165   2.935   2.267   7.055  0.4463 -0.8306 -1.3770
    1PC     O31  166   2.728   2.215   7.098  0.6047  0.3985  1.0583
    1PC     P31  167   2.716   2.252   7.251 -0.2780  0.3250 -0.0173
    1PC     O32  168   2.867   2.242   7.303  0.0334  0.3414  0.7682
    1PC     C31  169   2.932   2.111   7.319  0.0424 -0.3281 -0.0972
    1PC     H1A  170   2.879   2.036   7.259 -1.7569  1.9151 -1.4279
    1PC     H1B  171   3.035   2.127   7.285 -0.5577  0.6837 -1.5309
    1PC     C32  172   2.941   2.070   7.471 -0.9025 -0.1348 -0.4054
    1PC     H2A  173   2.849   2.103   7.520  0.2345  0.9480  1.0502
    1PC     H2B  174   2.958   1.962   7.468 -1.8587 -0.2519 -2.3806
    1PC     N31  175   3.052   2.132   7.551 -0.5177 -0.2451 -0.3759
    1PC     C33  176   3.023   2.278   7.569 -0.6793  0.2709  0.1226
    1PC     H3A  177   3.094   2.324   7.638  0.5474 -1.7540  0.2770
    1PC     H3B  178   3.016   2.324   7.471  2.5463  0.1638 -0.2184
    1PC     H3C  179   2.926   2.285   7.617 -1.0266 -1.0342 -0.3619
    1PC     C34  180   3.066   2.084   7.685 -0.3083  0.4446  0.9802
    1PC     H4A  181   2.980   2.117   7.743 -0.3697  1.2837  0.4060
    1PC     H4B  182   3.069   1.975   7.690 -0.0728  0.4135  0.2716
    1PC     H4C  183   3.161   2.119   7.726  0.5659 -1.1435  0.3890
    1PC     C35  184   3.191   2.125   7.490 -0.5497  0.2306 -0.4562
    1PC     H5A  185   3.198   2.201   7.412  2.3445  1.6652  1.0968
    1PC     H5B  186   3.204   2.023   7.454 -0.4843  0.7607 -1.9629
    1PC     H5C  187   3.263   2.141   7.571 -1.4645  0.2315  0.3702
    1PC     O33  188   2.675   2.394   7.263 -0.3493  0.2089  0.8384
    1PC     O34  189   2.639   2.148   7.322  0.0481  0.0823  0.1279
    1PC     O21  190   2.855   2.409   6.822  0.0117  0.0067  0.2088
    1PC     C21  191   2.815   2.500   6.732 -0.4371  0.1333 -0.3408
    1PC     O22  192   2.743   2.596   6.757 -0.0519  0.5993  0.3800
    1OL     C12  193   2.875   2.475   6.592 -0.5478 -0.0289 -0.0764
    1OL     H2R  194   2.904   2.369   6.586 -1.0448 -0.3509  2.5917
    1OL     H2S  195   2.965   2.536   6.598 -1.3470  1.0814  1.0784
    1OL     C13  196   2.791   2.515   6.467 -0.0442 -0.3338  0.2613
    1OL     H3R  197   2.761   2.619   6.479 -0.1810 -0.4339  0.8044
    1OL     H3S  198   2.689   2.475   6.464 -0.2446  0.2576 -3.2829
    1OL     C14  199   2.864   2.484   6.331 -0.2446 -0.7730 -0.8010
    1OL     H4R  200   2.870   2.376   6.312 -1.1527 -0.7213 -1.4315
    1OL     H4S  201   2.961   2.533   6.337 -0.6272  0.1566 -2.1273
    1OL     C15  202   2.802   2.562   6.209 -0.5384 -0.3539 -0.1529
    1OL     H5R  203   2.768   2.662   6.237 -1.4988 -1.0134  1.0662
    1OL     H5S  204   2.713   2.512   6.170 -1.2648  1.4910 -0.8947
    1OL     C16  205   2.896   2.571   6.083  0.2189  0.4520  0.0828
    1OL     H6R  206   2.925   2.469   6.056  0.5161  0.7453 -0.7014
    1OL     H6S  207   2.995   2.605   6.114  0.3822  2.1718 -2.2066
    1OL     C17  208   2.839   2.655   5.958  0.6146 -0.4292  0.1617
    1OL     H7R  209   2.909   2.651   5.875 -2.9579  1.2508 -3.0843
    1OL     H7S  210   2.828   2.759   5.991  1.6157  0.1966 -1.4614
    1OL     C18  211   2.705   2.601   5.904  0.0700 -0.3522 -0.0644
    1OL     H8R  212   2.626   2.634   5.972  0.4615  0.9400 -0.2305
    1OL     H8S  213   2.706   2.493   5.887  1.3650 -0.4371  0.4462
    1OL     C19  214   2.670   2.653   5.768 -0.2235  0.4353  0.1820
    1OL     H9R  215   2.745   2.628   5.694  0.4422 -2.5874  1.7931
    1OL    C110  216   2.557   2.713   5.730  0.1481 -0.1519 -0.5609
    1OL    H10R  217   2.544   2.741   5.625  2.1899 -0.5935 -0.9428
    1OL    C111  218   2.440   2.743   5.813  0.3019  0.5224 -0.2481
    1OL    H11R  219   2.460   2.843   5.852  1.1701 -0.5475  2.1884
    1OL    H11S  220   2.435   2.682   5.903  0.0137 -1.3597 -1.5131
    1OL    C112  221   2.303   2.742   5.737  0.0653  0.3555 -0.0633
    1OL    H12R  222   2.286   2.646   5.687  2.7451  1.3115 -2.9733
    1OL    H12S  223   2.318   2.813   5.656  1.9460  0.4003  0.3035
    1OL    C113  224   2.192   2.788   5.831  0.3802  0.3238  0.4076
    1OL    H13R  225   2.225   2.889   5.856  2.1644 -0.0398 -0.3711
    1OL    H13S  226   2.180   2.725   5.919 -0.2509 -1.5516 -1.0039
    1OL    C114  227   2.059   2.775   5.757  0.1743 -0.3555  0.0303
    1OL    H14R  228   2.049   2.668   5.737  4.2315 -0.8714  0.3737
    1OL    H14S  229   2.060   2.829   5.661 -1.5376 -0.8504 -0.2866
    1OL    C115  230   1.946   2.825   5.857 -0.0218 -0.3295 -0.7584
    1OL    H15R  231   1.970   2.795   5.959  1.4650  0.9943 -0.6816
    1OL    H15S  232   1.853   2.777   5.827 -1.0575  0.7515  0.7003
    1OL    C116  233   1.916   2.976   5.864  0.2833  0.4157 -0.3168
    1OL    H16R  234   2.002   3.029   5.907 -0.0771  0.9098 -0.1915
    1OL    H16S  235   1.828   2.988   5.928  0.8017  2.6297  0.0427
    1OL    C117  236   1.877   3.033   5.722  0.0904  0.5404 -0.3134
    1OL    H17R  237   1.791   2.976   5.686  0.9164 -0.1629 -1.2244
    1OL    H17S  238   1.953   3.019   5.645 -0.9426 -0.6345 -1.1379
    1OL    C118  239   1.826   3.176   5.730 -0.0668  0.3219  0.9299
    1OL    H18R  240   1.908   3.234   5.773  0.7438 -0.7047  0.7775
    1OL    H18S  241   1.741   3.183   5.799 -0.6207  0.0369  0.2843
    1OL    H18T  242   1.789   3.211   5.633  0.1352 -0.0500  0.7214
    1PA    C116  243   4.222   3.692   5.293  0.1118 -0.2388 -0.0740
    1PA    H16R  244   4.294   3.772   5.305  2.1363 -2.4215  2.9427
    1PA    H16S  245   4.208   3.694   5.184 -1.0756 -2.5302  0.0117
    1PA    H16T  246   4.270   3.596   5.314  0.8439  0.0337 -0.5009
    1PA    C115  247   4.094   3.714   5.375  0.3688  0.0432 -0.3209
    1PA    H15R  248   4.039   3.803   5.343 -2.4568 -1.4197  0.2649
    1PA    H15S  249   4.037   3.623   5.356  2.0675 -0.8138 -1.4514
    1PA    C114  250   4.133   3.727   5.522  0.0428 -0.1274 -0.1382
    1PA    H14R  251   4.196   3.641   5.545 -0.0261 -0.4199 -1.0276
    1PA    H14S  252   4.199   3.814   5.533 -0.3680 -0.1078  2.5916
    1PA    C113  253   4.021   3.733   5.630  0.0554  0.2385  0.3354
    1PA    H13R  254   4.063   3.728   5.731 -1.1671  1.8242  0.9607
    1PA    H13S  255   3.980   3.834   5.616  0.5061  0.1587 -1.7239
    1PA    C112  256   3.910   3.632   5.615 -0.6222  0.2021 -0.8715
    1PA    H12R  257   3.863   3.639   5.516 -1.3556 -1.3085 -0.6574
    1PA    H12S  258   3.943   3.533   5.647 -2.0721  0.1692  0.5789
    1PA    C111  259   3.795   3.663   5.712 -0.1081  0.6885  0.3326
    1PA    H11R  260   3.837   3.659   5.813  1.9327 -0.2617 -0.5202
    1PA    H11S  261   3.758   3.761   5.682  0.4472  1.1754  1.2171
    1PA    C110  262   3.675   3.565   5.699  0.1258 -0.2840  0.1026
    1PA    H10R  263   3.589   3.609   5.750  0.2709 -0.5542  0.5829
    1PA    H10S  264   3.653   3.545   5.594  0.5371  1.0294 -0.2435
    1PA     C19  265   3.697   3.423   5.769 -0.6369  0.2036  0.0372
    1PA     H9R  266   3.623   3.351   5.731  0.9406 -0.6528 -1.4784
    1PA     H9S  267   3.792   3.385   5.731 -0.8318 -0.4816  0.2241
    1PA     C18  268   3.709   3.436   5.929 -0.0244 -0.8372 -0.3611
    1PA     H8R  269   3.738   3.335   5.955  4.9030  1.0099  1.8507
    1PA     H8S  270   3.788   3.504   5.961  0.3976 -1.9487  1.0019
    1PA     C17  271   3.575   3.476   5.995 -0.3023 -0.1185  0.8049
    1PA     H7R  272   3.538   3.572   5.959 -1.4228 -1.0938 -0.6766
    1PA     H7S  273   3.500   3.404   5.963 -1.2235  0.3344  1.8856
    1PA     C16  274   3.598   3.490   6.149 -0.1848 -0.0551  0.3742
    1PA     H6R  275   3.672   3.567   6.170  1.9243 -2.0562  0.4214
    1PA     H6S  276   3.502   3.504   6.200 -1.0062 -0.7387 -0.9613
    1PA     C15  277   3.656   3.365   6.215 -0.8275  0.4203  0.4748
    1PA     H5R  278   3.754   3.339   6.173  0.1129 -0.0188  2.8577
    1PA     H5S  279   3.680   3.394   6.318  3.2469  1.9266 -0.7836
    1PA     C14  280   3.558   3.245   6.219  0.1997 -0.9094  0.0885
    1PA     H4R  281   3.465   3.263   6.272 -0.1896  0.9965 -1.1791
    1PA     H4S  282   3.525   3.215   6.119  0.2000 -2.1692  0.4614
    1PA     C13  283   3.632   3.130   6.286  0.3093  0.2250 -1.0619
    1PA     H3R  284   3.712   3.100   6.218  1.9186  0.1968  0.7938
    1PA     H3S  285   3.684   3.176   6.370 -1.6704  2.2550 -0.9174
    1PA     C12  286   3.540   3.005   6.329 -1.0602 -0.6460  0.8444
    1PA     H2R  287   3.460   2.984   6.257 -1.7877  4.1986  0.0184
    1PA     H2S  288   3.611   2.923   6.340 -1.4342 -0.8885  1.4993
    1PC     C11  289   3.471   3.025   6.464 -0.1791 -0.4610  0.1160
    1PC     O12  290   3.452   3.136   6.518 -0.1466  0.7629 -0.0450
    1PC     O11  291   3.449   2.908   6.515  0.3060 -0.3575 -0.4427
    1PC      C1  292   3.436   2.896   6.659 -0.6475 -0.0709 -0.2395
    1PC      HR  293   3.442   2.791   6.692  3.0870 -0.1173 -0.8528
    1PC      HS  294   3.518   2.954   6.702  0.4253 -2.2632  0.7835
    1PC      C2  295   3.305   2.956   6.722 -0.2236 -0.1752 -0.6612
    1PC      HX  296   3.318   3.064   6.713  1.4883 -0.2907  0.2651
    1PC      C3  297   3.291   2.919   6.872 -0.1616  0.2763 -0.5181
    1PC      HA  298   3.212   2.978   6.919 -0.2398  0.4618 -0.8751
    1PC      HB  299   3.264   2.814   6.888  2.4536 -0.4966 -0.9078
    1PC     O31  300   3.415   2.941   6.946 -0.1497  0.0698  0.2303
    1PC     P31  301   3.451   3.073   7.018  0.4409 -0.1306 -0.1393
    1PC     O32  302   3.409   3.055   7.169 -0.2183 -0.0000  0.2079
    1PC     C31  303   3.489   2.985   7.272 -0.1099  1.0905  0.0801
    1PC     H1A  304   3.443   2.888   7.293  2.0669 -0.0438 -0.2797
    1PC     H1B  305   3.588   2.956   7.236 -0.9310 -0.6468 -0.8615
    1PC     C32  306   3.495   3.051   7.408  0.5638  1.0789 -0.0469
    1PC     H2A  307   3.392   3.079   7.432 -0.1374 -1.3463 -0.0020
    1PC     H2B  308   3.522   2.979   7.486  0.8102  0.8944 -0.3035
    1PC     N31  309   3.586   3.162   7.432  0.4059 -0.0204  0.4493
    1PC     C33  310   3.565   3.269   7.323  0.5074  0.1734 -1.0647
    1PC     H3A  311   3.457   3.267   7.305  0.5190  0.0098 -1.1176
    1PC     H3B  312   3.581   3.371   7.358  0.3952  0.0420 -0.6314
    1PC     H3C  313   3.614   3.233   7.232 -2.9377  0.3183 -3.0677
    1PC     C34  314   3.566   3.223   7.567 -0.1038  0.4409  0.6916
    1PC     H4A  315   3.636   3.304   7.583  1.3379 -0.2703 -1.7091
    1PC     H4B  316   3.469   3.272   7.577 -0.5883  0.0242 -1.5468
    1PC     H4C  317   3.578   3.141   7.638 -1.4895  0.5419  1.0539
    1PC     C35  318   3.729   3.112   7.430 -0.4471  0.5095 -0.2711
    1PC     H5A  319   3.797   3.195   7.450 -2.2299  2.2394 -1.1103
    1PC     H5B  320   3.752   3.078   7.329  0.5275 -0.8432  0.3958
    1PC     H5C  321   3.742   3.029   7.500  0.6425  1.2862  0.4672
    1PC     O33  322   3.597   3.081   7.014 -0.1646  0.2857  0.0673
    1PC     O34  323   3.370   3.180   6.963  0.1240  0.4976  0.0575
    1PC     O21  324   3.197   2.896   6.649  0.4444 -0.6018 -0.3369
    1PC     C21  325   3.083   2.970   6.641  0.3734 -0.1378  0.8342
    1PC     O22  326   3.060   3.068   6.710  0.1758  0.0257 -0.9288
    1OL     C12  327   2.982   2.908   6.552 -0.5729 -0.0333 -0.1413
    1OL     H2R  328   2.927   2.998   6.523 -0.3178  0.7523  1.7306
    1OL     H2S  329   2.927   2.839   6.615 -0.2328  0.8997  1.1960
    1OL     C13  330   3.030   2.836   6.425 -0.1005 -0.2766  0.0256
    1OL     H3R  331   2.938   2.788   6.390 -0.9101  0.9179  0.4651
    1OL     H3S  332   3.103   2.767   6.467 -0.4573 -1.4947 -1.3441
    1OL     C14  333   3.098   2.943   6.332 -0.0792 -0.4401 -0.7244
    1OL     H4R  334   3.192   2.961   6.385 -1.6381  2.4978  1.2090
    1OL     H4S  335   3.042   3.037   6.331  0.1325 -0.2383  1.7600
    1OL     C15  336   3.142   2.900   6.188  0.4902  0.1205 -0.4874
    1OL     H5R  337   3.187   2.982   6.131  1.3553 -0.3817 -0.5339
    1OL     H5S  338   3.043   2.881   6.145  1.3180  0.6469 -2.6662
    1OL     C16  339   3.226   2.772   6.182  0.0149  0.8004  0.3281
    1OL     H6R  340   3.171   2.683   6.216  1.8460 -0.5748 -0.2196
    1OL     H6S  341   3.314   2.779   6.245  1.3436 -2.1652 -1.0460
    1OL     C17  342   3.259   2.733   6.037  0.1259 -0.0545  0.3222
    1OL     H7R  343   3.258   2.820   5.971  0.4145 -1.3636 -1.4811
    1OL     H7S  344   3.173   2.679   5.998  0.6353 -0.7773  0.1748
    1OL     C18  345   3.387   2.638   6.029  0.9448 -0.3440  0.0667
    1OL     H8R  346   3.412   2.625   5.924  2.2483 -0.2098  0.3524
    1OL     H8S  347   3.365   2.537   6.065 -0.5155 -0.9456 -2.4341
    1OL     C19  348   3.504   2.679   6.110 -0.5164 -0.0179 -0.9689
    1OL     H9R  349   3.513   2.635   6.209 -2.3099  2.6092  0.4158
    1OL    C110  350   3.600   2.763   6.072  0.6537 -0.3248 -0.3305
    1OL    H10R  351   3.669   2.796   6.149  1.1281  2.7034 -1.9481
    1OL    C111  352   3.597   2.834   5.946 -0.2901 -0.1404 -0.0374
    1OL    H11R  353   3.498   2.836   5.901  0.3144  1.9571 -1.3442
    1OL    H11S  354   3.661   2.770   5.885 -0.2875  1.7690 -2.1204
    1OL    C112  355   3.672   2.968   5.940 -0.2368  0.0769 -0.1255
    1OL    H12R  356   3.778   2.942   5.943  0.1217  1.4080 -0.9088
    1OL    H12S  357   3.648   3.032   6.025  0.1678  2.1690 -1.5593
    1OL    C113  358   3.635   3.062   5.819 -0.6715 -0.3509 -0.1594
    1OL    H13R  359   3.696   3.152   5.837 -0.2869 -0.7585  0.5993
    1OL    H13S  360   3.531   3.091   5.832 -0.4504  1.1105 -1.4705
    1OL    C114  361   3.666   3.011   5.677 -1.0276 -0.4946 -0.3559
    1OL    H14R  362   3.608   2.924   5.647 -0.7389 -1.4286  1.7725
    1OL    H14S  363   3.773   2.989   5.682 -0.7481  1.0160  1.0051
    1OL    C115  364   3.653   3.116   5.565  0.4406  0.2935 -0.9748
    1OL    H15R  365   3.724   3.199   5.575  0.0183  0.5249  0.2681
    1OL    H15S  366   3.552   3.157   5.577  1.2322  1.8110  0.8224
    1OL    C116  367   3.664   3.046   5.425 -0.3489 -0.3398  0.1848
    1OL    H16R  368   3.583   2.975   5.405  0.3052 -0.8706 -0.6323
    1OL    H16S  369   3.756   2.990   5.410 -1.0600 -1.6536  0.6631
    1OL    C117  370   3.653   3.137   5.297  0.6845 -0.0554 -0.5170
    1OL    H17R  371   3.552   3.178   5.306  0.1893 -1.7096  1.9818
    1OL    H17S  372   3.650   3.075   5.207  0.0548  2.9320 -2.6332
    1OL    C118  373   3.764   3.243   5.281  0.6533 -0.5093  0.4587
    1OL    H18R  374   3.743   3.284   5.183  0.0327 -1.5089  0.1687
    1OL    H18S  375   3.859   3.190   5.272  0.3494 -0.8250 -0.9860
    1OL    H18T  376   3.766   3.317   5.362  2.1502 -1.6943  1.5470
    1PA    C116  377   3.809   2.653   5.067 -0.1223 -0.1295 -0.0484
    1PA    H16R  378   3.747   2.591   5.001 -0.6724  0.8265 -0.4357
    1PA    H16S  379   3.863   2.573   5.118  0.3187  0.5654  0.5711
    1PA    H16T  380   3.879   2.709   5.005 -0.3115 -0.2459 -0.3717
    1PA    C115  381   3.725   2.726   5.174 -0.5046  0.2200  0.1610
    1PA    H15R  382   3.791   2.771   5.248 -1.9736  1.2777  0.8760
    1PA    H15S  383   3.687   2.807   5.111  0.6379 -0.5231 -1.5077
    1PA    C114  384   3.614   2.641   5.233 -0.1127  0.6157  0.2441
    1PA    H14R  385   3.530   2.709   5.252 -0.8023  0.4282 -2.0357
    1PA    H14S  386   3.579   2.572   5.156  2.8939 -1.1293  0.3907
    1PA    C113  387   3.640   2.569   5.369 -0.2900 -0.0512  0.0586
    1PA    H13R  388   3.539   2.549   5.407 -0.3243  2.3798  1.4024
    1PA    H13S  389   3.701   2.479   5.361  0.5495  0.5670 -0.5219
    1PA    C112  390   3.703   2.662   5.472  0.3705 -0.6969 -0.2295
    1PA    H12R  391   3.808   2.685   5.455 -0.2120  2.3601  0.0463
    1PA    H12S  392   3.652   2.759   5.466  3.0421  0.9985  2.8464
    1PA    C111  393   3.672   2.602   5.612  0.1319 -0.2386 -0.0493
    1PA    H11R  394   3.688   2.678   5.689 -0.1885 -1.2852  1.0762
    1PA    H11S  395   3.566   2.575   5.614  0.7868 -3.5821 -4.3382
    1PA    C110  396   3.764   2.485   5.647 -0.1728  0.1018  0.1926
    1PA    H10R  397   3.716   2.403   5.593 -0.6018 -0.9695  2.1127
    1PA    H10S  398   3.865   2.497   5.608 -0.3646 -0.0978 -0.3610
    1PA     C19  399   3.766   2.441   5.797  0.2630  0.2002  0.1017
    1PA     H9R  400   3.777   2.526   5.866 -1.3920  0.3768  0.1623
    1PA     H9S  401   3.672   2.398   5.832  0.1155 -1.0104 -1.7070
    1PA     C18  402   3.877   2.337   5.831  0.1113  0.8512 -0.1249
    1PA     H8R  403   3.859   2.245   5.773 -0.8090  1.2829 -0.5403
    1PA     H8S  404   3.977   2.369   5.802  0.3232 -0.8797 -1.3923
    1PA     C17  405   3.895   2.306   5.981 -0.7341  0.1140  0.2206
    1PA     H7R  406   3.900   2.400   6.038 -0.9469 -0.7318  1.6751
    1PA     H7S  407   3.800   2.261   6.009  0.5102 -2.7608 -0.0343
    1PA     C16  408   4.020   2.223   6.011 -0.9648  0.0273 -0.3713
    1PA     H6R  409   4.002   2.120   5.981 -1.0342  0.5319 -2.0982
    1PA     H6S  410   4.103   2.253   5.946  0.9756 -0.4953  1.8028
    1PA     C15  411   4.060   2.229   6.158  0.1879 -0.4084 -0.0655
    1PA     H5R  412   4.167   2.207   6.166  0.3674 -0.6538 -2.6952
    1PA     H5S  413   4.051   2.331   6.193 -1.1051 -0.9920  1.3554
    1PA     C14  414   3.971   2.121   6.236  0.3340  0.1880  0.5786
    1PA     H4R  415   3.867   2.143   6.213  0.2417  0.2956  1.0843
    1PA     H4S  416   4.003   2.020   6.210  1.5624  0.4818  0.8866
    1PA     C13  417   3.991   2.125   6.389  0.9363  0.5516 -0.5565
    1PA     H3R  418   4.094   2.100   6.413  0.7121 -0.0065 -0.1433
    1PA     H3S  419   3.951   2.224   6.413 -0.9735 -0.2548 -0.3078
    1PA     C12  420   3.903   2.024   6.471  0.3241  0.3109 -0.3508
    1PA     H2R  421   3.802   2.042   6.436  0.4357  1.7728  0.0695
    1PA     H2S  422   3.915   1.919   6.441 -0.2636  0.5448 -1.4316
    1PC     C11  423   3.920   2.049   6.620  0.5932  0.1585 -0.8247
    1PC     O12  424   4.027   2.049   6.674  0.1188  0.0474  0.2797
    1PC     O11  425   3.802   2.083   6.680 -0.3021  0.3085 -0.1369
    1PC      C1  426   3.798   2.057   6.826  0.9372  0.1548 -0.2390
    1PC      HR  427   3.804   1.948   6.840 -0.9903 -0.2716 -2.3119
    1PC      HS  428   3.883   2.104   6.874 -0.1323  1.7997  0.0756
    1PC      C2  429   3.664   2.114   6.894 -0.1747 -0.4667 -0.5668
    1PC      HX  430   3.688   2.103   7.000  0.9855  2.1822 -0.5159
    1PC      C3  431   3.546   2.032   6.852  0.4841  0.1465 -0.2364
    1PC      HA  432   3.449   2.081   6.871 -0.5057 -1.9695  0.3293
    1PC      HB  433   3.564   2.025   6.745 -0.5605  1.9440 -0.5532
    1PC     O31  434   3.546   1.891   6.894  0.4163  0.1848 -0.1218
    1PC     P31  435   3.517   1.859   7.048  0.1126  0.0248 -0.0757
    1PC     O32  436   3.441   1.714   7.046 -0.1725 -0.0340  0.5978
    1PC     C31  437   3.515   1.593   7.071  0.2968 -0.0223 -0.9321
    1PC     H1A  438   3.580   1.564   6.988  0.4118 -1.2790 -0.4164
    1PC     H1B  439   3.569   1.601   7.166  0.0435  0.2509 -0.8112
    1PC     C32  440   3.404   1.481   7.102 -0.8536 -0.5018  0.0498
    1PC     H2A  441   3.453   1.387   7.126 -0.9240 -0.2977  1.0230
    1PC     H2B  442   3.354   1.510   7.195 -0.8904 -0.9329  0.1628
    1PC     N31  443   3.304   1.443   7.000 -0.2170  0.6114 -0.0702
    1PC     C33  444   3.363   1.457   6.868 -0.2406  0.1518 -0.1418
    1PC     H3A  445   3.281   1.442   6.798 -1.3171  0.9945  0.9237
    1PC     H3B  446   3.396   1.560   6.849 -0.6508  0.6110  1.6035
    1PC     H3C  447   3.442   1.383   6.860  0.4203  0.7969  0.3768
    1PC     C34  448   3.249   1.305   7.018  0.6759  0.4049  0.8819
    1PC     H4A  449   3.184   1.289   6.932  3.1777  0.3949 -1.0745
    1PC     H4B  450   3.330   1.232   7.021  1.0146  0.8153  2.5205
    1PC     H4C  451   3.208   1.303   7.120  2.2247 -2.0575  1.4956
    1PC     C35  452   3.189   1.543   7.014 -0.5243  0.2659 -0.0838
    1PC     H5A  453   3.133   1.541   6.920  1.4572  0.4327 -1.3082
    1PC     H5B  454   3.234   1.641   7.030 -1.8548  1.1087 -1.4168
    1PC     H5C  455   3.127   1.525   7.102 -0.5813  2.6701  0.4026
    1PC     O33  456   3.650   1.841   7.116 -0.0401 -0.2997  0.0398
    1PC     O34  457   3.418   1.960   7.092  0.1368  0.2905 -0.0961
    1PC     O21  458   3.645   2.254   6.861 -0.0997 -0.5234 -0.2070
    1PC     C21  459   3.748   2.339   6.881 -0.1627 -0.6074 -0.2879
    1PC     O22  460   3.842   2.324   6.961  0.0433  0.3601 -0.1159
    1OL     C12  461   3.726   2.470   6.802 -0.1066 -0.1432 -0.0134
    1OL     H2R  462   3.802   2.544   6.826 -0.8610  0.3780  0.7884
    1OL     H2S  463   3.632   2.517   6.831  2.2421  3.5846  1.8132
    1OL     C13  464   3.730   2.437   6.654 -0.4576  1.1619 -0.7360
    1OL     H3R  465   3.649   2.364   6.643  1.3918 -0.9079 -0.8457
    1OL     H3S  466   3.828   2.394   6.633 -0.6162  0.2378  0.3839
    1OL     C14  467   3.706   2.554   6.556  0.0459  0.3779 -0.3644
    1OL     H4R  468   3.776   2.633   6.584  0.0891  0.2394 -0.0822
    1OL     H4S  469   3.606   2.591   6.578  0.1374  0.0303  0.6765
    1OL     C15  470   3.723   2.511   6.410 -0.3338  0.2922 -0.2905
    1OL     H5R  471   3.818   2.461   6.391 -1.2015 -1.2791 -0.5833
    1OL     H5S  472   3.716   2.600   6.348  1.2772  0.1698 -0.6503
    1OL     C16  473   3.607   2.425   6.356 -0.0507  0.1040  0.7268
    1OL     H6R  474   3.514   2.481   6.349  0.0308  0.0591 -0.7261
    1OL     H6S  475   3.584   2.338   6.419 -0.4570 -0.8259 -0.6751
    1OL     C17  476   3.636   2.369   6.222 -0.6120 -0.0552  0.7999
    1OL     H7R  477   3.722   2.303   6.228 -0.2766  0.2927 -0.1173
    1OL     H7S  478   3.656   2.445   6.146 -2.2126 -1.8926 -1.5327
    1OL     C18  479   3.524   2.274   6.157 -0.3598  0.3961 -0.2277
    1OL     H8R  480   3.556   2.260   6.053 -1.5314  0.9606 -0.6727
    1OL     H8S  481   3.424   2.318   6.163 -0.0440  0.9944  0.8161
    1OL     C19  482   3.519   2.142   6.230  0.0081  0.3755 -0.1155
    1OL     H9R  483   3.484   2.139   6.333  2.8804  0.4535  0.9257
    1OL    C110  484   3.562   2.034   6.172 -0.3231 -0.0851 -0.0695
    1OL    H10R  485   3.555   1.939   6.224 -1.2613 -1.1205 -2.0507
    1OL    C111  486   3.619   2.027   6.032 -0.3598 -0.3074 -0.0913
    1OL    H11R  487   3.725   2.055   6.027  0.1552 -2.2922 -0.9382
    1OL    H11S  488   3.566   2.089   5.960  2.1711  0.9945 -0.8978
    1OL    C112  489   3.599   1.890   5.976 -0.0729  0.6208 -0.3502
    1OL    H12R  490   3.494   1.863   5.979 -0.3199  1.4382 -1.4217
    1OL    H12S  491   3.653   1.819   6.039  1.3796  0.5870 -1.5886
    1OL    C113  492   3.658   1.883   5.831  0.3271 -1.0325  0.3592
    1OL    H13R  493   3.764   1.906   5.846  0.0873  0.7214 -0.4588
    1OL    H13S  494   3.614   1.963   5.771  0.9806 -0.8582  0.1025
    1OL    C114  495   3.639   1.743   5.766 -0.1182  0.3065  0.5474
    1OL    H14R  496   3.654   1.677   5.852 -0.2331  1.6483  1.6045
    1OL    H14S  497   3.713   1.731   5.687 -0.5608 -0.6559  0.2652
    1OL    C115  498   3.498   1.724   5.708 -0.4824 -0.7876 -0.2832
    1OL    H15R  499   3.467   1.802   5.638 -2.0833 -1.5406 -0.4444
    1OL    H15S  500   3.426   1.726   5.790 -1.7522  0.9032 -1.4072
    1OL    C116  501   3.487   1.580   5.654  0.3876  0.2793  0.3328
    1OL    H16R  502   3.544   1.569   5.561 -0.5352  0.7072 -0.2868
    1OL    H16S  503   3.389   1.577   5.607  0.1032  0.8034  0.8903
    1OL    C117  504   3.490   1.463   5.755 -0.4670 -0.3976 -0.7010
    1OL    H17R  505   3.596   1.448   5.780  0.0017  2.4097 -0.8159
    1OL    H17S  506   3.463   1.368   5.709 -0.9110  0.2507 -1.7919
    1OL    C118  507   3.399   1.487   5.879  0.1327 -0.0566 -0.4550
    1OL    H18R  508   3.295   1.512   5.857 -0.2655 -0.4280  0.9383
    1OL    H18S  509   3.447   1.561   5.943 -1.2773 -0.7141  1.4559
    1OL    H18T  510   3.392   1.393   5.935  2.5045 -1.1099 -1.8806
    1PA    C116  511   2.899   2.053   5.113  0.2125 -0.0553 -0.2415
    1PA    H16R  512   2.827   1.985   5.158 -1.2879  1.8774  0.3624
    1PA    H16S  513   2.854   2.092   5.021 -0.9513  0.2194  0.4305
    1PA    H16T  514   2.911   2.144   5.174 -1.5497 -1.1577  1.8206
    1PA    C115  515   3.038   1.981   5.103  0.1076  0.0918  0.0431
    1PA    H15R  516   3.032   1.880   5.063  0.2777 -0.9875  2.5927
    1PA    H15S  517   3.096   2.044   5.035 -0.8468 -0.8575 -1.6656
    1PA    C114  518   3.111   1.988   5.236 -1.0589 -0.1326 -0.4540
    1PA    H14R  519   3.216   1.976   5.211 -0.7972 -0.1771  0.6330
    1PA    H14S  520   3.099   2.083   5.289  1.7530 -1.0524  1.9517
    1PA    C113  521   3.077   1.870   5.328 -0.0710 -0.5135 -0.8633
    1PA    H13R  522   2.979   1.894   5.369 -0.5654 -2.8403 -0.6023
    1PA    H13S  523   3.075   1.775   5.274  2.8004 -1.7352  1.0765
    1PA    C112  524   3.174   1.852   5.443 -1.3039  0.2356 -0.9412
    1PA    H12R  525   3.268   1.811   5.405 -3.0678 -2.8950 -2.0891
    1PA    H12S  526   3.188   1.950   5.489 -0.7011 -0.8703  1.3149
    1PA    C111  527   3.126   1.750   5.551  0.2774  0.4311  0.1381
    1PA    H11R  528   3.099   1.655   5.503 -0.0201  0.6220 -0.0713
    1PA    H11S  529   3.198   1.728   5.630  0.2863 -0.6104 -0.1528
    1PA    C110  530   3.002   1.792   5.632  0.2661  0.3457 -0.0036
    1PA    H10R  531   3.029   1.884   5.682 -1.8311  1.3954 -0.7358
    1PA    H10S  532   2.917   1.809   5.565  0.2463 -0.4792 -0.2028
    1PA     C19  533   2.971   1.681   5.736  1.0601  0.4936  0.3550
    1PA     H9R  534   2.866   1.689   5.766  1.3878 -0.0421  1.6662
    1PA     H9S  535   2.986   1.582   5.693 -0.3337 -0.0744  1.1563
    1PA     C18  536   3.052   1.700   5.869  0.3204 -0.0505 -0.8339
    1PA     H8R  537   3.158   1.725   5.858  0.4959 -1.3059 -2.2256
    1PA     H8S  538   3.011   1.782   5.927 -1.2517 -1.8545  0.6794
    1PA     C17  539   3.034   1.577   5.962  0.0386  0.3756 -0.0807
    1PA     H7R  540   2.933   1.548   5.989  1.1598 -3.2199  0.5289
    1PA     H7S  541   3.063   1.484   5.914 -0.0770  0.6831 -0.7492
    1PA     C16  542   3.121   1.625   6.085  0.1755  0.1170 -0.4702
    1PA     H6R  543   3.226   1.639   6.057 -0.1055  1.8909 -0.6956
    1PA     H6S  544   3.084   1.723   6.115  0.1567  0.1758 -0.6865
    1PA     C15  545   3.110   1.529   6.201  0.4904 -0.3375  0.8318
    1PA     H5R  546   3.130   1.578   6.297 -3.6034  1.1411  1.0370
    1PA     H5S  547   3.003   1.511   6.212  0.4493  0.3517  1.6248
    1PA     C14  548   3.184   1.387   6.188 -0.0105 -0.2376  0.1580
    1PA     H4R  549   3.138   1.336   6.104  1.3407  1.1738 -1.4676
    1PA     H4S  550   3.287   1.412   6.163 -0.2486 -0.1714 -0.7787
    1PA     C13  551   3.188   1.304   6.315 -0.7615 -0.2575 -0.1298
    1PA     H3R  552   3.218   1.203   6.283 -3.2192  0.1107 -4.0086
    1PA     H3S  553   3.262   1.339   6.387 -1.9884 -1.3652  1.6895
    1PA     C12  554   3.043   1.286   6.371 -0.9021 -0.2577 -0.2858
    1PA     H2R  555   2.993   1.380   6.397 -0.5132 -0.0900 -0.1374
    1PA     H2S  556   2.979   1.239   6.297  1.1542  0.7006 -2.7804
    1PC     C11  557   3.035   1.195   6.492 -0.1840 -0.1777 -0.2802
    1PC     O12  558   3.131   1.135   6.542 -0.5881 -0.1038  0.1540
    1PC     O11  559   2.914   1.179   6.546  0.3581 -0.4347  1.1347
    1PC      C1  560   2.895   1.091   6.661  0.6414 -0.4271 -0.3958
    1PC      HR  561   2.792   1.057   6.673  0.3690  0.8290  0.9167
    1PC      HS  562   2.944   0.996   6.638 -1.4631 -1.1777 -1.9372
    1PC      C2  563   2.952   1.151   6.784  0.1461  0.0842  0.0835
    1PC      HX  564   3.060   1.153   6.767  0.3649 -0.1623  1.3845
    1PC      C3  565   2.927   1.067   6.908 -0.0608  0.1772 -0.1783
    1PC      HA  566   2.822   1.069   6.938 -0.4024  0.4429 -1.3422
    1PC      HB  567   2.950   0.961   6.896  0.0157  0.2763 -0.9705
    1PC     O31  568   3.008   1.122   7.015  0.3937 -0.2434 -0.6683
    1PC     P31  569   2.952   1.162   7.158 -0.1880  0.0790  0.0307
    1PC     O32  570   2.894   1.310   7.131  0.3361  0.4124 -0.3422
    1PC     C31  571   2.750   1.342   7.119 -0.3993  0.2751  0.1685
    1PC     H1A  572   2.740   1.421   7.044  0.7542  0.8886  0.6596
    1PC     H1B  573   2.694   1.262   7.070 -2.8184  2.1526 -0.2189
    1PC     C32  574   2.682   1.385   7.246  0.7245 -0.0431  0.1252
    1PC     H2A  575   2.578   1.407   7.225  0.6877 -0.5650 -0.2544
    1PC     H2B  576   2.690   1.308   7.322 -1.1209 -0.0551  0.3085
    1PC     N31  577   2.732   1.503   7.321 -0.2605  0.2034 -0.2874
    1PC     C33  578   2.651   1.511   7.448  0.7611  0.1265  0.9760
    1PC     H3A  579   2.687   1.431   7.512 -0.8043 -0.9943  0.4836
    1PC     H3B  580   2.664   1.598   7.512  1.6835  0.0401  0.9237
    1PC     H3C  581   2.549   1.497   7.413  0.7152 -1.4184  1.6900
    1PC     C34  582   2.876   1.472   7.368 -0.0733  0.3200  0.7822
    1PC     H4A  583   2.872   1.366   7.395  0.7968  0.1606  0.2967
    1PC     H4B  584   2.938   1.484   7.279 -0.2375  1.0854  0.7694
    1PC     H4C  585   2.904   1.543   7.446  0.3838  0.7204  0.2521
    1PC     C35  586   2.725   1.627   7.242  0.7475 -0.0743  0.1860
    1PC     H5A  587   2.621   1.649   7.218  0.9850  1.4305  0.4961
    1PC     H5B  588   2.784   1.621   7.151 -0.9694  0.9001 -1.0090
    1PC     H5C  589   2.753   1.714   7.302  2.2466 -2.1503  2.6144
    1PC     O33  590   2.835   1.077   7.190  0.2005  0.4479  0.0827
    1PC     O34  591   3.064   1.178   7.260 -0.5621  0.4141  0.5027
    1PC     O21  592   2.883   1.279   6.801  0.1275  0.5367 -0.9322
    1PC     C21  593   2.949   1.395   6.784 -0.3731  0.2696 -0.7312
    1PC     O22  594   3.067   1.401   6.755 -0.0766  0.1701 -0.8420
    1OL     C12  595   2.863   1.516   6.811 -0.1623 -0.1836 -0.4550
    1OL     H2R  596   2.904   1.583   6.887 -1.5376  1.1097 -0.8319
    1OL     H2S  597   2.759   1.493   6.837 -0.1516 -0.9020 -1.0434
    1OL     C13  598   2.848   1.597   6.689 -0.8372  0.1742  0.3633
    1OL     H3R  599   2.944   1.613   6.638 -0.8768 -0.2940  0.1382
    1OL     H3S  600   2.807   1.694   6.717  0.5966  1.2727 -1.2197
    1OL     C14  601   2.759   1.529   6.587  0.3460 -0.0624  0.6338
    1OL     H4R  602   2.660   1.530   6.634 -0.1056 -0.0137 -0.3019
    1OL     H4S  603   2.794   1.428   6.565  0.2565  0.1516 -0.4789
    1OL     C15  604   2.746   1.614   6.457 -0.3538  0.4905  0.6043
    1OL     H5R  605   2.846   1.647   6.428  0.3096 -0.6741  1.5538
    1OL     H5S  606   2.702   1.711   6.478  0.4295  1.1999 -0.8905
    1OL     C16  607   2.677   1.545   6.339  0.2757 -0.2497  0.3637
    1OL     H6R  608   2.734   1.456   6.309  2.3074  0.4580  2.0425
    1OL     H6S  609   2.672   1.616   6.256  0.9560 -0.7040 -0.0697
    1OL     C17  610   2.534   1.510   6.365  0.7758 -0.8221 -0.6988
    1OL     H7R  611   2.488   1.605   6.393  0.2106 -1.0762 -0.7572
    1OL     H7S  612   2.530   1.450   6.457 -2.7465  0.7077  0.2334
    1OL     C18  613   2.452   1.463   6.242  0.5767  0.1340  0.4115
    1OL     H8R  614   2.352   1.433   6.272 -0.0964  2.1512  0.2798
    1OL     H8S  615   2.504   1.383   6.188 -2.5011 -0.6782 -1.4656
    1OL     C19  616   2.432   1.586   6.152  0.0968 -0.5326 -0.8489
    1OL     H9R  617   2.410   1.679   6.204  0.2208 -1.7150  1.3615
    1OL    C110  618   2.431   1.591   6.020 -0.5663  0.1122 -0.0327
    1OL    H10R  619   2.410   1.686   5.971 -1.6284  0.0400  0.2770
    1OL    C111  620   2.444   1.470   5.931 -0.4588  0.1552 -0.7541
    1OL    H11R  621   2.360   1.469   5.861 -2.4688 -0.7785  1.6057
    1OL    H11S  622   2.442   1.375   5.985 -1.6741 -0.2186 -1.4177
    1OL    C112  623   2.576   1.478   5.837 -0.2649 -0.2904  0.5003
    1OL    H12R  624   2.663   1.479   5.903 -1.1998  1.9181  1.7707
    1OL    H12S  625   2.588   1.577   5.792  0.1832 -0.3187  0.5616
    1OL    C113  626   2.600   1.371   5.732  0.0098 -0.2521 -0.1168
    1OL    H13R  627   2.692   1.396   5.679  0.8635 -2.1490  0.4418
    1OL    H13S  628   2.516   1.385   5.664 -0.2354  0.2106  0.2767
    1OL    C114  629   2.611   1.229   5.792 -0.1347  0.5087  0.8568
    1OL    H14R  630   2.523   1.199   5.850 -0.8613 -0.4320 -0.6904
    1OL    H14S  631   2.687   1.236   5.869  0.7719  0.8332 -0.0679
    1OL    C115  632   2.645   1.109   5.691  0.0169  0.0689  1.2160
    1OL    H15R  633   2.739   1.132   5.642  0.2078  0.1642  1.6223
    1OL    H15S  634   2.567   1.099   5.615  1.6327  3.2394 -0.9636
    1OL    C116  635   2.650   0.978   5.767 -0.0022 -0.4479  0.4116
    1OL    H16R  636   2.544   0.953   5.775 -0.2265  0.4582  0.3655
    1OL    H16S  637   2.690   1.016   5.862  0.3713  0.3992 -0.0800
    1OL    C117  638   2.743   0.878   5.706 -0.6198  0.1531  0.2135
    1OL    H17R  639   2.838   0.919   5.673 -0.2380 -0.4249  0.5698
    1OL    H17S  640   2.696   0.835   5.618 -1.0914  0.6236  0.2311
    1OL    C118  641   2.768   0.764   5.802  0.3882 -0.4039  0.3790
    1OL    H18R  642   2.840   0.782   5.882  0.7890 -1.2890  0.2317
    1OL    H18S  643   2.806   0.679   5.744  0.4675  0.2797 -0.5957
    1OL    H18T  644   2.676   0.740   5.854 -1.6092  0.6861 -2.5160
    1PA    C116  645   2.824   2.968   5.658 -0.8170 -0.0213  0.1333
    1PA    H16R  646   2.851   2.926   5.561 -0.3391 -0.7034  0.5559
    1PA    H16S  647   2.722   3.005   5.652 -0.0440  1.8956 -1.8926
    1PA    H16T  648   2.830   2.885   5.730  0.5616  0.0441  0.1116
    1PA    C115  649   2.930   3.062   5.711 -0.5748  0.8565  0.9205
    1PA    H15R  650   2.934   3.149   5.645  1.6127  0.7566  0.8706
    1PA    H15S  651   2.896   3.089   5.811 -2.6061 -0.9526  0.7562
    1PA    C114  652   3.069   2.993   5.730  0.7097  0.2328 -0.7418
    1PA    H14R  653   3.055   2.929   5.817 -1.7430  1.0218 -0.4953
    1PA    H14S  654   3.087   2.929   5.644 -1.0712  2.2593 -2.6721
    1PA    C113  655   3.184   3.097   5.752  0.6319  0.3041  0.0001
    1PA    H13R  656   3.274   3.039   5.771  0.9504  0.6493 -0.4656
    1PA    H13S  657   3.199   3.155   5.661  0.4919 -0.7650 -0.7158
    1PA    C112  658   3.152   3.198   5.873 -0.2788  0.4638  0.3052
    1PA    H12R  659   3.092   3.283   5.841  0.0483  0.0894 -1.3591
    1PA    H12S  660   3.086   3.136   5.935 -2.1531  0.7570 -1.3409
    1PA    C111  661   3.262   3.261   5.941  0.7991 -0.1502  0.4177
    1PA    H11R  662   3.317   3.185   5.997  1.4726  1.0898  1.4716
    1PA    H11S  663   3.327   3.303   5.864 -0.3939  1.0461  0.0460
    1PA    C110  664   3.228   3.370   6.044 -0.1092  0.4733 -0.4958
    1PA    H10R  665   3.319   3.416   6.083 -0.4726 -0.3292  1.3731
    1PA    H10S  666   3.159   3.446   6.006 -0.9389 -1.0772 -2.1803
    1PA     C19  667   3.152   3.303   6.157  0.2184 -0.5106  0.3164
    1PA     H9R  668   3.044   3.293   6.143  0.2655 -0.5105 -0.0406
    1PA     H9S  669   3.196   3.206   6.182  2.1262 -0.7057 -3.5300
    1PA     C18  670   3.142   3.401   6.279 -0.3662 -1.0895  0.3534
    1PA     H8R  671   3.242   3.402   6.322  0.1847  2.3596 -0.8213
    1PA     H8S  672   3.124   3.503   6.246 -0.4900 -0.4110  2.4490
    1PA     C17  673   3.042   3.372   6.390  0.0572 -0.3248 -0.2497
    1PA     H7R  674   2.947   3.349   6.341 -0.0431 -0.8997  0.2106
    1PA     H7S  675   3.076   3.281   6.439 -1.4928 -0.3957  0.7374
    1PA     C16  676   3.025   3.492   6.484 -0.1339  0.5431 -0.0591
    1PA     H6R  677   3.119   3.499   6.539 -1.2058 -0.0572  1.9322
    1PA     H6S  678   3.015   3.588   6.433  3.2759  0.5242 -0.8909
    1PA     C15  679   2.904   3.472   6.583  0.5165 -0.2375 -0.0203
    1PA     H5R  680   2.815   3.471   6.520 -0.2128 -1.8484  0.9886
    1PA     H5S  681   2.899   3.372   6.626  0.5498  0.1176  0.8296
    1PA     C14  682   2.894   3.575   6.703  0.0561 -0.4147  0.3222
    1PA     H4R  683   2.809   3.548   6.766 -0.9455 -2.3722 -1.8145
    1PA     H4S  684   2.987   3.558   6.758 -0.7000 -0.6667  1.5355
    1PA     C13  685   2.906   3.716   6.646  0.2727 -0.0482 -0.2127
    1PA     H3R  686   2.918   3.780   6.734  1.4743  2.8426 -2.3875
    1PA     H3S  687   2.997   3.730   6.588  1.4803 -2.4109  1.0059
    1PA     C12  688   2.779   3.769   6.574  0.0330 -0.3122  0.1707
    1PA     H2R  689   2.791   3.870   6.532 -0.8675  0.4281  1.6832
    1PA     H2S  690   2.753   3.697   6.496  0.8534 -0.6074  0.1639
    1PC     C11  691   2.665   3.770   6.676  0.0346  0.3853  0.8394
    1PC     O12  692   2.643   3.866   6.748 -0.0956  0.2103 -0.9686
    1PC     O11  693   2.602   3.653   6.701  0.5975  0.2747 -0.2464
    1PC      C1  694   2.492   3.647   6.796  0.4847  0.4360 -0.3056
    1PC      HR  695   2.461   3.746   6.830  0.6911  0.2081  0.5671
    1PC      HS  696   2.406   3.606   6.744  0.6783 -0.0209 -0.2652
    1PC      C2  697   2.530   3.565   6.923  0.1773 -0.7126  0.4748
    1PC      HX  698   2.442   3.558   6.988 -0.6924  0.9754 -0.4924
    1PC      C3  699   2.644   3.627   7.018  0.1918  0.6698  0.2239
    1PC      HA  700   2.735   3.611   6.959  0.3905 -1.8556  1.1591
    1PC      HB  701   2.624   3.731   7.046  1.1536  1.4363 -1.8178
    1PC     O31  702   2.666   3.556   7.140  0.7354 -0.1637  0.6478
    1PC     P31  703   2.751   3.603   7.268  0.2146 -0.5067  0.0073
    1PC     O32  704   2.837   3.468   7.293  0.3843  0.5733 -0.3917
    1PC     C31  705   2.955   3.439   7.221 -0.8081  0.7154 -0.2473
    1PC     H1A  706   3.033   3.515   7.230  1.2147 -1.4238  0.5890
    1PC     H1B  707   3.006   3.352   7.262 -4.2779  0.1413  3.1664
    1PC     C32  708   2.929   3.407   7.072  0.2539 -0.2241 -0.2212
    1PC     H2A  709   2.856   3.476   7.031  0.4316  0.5246  0.7088
    1PC     H2B  710   3.019   3.425   7.012 -0.6887  1.5552 -1.1443
    1PC     N31  711   2.888   3.269   7.043 -0.3168 -0.1680 -0.2335
    1PC     C33  712   2.774   3.214   7.127 -0.3460 -0.9254  0.4050
    1PC     H3A  713   2.683   3.258   7.087 -0.3258 -0.7312  0.5711
    1PC     H3B  714   2.773   3.106   7.115  4.0892 -0.7716 -2.6840
    1PC     H3C  715   2.785   3.253   7.228 -1.7191  2.3614 -0.6374
    1PC     C34  716   2.850   3.257   6.900  0.3873  0.4705 -0.2476
    1PC     H4A  717   2.837   3.153   6.867  2.3825 -0.4081  1.6269
    1PC     H4B  718   2.757   3.313   6.893 -0.2197 -0.5384 -0.4055
    1PC     H4C  719   2.929   3.304   6.841  1.4765 -1.3194 -0.2699
    1PC     C35  720   2.995   3.168   7.057  1.1882 -0.1293  0.0212
    1PC     H5A  721   2.951   3.070   7.036  1.3665 -0.4792  1.2629
    1PC     H5B  722   3.044   3.170   7.154  0.8362 -0.4473  0.2052
    1PC     H5C  723   3.067   3.194   6.980 -0.2372 -0.4261 -1.4526
    1PC     O33  724   2.844   3.713   7.227 -0.0462  0.2696 -0.2736
    1PC     O34  725   2.665   3.622   7.384  0.4255  0.0670  0.5438
    1PC     O21  726   2.568   3.431   6.877  0.2625 -0.0591  0.2055
    1PC     C21  727   2.466   3.349   6.833 -0.9581 -0.4438  0.2521
    1PC     O22  728   2.351   3.370   6.846 -0.5391  0.7112 -0.7170
    1OL     C12  729   2.516   3.231   6.759  0.3517  0.0055 -0.0857
    1OL     H2R  730   2.430   3.172   6.725 -1.7947  3.3476 -0.7045
    1OL     H2S  731   2.589   3.178   6.820  0.9520 -1.2221 -1.8222
    1OL     C13  732   2.590   3.280   6.635  0.2000  0.4631 -0.1491
    1OL     H3R  733   2.691   3.315   6.659  0.7923 -0.3885 -1.3670
    1OL     H3S  734   2.531   3.363   6.595  1.4444  0.5373 -1.8746
    1OL     C14  735   2.599   3.161   6.534  0.4401  0.6898 -0.6766
    1OL     H4R  736   2.499   3.125   6.509 -0.7337  0.2407  4.2690
    1OL     H4S  737   2.655   3.085   6.588  1.3154  1.6151 -0.2649
    1OL     C15  738   2.667   3.199   6.401  0.5627 -0.1787 -0.1560
    1OL     H5R  739   2.756   3.258   6.424 -0.3520  2.1573 -2.3484
    1OL     H5S  740   2.600   3.271   6.353 -0.1129 -1.6716 -1.4828
    1OL     C16  741   2.700   3.085   6.301 -0.0280 -0.4165  0.1379
    1OL     H6R  742   2.607   3.046   6.258  0.5111 -2.4720  0.8110
    1OL     H6S  743   2.758   3.005   6.347 -0.4974  0.0321  1.5169
    1OL     C17  744   2.785   3.149   6.179 -0.4357  0.7406  0.0425
    1OL     H7R  745   2.826   3.067   6.119  2.5457  3.7190 -2.1895
    1OL     H7S  746   2.872   3.205   6.214 -1.7578  0.9748  3.0460
    1OL     C18  747   2.704   3.231   6.086  0.4144  0.2680 -0.0031
    1OL     H8R  748   2.658   3.319   6.132 -0.4196 -0.4065  0.4566
    1OL     H8S  749   2.618   3.171   6.057 -1.1658  1.8520  1.2437
    1OL     C19  750   2.775   3.269   5.961 -0.0432 -0.4052  0.0459
    1OL     H9R  751   2.770   3.196   5.881 -0.3203  0.2975 -0.5797
    1OL    C110  752   2.837   3.383   5.946  0.0172 -0.0036  0.3704
    1OL    H10R  753   2.879   3.406   5.848 -0.5554 -3.5548 -0.7720
    1OL    C111  754   2.850   3.491   6.048 -0.0370 -0.5535  0.0230
    1OL    H11R  755   2.955   3.521   6.045  0.1654 -1.2031  0.4561
    1OL    H11S  756   2.817   3.460   6.148 -0.4900  0.7432  0.2792
    1OL    C112  757   2.763   3.613   6.008 -0.0937  0.3184  1.0330
    1OL    H12R  758   2.758   3.690   6.085  1.3253 -0.8202  2.2734
    1OL    H12S  759   2.664   3.570   5.990  0.5621 -0.7553 -0.0777
    1OL    C113  760   2.821   3.679   5.879 -0.2438 -0.6817 -0.5172
    1OL    H13R  761   2.780   3.619   5.797 -1.5760 -1.1298  0.4561
    1OL    H13S  762   2.929   3.668   5.874 -0.1957  0.4468 -2.2663
    1OL    C114  763   2.788   3.827   5.858  0.7380 -0.0718  0.2524
    1OL    H14R  764   2.843   3.886   5.933  1.4141 -1.3318  0.7696
    1OL    H14S  765   2.684   3.845   5.884  0.0542 -1.4573 -1.4292
    1OL    C115  766   2.833   3.897   5.725  0.4826  0.0938  0.0728
    1OL    H15R  767   2.936   3.862   5.716  1.0454  0.1395  4.9594
    1OL    H15S  768   2.835   4.004   5.749  0.9096 -0.3735  2.1826
    1OL    C116  769   2.749   3.861   5.602  0.3936  0.7044 -0.3012
    1OL    H16R  770   2.643   3.886   5.610  0.3262  0.4488 -0.3960
    1OL    H16S  771   2.755   3.757   5.570  2.1670  0.8870 -0.6174
    1OL    C117  772   2.797   3.936   5.479  0.2829 -0.3389 -0.6053
    1OL    H17R  773   2.905   3.946   5.471  0.4075 -1.6160 -0.6087
    1OL    H17S  774   2.764   4.039   5.466 -2.7397 -1.4335 -2.2485
    1OL    C118  775   2.753   3.857   5.355  0.0758 -0.2050 -0.3595
    1OL    H18R  776   2.646   3.836   5.359  0.1036 -0.5902 -1.5614
    1OL    H18S  777   2.808   3.763   5.342 -1.9953 -1.4705 -0.1990
    1OL    H18T  778   2.769   3.911   5.261 -4.0921 -0.1415 -1.1090
    1PA    C116  779   2.724   2.445   5.033  0.1867 -0.0889  0.3597
    1PA    H16R  780   2.695   2.435   4.928 -0.0300 -2.6446  0.6305
    1PA    H16S  781   2.772   2.347   5.037  0.9426  0.2289 -0.9421
    1PA    H16T  782   2.804   2.517   5.050 -1.9120  2.3423  0.3089
    1PA    C115  783   2.610   2.461   5.137 -0.5852  0.2141  0.3616
    1PA    H15R  784   2.558   2.556   5.134  2.1469  1.7923  1.4045
    1PA    H15S  785   2.540   2.381   5.110 -0.3963 -0.5410  2.0293
    1PA    C114  786   2.665   2.433   5.277 -0.6882  0.0310 -0.1368
    1PA    H14R  787   2.728   2.345   5.259  0.6154  0.7110  1.0304
    1PA    H14S  788   2.727   2.515   5.312 -2.2264  0.2158  2.2890
    1PA    C113  789   2.554   2.407   5.377 -0.1936 -0.3066 -0.4492
    1PA    H13R  790   2.512   2.502   5.410  0.7728  0.2419 -0.7890
    1PA    H13S  791   2.471   2.352   5.332 -0.9535  1.8440 -1.7246
    1PA    C112  792   2.599   2.347   5.512 -0.2552 -0.2592 -0.4271
    1PA    H12R  793   2.700   2.379   5.540 -0.3997 -0.8805  0.8562
    1PA    H12S  794   2.527   2.382   5.586  0.2423  1.7814 -0.8704
    1PA    C111  795   2.610   2.194   5.497  0.4563 -0.2754 -0.6565
    1PA    H11R  796   2.518   2.163   5.448 -0.0192 -1.4515  0.9220
    1PA    H11S  797   2.703   2.174   5.442  1.1524 -1.4610  0.9034
    1PA    C110  798   2.611   2.148   5.643  0.1274  0.3784 -0.1350
    1PA    H10R  799   2.693   2.194   5.698  0.5125  1.3952 -1.5315
    1PA    H10S  800   2.524   2.186   5.698  0.4388  1.9949 -0.7463
    1PA     C19  801   2.629   1.995   5.669  0.0039 -0.4495 -0.2779
    1PA     H9R  802   2.550   1.937   5.621 -0.8593  1.4058 -1.1400
    1PA     H9S  803   2.719   1.957   5.621  0.3728 -0.0574  0.0946
    1PA     C18  804   2.639   1.955   5.818 -0.3044 -0.9081  0.6647
    1PA     H8R  805   2.548   1.984   5.871  0.7882 -1.7309  3.0627
    1PA     H8S  806   2.646   1.847   5.811 -1.4070 -0.8530 -1.6529
    1PA     C17  807   2.761   2.010   5.894 -0.3667 -0.0404 -0.0466
    1PA     H7R  808   2.851   1.985   5.836 -1.0025 -1.9656 -0.2548
    1PA     H7S  809   2.758   2.118   5.908  0.5709 -0.2978  2.4285
    1PA     C16  810   2.766   1.943   6.035  0.0124 -0.0406  0.4861
    1PA     H6R  811   2.749   1.836   6.020 -1.8536  0.2136  0.7160
    1PA     H6S  812   2.871   1.949   6.064  0.5732  2.9597 -2.0209
    1PA     C15  813   2.664   2.005   6.130  0.4919  0.3682  0.0076
    1PA     H5R  814   2.659   2.113   6.136 -2.8658  0.0970  4.1719
    1PA     H5S  815   2.571   1.954   6.105  0.1261  1.6433 -1.3165
    1PA     C14  816   2.695   1.969   6.280  0.0814  0.3844  0.3237
    1PA     H4R  817   2.600   1.967   6.332 -1.1714  0.1373 -1.8914
    1PA     H4S  818   2.745   1.872   6.284  1.1238  0.8733 -0.4812
    1PA     C13  819   2.792   2.073   6.339  0.6163  0.5059 -0.2186
    1PA     H3R  820   2.886   2.067   6.282  0.1529  0.5426 -1.0002
    1PA     H3S  821   2.752   2.172   6.317 -0.8767 -0.4532 -1.9639
    1PA     C12  822   2.799   2.042   6.492 -0.5192 -0.3579 -0.8324
    1PA     H2R  823   2.840   1.942   6.508 -1.1770 -0.5242 -0.2112
    1PA     H2S  824   2.874   2.110   6.534 -0.4069 -1.1267  0.2208
    1PC     C11  825   2.676   2.059   6.573 -0.3900  0.4621  0.3837
    1PC     O12  826   2.574   2.109   6.530 -0.6645  0.6606 -0.4393
    1PC     O11  827   2.684   2.000   6.700 -0.0072  0.2385  0.1944
    1PC      C1  828   2.570   2.011   6.783 -0.0026  0.1543  0.3546
    1PC      HR  829   2.615   2.021   6.882 -0.7817  0.6233  0.6631
    1PC      HS  830   2.509   2.100   6.767  0.0265 -0.4492 -3.4739
    1PC      C2  831   2.477   1.891   6.781 -0.0986  0.0619  0.3095
    1PC      HX  832   2.393   1.905   6.849 -1.3195  0.7102 -1.2884
    1PC      C3  833   2.551   1.761   6.803  0.1693 -0.0847 -0.0608
    1PC      HA  834   2.583   1.724   6.706  1.3052  1.2814 -0.2134
    1PC      HB  835   2.647   1.781   6.851 -0.0953 -0.1823  0.5159
    1PC     O31  836   2.475   1.667   6.882 -0.7080  0.2012  0.6288
    1PC     P31  837   2.436   1.689   7.035 -0.2315  0.1489 -0.3745
    1PC     O32  838   2.286   1.734   7.032 -0.3021 -0.3775 -0.0550
    1PC     C31  839   2.177   1.645   6.983  0.1304  0.1542  0.2623
    1PC     H1A  840   2.201   1.617   6.880  2.9277  1.1140  0.5923
    1PC     H1B  841   2.196   1.555   7.041  0.2716  0.0933  0.1237
    1PC     C32  842   2.037   1.705   7.026 -0.1986  0.3821 -0.4299
    1PC     H2A  843   2.032   1.810   6.996 -0.0386  0.3169 -0.6911
    1PC     H2B  844   1.953   1.660   6.973  0.4333  1.1771 -2.1377
    1PC     N31  845   2.012   1.704   7.175  0.3479 -0.4725 -0.0668
    1PC     C33  846   1.980   1.558   7.215  0.1667 -0.1024  0.5626
    1PC     H3A  847   2.077   1.509   7.221  1.2345  1.5846 -1.8331
    1PC     H3B  848   1.955   1.563   7.321 -0.5855  1.3620  0.3351
    1PC     H3C  849   1.910   1.504   7.151  1.7833 -0.5003 -0.9018
    1PC     C34  850   2.123   1.764   7.259  0.3545 -0.7038 -0.3136
    1PC     H4A  851   2.216   1.708   7.262  0.7364  0.0103  3.7020
    1PC     H4B  852   2.136   1.862   7.213  0.7263 -0.5601  0.0940
    1PC     H4C  853   2.081   1.772   7.359  1.0266  1.5930 -0.1900
    1PC     C35  854   1.877   1.784   7.194 -0.0714 -0.4171 -0.0482
    1PC     H5A  855   1.892   1.878   7.142 -2.0906 -1.0216 -1.8167
    1PC     H5B  856   1.855   1.813   7.297  0.2132  0.0679 -0.1210
    1PC     H5C  857   1.793   1.730   7.148 -2.1732  2.6604  0.0431
    1PC     O33  858   2.439   1.560   7.114  0.0142 -0.0280 -0.2003
    1PC     O34  859   2.511   1.806   7.077  0.0919  0.3257 -0.1914
    1PC     O21  860   2.410   1.877   6.651  0.6106  0.0903  0.5438
    1PC     C21  861   2.303   1.953   6.634  0.5196  0.4596 -0.4348
    1PC     O22  862   2.248   2.026   6.712 -0.3117 -0.4761 -0.2189
    1OL     C12  863   2.238   1.925   6.500  0.7365  0.4130 -0.6842
    1OL     H2R  864   2.157   1.854   6.517  1.8426 -0.5773  0.4998
    1OL     H2S  865   2.311   1.875   6.436 -1.2971 -1.0537 -1.8890
    1OL     C13  866   2.182   2.053   6.438 -0.5130 -0.3489  0.2591
    1OL     H3R  867   2.258   2.131   6.441  0.0882 -0.9236  0.0805
    1OL     H3S  868   2.097   2.078   6.502 -0.9722  1.9769 -1.1990
    1OL     C14  869   2.121   2.035   6.297  0.0570  0.5300  0.1368
    1OL     H4R  870   2.060   2.122   6.272 -0.4646 -0.0910 -0.7969
    1OL     H4S  871   2.054   1.949   6.300  0.7780 -0.1233 -1.7197
    1OL     C15  872   2.231   2.011   6.189  0.3559 -0.0581  0.2360
    1OL     H5R  873   2.296   1.926   6.211 -2.2605 -1.6711  2.0178
    1OL     H5S  874   2.310   2.086   6.181 -0.1447  0.4043 -0.4956
    1OL     C16  875   2.164   1.987   6.051 -0.0837  0.2937  0.6008
    1OL     H6R  876   2.098   2.066   6.015  0.5450 -0.3367 -2.0784
    1OL     H6S  877   2.100   1.898   6.054  2.0626 -1.3569 -1.0878
    1OL     C17  878   2.280   1.948   5.950 -0.2064  0.9764 -0.1498
    1OL     H7R  879   2.334   1.872   6.008  0.7452  1.3092 -0.5866
    1OL     H7S  880   2.346   2.028   5.916  0.8194  1.1556  2.1506
    1OL     C18  881   2.228   1.889   5.820 -0.0484 -0.0937  0.2127
    1OL     H8R  882   2.311   1.842   5.766 -0.2389 -0.4654  0.2461
    1OL     H8S  883   2.185   1.972   5.762  1.0620  1.4108  1.4901
    1OL     C19  884   2.130   1.770   5.842 -0.0772  0.2600  0.4175
    1OL     H9R  885   2.163   1.669   5.866  1.7596  1.0790  1.4535
    1OL    C110  886   2.005   1.771   5.816  0.0827 -0.1622 -0.4165
    1OL    H10R  887   1.958   1.673   5.822  1.2216 -0.5453  3.1026
    1OL    C111  888   1.928   1.879   5.757 -0.1313 -0.6500 -0.5349
    1OL    H11R  889   1.983   1.973   5.767  0.2520 -0.8270 -0.9075
    1OL    H11S  890   1.841   1.883   5.822  0.2359 -1.3215  0.0157
    1OL    C112  891   1.877   1.854   5.613 -0.4769 -0.3661  0.4177
    1OL    H12R  892   1.816   1.941   5.588 -0.1125 -0.2769 -0.1723
    1OL    H12S  893   1.809   1.768   5.609 -1.4469  0.4558 -1.3192
    1OL    C113  894   1.988   1.833   5.518 -0.3711 -0.0548  0.3895
    1OL    H13R  895   2.053   1.753   5.555 -0.9839 -0.4549  0.6214
    1OL    H13S  896   2.053   1.920   5.513 -1.3828  0.7113  0.3202
    1OL    C114  897   1.934   1.801   5.374  0.2135 -0.1956  0.5337
    1OL    H14R  898   1.855   1.872   5.348  1.4368 -0.0447 -3.1245
    1OL    H14S  899   1.888   1.703   5.360  0.3322  0.0261 -1.7086
    1OL    C115  900   2.043   1.799   5.267  0.6369 -0.1383  0.3185
    1OL    H15R  901   2.098   1.705   5.274  1.4565  0.4140  1.4134
    1OL    H15S  902   2.110   1.885   5.275  1.6627 -0.8690 -0.3294
    1OL    C116  903   1.985   1.799   5.122  0.3000  0.0966 -0.1693
    1OL    H16R  904   1.927   1.708   5.108  0.3271 -0.3110  2.1221
    1OL    H16S  905   2.060   1.778   5.046  0.9442  2.9106 -0.3963
    1OL    C117  906   1.908   1.923   5.083  0.1786  0.1371  0.5004
    1OL    H17R  907   1.978   2.006   5.074 -1.7126  1.8860  1.3828
    1OL    H17S  908   1.829   1.942   5.156  0.6548  0.9111  0.8268
    1OL    C118  909   1.836   1.912   4.949 -0.2671 -1.0480  0.2322
    1OL    H18R  910   1.760   1.834   4.958 -2.0723  0.8110  1.5617
    1OL    H18S  911   1.898   1.876   4.867  0.2443  1.8135 -0.6775
    1OL    H18T  912   1.778   2.001   4.925 -2.2506 -2.6203 -0.9486
    1PA    C116  913   3.118   3.457   5.225 -0.1292 -0.5891 -0.8571
    1PA    H16R  914   3.047   3.374   5.236  1.3609 -1.6318  1.0672
    1PA    H16S  915   3.184   3.432   5.142  1.9504 -1.1238  0.9295
    1PA    H16T  916   3.057   3.547   5.214 -0.7417 -0.9741 -0.6323
    1PA    C115  917   3.197   3.476   5.358  0.0468 -0.1057  0.1159
    1PA    H15R  918   3.280   3.405   5.360  2.2872  2.4137  1.9987
    1PA    H15S  919   3.238   3.577   5.358 -3.3072  1.3883  3.0806
    1PA    C114  920   3.107   3.468   5.481 -0.2295 -0.5933 -0.1502
    1PA    H14R  921   3.034   3.549   5.469  0.2610  0.1785  1.8990
    1PA    H14S  922   3.059   3.370   5.484  2.3682 -1.9512 -0.9555
    1PA    C113  923   3.165   3.500   5.617  0.8250  0.9379  0.2099
    1PA    H13R  924   3.107   3.463   5.702  1.4441  1.4335  0.8462
    1PA    H13S  925   3.256   3.442   5.629  0.7723  0.7365 -0.3499
    1PA    C112  926   3.204   3.642   5.638  0.1830  0.1798  0.5549
    1PA    H12R  927   3.249   3.690   5.551 -1.2515  0.3593 -0.1105
    1PA    H12S  928   3.116   3.706   5.652  1.7330  2.5530 -0.2885
    1PA    C111  929   3.295   3.659   5.761 -0.1616 -0.2556 -0.2635
    1PA    H11R  930   3.236   3.638   5.851 -1.9883  1.9825 -0.8880
    1PA    H11S  931   3.384   3.595   5.765 -0.4428 -0.7145 -1.3308
    1PA    C110  932   3.350   3.798   5.774  0.2529 -0.3232  0.0882
    1PA    H10R  933   3.408   3.825   5.686 -0.9190 -2.9958 -1.5878
    1PA    H10S  934   3.255   3.852   5.775  0.0511 -0.6890  0.8713
    1PA     C19  935   3.433   3.831   5.905  0.1990  0.4340  0.8784
    1PA     H9R  936   3.529   3.780   5.898 -0.3444 -0.0778 -4.7455
    1PA     H9S  937   3.441   3.939   5.897 -1.2877  0.5864  1.1980
    1PA     C18  938   3.363   3.796   6.031 -0.2517 -0.7230 -1.1952
    1PA     H8R  939   3.333   3.691   6.026  0.0190 -0.8778  0.2024
    1PA     H8S  940   3.435   3.807   6.113 -0.7660  3.2252 -1.2204
    1PA     C17  941   3.246   3.885   6.058 -0.4445  0.6628 -0.2509
    1PA     H7R  942   3.267   3.989   6.084 -1.0099 -0.0275  3.3013
    1PA     H7S  943   3.197   3.885   5.961  0.3385  2.4267 -0.6568
    1PA     C16  944   3.156   3.827   6.170  0.0435  0.2695 -1.0264
    1PA     H6R  945   3.090   3.755   6.122 -0.8168  0.7973 -0.6484
    1PA     H6S  946   3.221   3.775   6.240 -1.2243  0.9052  0.6718
    1PA     C15  947   3.070   3.935   6.229  0.3941  0.0462 -0.4247
    1PA     H5R  948   3.021   3.984   6.145  0.0197 -0.9143 -0.7787
    1PA     H5S  949   2.987   3.888   6.281  0.2557  1.4879  0.6700
    1PA     C14  950   3.140   4.027   6.330 -0.0893 -0.0410  0.0544
    1PA     H4R  951   3.172   3.956   6.406 -3.2510 -1.3340  0.2913
    1PA     H4S  952   3.228   4.069   6.281 -0.7666  2.1438  0.6463
    1PA     C13  953   3.046   4.141   6.385 -0.2833 -0.5276 -0.1355
    1PA     H3R  954   3.035   4.214   6.304  0.6750  0.3591  0.5247
    1PA     H3S  955   2.947   4.099   6.402 -0.2772  0.2904  2.1717
    1PA     C12  956   3.097   4.201   6.522  0.4706 -0.0665 -0.0351
    1PA     H2R  957   3.199   4.238   6.512  1.1777 -1.4789  1.7020
    1PA     H2S  958   3.033   4.287   6.541  1.5317  0.8403 -0.5149
    1PC     C11  959   3.086   4.095   6.632  0.5222 -0.0504  0.9745
    1PC     O12  960   2.993   4.014   6.644  0.1919 -0.3373  0.4017
    1PC     O11  961   3.194   4.101   6.715 -0.5443 -0.0636 -0.4973
    1PC      C1  962   3.213   3.986   6.809  0.2322 -0.8511  0.6763
    1PC      HR  963   3.287   4.019   6.882  1.7668 -0.8385 -0.8511
    1PC      HS  964   3.120   3.959   6.860  0.4706 -0.5438  1.2789
    1PC      C2  965   3.266   3.871   6.725 -0.0981  0.0478 -0.2871
    1PC      HX  966   3.198   3.848   6.643 -0.1486 -0.2151 -0.1705
    1PC      C3  967   3.280   3.756   6.819 -0.2641 -0.0011  0.4205
    1PC      HA  968   3.183   3.731   6.863 -0.9777  1.3457 -0.3565
    1PC      HB  969   3.323   3.672   6.766  0.9562  0.6693  0.3291
    1PC     O31  970   3.369   3.781   6.927  0.1988  0.5818 -0.6198
    1PC     P31  971   3.375   3.668   7.035  0.4123  0.0172  0.1008
    1PC     O32  972   3.447   3.548   6.957 -0.5628  0.1538 -0.2235
    1PC     C31  973   3.588   3.525   6.976  0.3002 -0.7931  0.2194
    1PC     H1A  974   3.650   3.613   6.956 -0.7336 -0.3590 -1.1704
    1PC     H1B  975   3.598   3.510   7.084  0.3373 -1.2188  0.1579
    1PC     C32  976   3.629   3.392   6.902 -0.2628 -0.2756 -0.1903
    1PC     H2A  977   3.738   3.380   6.910  0.0037  2.5600  0.9232
    1PC     H2B  978   3.580   3.306   6.947 -2.0181  1.0176  0.3825
    1PC     N31  979   3.604   3.389   6.751 -0.0931 -0.7940 -0.9035
    1PC     C33  980   3.457   3.364   6.725  0.2057  0.4837 -0.0950
    1PC     H3A  981   3.448   3.266   6.773 -2.1053  0.3641 -0.7272
    1PC     H3B  982   3.394   3.442   6.768 -1.1677 -0.9388  0.5252
    1PC     H3C  983   3.451   3.354   6.617 -0.2952 -1.2201  0.0838
    1PC     C34  984   3.632   3.516   6.678  0.0691 -0.6529  0.2633
    1PC     H4A  985   3.556   3.592   6.694  0.0286 -0.5708 -0.3282
    1PC     H4B  986   3.723   3.554   6.725 -0.4211  1.5289 -0.5308
    1PC     H4C  987   3.660   3.497   6.574  0.4150  1.1225  0.0267
    1PC     C35  988   3.682   3.276   6.693 -0.0844  0.4547  0.3097
    1PC     H5A  989   3.641   3.245   6.597 -1.7376  0.8368  0.8836
    1PC     H5B  990   3.675   3.195   6.767  1.2724  0.9458  1.0064
    1PC     H5C  991   3.782   3.313   6.672 -0.5708  0.7771 -1.4843
    1PC     O33  992   3.463   3.713   7.147 -0.0142 -0.4465  0.4141
    1PC     O34  993   3.234   3.616   7.066 -0.1851  0.2835 -0.0420
    1PC     O21  994   3.394   3.916   6.678  0.1781 -0.2128  0.5518
    1PC     C21  995   3.459   3.835   6.594  0.5670 -1.0391  0.2658
    1PC     O22  996   3.421   3.728   6.552 -0.3738  0.2180  0.1135
    1OL     C12  997   3.592   3.889   6.548 -0.4992  0.0418 -0.2312
    1OL     H2R  998   3.667   3.810   6.546  0.4118  0.8410  1.7922
    1OL     H2S  999   3.649   3.968   6.596  1.5614 -0.8346 -1.1995
    1OL     C13 1000   3.579   3.949   6.410 -0.0016  0.3157  0.7392
    1OL     H3R 1001   3.538   3.869   6.349  0.4648  0.9238 -0.4006
    1OL     H3S 1002   3.678   3.978   6.371  1.5015 -1.7207  2.9242
    1OL     C14 1003   3.484   4.065   6.410  0.0586 -0.0154  0.7988
    1OL     H4R 1004   3.503   4.131   6.495  0.3653  1.7124 -0.5806
    1OL     H4S 1005   3.380   4.033   6.423 -0.2778  0.8023  0.2263
    1OL     C15 1006   3.486   4.149   6.282 -0.5180 -0.1771 -0.3025
    1OL     H5R 1007   3.453   4.081   6.203 -0.6692  0.3979 -0.7410
    1OL     H5S 1008   3.588   4.182   6.260 -1.8375  2.9594 -2.0537
    1OL     C16 1009   3.410   4.284   6.288  0.1808 -0.4676 -0.5356
    1OL     H6R 1010   3.304   4.256   6.291  0.3582 -1.0302  1.0377
    1OL     H6S 1011   3.436   4.332   6.382 -0.7437  3.2921 -2.1030
    1OL     C17 1012   3.443   4.384   6.171  0.2046  0.2335 -0.4479
    1OL     H7R 1013   3.551   4.394   6.164  0.4197  1.3700  3.3257
    1OL     H7S 1014   3.394   4.480   6.186  1.7617  1.5323 -3.2240
    1OL     C18 1015   3.388   4.349   6.032  0.0931  0.3915  0.2201
    1OL     H8R 1016   3.440   4.258   6.005 -1.0937 -0.3566  0.4282
    1OL     H8S 1017   3.411   4.432   5.964 -2.0221 -0.0845 -1.1367
    1OL     C19 1018   3.236   4.331   6.024  0.3583 -0.0016 -0.3896
    1OL     H9R 1019   3.184   4.356   6.116 -0.5610 -0.4397 -0.7909
    1OL    C110 1020   3.168   4.280   5.918 -0.0870  0.4918 -0.9888
    1OL    H10R 1021   3.060   4.270   5.917  0.0659 -1.4155 -0.6777
    1OL    C111 1022   3.239   4.231   5.793 -0.4973 -0.5242  0.2732
    1OL    H11R 1023   3.286   4.134   5.811 -0.6348 -1.1196 -2.3155
    1OL    H11S 1024   3.317   4.297   5.754 -2.3011  1.4595 -0.0346
    1OL    C112 1025   3.137   4.205   5.677  0.2188 -0.7203 -0.1542
    1OL    H12R 1026   3.082   4.299   5.666  1.0457 -0.2436 -0.3114
    1OL    H12S 1027   3.065   4.129   5.706  1.6111 -1.6951  0.8224
    1OL    C113 1028   3.196   4.163   5.539 -0.0267  0.2527 -0.1586
    1OL    H13R 1029   3.252   4.253   5.510  0.0633  0.2824  0.0996
    1OL    H13S 1030   3.113   4.150   5.471  0.6281 -0.2956 -0.8617
    1OL    C114 1031   3.288   4.032   5.529  0.7238  0.3426 -0.3060
    1OL    H14R 1032   3.226   3.942   5.533  1.0456  0.1425  0.3203
    1OL    H14S 1033   3.352   4.038   5.618 -2.5073 -2.4410  2.3552
    1OL    C115 1034   3.375   4.046   5.403 -0.3615  0.9178 -0.6565
    1OL    H15R 1035   3.457   3.975   5.414  0.3613  1.8598  0.1725
    1OL    H15S 1036   3.421   4.145   5.402  2.6606 -0.3808  0.8808
    1OL    C116 1037   3.295   3.999   5.280  0.2502  0.6572 -0.0549
    1OL    H16R 1038   3.194   4.039   5.276  0.3319  1.0168  1.2735
    1OL    H16S 1039   3.273   3.893   5.295  0.8149  0.5977  0.3697
    1OL    C117 1040   3.365   4.045   5.149 -0.2659  0.1558 -0.2330
    1OL    H17R 1041   3.462   3.996   5.136  0.8585  1.7756  1.7037
    1OL    H17S 1042   3.378   4.153   5.152 -1.4583  0.3523 -1.4415
    1OL    C118 1043   3.275   4.045   5.029  0.5067  0.2407  0.4512
    1OL    H18R 1044   3.248   3.940   5.016  1.7223  0.1556 -1.7070
    1OL    H18S 1045   3.324   4.071   4.935 -1.5612  0.2948 -0.6285
    1OL    H18T 1046   3.190   4.112   5.037 -1.5956 -2.0297 -2.0569
    1PA    C116 1047   3.775   4.886   5.212 -0.1791  0.3385  0.3841
    1PA    H16R 1048   3.684   4.910   5.156 -1.2217 -3.6799  0.1982
    1PA    H16S 1049   3.852   4.863   5.137 -0.5525  0.1842  0.0442
    1PA    H16T 1050   3.813   4.971   5.267 -0.0848 -0.2822  1.2847
    1PA    C115 1051   3.742   4.768   5.304 -0.1676  0.1448 -0.7575
    1PA    H15R 1052   3.648   4.794   5.353 -1.2704 -2.9014 -1.1721
    1PA    H15S 1053   3.722   4.683   5.240  0.4792 -1.3077  0.9211
    1PA    C114 1054   3.857   4.734   5.401  0.1717  0.6223 -0.3783
    1PA    H14R 1055   3.942   4.703   5.340  1.3929  1.1142  1.0365
    1PA    H14S 1056   3.893   4.821   5.456  0.3456 -0.3385  1.0551
    1PA    C113 1057   3.831   4.619   5.497  0.3931  0.2515 -0.3567
    1PA    H13R 1058   3.913   4.599   5.566 -0.5459 -2.3379  0.0944
    1PA    H13S 1059   3.755   4.647   5.570 -0.5756 -2.3029 -0.3304
    1PA    C112 1060   3.800   4.491   5.424  0.3322  0.2598  0.4103
    1PA    H12R 1061   3.706   4.508   5.372  0.9159  3.4073  0.2978
    1PA    H12S 1062   3.881   4.472   5.354 -1.1410 -1.5769 -0.8417
    1PA    C111 1063   3.795   4.369   5.523 -0.5953  0.3453  0.4007
    1PA    H11R 1064   3.778   4.288   5.452  2.3395 -0.3249  0.3911
    1PA    H11S 1065   3.893   4.354   5.570 -0.5805 -2.2379 -0.3718
    1PA    C110 1066   3.680   4.368   5.622  0.1975  0.0983  0.2579
    1PA    H10R 1067   3.689   4.456   5.685  1.8581 -0.3790  0.7090
    1PA    H10S 1068   3.594   4.386   5.557  0.4486 -2.0179 -0.7095
    1PA     C19 1069   3.653   4.234   5.702 -0.7466  0.3995  0.2542
    1PA     H9R 1070   3.560   4.254   5.757  0.3988  0.6822  2.1328
    1PA     H9S 1071   3.663   4.154   5.629  1.3049  0.8779 -0.0112
    1PA     C18 1072   3.765   4.202   5.798 -0.6282  0.0567 -0.4851
    1PA     H8R 1073   3.852   4.173   5.737  0.3957 -0.4069  1.1568
    1PA     H8S 1074   3.795   4.279   5.870 -0.3146  1.0038 -1.6171
    1PA     C17 1075   3.731   4.079   5.873  0.2794  0.7330 -0.2491
    1PA     H7R 1076   3.637   4.089   5.928 -0.0075 -1.4968 -0.2759
    1PA     H7S 1077   3.700   4.002   5.801 -0.8462 -0.4235  1.4125
    1PA     C16 1078   3.842   4.025   5.968  0.5527 -0.3722 -0.7516
    1PA     H6R 1079   3.925   3.989   5.906  1.1145  1.7932 -1.3053
    1PA     H6S 1080   3.871   4.114   6.024 -1.3244 -0.8833  1.1137
    1PA     C15 1081   3.816   3.906   6.059  0.5126 -0.9350 -0.1023
    1PA     H5R 1082   3.741   3.937   6.132  1.6769 -0.4612  0.9072
    1PA     H5S 1083   3.782   3.820   6.001  2.5077 -0.0448 -2.7375
    1PA     C14 1084   3.935   3.884   6.148 -0.7199 -0.3917 -0.2138
    1PA     H4R 1085   4.030   3.869   6.096 -0.4267  0.8481 -0.0474
    1PA     H4S 1086   3.951   3.983   6.191  1.8840 -0.9057  0.1013
    1PA     C13 1087   3.929   3.785   6.265  0.4956  0.1096  0.1503
    1PA     H3R 1088   3.862   3.829   6.340 -1.6635 -1.5985 -0.7449
    1PA     H3S 1089   3.887   3.694   6.222 -2.2050  1.3366  0.0723
    1PA     C12 1090   4.064   3.750   6.324 -0.5774  0.1969 -0.0686
    1PA     H2R 1091   4.133   3.725   6.243 -0.6191  0.3622 -0.1567
    1PA     H2S 1092   4.093   3.847   6.363  0.8828 -1.0090  1.9156
    1PC     C11 1093   4.057   3.662   6.440 -0.3416  0.8519 -0.2406
    1PC     O12 1094   3.960   3.594   6.468  0.5580 -0.0171 -0.3769
    1PC     O11 1095   4.170   3.668   6.506  0.3296 -0.2957 -0.2054
    1PC      C1 1096   4.187   3.569   6.616 -0.7425  0.3608  0.1249
    1PC      HR 1097   4.141   3.473   6.591 -2.0509  0.7642  0.9367
    1PC      HS 1098   4.294   3.549   6.625 -0.7377 -0.3864 -1.2950
    1PC      C2 1099   4.143   3.604   6.765  0.3833  0.0066 -0.3488
    1PC      HX 1100   4.172   3.516   6.823 -1.3548 -0.2364  0.1691
    1PC      C3 1101   3.988   3.616   6.774  0.2041 -0.1338  0.0494
    1PC      HA 1102   3.955   3.690   6.700  0.4059 -0.0214  0.0722
    1PC      HB 1103   3.933   3.522   6.765 -2.0715  0.9886  1.8043
    1PC     O31 1104   3.944   3.669   6.909  0.0998  0.4551  0.2024
    1PC     P31 1105   3.961   3.579   7.046  0.1642  0.0780  0.0524
    1PC     O32 1106   4.105   3.610   7.101  0.0710 -0.2480  0.3553
    1PC     C31 1107   4.136   3.745   7.123 -0.3404  0.2059  1.2424
    1PC     H1A 1108   4.242   3.753   7.097 -0.0006 -2.1727  1.7665
    1PC     H1B 1109   4.086   3.819   7.061  2.7194  2.1380  0.9799
    1PC     C32 1110   4.125   3.781   7.281 -1.0909  0.8918 -0.5881
    1PC     H2A 1111   4.160   3.884   7.286  3.0022 -0.3351 -1.8259
    1PC     H2B 1112   4.022   3.774   7.316 -0.8332  0.6568  0.1265
    1PC     N31 1113   4.220   3.718   7.384 -0.1602  0.2249  0.0888
    1PC     C33 1114   4.170   3.751   7.516 -0.3714 -0.2098  0.9422
    1PC     H3A 1115   4.245   3.721   7.590  0.4792 -1.6166 -0.4562
    1PC     H3B 1116   4.160   3.858   7.533  0.1506 -0.0612  0.3180
    1PC     H3C 1117   4.070   3.708   7.528 -0.3077 -0.1008  1.8829
    1PC     C34 1118   4.231   3.572   7.365  0.3371 -0.9878 -0.1858
    1PC     H4A 1119   4.305   3.544   7.440 -0.5575 -0.2384  0.9856
    1PC     H4B 1120   4.130   3.537   7.381  0.0658 -0.5440 -0.8738
    1PC     H4C 1121   4.264   3.556   7.262 -0.2443 -1.6542 -0.2731
    1PC     C35 1122   4.356   3.777   7.364  0.1097 -1.0073  0.0527
    1PC     H5A 1123   4.423   3.733   7.438 -1.1290 -1.1009  1.1562
    1PC     H5B 1124   4.355   3.882   7.397  0.5011 -1.3419  1.1485
    1PC     H5C 1125   4.387   3.768   7.260  0.6978 -0.3101  0.1601
    1PC     O33 1126   3.854   3.618   7.137  0.2000 -0.8365 -0.6063
    1PC     O34 1127   3.971   3.436   7.002 -0.2650  0.3936 -0.1132
    1PC     O21 1128   4.202   3.726   6.811 -0.0269  0.6370  0.3549
    1PC     C21 1129   4.335   3.742   6.810 -0.0191  0.8696  0.2270
    1PC     O22 1130   4.421   3.656   6.798 -0.1426  0.1395  0.4318
    1OL     C12 1131   4.375   3.885   6.860 -0.1614  0.5174 -0.0854
    1OL     H2R 1132   4.483   3.891   6.876 -0.6132  1.0116  3.1892
    1OL     H2S 1133   4.325   3.900   6.956  2.0753  0.7173  1.0746
    1OL     C13 1134   4.336   3.979   6.752  0.0917 -0.7845  0.0954
    1OL     H3R 1135   4.341   4.085   6.779  1.0773 -0.6286 -0.6721
    1OL     H3S 1136   4.228   3.964   6.739  0.0545 -0.1971 -0.2560
    1OL     C14 1137   4.414   3.970   6.618 -0.1021 -0.3067  0.5462
    1OL     H4R 1138   4.430   3.866   6.589 -0.5734 -0.5594  1.2035
    1OL     H4S 1139   4.514   4.011   6.631 -0.4550  1.1083 -0.9629
    1OL     C15 1140   4.347   4.047   6.504  0.1510  0.1216 -0.1616
    1OL     H5R 1141   4.311   4.145   6.539 -1.1444 -0.7410  1.0010
    1OL     H5S 1142   4.260   3.995   6.463  1.9399 -3.5890  0.6191
    1OL     C16 1143   4.454   4.064   6.396  0.5058 -0.0170  0.1363
    1OL     H6R 1144   4.492   3.969   6.357 -0.6226 -0.7353  0.7667
    1OL     H6S 1145   4.536   4.123   6.437  0.9078  0.0148 -0.7231
    1OL     C17 1146   4.397   4.149   6.279  0.2689  0.0725  0.3145
    1OL     H7R 1147   4.474   4.174   6.206 -1.4396  1.1523 -1.1355
    1OL     H7S 1148   4.368   4.240   6.332 -1.5253 -1.4394  2.0385
    1OL     C18 1149   4.284   4.084   6.199  0.6655 -0.3287 -0.6055
    1OL     H8R 1150   4.253   4.160   6.127 -0.8979  0.1782  0.5643
    1OL     H8S 1151   4.194   4.078   6.262  0.2201  2.4029 -0.9508
    1OL     C19 1152   4.321   3.948   6.143  0.5468 -0.0569 -0.2451
    1OL     H9R 1153   4.390   3.899   6.212  1.0907  0.7909 -0.1620
    1OL    C110 1154   4.293   3.899   6.023  0.4177 -0.1295  0.6515
    1OL    H10R 1155   4.336   3.807   5.986  0.5228  0.6626 -1.2298
    1OL    C111 1156   4.214   3.967   5.916 -0.3014  0.4707 -0.4295
    1OL    H11R 1157   4.143   4.040   5.954 -1.9619 -0.5493 -1.5300
    1OL    H11S 1158   4.154   3.882   5.883 -1.3680  0.8290  0.5582
    1OL    C112 1159   4.299   4.021   5.797  0.1639  0.1239  0.2340
    1OL    H12R 1160   4.351   3.948   5.736 -1.0085 -1.7065  1.3815
    1OL    H12S 1161   4.368   4.099   5.830  1.3706 -1.4832  1.5417
    1OL    C113 1162   4.199   4.083   5.695  0.1859  0.0019  0.0532
    1OL    H13R 1163   4.160   4.175   5.738  0.3871 -0.0570  0.3599
    1OL    H13S 1164   4.117   4.012   5.679  2.0671 -1.9957 -0.9492
    1OL    C114 1165   4.257   4.127   5.559  0.0513 -0.2046  1.0761
    1OL    H14R 1166   4.169   4.167   5.507  1.4982  0.6997 -0.7587
    1OL    H14S 1167   4.299   4.039   5.509  2.0035  0.3860  1.6075
    1OL    C115 1168   4.367   4.232   5.563  0.2625  0.5191  0.2989
    1OL    H15R 1169   4.432   4.223   5.650 -1.0934 -0.7406  1.2098
    1OL    H15S 1170   4.317   4.329   5.564  0.6387  0.7354 -0.7177
    1OL    C116 1171   4.451   4.230   5.437  0.0054  0.9464 -0.2179
    1OL    H16R 1172   4.392   4.213   5.347 -0.6372 -0.2538  0.4319
    1OL    H16S 1173   4.508   4.138   5.448  0.6908  1.6945  3.2143
    1OL    C117 1174   4.543   4.354   5.423  0.3250  0.3117 -0.0626
    1OL    H17R 1175   4.624   4.317   5.361 -1.9240 -0.2645 -2.7592
    1OL    H17S 1176   4.577   4.382   5.523  0.9720  1.4183 -0.5794
    1OL    C118 1177   4.471   4.469   5.354  1.2060 -0.5930  0.6344
    1OL    H18R 1178   4.520   4.564   5.378 -1.2067  0.4553  1.5666
    1OL    H18S 1179   4.378   4.475   5.411  2.2337  1.9829  2.1219
    1OL    H18T 1180   4.459   4.449   5.247 -1.7551 -0.4632  0.9123
    1PA    C116 1181   4.315   2.713   5.573  0.0572 -0.4942 -0.6244
    1PA    H16R 1182   4.418   2.749   5.583 -0.4396  0.7811 -0.0317
    1PA    H16S 1183   4.276   2.761   5.483  0.9756 -0.3051 -0.9333
    1PA    H16T 1184   4.320   2.604   5.567  0.0658 -0.3817 -3.2455
    1PA    C115 1185   4.227   2.765   5.692  1.0163  0.0075 -0.2176
    1PA    H15R 1186   4.267   2.729   5.787  1.1288 -0.7281 -0.5403
    1PA    H15S 1187   4.238   2.874   5.693 -0.9450  0.2176  0.3026
    1PA    C114 1188   4.083   2.711   5.700  0.4400 -0.5589  0.4749
    1PA    H14R 1189   4.036   2.732   5.603  0.6528  1.2919  0.7464
    1PA    H14S 1190   4.090   2.604   5.718 -0.1346 -1.1643 -2.6707
    1PA    C113 1191   3.988   2.762   5.808 -0.8187 -0.6255  0.5959
    1PA    H13R 1192   3.993   2.869   5.790 -0.7105 -0.4149  1.8442
    1PA    H13S 1193   3.883   2.740   5.792 -0.2921 -3.2887  0.5525
    1PA    C112 1194   4.027   2.712   5.945  0.4009 -0.5056  0.0265
    1PA    H12R 1195   4.024   2.603   5.948  0.3242 -0.5594 -1.7174
    1PA    H12S 1196   4.131   2.742   5.957  0.1563  0.5879 -0.4841
    1PA    C111 1197   3.949   2.773   6.063 -0.0479  0.8111 -0.8850
    1PA    H11R 1198   3.962   2.881   6.055 -1.1146  1.0522  0.4263
    1PA    H11S 1199   3.844   2.745   6.057 -0.1838  0.7383  1.3394
    1PA    C110 1200   4.003   2.730   6.201  0.2341  0.6719  0.6925
    1PA    H10R 1201   3.973   2.632   6.237 -2.9464  2.2015  2.3875
    1PA    H10S 1202   4.112   2.730   6.193  0.2300  0.2042  0.6209
    1PA     C19 1203   3.962   2.840   6.298 -0.1086 -0.0201 -0.2918
    1PA     H9R 1204   4.021   2.929   6.271  0.8688 -0.8729 -1.0125
    1PA     H9S 1205   3.854   2.854   6.300 -0.1634 -0.4602 -0.2584
    1PA     C18 1206   4.017   2.808   6.436 -0.3761  0.0032  0.0071
    1PA     H8R 1207   3.980   2.885   6.504  1.7861  2.3898 -1.4539
    1PA     H8S 1208   3.980   2.711   6.471  1.5919 -0.9858 -0.5797
    1PA     C17 1209   4.166   2.803   6.446 -0.4824 -0.3151 -0.3027
    1PA     H7R 1210   4.202   2.723   6.381 -1.2964  1.2764 -2.8053
    1PA     H7S 1211   4.206   2.896   6.404 -0.3813  0.2206  0.9703
    1PA     C16 1212   4.223   2.771   6.581  0.0839 -0.6037  0.0763
    1PA     H6R 1213   4.182   2.831   6.663  1.1687  0.4818 -0.1738
    1PA     H6S 1214   4.207   2.666   6.607 -0.3195 -0.6625 -0.4012
    1PA     C15 1215   4.371   2.786   6.561  0.2370 -0.8439 -0.6607
    1PA     H5R 1216   4.397   2.715   6.482 -2.6459  0.0925 -2.5515
    1PA     H5S 1217   4.392   2.886   6.522 -0.9653  0.1338  1.1136
    1PA     C14 1218   4.460   2.757   6.690  0.1662  0.4176 -0.3886
    1PA     H4R 1219   4.423   2.821   6.770 -0.5368 -0.6819  0.1744
    1PA     H4S 1220   4.451   2.655   6.728  1.1647  0.5286  0.1664
    1PA     C13 1221   4.606   2.792   6.670  0.2598 -0.2472 -0.1678
    1PA     H3R 1222   4.638   2.735   6.583  1.3778 -1.5786  1.0831
    1PA     H3S 1223   4.621   2.896   6.639  0.0853 -0.8844 -2.4229
    1PA     C12 1224   4.697   2.752   6.792  0.4840  0.3867 -0.0981
    1PA     H2R 1225   4.688   2.647   6.820 -1.1249  0.9611  1.6141
    1PA     H2S 1226   4.799   2.764   6.755  0.0686  1.7863 -0.8532
    1PC     C11 1227   4.674   2.837   6.917 -0.0115 -0.3895  0.6887
    1PC     O12 1228   4.646   2.953   6.907  0.3166  0.2019 -0.1024
    1PC     O11 1229   4.662   2.768   7.030 -0.1834 -0.0362 -0.0571
    1PC      C1 1230   4.639   2.841   7.152 -0.1078 -0.1778  0.3196
    1PC      HR 1231   4.698   2.792   7.231 -0.7617 -0.1682  0.8158
    1PC      HS 1232   4.677   2.943   7.150 -1.5335  0.3398 -0.5854
    1PC      C2 1233   4.489   2.834   7.198 -1.0282 -0.5288  0.0029
    1PC      HX 1234   4.468   2.895   7.286 -0.4094  2.1345 -1.6732
    1PC      C3 1235   4.445   2.690   7.233 -0.6895  0.2147 -0.0605
    1PC      HA 1236   4.517   2.651   7.306  0.3908  0.2359 -1.0904
    1PC      HB 1237   4.353   2.690   7.292 -0.9810 -1.7368 -0.4836
    1PC     O31 1238   4.435   2.604   7.123  0.6133 -0.3197  0.4037
    1PC     P31 1239   4.393   2.450   7.127 -0.1841 -0.2643 -0.1858
    1PC     O32 1240   4.235   2.451   7.129  0.1135  0.0650 -0.1607
    1PC     C31 1241   4.158   2.502   7.019  0.1189 -0.8777  0.4367
    1PC     H1A 1242   4.220   2.500   6.929 -1.2063 -0.9673 -0.4761
    1PC     H1B 1243   4.070   2.438   7.014  1.2928 -2.5575  0.7714
    1PC     C32 1244   4.107   2.644   7.039 -0.9471 -0.2182 -0.2771
    1PC     H2A 1245   4.197   2.702   7.060 -2.0174  1.2770  0.2931
    1PC     H2B 1246   4.063   2.685   6.948  0.8008  1.0147 -0.6031
    1PC     N31 1247   4.010   2.676   7.153  0.5021  0.3188  0.1665
    1PC     C33 1248   4.058   2.635   7.287  0.4941  0.4197  0.6821
    1PC     H3A 1249   4.157   2.678   7.303  1.1605 -0.0679 -1.8561
    1PC     H3B 1250   3.981   2.663   7.360 -0.0982  2.2297 -0.6173
    1PC     H3C 1251   4.060   2.526   7.288 -1.5311  0.3398 -1.1404
    1PC     C34 1252   3.978   2.821   7.166  0.0275 -0.5035 -0.3869
    1PC     H4A 1253   3.901   2.830   7.243  1.6940 -0.9114  1.3837
    1PC     H4B 1254   4.069   2.878   7.185  0.0473 -0.6899  0.0810
    1PC     H4C 1255   3.936   2.855   7.071 -0.5935  1.0094  0.4121
    1PC     C35 1256   3.886   2.595   7.124  0.0022 -0.0912  0.6105
    1PC     H5A 1257   3.810   2.640   7.188 -0.4313  0.0806 -0.0227
    1PC     H5B 1258   3.911   2.495   7.159  0.3415 -0.8389 -1.7275
    1PC     H5C 1259   3.862   2.596   7.018  1.9093 -1.2889  0.1545
    1PC     O33 1260   4.442   2.389   7.002 -0.0423  0.2266  0.2475
    1PC     O34 1261   4.443   2.399   7.260 -0.2878 -0.1040 -0.5032
    1PC     O21 1262   4.413   2.893   7.090  0.5819 -0.8027 -0.5004
    1PC     C21 1263   4.399   3.028   7.076 -0.3625 -0.4741  0.2634
    1PC     O22 1264   4.440   3.101   7.163 -0.0634  0.7386  0.1210
    1OL     C12 1265   4.335   3.070   6.952 -0.5475 -0.4392  0.4369
    1OL     H2R 1266   4.226   3.059   6.953 -0.6352  0.4000  0.7148
    1OL     H2S 1267   4.390   3.003   6.885  0.9079 -0.6604  1.8204
    1OL     C13 1268   4.357   3.212   6.900 -0.7381  1.0449 -0.0363
    1OL     H3R 1269   4.463   3.238   6.903 -0.0601 -1.7565  1.4271
    1OL     H3S 1270   4.300   3.290   6.951  0.7872  0.8577  2.0112
    1OL     C14 1271   4.305   3.224   6.757  0.6033  0.0995 -0.1371
    1OL     H4R 1272   4.326   3.329   6.733 -0.5915  0.6046  1.0348
    1OL     H4S 1273   4.197   3.209   6.756  0.4689  0.9390 -2.0682
    1OL     C15 1274   4.387   3.136   6.656 -0.3840  0.1692 -1.1005
    1OL     H5R 1275   4.348   3.034   6.661 -2.3626  0.9671  0.5056
    1OL     H5S 1276   4.493   3.138   6.680 -0.5509 -0.8114 -0.2276
    1OL     C16 1277   4.384   3.189   6.514 -0.0274  0.3035  0.7320
    1OL     H6R 1278   4.454   3.136   6.450  0.6376  1.4062  0.5315
    1OL     H6S 1279   4.424   3.291   6.520 -0.7073  0.5823  0.6348
    1OL     C17 1280   4.236   3.185   6.467  0.1187 -0.4046 -0.3298
    1OL     H7R 1281   4.173   3.260   6.514 -2.0311 -1.7693 -0.9765
    1OL     H7S 1282   4.196   3.087   6.495  0.5895 -0.5994 -0.3362
    1OL     C18 1283   4.213   3.212   6.316  0.2532 -0.1656 -0.0889
    1OL     H8R 1284   4.108   3.197   6.291 -0.0716  1.3260  0.3545
    1OL     H8S 1285   4.267   3.129   6.269  0.1384 -1.0260  1.2739
    1OL     C19 1286   4.262   3.350   6.256  0.1767 -0.4166 -0.0406
    1OL     H9R 1287   4.358   3.386   6.292 -0.9262  3.0722 -0.3434
    1OL    C110 1288   4.197   3.436   6.176  0.9716 -0.0860  0.3220
    1OL    H10R 1289   4.241   3.531   6.145  1.3714 -0.7601 -1.2369
    1OL    C111 1290   4.058   3.413   6.123  0.4123  0.0329  0.1572
    1OL    H11R 1291   4.001   3.506   6.131  1.6454  0.6865  1.6257
    1OL    H11S 1292   4.007   3.342   6.189 -2.0593  1.6907  0.0922
    1OL    C112 1293   4.066   3.358   5.978  0.9355  0.6192 -0.7848
    1OL    H12R 1294   4.125   3.423   5.914  0.3376  0.1791 -1.7870
    1OL    H12S 1295   3.965   3.357   5.938  1.5411  2.0284 -2.3828
    1OL    C113 1296   4.141   3.214   5.976 -0.5107 -0.2375 -0.1956
    1OL    H13R 1297   4.125   3.160   6.070  0.1093  0.8866  0.5791
    1OL    H13S 1298   4.247   3.234   5.990 -0.6714  0.5379 -0.0398
    1OL    C114 1299   4.109   3.130   5.850 -0.3154 -0.4957 -0.0288
    1OL    H14R 1300   4.004   3.099   5.848  0.1091 -1.9706 -0.1208
    1OL    H14S 1301   4.173   3.042   5.855 -0.4324 -0.6762 -1.6088
    1OL    C115 1302   4.127   3.215   5.724 -0.4210 -1.0560  0.3124
    1OL    H15R 1303   4.221   3.270   5.732 -0.4356 -1.0874  0.7082
    1OL    H15S 1304   4.040   3.280   5.713  0.0471 -0.9305 -3.3087
    1OL    C116 1305   4.127   3.135   5.593  0.0578  0.2088 -0.1569
    1OL    H16R 1306   4.056   3.055   5.615 -1.6605  1.3344 -1.4702
    1OL    H16S 1307   4.228   3.095   5.579 -0.4699 -1.3937  0.5561
    1OL    C117 1308   4.077   3.220   5.471 -0.2100  0.5128 -0.2570
    1OL    H17R 1309   3.970   3.237   5.488  0.3318  0.9938  3.0441
    1OL    H17S 1310   4.076   3.160   5.380 -0.4280 -0.1510  0.1767
    1OL    C118 1311   4.155   3.359   5.441  0.4347  0.4953 -0.2159
    1OL    H18R 1312   4.255   3.330   5.407  0.0403 -1.4946  0.2400
    1OL    H18S 1313   4.164   3.425   5.527 -0.9750  0.8599 -0.3276
    1OL    H18T 1314   4.100   3.412   5.363  0.6523 -0.3007 -0.9193
    1PA    C116 1315   3.680   1.024   5.516 -0.0315  0.4230  0.0073
    1PA    H16R 1316   3.695   1.119   5.465 -2.2704  0.0805 -1.3762
    1PA    H16S 1317   3.600   0.972   5.463 -0.0681  0.0753  0.4016
    1PA    H16T 1318   3.768   0.962   5.529 -0.1199  0.5228  1.1831
    1PA    C115 1319   3.624   1.058   5.657 -0.0561  0.0194 -0.1400
    1PA    H15R 1320   3.691   1.131   5.704 -0.7803  2.2639 -2.4907
    1PA    H15S 1321   3.531   1.112   5.641  1.6624  2.5712 -1.8144
    1PA    C114 1322   3.607   0.935   5.743  0.2066  0.4382 -0.0629
    1PA    H14R 1323   3.551   0.854   5.696 -0.9289  0.1800  1.6739
    1PA    H14S 1324   3.703   0.894   5.773  0.7687 -0.2967 -2.7599
    1PA    C113 1325   3.536   0.986   5.869 -0.5821 -0.7921  0.6353
    1PA    H13R 1326   3.440   1.026   5.836  0.4321  1.4596  0.3116
    1PA    H13S 1327   3.493   0.900   5.922 -3.0470  0.4915  0.7637
    1PA    C112 1328   3.605   1.094   5.955  0.0643  0.4374  0.1949
    1PA    H12R 1329   3.594   1.196   5.918  0.8903  0.5347  0.2001
    1PA    H12S 1330   3.555   1.116   6.049  0.5077 -0.3836  0.6340
    1PA    C111 1331   3.751   1.051   5.989  0.7013  0.0982 -0.0711
    1PA    H11R 1332   3.744   0.943   6.000  2.1288 -0.0015 -0.0185
    1PA    H11S 1333   3.819   1.058   5.904 -1.7341  0.6913 -1.9950
    1PA    C110 1334   3.806   1.117   6.114  0.4102  0.1571  0.2636
    1PA    H10R 1335   3.742   1.095   6.199 -0.3451  1.9607  0.1786
    1PA    H10S 1336   3.907   1.086   6.143 -0.4917 -1.4690  1.6836
    1PA     C19 1337   3.801   1.266   6.098 -0.3658  0.0028  0.0974
    1PA     H9R 1338   3.843   1.303   6.004 -2.5275 -1.1779 -1.3744
    1PA     H9S 1339   3.698   1.300   6.107 -1.0897 -2.3466  0.8273
    1PA     C18 1340   3.865   1.348   6.213  0.5257  0.1155 -0.1304
    1PA     H8R 1341   3.801   1.332   6.300 -0.8623 -0.2226 -1.1994
    1PA     H8S 1342   3.965   1.314   6.243  0.3548  0.8172  1.2449
    1PA     C17 1343   3.888   1.498   6.175  0.0976  0.5365  0.0857
    1PA     H7R 1344   3.922   1.545   6.267 -2.0286 -0.7907  1.5892
    1PA     H7S 1345   3.976   1.507   6.111 -0.3047  0.6329 -0.4525
    1PA     C16 1346   3.774   1.572   6.105  0.1136  0.3399  0.1946
    1PA     H6R 1347   3.806   1.671   6.072 -2.0039  0.9926 -0.0218
    1PA     H6S 1348   3.756   1.516   6.013 -0.7812 -2.8885  2.2418
    1PA     C15 1349   3.640   1.566   6.192 -0.0992 -0.0999 -0.0477
    1PA     H5R 1350   3.559   1.598   6.127 -0.6206 -1.4793 -0.0770
    1PA     H5S 1351   3.613   1.468   6.232  0.0902  0.9524  2.7827
    1PA     C14 1352   3.648   1.660   6.310  0.1039  0.4186 -0.2027
    1PA     H4R 1353   3.725   1.623   6.378 -1.1995 -2.0769 -0.0186
    1PA     H4S 1354   3.684   1.758   6.279  1.3397  0.4575  1.2750
    1PA     C13 1355   3.516   1.672   6.385 -0.1479 -0.8723 -0.9676
    1PA     H3R 1356   3.436   1.715   6.325  2.4976  1.0317 -3.2229
    1PA     H3S 1357   3.472   1.576   6.411 -2.4454  0.2497 -0.5377
    1PA     C12 1358   3.521   1.758   6.518  0.4601 -0.2686  0.0805
    1PA     H2R 1359   3.559   1.858   6.497 -2.5677  0.9485  0.2062
    1PA     H2S 1360   3.424   1.772   6.565  0.6150  1.5290 -0.0948
    1PC     C11 1361   3.606   1.686   6.620 -0.7139 -0.5879  0.4181
    1PC     O12 1362   3.563   1.594   6.684  0.3051  0.3198  0.2844
    1PC     O11 1363   3.734   1.734   6.619  0.3616 -0.3011  0.2348
    1PC      C1 1364   3.831   1.669   6.701  0.0317  0.1565 -0.2937
    1PC      HR 1365   3.893   1.749   6.741 -0.8617 -0.0447  1.5649
    1PC      HS 1366   3.791   1.617   6.789  1.2282  1.2708  0.9123
    1PC      C2 1367   3.935   1.592   6.616 -0.0847  0.8210  0.1106
    1PC      HX 1368   3.885   1.540   6.534  1.8527  0.3159 -0.7993
    1PC      C3 1369   3.997   1.477   6.705  0.1810  0.3679 -0.7355
    1PC      HA 1370   3.919   1.422   6.760  1.4494 -0.8520 -0.1239
    1PC      HB 1371   4.040   1.403   6.637 -0.0435  0.5345 -1.0607
    1PC     O31 1372   4.096   1.527   6.802 -0.4074 -0.3472  0.1929
    1PC     P31 1373   4.071   1.529   6.959 -0.3288 -0.1531  0.4704
    1PC     O32 1374   4.049   1.376   7.000  0.0212 -0.3331  0.5119
    1PC     C31 1375   3.922   1.320   6.993  0.5799  0.6177 -0.6921
    1PC     H1A 1376   3.843   1.386   6.956 -0.7825 -1.1787 -1.0546
    1PC     H1B 1377   3.922   1.237   6.922  0.2666 -0.7030  0.8127
    1PC     C32 1378   3.878   1.274   7.129  0.2933 -0.5057  0.2292
    1PC     H2A 1379   3.884   1.358   7.199 -0.0207  0.6791 -1.1498
    1PC     H2B 1380   3.770   1.258   7.139  0.8084 -3.4065  1.5556
    1PC     N31 1381   3.945   1.154   7.183 -0.4436 -0.7269 -0.3859
    1PC     C33 1382   3.947   1.050   7.083  0.6152 -0.0391 -0.2978
    1PC     H3A 1383   4.016   1.070   7.000  1.5366 -1.5074  0.0864
    1PC     H3B 1384   3.960   0.953   7.131  0.9977  0.3465  0.3757
    1PC     H3C 1385   3.845   1.048   7.044 -0.5485 -0.4154  2.6724
    1PC     C34 1386   4.085   1.173   7.222 -0.2236  0.2619 -0.4102
    1PC     H4A 1387   4.130   1.239   7.148 -1.1405  0.2095 -1.0231
    1PC     H4B 1388   4.086   1.236   7.311 -0.7767 -1.0272  0.5268
    1PC     H4C 1389   4.120   1.070   7.227  1.7244  0.9367  0.3176
    1PC     C35 1390   3.878   1.097   7.307 -0.9235 -0.6497  0.5779
    1PC     H5A 1391   3.880   1.178   7.379 -3.4102 -0.1098  0.0675
    1PC     H5B 1392   3.950   1.022   7.342  0.0010 -0.4067 -0.7464
    1PC     H5C 1393   3.777   1.065   7.283  0.2700 -3.2907 -1.3363
    1PC     O33 1394   4.200   1.569   7.020 -0.3968 -0.0588  0.0480
    1PC     O34 1395   3.951   1.611   6.986 -0.0506 -0.0623 -0.3675
    1PC     O21 1396   4.046   1.687   6.578 -0.3910 -0.0328  0.3882
    1PC     C21 1397   4.131   1.649   6.486  0.0276  0.1628  0.1765
    1PC     O22 1398   4.126   1.535   6.450 -0.0109 -0.2944 -0.5952
    1OL     C12 1399   4.229   1.746   6.448  0.0436 -0.0894  0.7653
    1OL     H2R 1400   4.331   1.716   6.474  0.0593 -1.1606 -0.4937
    1OL     H2S 1401   4.192   1.840   6.490 -1.0548 -0.4688  0.6544
    1OL     C13 1402   4.219   1.771   6.293  0.1890 -0.7373 -0.2698
    1OL     H3R 1403   4.114   1.798   6.280 -0.8931 -3.4099  2.4058
    1OL     H3S 1404   4.238   1.679   6.238  0.0723 -0.0201 -1.5102
    1OL     C14 1405   4.306   1.876   6.226 -0.3802 -0.4843 -0.4372
    1OL     H4R 1406   4.412   1.860   6.246 -0.7811 -0.4880  1.7595
    1OL     H4S 1407   4.275   1.977   6.255 -0.2058 -0.6980  0.5035
    1OL     C15 1408   4.316   1.875   6.072  0.2352  0.4610  0.5174
    1OL     H5R 1409   4.371   1.789   6.033  0.3974  1.7533 -2.2111
    1OL     H5S 1410   4.369   1.965   6.042 -1.5023  0.6580 -2.0976
    1OL     C16 1411   4.183   1.880   5.994  0.0388 -0.1290 -0.0060
    1OL     H6R 1412   4.138   1.975   6.022 -1.8969 -1.0983  0.2664
    1OL     H6S 1413   4.120   1.794   6.020 -1.1261  0.7558  0.1116
    1OL     C17 1414   4.203   1.872   5.842 -0.4256 -0.2448 -0.1237
    1OL     H7R 1415   4.261   1.784   5.815 -0.4887  0.0432 -1.2252
    1OL     H7S 1416   4.258   1.964   5.818 -2.7686  1.2216  0.0325
    1OL     C18 1417   4.073   1.870   5.755  0.3166 -0.0019 -0.3282
    1OL     H8R 1418   4.100   1.907   5.655 -0.7440 -3.6580 -2.0402
    1OL     H8S 1419   4.009   1.941   5.807  1.2035 -0.2785  1.1743
    1OL     C19 1420   4.003   1.743   5.749 -0.3332 -0.5678  0.4075
    1OL     H9R 1421   3.980   1.719   5.852 -2.7697 -0.1289 -0.0030
    1OL    C110 1422   3.984   1.661   5.645 -0.4939  0.4462  0.0624
    1OL    H10R 1423   3.936   1.564   5.653  0.7441 -0.3703 -1.8922
    1OL    C111 1424   4.034   1.684   5.503  0.3953 -0.5909  0.5642
    1OL    H11R 1425   4.079   1.782   5.491 -0.7161 -0.1785 -0.2836
    1OL    H11S 1426   3.952   1.688   5.430  0.6756 -1.6506  0.1749
    1OL    C112 1427   4.142   1.583   5.457 -0.3484  0.3137  0.2824
    1OL    H12R 1428   4.150   1.596   5.349 -0.9768  2.6911  0.4886
    1OL    H12S 1429   4.104   1.482   5.469 -0.7895  0.3153 -1.0706
    1OL    C113 1430   4.280   1.598   5.526 -0.6753  0.0490 -0.0428
    1OL    H13R 1431   4.277   1.578   5.633 -0.0614 -0.1240 -0.0576
    1OL    H13S 1432   4.321   1.699   5.518 -0.2289 -0.1949 -0.9528
    1OL    C114 1433   4.380   1.498   5.459  0.1318  0.3116 -0.1066
    1OL    H14R 1434   4.383   1.526   5.354 -2.2440 -1.1881 -0.6240
    1OL    H14S 1435   4.334   1.400   5.477  1.1987  0.2494  2.5939
    1OL    C115 1436   4.519   1.498   5.518  0.0181  0.2224  0.0211
    1OL    H15R 1437   4.517   1.462   5.621  0.2932 -2.0627 -0.7567
    1OL    H15S 1438   4.553   1.602   5.520 -0.7456  0.4671  1.2816
    1OL    C116 1439   4.624   1.423   5.432 -0.0499 -0.3410  0.4532
    1OL    H16R 1440   4.594   1.321   5.409  2.6065 -1.2622  0.9996
    1OL    H16S 1441   4.720   1.422   5.483  2.0043 -0.0319 -3.2188
    1OL    C117 1442   4.654   1.489   5.299 -0.3951 -1.0906  0.4901
    1OL    H17R 1443   4.679   1.595   5.311  1.0476 -1.6669  2.7899
    1OL    H17S 1444   4.567   1.472   5.235 -0.8982  2.2604  0.1734
    1OL    C118 1445   4.766   1.430   5.213 -0.2667  0.5707 -0.0144
    1OL    H18R 1446   4.760   1.467   5.111  0.3177  2.2085  0.5225
    1OL    H18S 1447   4.750   1.323   5.198  0.8248  0.5555 -1.1433
    1OL    H18T 1448   4.861   1.446   5.265  0.6992  1.3373 -1.9593
    1PA    C116 1449   2.202   2.539   5.277 -0.4707 -1.1692  0.2723
    1PA    H16R 1450   2.278   2.498   5.210 -1.2512 -1.5468 -0.4029
    1PA    H16S 1451   2.247   2.592   5.361 -0.0972 -0.1870 -0.5420
    1PA    H16T 1452   2.138   2.604   5.217 -1.9018 -1.9339  0.9450
    1PA    C115 1453   2.105   2.434   5.332 -0.3452 -0.1392  0.1459
    1PA    H15R 1454   2.043   2.464   5.417  0.2537  1.3537  0.0734
    1PA    H15S 1455   2.036   2.408   5.252  0.2734  2.4612 -1.3030
    1PA    C114 1456   2.182   2.306   5.379 -0.2207  0.3084 -0.9085
    1PA    H14R 1457   2.218   2.255   5.290 -0.2895  1.2952 -1.5173
    1PA    H14S 1458   2.269   2.341   5.435 -0.5538  0.6114 -0.5753
    1PA    C113 1459   2.102   2.220   5.473 -0.6568 -0.0404 -0.6288
    1PA    H13R 1460   2.008   2.196   5.424 -0.6473  1.3997 -1.3970
    1PA    H13S 1461   2.162   2.129   5.480  0.9406  0.8023 -2.7316
    1PA    C112 1462   2.067   2.271   5.614 -0.2846 -0.9958 -0.0469
    1PA    H12R 1463   1.999   2.356   5.604 -2.6880 -2.7792  0.7147
    1PA    H12S 1464   2.000   2.199   5.662 -0.7913 -0.4726  0.0410
    1PA    C111 1465   2.192   2.301   5.708 -0.0869  0.3558  0.6024
    1PA    H11R 1466   2.236   2.201   5.721 -0.8671  0.0758  1.1627
    1PA    H11S 1467   2.257   2.376   5.663  0.7902 -0.8934 -0.2440
    1PA    C110 1468   2.143   2.348   5.846  0.6058 -0.3418 -0.3170
    1PA    H10R 1469   2.095   2.446   5.837  0.0935 -0.3869  1.8203
    1PA    H10S 1470   2.071   2.278   5.888  0.9544  0.3584  1.5182
    1PA     C19 1471   2.242   2.366   5.956  0.4324 -0.0241 -0.6025
    1PA     H9R 1472   2.259   2.262   5.984 -4.7245 -1.0496 -0.6868
    1PA     H9S 1473   2.334   2.413   5.922  0.6117 -0.0807 -0.1967
    1PA     C18 1474   2.183   2.440   6.078 -0.2829 -0.6108  0.6142
    1PA     H8R 1475   2.167   2.546   6.056 -0.6217 -0.7624  0.1138
    1PA     H8S 1476   2.080   2.405   6.093 -0.2714 -1.3172 -0.8424
    1PA     C17 1477   2.266   2.418   6.208 -0.4995  0.0307 -0.1861
    1PA     H7R 1478   2.255   2.315   6.243 -0.1594  0.1025  0.1260
    1PA     H7S 1479   2.370   2.428   6.177 -0.3985  2.4119  0.8052
    1PA     C16 1480   2.219   2.515   6.316  0.4181  0.4476 -1.2628
    1PA     H6R 1481   2.271   2.608   6.292  1.6421  0.1919  0.3632
    1PA     H6S 1482   2.110   2.520   6.319  0.4488  2.7044 -2.5301
    1PA     C15 1483   2.287   2.461   6.446 -0.0888  0.0869  0.3787
    1PA     H5R 1484   2.241   2.364   6.467 -2.3693  0.6896 -1.5720
    1PA     H5S 1485   2.389   2.439   6.415 -0.7269 -0.8872 -1.1216
    1PA     C14 1486   2.280   2.556   6.566 -0.2033  0.7136 -0.5920
    1PA     H4R 1487   2.175   2.572   6.593  0.0590 -1.6798  2.1090
    1PA     H4S 1488   2.329   2.504   6.648  1.1579  1.9681 -0.5971
    1PA     C13 1489   2.366   2.677   6.562 -0.4907 -0.5608 -0.3716
    1PA     H3R 1490   2.391   2.695   6.667 -2.7795 -1.0381  0.2845
    1PA     H3S 1491   2.458   2.648   6.510 -1.2513 -2.2991 -0.7874
    1PA     C12 1492   2.306   2.805   6.519 -0.4191 -0.1541  0.2289
    1PA     H2R 1493   2.392   2.872   6.515  0.3816 -1.1279  0.7527
    1PA     H2S 1494   2.259   2.799   6.421  2.3858 -0.7230 -1.1270
    1PC     C11 1495   2.212   2.866   6.617  0.6450 -0.0329 -0.2541
    1PC     O12 1496   2.238   2.942   6.705 -0.1561  0.4589  0.9617
    1PC     O11 1497   2.092   2.820   6.590 -0.3210 -0.3042  0.2539
    1PC      C1 1498   1.989   2.850   6.689  0.4228  0.6430  0.0099
    1PC      HR 1499   2.014   2.823   6.792 -1.8098 -0.6802  0.2246
    1PC      HS 1500   1.967   2.957   6.683 -3.1711 -0.0082  0.3823
    1PC      C2 1501   1.863   2.765   6.664  0.5030 -0.2933 -0.3057
    1PC      HX 1502   1.775   2.795   6.722  2.0387  0.4723  1.6845
    1PC      C3 1503   1.882   2.615   6.698  0.6982 -0.2473  0.1569
    1PC      HA 1504   1.794   2.550   6.693  0.4009  0.2162 -0.7609
    1PC      HB 1505   1.951   2.578   6.621  0.8652 -0.3014  0.3319
    1PC     O31 1506   1.934   2.604   6.831  0.1059 -0.1225 -0.4356
    1PC     P31 1507   1.848   2.610   6.961 -0.0561 -0.1651 -0.0206
    1PC     O32 1508   1.924   2.535   7.066  0.2625  0.1006 -0.0700
    1PC     C31 1509   1.953   2.398   7.046 -0.2537 -0.6130 -0.9128
    1PC     H1A 1510   1.945   2.354   7.146 -1.0275  1.1519 -0.1825
    1PC     H1B 1511   1.870   2.361   6.985 -0.7648 -3.1499  1.2162
    1PC     C32 1512   2.081   2.378   6.957 -0.0876  0.1792 -0.5558
    1PC     H2A 1513   2.085   2.270   6.947 -1.4274  0.0322  0.3410
    1PC     H2B 1514   2.080   2.420   6.856  1.3102  2.5029  0.3516
    1PC     N31 1515   2.215   2.417   7.019 -0.0337 -0.3284  0.4273
    1PC     C33 1516   2.239   2.569   6.989  0.6215  0.5428 -0.5291
    1PC     H3A 1517   2.151   2.624   7.025  0.0804  1.1056 -2.6535
    1PC     H3B 1518   2.326   2.609   7.041  0.0980  1.2703 -0.2019
    1PC     H3C 1519   2.244   2.584   6.881  3.0832  1.6237 -0.2821
    1PC     C34 1520   2.228   2.404   7.160  0.2398 -0.3394  0.2186
    1PC     H4A 1521   2.303   2.469   7.205  0.0699 -1.3836  2.0677
    1PC     H4B 1522   2.132   2.434   7.203  0.3576 -0.2775  0.4424
    1PC     H4C 1523   2.248   2.298   7.178 -0.1962 -0.2886  1.0259
    1PC     C35 1524   2.333   2.346   6.966  0.4999  0.6431  0.2552
    1PC     H5A 1525   2.426   2.380   7.012 -0.2779  0.1094  2.2778
    1PC     H5B 1526   2.343   2.359   6.858 -1.8078 -1.3007 -0.2497
    1PC     H5C 1527   2.328   2.241   6.998 -1.1681  0.5080 -0.3908
    1PC     O33 1528   1.862   2.745   7.012  0.2221 -0.3878  0.1871
    1PC     O34 1529   1.719   2.552   6.937  0.1642  0.6207  0.6926
    1PC     O21 1530   1.827   2.781   6.530  0.2238 -0.0389  0.7652
    1PC     C21 1531   1.753   2.882   6.479 -0.2411 -0.2427 -0.7476
    1PC     O22 1532   1.711   2.972   6.556 -0.0015 -0.0150  0.1422
    1OL     C12 1533   1.721   2.845   6.338 -0.2992 -1.1202 -0.0018
    1OL     H2R 1534   1.660   2.754   6.345 -3.0789  0.7275  0.5271
    1OL     H2S 1535   1.813   2.815   6.288 -0.8486 -0.4094 -1.4712
    1OL     C13 1536   1.654   2.967   6.264 -0.3450 -0.0725  0.1522
    1OL     H3R 1537   1.725   3.049   6.247 -1.5606  0.6603 -1.5415
    1OL     H3S 1538   1.568   3.004   6.320 -0.5472 -0.1201 -0.1309
    1OL     C14 1539   1.595   2.918   6.126 -0.5252  0.1754 -1.2154
    1OL     H4R 1540   1.516   2.849   6.154  1.7788 -2.3974 -0.8116
    1OL     H4S 1541   1.678   2.874   6.070  1.3737  0.2161  1.4376
    1OL     C15 1542   1.522   3.040   6.068 -0.6193  0.1120 -0.5346
    1OL     H5R 1543   1.592   3.124   6.065  0.4660 -0.8008 -0.8500
    1OL     H5S 1544   1.441   3.069   6.135 -0.7315 -0.0737 -0.5891
    1OL     C16 1545   1.479   3.023   5.921 -0.1824  0.2974 -0.0431
    1OL     H6R 1546   1.572   3.002   5.867 -1.9950 -1.1210 -2.6812
    1OL     H6S 1547   1.445   3.124   5.896  0.1268 -0.1784 -2.4746
    1OL     C17 1548   1.377   2.908   5.902  0.4654  0.3146  0.4792
    1OL     H7R 1549   1.295   2.936   5.969 -0.2161 -1.0589  0.2383
    1OL     H7S 1550   1.427   2.812   5.915 -0.2246 -0.4315 -2.2447
    1OL     C18 1551   1.326   2.903   5.759 -0.3630  0.8148 -0.4188
    1OL     H8R 1552   1.412   2.904   5.691 -1.1480 -1.8242 -1.5231
    1OL     H8S 1553   1.273   2.997   5.740 -1.1572  0.2811 -0.8824
    1OL     C19 1554   1.236   2.784   5.728  0.2528  0.3030 -0.0081
    1OL     H9R 1555   1.240   2.705   5.803 -0.2845 -2.8911 -3.2021
    1OL    C110 1556   1.141   2.774   5.633  0.0770  0.9825 -0.2503
    1OL    H10R 1557   1.076   2.687   5.624 -2.2746  2.6830  0.0614
    1OL    C111 1558   1.102   2.882   5.530  0.6260  0.2772 -0.2935
    1OL    H11R 1559   1.113   2.975   5.585  0.5799  0.8956 -1.3062
    1OL    H11S 1560   0.995   2.878   5.505  0.3345  1.3036  0.7342
    1OL    C112 1561   1.193   2.874   5.402 -0.2634 -0.5611 -0.7950
    1OL    H12R 1562   1.298   2.867   5.432 -0.8411  0.5001  1.5983
    1OL    H12S 1563   1.178   2.961   5.339  0.0404 -1.3355 -1.9576
    1OL    C113 1564   1.161   2.749   5.332  0.2870  0.2699 -1.0513
    1OL    H13R 1565   1.055   2.731   5.313  0.1320 -1.6607  1.4240
    1OL    H13S 1566   1.191   2.665   5.395  0.1478 -0.0806 -1.4525
    1OL    C114 1567   1.230   2.732   5.199 -0.3734  0.4330  0.1683
    1OL    H14R 1568   1.335   2.718   5.224 -0.1659  1.8378  0.1254
    1OL    H14S 1569   1.220   2.820   5.136  1.3077  0.7305  0.2938
    1OL    C115 1570   1.175   2.606   5.128 -0.8045 -1.1641 -0.0133
    1OL    H15R 1571   1.070   2.618   5.100 -0.3506 -1.9711 -2.1643
    1OL    H15S 1572   1.193   2.523   5.198 -0.2570 -0.6123  0.5050
    1OL    C116 1573   1.251   2.579   4.995 -0.9911  0.3006 -0.0398
    1OL    H16R 1574   1.207   2.493   4.946  2.3917 -0.6350 -1.5484
    1OL    H16S 1575   1.357   2.562   5.014 -0.9869  0.7860  0.3999
    1OL    C117 1576   1.246   2.691   4.886  0.2840 -0.6932 -0.9984
    1OL    H17R 1577   1.305   2.777   4.918  1.3442 -1.0020 -2.0995
    1OL    H17S 1578   1.148   2.734   4.866  1.7333  2.6425 -1.2938
    1OL    C118 1579   1.291   2.639   4.749  0.0578  0.3039 -0.2704
    1OL    H18R 1580   1.303   2.722   4.679  1.7167  0.7207  0.4885
    1OL    H18S 1581   1.222   2.563   4.711  0.6381 -1.7055  2.5222
    1OL    H18T 1582   1.386   2.587   4.752 -0.5045 -0.7530 -0.6353
    1PA    C116 1583   1.996   1.136   5.734 -0.0833  0.0486  0.3744
    1PA    H16R 1584   1.996   1.141   5.625  1.3808 -0.7233  0.3202
    1PA    H16S 1585   2.052   1.223   5.768 -0.3219  0.1836  0.4252
    1PA    H16T 1586   1.900   1.169   5.774  1.2130  1.3249  2.5806
    1PA    C115 1587   2.049   1.006   5.803 -0.1283  0.5305 -0.4561
    1PA    H15R 1588   2.007   0.926   5.743 -2.6927  0.8526  0.8434
    1PA    H15S 1589   2.159   1.009   5.802 -0.0495 -0.8760  1.2531
    1PA    C114 1590   1.988   0.972   5.941  0.0473 -0.1428  0.3133
    1PA    H14R 1591   1.882   0.950   5.924 -0.3458  2.6085 -1.0593
    1PA    H14S 1592   2.038   0.884   5.982  1.6605  0.5256 -0.2028
    1PA    C113 1593   2.002   1.082   6.046  0.1225 -0.4629 -0.3123
    1PA    H13R 1594   1.994   1.183   6.005  0.0088 -0.2692  0.1850
    1PA    H13S 1595   1.938   1.057   6.131  3.4214 -4.3575  1.1468
    1PA    C112 1596   2.139   1.077   6.114 -0.7461 -0.6421  0.4945
    1PA    H12R 1597   2.138   1.134   6.207 -1.8093 -2.3543  1.5650
    1PA    H12S 1598   2.158   0.974   6.147  2.9479 -0.5976 -1.2089
    1PA    C111 1599   2.260   1.138   6.042  0.7782  0.0919  0.2787
    1PA    H11R 1600   2.277   1.094   5.943 -0.4605  0.6187 -0.1850
    1PA    H11S 1601   2.234   1.242   6.021 -0.8841 -0.2216  0.7189
    1PA    C110 1602   2.391   1.126   6.126  0.5696  0.0776 -1.2143
    1PA    H10R 1603   2.460   1.187   6.068  0.4868  2.2175  0.8839
    1PA    H10S 1604   2.377   1.171   6.224 -1.2929 -0.7027 -1.1052
    1PA     C19 1605   2.455   0.984   6.138 -0.2654 -0.4542 -0.5992
    1PA     H9R 1606   2.403   0.927   6.214  0.4367 -0.5380 -0.1772
    1PA     H9S 1607   2.435   0.930   6.045  1.1209  0.0435 -1.2096
    1PA     C18 1608   2.605   0.982   6.170  0.2504 -0.0147 -0.8090
    1PA     H8R 1609   2.661   1.040   6.097  0.6937  0.9194  0.2608
    1PA     H8S 1610   2.628   1.025   6.267  1.9929 -1.3596 -0.6094
    1PA     C17 1611   2.662   0.838   6.173  0.1132 -0.0617  0.1465
    1PA     H7R 1612   2.646   0.787   6.078  1.0735 -0.1574  0.0283
    1PA     H7S 1613   2.771   0.839   6.183  0.1664 -3.1474  0.1366
    1PA     C16 1614   2.613   0.759   6.292 -0.2468  0.2895  0.4052
    1PA     H6R 1615   2.652   0.808   6.381 -1.8105  0.7553  0.8496
    1PA     H6S 1616   2.505   0.769   6.300 -0.4115  0.9109 -2.2061
    1PA     C15 1617   2.647   0.609   6.282 -0.3333  0.1661  0.0093
    1PA     H5R 1618   2.603   0.567   6.191 -1.4301  0.9754  0.1567
    1PA     H5S 1619   2.754   0.600   6.262 -0.6916 -0.0284 -1.9677
    1PA     C14 1620   2.595   0.534   6.400 -0.4673 -0.3136  0.0922
    1PA     H4R 1621   2.626   0.581   6.494  0.5115 -1.6222  0.4426
    1PA     H4S 1622   2.487   0.547   6.408 -0.3170 -0.3154  2.3080
    1PA     C13 1623   2.628   0.386   6.412 -0.1185  1.0485  0.8775
    1PA     H3R 1624   2.644   0.348   6.311  0.4731 -0.2621  1.4483
    1PA     H3S 1625   2.726   0.369   6.457 -0.1301 -0.6043  0.2985
    1PA     C12 1626   2.518   0.303   6.484 -0.3956  0.0287  0.4795
    1PA     H2R 1627   2.417   0.311   6.443 -0.8531 -1.1442  1.3335
    1PA     H2S 1628   2.551   0.199   6.480 -1.4152 -0.2920  0.2643
    1PC     C11 1629   2.507   0.333   6.634 -0.2663  0.0062  0.6669
    1PC     O12 1630   2.446   0.261   6.712 -0.4920 -0.6556 -0.2901
    1PC     O11 1631   2.590   0.433   6.679 -0.6934  0.2409  0.4381
    1PC      C1 1632   2.610   0.456   6.817 -0.5384 -0.2578  0.6053
    1PC      HR 1633   2.511   0.470   6.861 -0.5657  0.7368  0.2334
    1PC      HS 1634   2.664   0.372   6.863 -0.7356 -0.1913  0.9617
    1PC      C2 1635   2.681   0.592   6.851 -0.4055 -0.1271  0.3053
    1PC      HX 1636   2.760   0.589   6.776  1.0463  0.1407  1.7972
    1PC      C3 1637   2.737   0.611   6.995  0.5734  0.6365 -0.5457
    1PC      HA 1638   2.821   0.543   7.011  0.5011  0.5280 -0.6246
    1PC      HB 1639   2.766   0.715   7.008  0.4731  1.1413 -3.9059
    1PC     O31 1640   2.628   0.568   7.082  0.2032  1.1938 -0.0059
    1PC     P31 1641   2.552   0.656   7.186  0.1697 -0.4648  0.1984
    1PC     O32 1642   2.448   0.731   7.097  0.4283  0.4003  0.8778
    1PC     C31 1643   2.318   0.672   7.059 -0.9366 -0.1397 -0.1022
    1PC     H1A 1644   2.324   0.602   6.976 -3.1541 -2.6896  1.7801
    1PC     H1B 1645   2.280   0.613   7.143 -2.1658 -0.7133 -1.0362
    1PC     C32 1646   2.234   0.792   7.023  0.0599 -0.1438 -0.2391
    1PC     H2A 1647   2.299   0.864   6.973  0.9249  0.0474  1.1334
    1PC     H2B 1648   2.162   0.755   6.949 -1.8292  2.8532  0.0335
    1PC     N31 1649   2.150   0.873   7.126 -0.3023 -0.7944 -0.0259
    1PC     C33 1650   2.234   0.932   7.236  0.6871 -0.8014 -0.1300
    1PC     H3A 1651   2.164   0.986   7.300 -0.2647  1.2284 -2.7381
    1PC     H3B 1652   2.290   0.851   7.282  0.1071 -1.8273 -1.2172
    1PC     H3C 1653   2.300   1.009   7.196  1.4207 -1.0511  0.6049
    1PC     C34 1654   2.082   0.989   7.065 -0.4396 -0.0626 -0.5650
    1PC     H4A 1655   2.160   1.056   7.029 -0.2441 -0.6985 -1.3535
    1PC     H4B 1656   2.047   0.939   6.974 -0.7998  0.9912 -1.0070
    1PC     H4C 1657   2.008   1.040   7.126 -0.9144  1.5734 -2.4664
    1PC     C35 1658   2.045   0.794   7.189 -0.3921 -0.4477 -0.2793
    1PC     H5A 1659   2.108   0.714   7.227 -1.4815 -1.0596  0.2486
    1PC     H5B 1660   1.974   0.764   7.112  0.5114  0.3831 -1.4544
    1PC     H5C 1661   1.981   0.847   7.260  0.9827 -1.3933  1.6897
    1PC     O33 1662   2.475   0.565   7.271  0.4759  0.3508  0.3087
    1PC     O34 1663   2.639   0.755   7.247 -0.3718  0.6166 -0.3070
    1PC     O21 1664   2.581   0.696   6.823 -0.0621  0.0321  0.0324
    1PC     C21 1665   2.616   0.807   6.755 -0.9435 -0.2714  0.3897
    1PC     O22 1666   2.731   0.834   6.726 -0.0333 -0.5441 -0.4700
    1OL     C12 1667   2.491   0.889   6.732  0.0382 -0.3032  1.1174
    1OL     H2R 1668   2.534   0.986   6.705 -1.8583 -0.1078 -1.4054
    1OL     H2S 1669   2.430   0.896   6.822 -0.2854  0.8099  0.8239
    1OL     C13 1670   2.404   0.840   6.608  0.7402 -0.2842  0.1844
    1OL     H3R 1671   2.470   0.821   6.523  1.6028  1.2102  0.5030
    1OL     H3S 1672   2.339   0.926   6.587 -0.4400 -1.3553 -0.6051
    1OL     C14 1673   2.326   0.722   6.629 -0.1746 -0.3652  0.1291
    1OL     H4R 1674   2.270   0.735   6.722  0.4962 -0.3820  0.5406
    1OL     H4S 1675   2.395   0.638   6.640  0.3309 -0.1775 -1.5142
    1OL     C15 1676   2.223   0.704   6.512  0.0587 -0.0914 -0.2387
    1OL     H5R 1677   2.269   0.692   6.414  0.5286 -0.2900  0.0006
    1OL     H5S 1678   2.149   0.784   6.521 -1.8286 -2.0102  2.2190
    1OL     C16 1679   2.146   0.580   6.548 -1.2263 -0.0759  0.1737
    1OL     H6R 1680   2.122   0.577   6.654 -0.0179  1.7529  0.5266
    1OL     H6S 1681   2.222   0.503   6.532 -0.0296  1.0934  0.0963
    1OL     C17 1682   2.025   0.540   6.455 -0.1303  0.2051 -0.0060
    1OL     H7R 1683   1.936   0.592   6.489 -0.0716  0.7734 -0.7100
    1OL     H7S 1684   1.996   0.439   6.485  1.6713  0.1127  1.5703
    1OL     C18 1685   2.061   0.541   6.300  0.5778 -0.3385  0.4196
    1OL     H8R 1686   2.110   0.634   6.272 -0.7125 -0.2202 -1.5877
    1OL     H8S 1687   1.972   0.539   6.236 -0.3035 -0.0277  1.6021
    1OL     C19 1688   2.165   0.438   6.267  0.5082 -0.0462  0.2727
    1OL     H9R 1689   2.159   0.343   6.320 -1.2751 -0.0669  0.0528
    1OL    C110 1690   2.260   0.455   6.178 -0.5456  0.3936 -0.7047
    1OL    H10R 1691   2.329   0.372   6.170 -1.7733 -0.5798 -1.2319
    1OL    C111 1692   2.287   0.579   6.094  0.3960 -0.2973  0.3502
    1OL    H11R 1693   2.351   0.655   6.140  0.6267 -1.6300  2.2967
    1OL    H11S 1694   2.191   0.627   6.077  0.1806 -0.1458  1.9322
    1OL    C112 1695   2.337   0.535   5.952  0.4303  0.1383  0.4022
    1OL    H12R 1696   2.269   0.462   5.907  0.5093  0.3106 -0.0030
    1OL    H12S 1697   2.438   0.493   5.961 -0.1926 -1.2523  0.9868
    1OL    C113 1698   2.350   0.651   5.855  0.8323 -0.2277 -0.3569
    1OL    H13R 1699   2.430   0.714   5.892  0.2014  1.0720 -1.1881
    1OL    H13S 1700   2.263   0.718   5.856  0.9068 -0.1246 -0.8274
    1OL    C114 1701   2.383   0.611   5.716  0.4965  0.1603  0.2294
    1OL    H14R 1702   2.312   0.530   5.700 -0.2767  0.3646  2.4304
    1OL    H14S 1703   2.485   0.574   5.709  0.2509 -0.1789 -1.7982
    1OL    C115 1704   2.361   0.730   5.609 -0.6818 -0.7784 -0.0754
    1OL    H15R 1705   2.430   0.720   5.524  1.0607 -0.3104  1.2407
    1OL    H15S 1706   2.403   0.820   5.655  0.7326  0.1055 -2.9399
    1OL    C116 1707   2.216   0.755   5.560  0.0213  0.6469 -0.5038
    1OL    H16R 1708   2.143   0.754   5.641 -0.4677 -1.3159 -0.9161
    1OL    H16S 1709   2.179   0.670   5.501  1.6536  0.7927 -1.7771
    1OL    C117 1710   2.193   0.875   5.472 -0.6470  0.2048  0.3226
    1OL    H17R 1711   2.248   0.960   5.515 -1.4901  1.0402 -0.2410
    1OL    H17S 1712   2.087   0.900   5.459 -0.2057  1.8941 -0.2097
    1OL    C118 1713   2.254   0.848   5.337  0.7563  0.7748 -0.8309
    1OL    H18R 1714   2.188   0.787   5.275 -0.5975  2.2516 -0.8667
    1OL    H18S 1715   2.358   0.814   5.338 -0.0251 -1.7499 -0.7073
    1OL    H18T 1716   2.260   0.942   5.283  0.7260  0.2862 -1.6938
    1PA    C116 1717   4.552   1.897   5.493 -0.2907  0.2462 -0.0940
    1PA    H16R 1718   4.507   1.991   5.458 -1.1932 -0.1241  0.0439
    1PA    H16S 1719   4.487   1.861   5.574  0.9401 -1.9878 -0.0680
    1PA    H16T 1720   4.556   1.822   5.413 -0.6529  0.5968 -0.4437
    1PA    C115 1721   4.694   1.929   5.550  0.8205  0.4504  0.0023
    1PA    H15R 1722   4.770   1.946   5.474  1.4222  2.1720  0.9494
    1PA    H15S 1723   4.692   2.026   5.601  1.3597  1.1376 -1.2534
    1PA    C114 1724   4.751   1.825   5.650 -0.1060  0.4196  0.6111
    1PA    H14R 1725   4.750   1.726   5.603 -0.2099  1.2989 -1.2644
    1PA    H14S 1726   4.853   1.844   5.684  1.5404 -2.8059 -2.1736
    1PA    C113 1727   4.668   1.804   5.777  0.8808 -0.3084 -0.3079
    1PA    H13R 1728   4.576   1.748   5.761  1.5128 -1.3628 -0.3269
    1PA    H13S 1729   4.728   1.735   5.836  1.4538  1.6373  1.4495
    1PA    C112 1730   4.625   1.930   5.857 -0.3439 -0.4992  0.4241
    1PA    H12R 1731   4.542   1.977   5.804  0.4926 -0.3777 -0.8160
    1PA    H12S 1732   4.582   1.896   5.951  0.1318 -2.5680 -0.0836
    1PA    C111 1733   4.739   2.027   5.888  0.2201  0.4383 -0.0558
    1PA    H11R 1734   4.775   2.069   5.793  2.2721  1.7359  1.2502
    1PA    H11S 1735   4.707   2.113   5.946 -0.8574 -1.7996  2.8033
    1PA    C110 1736   4.850   1.957   5.967  0.7039 -0.3325 -0.9610
    1PA    H10R 1737   4.888   1.867   5.918 -0.1248 -0.2908 -1.6949
    1PA    H10S 1738   4.932   2.030   5.965  0.5624 -0.0991  0.9014
    1PA     C19 1739   4.807   1.934   6.114 -0.1631  0.4163  0.6564
    1PA     H9R 1740   4.705   1.897   6.123 -0.7064  1.0850 -2.2284
    1PA     H9S 1741   4.869   1.850   6.147 -1.3408 -0.8279 -0.2809
    1PA     C18 1742   4.815   2.062   6.200  0.7377  0.0909  0.8349
    1PA     H8R 1743   4.915   2.104   6.189  1.4227 -1.2180  1.9132
    1PA     H8S 1744   4.745   2.131   6.153  0.9265 -1.5357 -1.9428
    1PA     C17 1745   4.797   2.035   6.348  0.4862 -0.3415  0.0108
    1PA     H7R 1746   4.882   1.978   6.386  0.1552 -1.1179 -0.4049
    1PA     H7S 1747   4.784   2.132   6.397 -1.4036 -0.7205  0.3139
    1PA     C16 1748   4.671   1.956   6.374 -0.3766  0.0099 -1.0052
    1PA     H6R 1749   4.586   2.007   6.328 -1.9882 -2.1293 -0.4998
    1PA     H6S 1750   4.662   1.865   6.315 -2.6586  0.8655 -2.0463
    1PA     C15 1751   4.635   1.947   6.524 -0.9235  0.1293 -0.0305
    1PA     H5R 1752   4.610   2.043   6.569  0.5750 -0.2050  1.5430
    1PA     H5S 1753   4.541   1.893   6.527 -0.9822  0.2320 -0.0416
    1PA     C14 1754   4.739   1.863   6.614 -1.2070 -0.5419 -1.6465
    1PA     H4R 1755   4.829   1.922   6.630 -1.3305 -1.2391  2.1809
    1PA     H4S 1756   4.690   1.871   6.712  0.4471  1.0350 -0.9193
    1PA     C13 1757   4.771   1.717   6.585 -0.1923 -0.7818  0.2942
    1PA     H3R 1758   4.677   1.663   6.574  0.0254 -1.3960  1.4312
    1PA     H3S 1759   4.829   1.703   6.494  0.1773 -0.1512  0.4305
    1PA     C12 1760   4.848   1.659   6.699 -0.4524  0.3570 -0.2600
    1PA     H2R 1761   4.785   1.662   6.788  0.0022  1.1174  0.0401
    1PA     H2S 1762   4.858   1.554   6.673 -1.1811  0.5965 -1.5852
    1PC     C11 1763   4.982   1.720   6.734 -0.3897 -1.0670  0.0512
    1PC     O12 1764   5.069   1.739   6.649  0.5239 -0.1256  0.7258
    1PC     O11 1765   5.003   1.739   6.866 -0.1936  0.1642  0.5331
    1PC      C1 1766   5.114   1.816   6.913 -0.8576  0.8059  0.1752
    1PC      HR 1767   5.156   1.764   7.000 -0.5127  0.0211 -0.4530
    1PC      HS 1768   5.196   1.825   6.841 -1.2508 -0.4367 -0.4381
    1PC      C2 1769   5.067   1.960   6.941 -1.2401 -0.4406 -0.1067
    1PC      HX 1770   5.155   2.011   6.980 -0.7125 -0.6306 -1.0345
    1PC      C3 1771   4.959   1.960   7.056 -0.1919 -0.1112 -0.0008
    1PC      HA 1772   4.986   1.905   7.146 -1.3317 -1.5273 -0.5059
    1PC      HB 1773   4.950   2.063   7.092 -1.1586  0.0349 -0.6287
    1PC     O31 1774   4.830   1.909   7.008  0.5764  0.5681 -0.2828
    1PC     P31 1775   4.702   1.909   7.106 -0.2623 -0.0018 -0.5456
    1PC     O32 1776   4.579   1.899   7.001  0.3134 -0.7136 -0.0574
    1PC     C31 1777   4.521   2.016   6.941 -0.6454 -0.8030  0.2783
    1PC     H1A 1778   4.600   2.087   6.916 -2.3816  0.0963 -2.9874
    1PC     H1B 1779   4.480   1.989   6.844  0.3808  0.3398 -0.4911
    1PC     C32 1780   4.426   2.073   7.038  0.3766  0.3861  0.4542
    1PC     H2A 1781   4.457   2.061   7.141  0.3090  2.1136  0.6925
    1PC     H2B 1782   4.413   2.180   7.017 -2.3723  0.3742  1.8015
    1PC     N31 1783   4.280   2.022   7.045 -0.2947  1.0887  0.3218
    1PC     C33 1784   4.281   1.875   7.044 -0.0927  0.5221  1.4741
    1PC     H3A 1785   4.346   1.836   7.122 -1.0063  0.6994  2.3257
    1PC     H3B 1786   4.184   1.839   7.079  0.3540 -2.5737 -0.2843
    1PC     H3C 1787   4.309   1.826   6.950  0.2001  0.9332  1.3443
    1PC     C34 1788   4.225   2.049   7.178 -0.4138 -0.0011  0.7928
    1PC     H4A 1789   4.291   1.987   7.239 -0.2752 -0.2555  0.3927
    1PC     H4B 1790   4.239   2.155   7.196  1.2807  0.0696 -0.8744
    1PC     H4C 1791   4.121   2.017   7.170 -0.7691  0.9803  1.4364
    1PC     C35 1792   4.195   2.082   6.937 -0.3085 -0.1446 -0.0023
    1PC     H5A 1793   4.200   2.191   6.947 -2.9430  0.0599 -0.3840
    1PC     H5B 1794   4.093   2.047   6.957 -0.5208  1.2399  1.4659
    1PC     H5C 1795   4.218   2.058   6.833 -0.2428  0.8067 -0.2114
    1PC     O33 1796   4.720   1.784   7.184 -0.2465  0.5949  0.1666
    1PC     O34 1797   4.699   2.029   7.187 -0.4249 -0.7006 -0.7353
    1PC     O21 1798   5.008   2.018   6.818  0.4238 -0.0042  0.6201
    1PC     C21 1799   5.001   2.154   6.811  0.6051  0.4471 -0.7689
    1PC     O22 1800   5.021   2.230   6.904  0.3602 -0.0651  0.4961
    1OL     C12 1801   4.957   2.195   6.674  0.2652  0.5995 -0.5861
    1OL     H2R 1802   4.960   2.107   6.609 -1.9646  0.3459 -0.4080
    1OL     H2S 1803   5.036   2.258   6.634 -0.1925  0.2078 -2.1473
    1OL     C13 1804   4.824   2.276   6.681 -0.4760  0.4194 -0.1898
    1OL     H3R 1805   4.762   2.263   6.770  0.5118  1.5476  0.6789
    1OL     H3S 1806   4.755   2.249   6.600 -1.4978  0.4689  0.6477
    1OL     C14 1807   4.845   2.432   6.669 -0.3188 -0.2030 -0.4726
    1OL     H4R 1808   4.923   2.453   6.742 -1.1172  2.3051 -0.2694
    1OL     H4S 1809   4.752   2.481   6.700  0.1274 -0.9486  2.1398
    1OL     C15 1810   4.894   2.485   6.527  0.2210  0.9004 -0.5080
    1OL     H5R 1811   4.980   2.428   6.492 -1.1684 -1.0783 -0.7716
    1OL     H5S 1812   4.920   2.590   6.537 -1.8634  1.3535  0.4030
    1OL     C16 1813   4.770   2.476   6.425  0.4573  0.0687 -0.0952
    1OL     H6R 1814   4.698   2.546   6.467  1.4203  2.3761 -2.1231
    1OL     H6S 1815   4.728   2.375   6.424  2.9377 -1.0604  3.0720
    1OL     C17 1816   4.809   2.519   6.282  0.5506 -0.0362  0.5387
    1OL     H7R 1817   4.873   2.446   6.232  0.2353  1.9491 -2.9434
    1OL     H7S 1818   4.861   2.615   6.278 -0.2156  0.3700  0.2454
    1OL     C18 1819   4.682   2.529   6.199  0.2999 -0.7481  0.0064
    1OL     H8R 1820   4.611   2.603   6.237 -2.0525 -2.7412 -0.4000
    1OL     H8S 1821   4.630   2.432   6.199 -1.0437 -0.0924 -2.7788
    1OL     C19 1822   4.722   2.570   6.054 -0.1490  0.6749 -0.7124
    1OL     H9R 1823   4.801   2.645   6.053 -0.0183  0.5373 -0.5101
    1OL    C110 1824   4.664   2.523   5.948 -0.2747 -0.0237  0.8958
    1OL    H10R 1825   4.703   2.564   5.855 -1.6173 -1.5428 -0.3879
    1OL    C111 1826   4.549   2.422   5.942  0.0377 -0.0791  0.3265
    1OL    H11R 1827   4.506   2.400   6.039  0.7686 -0.6026  0.5385
    1OL    H11S 1828   4.590   2.328   5.904 -0.5540 -0.5800  0.9253
    1OL    C112 1829   4.444   2.483   5.855  0.1849 -0.1862  0.0810
    1OL    H12R 1830   4.491   2.533   5.770 -0.1788 -1.1036 -0.6609
    1OL    H12S 1831   4.407   2.571   5.908  1.4346  2.2061 -2.8862
    1OL    C113 1832   4.322   2.407   5.815  0.0635  0.2587  0.0074
    1OL    H13R 1833   4.271   2.477   5.749  1.5145  1.8839  0.5755
    1OL    H13S 1834   4.260   2.382   5.901  1.0762 -0.8299  0.4402
    1OL    C114 1835   4.367   2.268   5.751  0.5889 -0.1462  0.5687
    1OL    H14R 1836   4.385   2.198   5.833  1.8000 -1.4244 -0.7681
    1OL    H14S 1837   4.458   2.282   5.692  1.4970 -0.6524  1.8320
    1OL    C115 1838   4.263   2.203   5.659 -1.0619  0.2091 -0.1354
    1OL    H15R 1839   4.188   2.153   5.720  0.0234  0.9355  1.8130
    1OL    H15S 1840   4.321   2.127   5.606 -0.1961  1.3853 -0.9199
    1OL    C116 1841   4.200   2.302   5.559  0.4681  0.3128 -0.3336
    1OL    H16R 1842   4.284   2.354   5.513 -0.2129  2.6334  1.0179
    1OL    H16S 1843   4.132   2.372   5.606  0.7113  1.0212 -1.0212
    1OL    C117 1844   4.117   2.237   5.450  0.3598  0.1881  0.0349
    1OL    H17R 1845   4.170   2.144   5.428  1.2632  0.3365  1.4761
    1OL    H17S 1846   4.116   2.292   5.355 -0.4043  1.4160  0.7428
    1OL    C118 1847   3.974   2.195   5.483  0.0442 -0.0583  0.3044
    1OL    H18R 1848   3.931   2.275   5.543  0.7159  1.3084 -1.0159
    1OL    H18S 1849   3.977   2.101   5.539 -1.4063  0.1218  0.6959
    1OL    H18T 1850   3.909   2.177   5.397 -2.1446 -0.3837  1.9739
    1PA    C116 1851   3.703   0.705   5.268  0.7020  0.4957 -0.1451
    1PA    H16R 1852   3.655   0.801   5.246  0.9039  0.3437 -1.2503
    1PA    H16S 1853   3.646   0.626   5.221 -0.1187  1.3962 -0.6688
    1PA    H16T 1854   3.803   0.702   5.224  0.7076 -0.3315 -0.0819
    1PA    C115 1855   3.699   0.687   5.421 -0.3961  0.7845  0.1078
    1PA    H15R 1856   3.785   0.743   5.456 -0.9740  0.4473  2.1506
    1PA    H15S 1857   3.607   0.734   5.456 -0.5278  0.4796  0.1720
    1PA    C114 1858   3.718   0.542   5.472  0.4749  0.4008 -0.0826
    1PA    H14R 1859   3.641   0.469   5.448  0.7738  0.4625 -1.2221
    1PA    H14S 1860   3.815   0.512   5.433 -0.2415 -2.4342  0.2333
    1PA    C113 1861   3.730   0.529   5.624 -0.1608 -1.0963  0.7722
    1PA    H13R 1862   3.628   0.556   5.653 -0.8043 -0.4421 -1.9841
    1PA    H13S 1863   3.743   0.424   5.654 -0.6885 -1.1748  0.7325
    1PA    C112 1864   3.844   0.615   5.684 -0.3582  0.0446  0.0282
    1PA    H12R 1865   3.939   0.579   5.644 -1.5077 -2.1126 -0.8855
    1PA    H12S 1866   3.839   0.717   5.647  0.8883 -0.5875 -1.9793
    1PA    C111 1867   3.845   0.615   5.838 -0.4228  0.4848 -0.3250
    1PA    H11R 1868   3.761   0.677   5.870 -0.8753  0.7185 -1.8938
    1PA    H11S 1869   3.845   0.512   5.873 -1.0863  0.5812 -0.0369
    1PA    C110 1870   3.980   0.671   5.878 -0.0359 -0.0400 -0.5760
    1PA    H10R 1871   4.063   0.626   5.824 -0.7652 -0.8297 -1.0576
    1PA    H10S 1872   3.983   0.775   5.844 -0.1000 -0.5645 -2.2076
    1PA     C19 1873   4.012   0.663   6.031 -0.0751  0.4399 -0.8786
    1PA     H9R 1874   4.005   0.556   6.052  1.1525  0.5740  0.3444
    1PA     H9S 1875   4.116   0.694   6.044 -0.3544  1.4209 -0.9386
    1PA     C18 1876   3.912   0.741   6.113 -0.1352  0.1810 -0.0884
    1PA     H8R 1877   3.928   0.847   6.095 -1.9041  0.5751  0.5220
    1PA     H8S 1878   3.807   0.716   6.096 -0.6056  1.0705  1.4443
    1PA     C17 1879   3.950   0.712   6.262  0.2359 -0.6904  0.1560
    1PA     H7R 1880   3.965   0.605   6.277 -1.0850 -0.7175  1.4388
    1PA     H7S 1881   4.046   0.761   6.279  0.3908 -0.0503 -2.4078
    1PA     C16 1882   3.850   0.773   6.358  0.0878  0.4778 -0.0697
    1PA     H6R 1883   3.891   0.787   6.458  0.2541  0.3692 -0.1225
    1PA     H6S 1884   3.837   0.875   6.323  5.1920  0.9913 -0.8890
    1PA     C15 1885   3.716   0.701   6.363  0.4839  0.3497  0.0930
    1PA     H5R 1886   3.669   0.681   6.267 -3.0172  0.5883  1.6844
    1PA     H5S 1887   3.748   0.603   6.399  0.0410 -1.5163 -4.2421
    1PA     C14 1888   3.606   0.763   6.450 -0.1470 -0.6915 -0.2632
    1PA     H4R 1889   3.518   0.699   6.440 -0.1147 -0.8877  0.6691
    1PA     H4S 1890   3.638   0.772   6.554 -0.6647 -1.8044  0.0070
    1PA     C13 1891   3.559   0.907   6.404  0.2467 -0.2366 -0.2940
    1PA     H3R 1892   3.632   0.985   6.425 -1.2546  0.9749  0.5297
    1PA     H3S 1893   3.541   0.907   6.296 -0.8914  1.3169 -0.1141
    1PA     C12 1894   3.436   0.969   6.471  0.1761  0.0877  0.3339
    1PA     H2R 1895   3.413   1.058   6.413  0.1214 -0.3973 -0.4013
    1PA     H2S 1896   3.350   0.902   6.472  1.6167 -1.7904  1.6640
    1PC     C11 1897   3.460   0.996   6.621  0.3668 -0.4797 -0.6771
    1PC     O12 1898   3.561   1.043   6.666 -0.5568  0.4078 -0.0189
    1PC     O11 1899   3.356   0.948   6.690 -0.8500 -0.1376  0.3568
    1PC      C1 1900   3.363   0.966   6.834 -0.3006  0.1542 -0.0657
    1PC      HR 1901   3.450   0.909   6.867  0.8009  1.3272 -0.8811
    1PC      HS 1902   3.369   1.074   6.853 -0.3667  0.2625 -0.6478
    1PC      C2 1903   3.239   0.898   6.900  0.1491  0.1688  0.2063
    1PC      HX 1904   3.149   0.948   6.864  0.6999  0.0627 -1.3692
    1PC      C3 1905   3.247   0.898   7.062  0.1705 -0.0617 -0.2419
    1PC      HA 1906   3.241   0.997   7.107  1.3845 -1.0122  2.0923
    1PC      HB 1907   3.164   0.838   7.100 -0.8014  0.5079 -1.4288
    1PC     O31 1908   3.363   0.829   7.126 -0.5027 -0.2081  0.3734
    1PC     P31 1909   3.476   0.914   7.191 -0.6459  0.2107 -0.1025
    1PC     O32 1910   3.441   0.919   7.342 -0.1353 -0.4209 -0.3071
    1PC     C31 1911   3.450   0.805   7.430 -0.2530 -0.1400 -0.3338
    1PC     H1A 1912   3.379   0.728   7.400 -1.1671  0.9965 -1.0909
    1PC     H1B 1913   3.549   0.760   7.438 -0.8904 -1.4181  0.6736
    1PC     C32 1914   3.409   0.850   7.577 -1.2821  0.1197  0.1436
    1PC     H2A 1915   3.304   0.881   7.570 -0.8536  1.1996 -2.0065
    1PC     H2B 1916   3.404   0.753   7.627  0.4979 -0.4638 -0.7704
    1PC     N31 1917   3.494   0.945   7.650 -0.1239 -0.7468  0.6139
    1PC     C33 1918   3.531   1.070   7.577  0.1710 -0.2736 -0.0797
    1PC     H3A 1919   3.583   1.140   7.641 -0.4254  0.5583 -0.4876
    1PC     H3B 1920   3.588   1.042   7.488 -0.4556 -0.0632 -0.5586
    1PC     H3C 1921   3.432   1.106   7.548 -0.0891  0.8505  2.1682
    1PC     C34 1922   3.420   0.970   7.776 -0.2608 -0.9505  0.0127
    1PC     H4A 1923   3.474   1.043   7.836  0.0323 -1.3966  0.2974
    1PC     H4B 1924   3.319   1.006   7.754  0.6445  1.2631 -0.6252
    1PC     H4C 1925   3.416   0.879   7.838  1.1343 -1.0886 -0.0966
    1PC     C35 1926   3.620   0.873   7.685 -0.2582  1.0145  0.4233
    1PC     H5A 1927   3.580   0.774   7.706 -1.4526  1.8026  2.0212
    1PC     H5B 1928   3.654   0.925   7.775 -0.0735  1.2549  0.2162
    1PC     H5C 1929   3.690   0.891   7.603 -0.1512  0.7550  0.4593
    1PC     O33 1930   3.601   0.833   7.176 -0.4637 -0.3253 -0.6845
    1PC     O34 1931   3.480   1.046   7.137 -0.0414  0.0067 -0.0661
    1PC     O21 1932   3.238   0.762   6.858  0.3790 -0.2079 -0.0411
    1PC     C21 1933   3.123   0.695   6.862  0.3244 -0.1132  0.8073
    1PC     O22 1934   3.022   0.738   6.916 -0.5030 -0.3821  0.5981
    1OL     C12 1935   3.134   0.563   6.800 -0.3708  0.5954 -0.1743
    1OL     H2R 1936   3.041   0.507   6.808  0.1784 -0.5983 -1.9585
    1OL     H2S 1937   3.214   0.510   6.852  0.3545 -0.4868 -2.3345
    1OL     C13 1938   3.178   0.579   6.650 -0.1014  0.4197  0.2612
    1OL     H3R 1939   3.201   0.477   6.618  0.2110  0.9200 -1.1671
    1OL     H3S 1940   3.265   0.646   6.645 -1.4394  2.0716 -2.2533
    1OL     C14 1941   3.069   0.632   6.555 -0.4845  0.6159  0.4377
    1OL     H4R 1942   3.027   0.723   6.598 -2.8081 -1.1512  2.0344
    1OL     H4S 1943   2.997   0.551   6.546  0.8643 -0.3510 -2.4654
    1OL     C15 1944   3.130   0.671   6.415  0.9847  0.1413 -0.4795
    1OL     H5R 1945   3.189   0.588   6.375  1.7087  0.9500 -1.0949
    1OL     H5S 1946   3.195   0.759   6.421 -0.7326  1.4636 -0.7921
    1OL     C16 1947   3.028   0.689   6.302 -0.8034 -0.2186  0.5917
    1OL     H6R 1948   2.960   0.772   6.324  0.3956  0.8566  0.2904
    1OL     H6S 1949   2.959   0.606   6.319 -1.0551 -0.4948 -1.6607
    1OL     C17 1950   3.070   0.690   6.157 -0.4118  0.4553 -0.3270
    1OL     H7R 1951   2.987   0.683   6.087  0.7915 -1.3410 -1.6113
    1OL     H7S 1952   3.132   0.601   6.153 -0.4373  0.4931 -1.8158
    1OL     C18 1953   3.153   0.810   6.105 -0.0490  0.0660 -0.1604
    1OL     H8R 1954   3.186   0.806   6.000 -0.2115  0.8572 -0.2504
    1OL     H8S 1955   3.249   0.812   6.158 -0.3513  1.0289  0.3783
    1OL     C19 1956   3.095   0.945   6.150  0.7347  0.0395  0.3440
    1OL     H9R 1957   3.087   0.958   6.258  0.0488  1.3202  0.1551
    1OL    C110 1958   3.057   1.044   6.072 -0.5164  0.1713 -0.5990
    1OL    H10R 1959   3.012   1.127   6.125  0.4383 -0.7661  1.7080
    1OL    C111 1960   3.061   1.040   5.915 -0.0519  0.5874 -0.5657
    1OL    H11R 1961   2.972   0.997   5.868  1.1459 -0.8606 -1.5693
    1OL    H11S 1962   3.145   0.978   5.884  0.6201 -0.0048  2.3097
    1OL    C112 1963   3.084   1.177   5.849  0.3232 -0.5272  0.3448
    1OL    H12R 1964   3.174   1.225   5.886 -0.0710  4.0335 -4.0261
    1OL    H12S 1965   2.996   1.236   5.876  0.0349 -1.2363  0.9748
    1OL    C113 1966   3.094   1.183   5.694  0.0991  0.0623 -0.4277
    1OL    H13R 1967   2.991   1.187   5.657 -0.4265 -0.5584  0.9414
    1OL    H13S 1968   3.144   1.094   5.654  0.4351  0.0241  0.0796
    1OL    C114 1969   3.173   1.309   5.637 -0.0600 -0.0717 -0.8861
    1OL    H14R 1970   3.281   1.293   5.647 -0.0035  1.0709  0.7124
    1OL    H14S 1971   3.151   1.402   5.692  1.1239  0.1407 -0.7547
    1OL    C115 1972   3.141   1.335   5.492  0.1528 -0.3485 -0.0860
    1OL    H15R 1973   3.202   1.418   5.459  1.1181 -0.8284  0.4791
    1OL    H15S 1974   3.037   1.368   5.496 -0.6363 -2.7023 -0.5662
    1OL    C116 1975   3.149   1.214   5.397 -0.0029  0.5046 -0.0564
    1OL    H16R 1976   3.106   1.244   5.301  1.5078  0.1511 -0.8666
    1OL    H16S 1977   3.081   1.140   5.439 -2.0531  2.0816 -0.5208
    1OL    C117 1978   3.289   1.150   5.385 -0.9011  0.6930  0.4734
    1OL    H17R 1979   3.343   1.161   5.479  0.3503  1.4361 -0.3111
    1OL    H17S 1980   3.357   1.217   5.332  2.1706  0.7746  4.2921
    1OL    C118 1981   3.296   1.008   5.326  0.9546 -0.0609 -0.3267
    1OL    H18R 1982   3.395   0.963   5.337  0.7037 -0.5631 -0.0799
    1OL    H18S 1983   3.267   1.020   5.222 -1.3777 -0.5076  0.2534
    1OL    H18T 1984   3.226   0.946   5.382 -0.3583  1.7343  0.0442
    1PA    C116 1985   2.382   5.182   5.643 -0.1172  0.5962 -0.2958
    1PA    H16R 1986   2.347   5.285   5.652 -0.1036  0.4726  1.3531
    1PA    H16S 1987   2.293   5.120   5.628  1.5024 -1.7336 -0.5308
    1PA    H16T 1988   2.444   5.173   5.553 -0.9262  3.0607 -1.1379
    1PA    C115 1989   2.457   5.139   5.772  0.4911 -0.6367 -0.3834
    1PA    H15R 1990   2.511   5.045   5.758  0.3367 -0.7092 -0.5041
    1PA    H15S 1991   2.527   5.221   5.789  0.5544 -0.9292  0.8252
    1PA    C114 1992   2.354   5.133   5.888 -0.5499  0.4307 -0.3340
    1PA    H14R 1993   2.298   5.227   5.895  0.8269  1.3252 -1.1407
    1PA    H14S 1994   2.280   5.055   5.867  1.2166 -1.1531 -0.8497
    1PA    C113 1995   2.406   5.105   6.031 -0.0218  0.3698  0.1822
    1PA    H13R 1996   2.459   5.193   6.069  0.6027  0.7292 -1.4776
    1PA    H13S 1997   2.316   5.102   6.093 -0.2863 -1.7722 -0.2652
    1PA    C112 1998   2.489   4.973   6.055 -0.5336 -0.0848  0.4318
    1PA    H12R 1999   2.579   4.961   5.994  1.2562  0.1781  2.9441
    1PA    H12S 2000   2.523   4.965   6.158  0.4957 -0.9070  0.0342
    1PA    C111 2001   2.408   4.837   6.032  0.2298  0.7224  0.1994
    1PA    H11R 2002   2.341   4.826   6.117  0.0882  1.5347  0.1951
    1PA    H11S 2003   2.360   4.842   5.934 -0.4241 -0.2322  0.4587
    1PA    C110 2004   2.496   4.711   6.022 -0.2548 -0.0704 -0.3979
    1PA    H10R 2005   2.577   4.725   5.950  0.0747  1.0655  0.1788
    1PA    H10S 2006   2.543   4.695   6.118 -0.1904  0.7197 -0.2891
    1PA     C19 2007   2.418   4.587   5.974  0.1017  0.1282  0.6088
    1PA     H9R 2008   2.390   4.615   5.872 -1.4474 -0.4183  0.8687
    1PA     H9S 2009   2.490   4.505   5.965 -0.2675 -0.1618  0.2803
    1PA     C18 2010   2.286   4.548   6.054 -0.4435 -0.0333 -0.5985
    1PA     H8R 2011   2.224   4.638   6.065 -0.3944 -0.2965  2.0898
    1PA     H8S 2012   2.230   4.482   5.988 -1.4066  0.5892 -0.4244
    1PA     C17 2013   2.323   4.484   6.188  0.1218 -0.3565  0.1989
    1PA     H7R 2014   2.380   4.394   6.167  0.0662 -0.3637  0.0782
    1PA     H7S 2015   2.385   4.553   6.246 -2.4925  2.6676 -0.4602
    1PA     C16 2016   2.207   4.449   6.271  0.3021 -0.1694 -0.0042
    1PA     H6R 2017   2.247   4.401   6.361  2.0106  0.7089 -0.2693
    1PA     H6S 2018   2.147   4.532   6.309 -0.5821 -1.6202  1.8815
    1PA     C15 2019   2.103   4.357   6.203 -0.3847  0.4355  0.4192
    1PA     H5R 2020   2.032   4.333   6.282 -0.6997 -0.4413 -0.1201
    1PA     H5S 2021   2.039   4.411   6.132 -1.1079 -0.5586  0.3063
    1PA     C14 2022   2.166   4.224   6.143 -0.0022 -0.8032  0.6443
    1PA     H4R 2023   2.080   4.174   6.099  0.8795 -1.7440 -0.0239
    1PA     H4S 2024   2.232   4.261   6.064  0.1006 -0.7000  0.7796
    1PA     C13 2025   2.256   4.144   6.248  0.7298  0.1314  0.3300
    1PA     H3R 2026   2.303   4.052   6.212  1.0240  0.7935 -1.0418
    1PA     H3S 2027   2.341   4.206   6.277  1.8694 -1.3106  0.1335
    1PA     C12 2028   2.189   4.123   6.388 -0.1335 -0.0486 -0.1170
    1PA     H2R 2029   2.132   4.211   6.419  0.6025  0.7838 -1.0909
    1PA     H2S 2030   2.112   4.045   6.386  1.4917 -1.6523 -1.5539
    1PC     C11 2031   2.285   4.088   6.502  0.4567 -0.5180 -0.1536
    1PC     O12 2032   2.407   4.101   6.509  0.0487 -0.4933 -0.2836
    1PC     O11 2033   2.217   4.044   6.607  0.2455 -0.3094 -0.1662
    1PC      C1 2034   2.284   4.029   6.740  0.0351 -1.0195 -0.0497
    1PC      HR 2035   2.387   3.992   6.736  0.0908 -0.6826 -2.0885
    1PC      HS 2036   2.278   4.130   6.782 -0.1056 -0.0675 -2.2608
    1PC      C2 2037   2.197   3.933   6.826 -0.3489 -0.1035 -0.9150
    1PC      HX 2038   2.096   3.974   6.831  0.0814  0.9551 -0.6954
    1PC      C3 2039   2.240   3.920   6.971  0.1831  0.7241 -0.2942
    1PC      HA 2040   2.159   3.877   7.030  3.0027  1.1447  4.1806
    1PC      HB 2041   2.329   3.857   6.983 -0.5911 -0.6002 -1.4547
    1PC     O31 2042   2.272   4.048   7.024 -0.0287 -0.3420 -0.4407
    1PC     P31 2043   2.363   4.063   7.157  0.2799  0.1131  0.1722
    1PC     O32 2044   2.510   4.047   7.093  0.2910  0.4083 -0.0945
    1PC     C31 2045   2.564   4.165   7.037 -0.0520 -0.2044  0.6314
    1PC     H1A 2046   2.500   4.252   7.056  0.5239  0.4235 -0.2358
    1PC     H1B 2047   2.657   4.190   7.089  1.1056  0.3302 -1.6115
    1PC     C32 2048   2.579   4.144   6.888 -0.7281 -0.4770 -0.4824
    1PC     H2A 2049   2.602   4.038   6.884 -1.4751 -0.7574  1.8984
    1PC     H2B 2050   2.485   4.169   6.838 -1.3825 -0.3079  0.7928
    1PC     N31 2051   2.697   4.219   6.820 -0.5962 -0.0039 -0.3097
    1PC     C33 2052   2.822   4.159   6.869  0.4507 -0.2160 -0.1798
    1PC     H3A 2053   2.806   4.051   6.878  1.1847 -0.2490  0.8556
    1PC     H3B 2054   2.908   4.184   6.805  1.3440 -0.5704  0.8645
    1PC     H3C 2055   2.843   4.201   6.967 -0.5411  0.2050 -0.1486
    1PC     C34 2056   2.684   4.192   6.673 -0.3488 -0.1318 -0.1888
    1PC     H4A 2057   2.583   4.227   6.649 -0.5982  0.3928  1.5436
    1PC     H4B 2058   2.760   4.247   6.618 -0.5296  0.4820  0.1678
    1PC     H4C 2059   2.698   4.085   6.658 -1.4482 -0.3860  0.4908
    1PC     C35 2060   2.689   4.363   6.839 -0.0399 -0.5055 -0.5372
    1PC     H5A 2061   2.588   4.400   6.852 -0.6623 -2.3034 -0.1354
    1PC     H5B 2062   2.742   4.417   6.759  1.1081 -1.9313 -0.7618
    1PC     H5C 2063   2.745   4.371   6.932  0.0265 -0.5187 -0.5768
    1PC     O33 2064   2.335   4.191   7.218 -0.0529 -0.1175 -0.3433
    1PC     O34 2065   2.339   3.947   7.248 -0.2389  0.0645  0.3903
    1PC     O21 2066   2.197   3.794   6.768 -0.5029 -0.4770 -0.1954
    1PC     C21 2067   2.081   3.739   6.729  1.2377 -0.2323 -0.2644
    1PC     O22 2068   1.972   3.773   6.771 -0.3402  0.0982 -0.7035
    1OL     C12 2069   2.103   3.609   6.663 -0.2717  0.4794 -0.0950
    1OL     H2R 2070   2.049   3.537   6.724  0.4494 -1.0666 -1.2365
    1OL     H2S 2071   2.203   3.564   6.668 -1.3116 -2.1174 -1.8124
    1OL     C13 2072   2.061   3.602   6.514 -0.4180 -0.0787  0.4151
    1OL     H3R 2073   1.954   3.609   6.497 -0.1028  1.0322 -1.2104
    1OL     H3S 2074   2.080   3.500   6.480 -1.6629  0.2550 -1.3141
    1OL     C14 2075   2.119   3.703   6.420 -0.7050 -0.8498  0.3911
    1OL     H4R 2076   2.066   3.798   6.430 -1.1448 -1.1693  1.0934
    1OL     H4S 2077   2.088   3.678   6.318 -0.4505 -0.6145  0.2555
    1OL     C15 2078   2.265   3.737   6.436 -0.1796 -0.3206 -0.4724
    1OL     H5R 2079   2.279   3.780   6.535  0.4604 -0.4647 -0.4962
    1OL     H5S 2080   2.294   3.818   6.368  1.2447 -0.8419 -0.5051
    1OL     C16 2081   2.368   3.624   6.428 -1.0858 -0.5148  0.1042
    1OL     H6R 2082   2.326   3.538   6.480 -0.5336 -0.9196 -0.1099
    1OL     H6S 2083   2.457   3.656   6.482 -0.4407  0.9651 -1.7734
    1OL     C17 2084   2.401   3.589   6.281  0.3592  0.2447 -0.0960
    1OL     H7R 2085   2.479   3.512   6.275  0.6771  0.3724  2.1541
    1OL     H7S 2086   2.308   3.544   6.246 -1.2381  1.5054  2.4508
    1OL     C18 2087   2.439   3.698   6.180 -0.6296 -0.1372 -0.5079
    1OL     H8R 2088   2.546   3.714   6.199 -0.4557 -0.7949 -0.8924
    1OL     H8S 2089   2.386   3.793   6.190  1.6484  1.1445 -0.2227
    1OL     C19 2090   2.423   3.641   6.042 -0.3061 -0.2654 -0.0846
    1OL     H9R 2091   2.476   3.547   6.027 -0.2811 -0.4436  1.0979
    1OL    C110 2092   2.344   3.689   5.947 -0.1503  0.1873 -0.3795
    1OL    H10R 2093   2.343   3.637   5.851  4.0775 -0.2203 -0.3169
    1OL    C111 2094   2.260   3.805   5.956  0.0681  0.3150  0.1038
    1OL    H11R 2095   2.234   3.840   5.856 -0.9276 -1.1738 -0.1721
    1OL    H11S 2096   2.320   3.888   5.993  0.4495 -0.4397  1.2042
    1OL    C112 2097   2.139   3.791   6.047  0.3349 -0.4878  0.1880
    1OL    H12R 2098   2.073   3.877   6.059 -0.4623 -0.9585 -0.7511
    1OL    H12S 2099   2.186   3.763   6.142  0.4123 -2.4296 -0.4069
    1OL    C113 2100   2.049   3.678   5.985 -0.6411  0.1288  0.1576
    1OL    H13R 2101   1.988   3.626   6.060 -2.3483  1.2281 -0.4357
    1OL    H13S 2102   2.113   3.593   5.960  1.1457  1.6749 -0.5981
    1OL    C114 2103   1.950   3.736   5.879  0.3729  0.4903  0.0440
    1OL    H14R 2104   2.001   3.796   5.803  2.3596 -2.3799 -0.9825
    1OL    H14S 2105   1.882   3.797   5.938  0.4152 -0.1021  0.7181
    1OL    C115 2106   1.872   3.622   5.802 -0.4091  0.0918 -0.2309
    1OL    H15R 2107   1.798   3.662   5.732 -0.3793 -0.1357 -0.3919
    1OL    H15S 2108   1.818   3.562   5.875  2.4068 -1.4062  0.7025
    1OL    C116 2109   1.977   3.542   5.724  0.2259 -0.1600  0.0673
    1OL    H16R 2110   2.027   3.470   5.790 -0.0520 -0.6746 -0.2825
    1OL    H16S 2111   2.057   3.608   5.690  0.3592  0.7070  1.9809
    1OL    C117 2112   1.915   3.481   5.598 -0.4348  0.7850  0.1780
    1OL    H17R 2113   1.822   3.427   5.619 -1.4547  1.0738 -3.2562
    1OL    H17S 2114   1.889   3.563   5.530 -0.5605  0.6159  0.0222
    1OL    C118 2115   2.024   3.392   5.529 -0.1396 -0.0337  0.1736
    1OL    H18R 2116   2.124   3.438   5.530 -1.1929  2.3454  0.6870
    1OL    H18S 2117   1.991   3.360   5.430 -1.1726 -0.1600  0.5550
    1OL    H18T 2118   2.036   3.294   5.574 -1.2069 -0.7943 -1.1894
    1PA    C116 2119   3.770   5.126   5.487 -1.2409 -0.7512  0.4888
    1PA    H16R 2120   3.735   5.155   5.387 -0.7096 -1.1251  0.1890
    1PA    H16S 2121   3.832   5.035   5.481  0.2945  0.2406  1.0149
    1PA    H16T 2122   3.832   5.206   5.528 -0.7477 -0.6075 -0.5139
    1PA    C115 2123   3.650   5.101   5.581 -0.4369 -0.2046 -0.2432
    1PA    H15R 2124   3.611   5.195   5.619  0.8787 -0.0194  0.6837
    1PA    H15S 2125   3.577   5.035   5.533  0.7649 -0.8478 -1.2026
    1PA    C114 2126   3.691   5.021   5.704 -0.0247 -0.2735 -0.5587
    1PA    H14R 2127   3.599   5.017   5.764  0.0062 -1.8264 -0.6022
    1PA    H14S 2128   3.710   4.916   5.682  0.9323 -0.1040 -0.5581
    1PA    C113 2129   3.808   5.074   5.782 -0.4429  0.0516 -0.3383
    1PA    H13R 2130   3.890   5.078   5.710  1.1868 -0.1359  1.4713
    1PA    H13S 2131   3.799   5.177   5.815 -0.8027 -0.7097  2.0311
    1PA    C112 2132   3.844   4.989   5.906 -0.4296  0.3334 -0.6062
    1PA    H12R 2133   3.911   5.036   5.979  0.5576  0.7550 -1.7766
    1PA    H12S 2134   3.756   4.969   5.968 -0.0315 -1.0336 -0.4636
    1PA    C111 2135   3.916   4.857   5.880 -1.1296  0.4401 -0.4763
    1PA    H11R 2136   3.876   4.807   5.791  0.2154  0.5802 -1.1752
    1PA    H11S 2137   4.018   4.882   5.850 -0.5518 -1.1232  0.1197
    1PA    C110 2138   3.931   4.761   5.999  0.0079  0.1327 -0.0010
    1PA    H10R 2139   4.019   4.700   5.977  1.5676  2.6687 -1.0886
    1PA    H10S 2140   3.944   4.824   6.087  2.8621  2.2744 -1.8402
    1PA     C19 2141   3.805   4.675   6.017 -0.5225  0.3701 -0.4754
    1PA     H9R 2142   3.721   4.745   6.027 -1.1916 -0.2023 -1.9413
    1PA     H9S 2143   3.801   4.617   5.924  0.4507 -2.3867  1.1652
    1PA     C18 2144   3.816   4.585   6.148  1.0681  0.2830  0.3800
    1PA     H8R 2145   3.833   4.648   6.236  0.1900 -0.4958  1.1247
    1PA     H8S 2146   3.722   4.534   6.170  1.2207  0.6241  1.9268
    1PA     C17 2147   3.920   4.473   6.164  0.4356  0.6751  0.2916
    1PA     H7R 2148   3.908   4.389   6.096  1.0217  2.2446 -1.7949
    1PA     H7S 2149   4.019   4.513   6.142 -0.3800  3.0503  0.7893
    1PA     C16 2150   3.925   4.423   6.316 -0.2837  0.9427 -0.1149
    1PA     H6R 2151   4.000   4.344   6.324  0.0942  1.1507 -1.4039
    1PA     H6S 2152   3.970   4.506   6.371  2.0541 -0.4703  0.1483
    1PA     C15 2153   3.787   4.373   6.372  0.5728  0.9530 -0.0528
    1PA     H5R 2154   3.705   4.442   6.354 -1.1161 -0.9787  0.0866
    1PA     H5S 2155   3.768   4.276   6.325  0.3162  1.9396 -2.0380
    1PA     C14 2156   3.780   4.347   6.525  0.3160  0.5725  0.2383
    1PA     H4R 2157   3.827   4.432   6.574 -0.1997  0.9882  0.0166
    1PA     H4S 2158   3.674   4.346   6.552  0.5742  1.0436  1.2797
    1PA     C13 2159   3.846   4.216   6.555 -0.3412 -0.7595  0.3581
    1PA     H3R 2160   3.789   4.136   6.507  0.5359 -1.2315  0.0951
    1PA     H3S 2161   3.944   4.220   6.507 -1.2068  3.5758 -1.3293
    1PA     C12 2162   3.868   4.185   6.711 -0.5809  0.7947  0.8603
    1PA     H2R 2163   3.769   4.197   6.756 -1.1254 -3.4097  0.9625
    1PA     H2S 2164   3.897   4.081   6.727  0.4852  0.3525 -3.4025
    1PC     C11 2165   3.961   4.284   6.767 -0.0046  0.1894  0.1760
    1PC     O12 2166   4.080   4.279   6.763 -0.1521  0.2339 -0.2124
    1PC     O11 2167   3.893   4.380   6.836 -0.6318  0.8293  0.2066
    1PC      C1 2168   3.975   4.483   6.901  0.2808  0.3867  0.3384
    1PC      HR 2169   3.914   4.515   6.986  0.5080 -0.0329  0.6613
    1PC      HS 2170   4.072   4.451   6.940  1.1394  0.8503 -1.3626
    1PC      C2 2171   3.997   4.602   6.806  0.4369  0.0367  0.0088
    1PC      HX 2172   4.052   4.680   6.859 -1.0918  1.3654 -0.3445
    1PC      C3 2173   3.867   4.671   6.757 -0.5854 -0.4805  0.4119
    1PC      HA 2174   3.888   4.746   6.681 -0.5033 -0.5182  0.3974
    1PC      HB 2175   3.789   4.603   6.723 -1.5134  1.5767 -1.6237
    1PC     O31 2176   3.802   4.737   6.868  0.1306  1.0385  0.4649
    1PC     P31 2177   3.860   4.862   6.944 -0.1901 -0.0305  0.3568
    1PC     O32 2178   3.940   4.792   7.060  0.2035 -0.6338  0.0133
    1PC     C31 2179   3.878   4.756   7.191 -0.5064  0.3375 -0.1217
    1PC     H1A 2180   3.848   4.846   7.245  2.1884 -0.1816  2.3714
    1PC     H1B 2181   3.790   4.693   7.174  1.6129 -2.6315 -0.4954
    1PC     C32 2182   3.991   4.679   7.269 -0.0296  0.6201 -0.3788
    1PC     H2A 2183   4.008   4.584   7.217  1.1960 -0.4845  1.9201
    1PC     H2B 2184   4.078   4.744   7.263  0.7412 -0.4817 -1.3835
    1PC     N31 2185   3.971   4.651   7.412  0.3924  0.0324  0.0737
    1PC     C33 2186   3.850   4.566   7.438  0.5964 -0.2719 -0.4628
    1PC     H3A 2187   3.819   4.582   7.542  0.8616 -2.0857 -0.0836
    1PC     H3B 2188   3.771   4.593   7.369  0.4695 -0.1217 -0.2591
    1PC     H3C 2189   3.876   4.461   7.419 -0.2306 -0.4471 -0.6295
    1PC     C34 2190   4.092   4.575   7.464  0.2748  0.0927  0.1516
    1PC     H4A 2191   4.161   4.649   7.505 -0.9235  0.8513  0.8409
    1PC     H4B 2192   4.052   4.498   7.531 -0.5076 -0.6183 -1.1093
    1PC     H4C 2193   4.148   4.524   7.385  0.4502 -0.0241  0.3510
    1PC     C35 2194   3.967   4.781   7.487  0.4284 -0.2226  0.2218
    1PC     H5A 2195   3.970   4.772   7.596  0.1714  2.2507  0.4756
    1PC     H5B 2196   3.875   4.834   7.464  0.0718 -1.1174 -0.4188
    1PC     H5C 2197   4.049   4.845   7.454  0.2712  0.3283  0.8933
    1PC     O33 2198   3.972   4.919   6.867  0.6562  0.3838 -0.1246
    1PC     O34 2199   3.758   4.950   6.996  0.0388 -0.1263  0.1226
    1PC     O21 2200   4.073   4.561   6.691  0.2989 -0.4612 -0.2738
    1PC     C21 2201   4.206   4.569   6.701 -0.6310 -0.0500  0.0126
    1PC     O22 2202   4.265   4.598   6.804  0.0674  0.0614 -0.3463
    1OL     C12 2203   4.280   4.538   6.572  0.0774 -0.5235 -0.8299
    1OL     H2R 2204   4.205   4.504   6.501  1.2825 -0.8548 -1.9763
    1OL     H2S 2205   4.358   4.465   6.596  0.3760  0.1445  0.3360
    1OL     C13 2206   4.345   4.667   6.519 -0.0238  0.0527  0.7528
    1OL     H3R 2207   4.416   4.713   6.589 -0.0134  0.8877  0.1986
    1OL     H3S 2208   4.267   4.735   6.487  0.2583  1.3814  2.7912
    1OL     C14 2209   4.420   4.629   6.387  0.0657  0.3182 -0.2405
    1OL     H4R 2210   4.347   4.591   6.314  1.3225  0.9953 -1.8954
    1OL     H4S 2211   4.497   4.553   6.398 -0.2453  0.1558  0.8201
    1OL     C15 2212   4.479   4.751   6.307  0.4693  1.1153 -0.3415
    1OL     H5R 2213   4.571   4.787   6.354  2.2729 -0.1034 -2.7696
    1OL     H5S 2214   4.405   4.828   6.289  1.4058  1.9534 -0.6249
    1OL     C16 2215   4.527   4.694   6.176 -0.1689 -0.0769  0.0512
    1OL     H6R 2216   4.599   4.615   6.197 -0.0370  0.0719  0.1592
    1OL     H6S 2217   4.592   4.768   6.129  0.3922 -0.3730  0.3540
    1OL     C17 2218   4.428   4.648   6.070  0.5067  0.1184 -0.5231
    1OL     H7R 2219   4.357   4.573   6.106 -0.7154  1.0580 -0.9219
    1OL     H7S 2220   4.475   4.581   5.998  0.2111  0.2044 -0.7974
    1OL     C18 2221   4.348   4.759   6.003 -0.6266  0.3836 -0.3959
    1OL     H8R 2222   4.272   4.792   6.074 -0.9426  1.9961 -1.4574
    1OL     H8S 2223   4.289   4.714   5.923  1.1650  0.7579 -1.9563
    1OL     C19 2224   4.434   4.874   5.956  0.4162 -0.1892 -0.2061
    1OL     H9R 2225   4.458   4.954   6.026 -0.7873 -0.1662  0.1868
    1OL    C110 2226   4.488   4.893   5.834 -0.5504  0.3111 -0.9486
    1OL    H10R 2227   4.542   4.985   5.814 -1.4773  0.9237 -0.6463
    1OL    C111 2228   4.469   4.799   5.713  0.3915  0.5217 -0.8481
    1OL    H11R 2229   4.458   4.693   5.736  1.8110  1.1941  3.2258
    1OL    H11S 2230   4.562   4.798   5.656 -0.1963 -2.9598 -1.8588
    1OL    C112 2231   4.356   4.842   5.614  0.0724 -0.2518 -0.2546
    1OL    H12R 2232   4.271   4.862   5.679  0.2777  2.0852 -0.6657
    1OL    H12S 2233   4.330   4.758   5.549 -0.9149 -0.4274  0.3681
    1OL    C113 2234   4.381   4.963   5.522 -0.1820  0.6724 -0.2802
    1OL    H13R 2235   4.461   4.950   5.449 -0.0958  0.1649 -0.0955
    1OL    H13S 2236   4.404   5.055   5.576  1.3233  2.0725 -3.2353
    1OL    C114 2237   4.250   4.975   5.444 -0.1926 -0.1376  0.1019
    1OL    H14R 2238   4.169   4.981   5.518 -2.5489 -1.0487 -2.3378
    1OL    H14S 2239   4.222   4.887   5.386  1.6306 -0.0868 -0.8793
    1OL    C115 2240   4.229   5.094   5.357  0.1149 -0.3160  0.0318
    1OL    H15R 2241   4.309   5.105   5.283  0.1906  1.2421  0.3311
    1OL    H15S 2242   4.237   5.181   5.423  0.5679 -0.5085  0.2375
    1OL    C116 2243   4.097   5.081   5.285  0.4558 -0.2617  0.4246
    1OL    H16R 2244   4.011   5.076   5.352 -0.4618 -2.7596 -0.8831
    1OL    H16S 2245   4.111   4.984   5.237 -0.8280  0.1442 -0.8264
    1OL    C117 2246   4.077   5.189   5.175 -0.2875 -0.5172 -0.0899
    1OL    H17R 2247   3.989   5.156   5.120 -1.7496 -2.1808  3.0748
    1OL    H17S 2248   4.159   5.187   5.103 -0.2015 -1.0347  0.0163
    1OL    C118 2249   4.058   5.327   5.235  0.4657  0.8652 -0.6408
    1OL    H18R 2250   4.151   5.348   5.288  0.1904  1.5085 -0.4099
    1OL    H18S 2251   3.971   5.332   5.301 -1.5168 -1.1286 -3.0017
    1OL    H18T 2252   4.047   5.396   5.152 -1.0127  1.2219 -0.1557
    1PA    C116 2253   5.210   2.830   5.912  0.0219 -0.3895 -0.0153
    1PA    H16R 2254   5.211   2.853   6.019  1.1285 -0.5235  0.0104
    1PA    H16S 2255   5.313   2.827   5.876  0.4557 -3.2757  1.2771
    1PA    H16T 2256   5.171   2.728   5.908  0.2840 -0.4846 -0.2247
    1PA    C115 2257   5.116   2.922   5.823  0.4013 -0.2170  0.7232
    1PA    H15R 2258   5.023   2.946   5.874 -0.0031 -1.6096  0.6661
    1PA    H15S 2259   5.173   3.015   5.813  0.6261 -0.3044  1.1431
    1PA    C114 2260   5.087   2.856   5.691  0.4172 -0.8912 -0.1252
    1PA    H14R 2261   5.185   2.849   5.642  2.2042  1.2910  2.9049
    1PA    H14S 2262   5.037   2.760   5.699  0.8504 -0.9902  1.6735
    1PA    C113 2263   4.991   2.954   5.612 -0.2747  0.9392 -0.6962
    1PA    H13R 2264   4.964   2.907   5.518 -0.5833 -1.1138  0.3982
    1PA    H13S 2265   4.903   2.980   5.672  1.1641  2.8057  0.6910
    1PA    C112 2266   5.052   3.093   5.585  0.0019 -0.2021 -0.5051
    1PA    H12R 2267   5.061   3.139   5.683  1.0519 -0.7050 -0.3664
    1PA    H12S 2268   5.152   3.088   5.542  0.0489  1.0505 -0.5377
    1PA    C111 2269   4.972   3.188   5.494  0.1307  0.0444  0.1648
    1PA    H11R 2270   5.011   3.290   5.487  0.1562 -0.0302 -0.7975
    1PA    H11S 2271   4.979   3.144   5.394 -1.3088 -0.3862  0.2479
    1PA    C110 2272   4.826   3.201   5.536  0.2148  0.0579 -0.3080
    1PA    H10R 2273   4.792   3.097   5.539  3.3668 -1.0307 -0.5926
    1PA    H10S 2274   4.824   3.240   5.638  1.1085  0.6785 -0.5221
    1PA     C19 2275   4.737   3.288   5.440 -0.0671 -0.3002 -0.4468
    1PA     H9R 2276   4.790   3.383   5.432  1.8401 -1.3298 -0.3256
    1PA     H9S 2277   4.746   3.235   5.345  1.1534  2.5022 -1.9823
    1PA     C18 2278   4.585   3.313   5.479 -0.2637  0.1461 -0.3257
    1PA     H8R 2279   4.532   3.366   5.399 -0.4903  0.9028  0.3159
    1PA     H8S 2280   4.531   3.219   5.489  1.5619 -0.9769 -0.8395
    1PA     C17 2281   4.585   3.407   5.605 -0.2262 -0.3013  0.4633
    1PA     H7R 2282   4.628   3.354   5.690  0.4133  1.6228  1.3611
    1PA     H7S 2283   4.655   3.486   5.577  1.3547 -2.0169 -0.5536
    1PA     C16 2284   4.455   3.472   5.643  0.6098 -0.6181 -0.5313
    1PA     H6R 2285   4.421   3.536   5.561 -0.8081  0.9415  1.2179
    1PA     H6S 2286   4.380   3.394   5.653 -0.0353 -0.1614 -1.7561
    1PA     C15 2287   4.458   3.557   5.768  0.1802  0.2476  0.4814
    1PA     H5R 2288   4.521   3.645   5.753  0.4013 -0.0295 -0.2506
    1PA     H5S 2289   4.357   3.596   5.781 -0.5784 -0.8087 -1.9970
    1PA     C14 2290   4.505   3.488   5.902  0.6389 -0.9031  0.0155
    1PA     H4R 2291   4.419   3.423   5.922  0.1943 -0.4958 -0.5567
    1PA     H4S 2292   4.601   3.437   5.888  1.2983  0.3077  0.0812
    1PA     C13 2293   4.508   3.581   6.027  0.0916  0.3279  0.1599
    1PA     H3R 2294   4.565   3.672   6.010  1.7725 -0.5869  0.7714
    1PA     H3S 2295   4.403   3.606   6.047 -0.4118 -0.8357 -0.9034
    1PA     C12 2296   4.575   3.521   6.161 -0.2390 -0.3105 -0.0277
    1PA     H2R 2297   4.508   3.441   6.190 -0.3595 -0.7085 -1.3418
    1PA     H2S 2298   4.672   3.474   6.144  0.4963  0.9080  0.7554
    1PC     C11 2299   4.594   3.614   6.276 -0.0421  0.3161  0.0074
    1PC     O12 2300   4.599   3.734   6.264  0.5377 -0.3170 -0.1192
    1PC     O11 2301   4.593   3.546   6.395 -0.1130  0.2912  0.3793
    1PC      C1 2302   4.598   3.624   6.519  0.3833  0.3477  0.6350
    1PC      HR 2303   4.632   3.724   6.495 -2.6946  1.2545 -0.2143
    1PC      HS 2304   4.494   3.630   6.554 -0.5221 -0.0941 -1.8548
    1PC      C2 2305   4.706   3.558   6.618 -0.0588  0.0090 -0.0558
    1PC      HX 2306   4.685   3.457   6.652 -0.6340  0.4660  0.9866
    1PC      C3 2307   4.723   3.634   6.753 -0.4152 -0.1040  0.0188
    1PC      HA 2308   4.720   3.742   6.734 -0.8063 -0.1124  0.0488
    1PC      HB 2309   4.646   3.603   6.824 -0.5770  0.5531  0.1400
    1PC     O31 2310   4.860   3.602   6.804  0.8816  0.1203 -0.5194
    1PC     P31 2311   4.898   3.567   6.953  0.4151 -0.4918  0.3466
    1PC     O32 2312   4.898   3.406   6.943  0.2985 -0.7189  0.0570
    1PC     C31 2313   4.776   3.328   6.959 -0.8267  0.5619  0.6977
    1PC     H1A 2314   4.693   3.377   6.907  0.6743  0.9631 -1.3365
    1PC     H1B 2315   4.797   3.231   6.913  0.9694  1.5876 -0.6560
    1PC     C32 2316   4.735   3.305   7.111  0.6517  0.0021 -0.4031
    1PC     H2A 2317   4.725   3.404   7.158 -1.0784 -0.1401 -0.4117
    1PC     H2B 2318   4.640   3.252   7.113  0.5980  0.0364 -2.0253
    1PC     N31 2319   4.845   3.235   7.197  1.0122  0.0312  0.2479
    1PC     C33 2320   4.775   3.183   7.323  0.2026 -0.0304 -0.6335
    1PC     H3A 2321   4.706   3.103   7.296 -0.1304 -0.1906  0.6609
    1PC     H3B 2322   4.850   3.157   7.398  1.1164  0.0886 -1.5059
    1PC     H3C 2323   4.730   3.266   7.378  0.6227 -1.5750  2.1128
    1PC     C34 2324   4.921   3.130   7.126 -0.0853  0.4962  0.3340
    1PC     H4A 2325   4.980   3.167   7.042  0.1434 -0.4327  0.0850
    1PC     H4B 2326   4.997   3.099   7.197  0.9951  1.7589 -0.2421
    1PC     H4C 2327   4.860   3.043   7.102 -0.5619  0.5330  1.3951
    1PC     C35 2328   4.942   3.340   7.240  0.0515 -0.5257  0.3669
    1PC     H5A 2329   5.001   3.300   7.323 -0.4190 -3.5343 -0.6945
    1PC     H5B 2330   4.881   3.422   7.277  1.7570  1.1554 -0.4653
    1PC     H5C 2331   5.009   3.370   7.159  0.1126 -1.7655 -0.0532
    1PC     O33 2332   5.034   3.613   6.979  0.1231 -0.0470 -0.8337
    1PC     O34 2333   4.789   3.611   7.043  0.0820 -0.2628 -0.1431
    1PC     O21 2334   4.836   3.551   6.541  0.0225  0.0619 -0.4138
    1PC     C21 2335   4.883   3.424   6.517  0.0255 -0.7464  0.0474
    1PC     O22 2336   4.818   3.322   6.529  0.6669  0.0368  0.0832
    1OL     C12 2337   5.024   3.430   6.454 -0.0464 -0.0424  0.7404
    1OL     H2R 2338   5.095   3.397   6.530 -1.4374 -1.5792  1.4341
    1OL     H2S 2339   5.043   3.535   6.433  0.7434  0.0288  1.7516
    1OL     C13 2340   5.020   3.340   6.330 -0.0920 -0.2428  0.0860
    1OL     H3R 2341   4.972   3.246   6.355 -0.0792 -0.2033  0.2614
    1OL     H3S 2342   5.123   3.316   6.301  0.1953  1.5980 -0.5217
    1OL     C14 2343   4.942   3.408   6.225  0.3230  0.0122  0.0396
    1OL     H4R 2344   4.984   3.509   6.222  1.1520 -0.3011  0.8865
    1OL     H4S 2345   4.837   3.414   6.258  0.6170 -1.1727  1.2488
    1OL     C15 2346   4.953   3.346   6.080  0.0284  0.0141 -0.5480
    1OL     H5R 2347   4.893   3.255   6.080  0.9241 -0.5883  0.4810
    1OL     H5S 2348   5.060   3.328   6.072  0.2634  0.8081  0.6270
    1OL     C16 2349   4.909   3.439   5.964 -0.0144  0.0056 -1.0028
    1OL     H6R 2350   4.800   3.437   5.955 -0.1982 -1.9636  1.2267
    1OL     H6S 2351   4.956   3.387   5.880  0.2243 -2.9788  0.9023
    1OL     C17 2352   4.960   3.586   5.969  0.3689  0.3247  0.0717
    1OL     H7R 2353   5.069   3.579   5.971  0.3421  0.2760  2.0124
    1OL     H7S 2354   4.920   3.640   6.055 -1.9994  0.1747 -0.9207
    1OL     C18 2355   4.916   3.661   5.838 -0.3859 -0.3066  0.3617
    1OL     H8R 2356   4.961   3.760   5.852 -0.3369 -0.1511 -0.8629
    1OL     H8S 2357   4.809   3.684   5.835 -0.2931  0.0819 -0.0041
    1OL     C19 2358   4.951   3.598   5.704 -0.4557 -0.0420  0.3451
    1OL     H9R 2359   5.029   3.522   5.708 -0.5969 -0.0877  3.3286
    1OL    C110 2360   4.897   3.624   5.581  0.1829  0.0382 -0.0664
    1OL    H10R 2361   4.939   3.579   5.491 -0.2998  1.3881 -0.9762
    1OL    C111 2362   4.793   3.728   5.547  0.2624  0.0451 -0.1358
    1OL    H11R 2363   4.761   3.766   5.644 -2.0937 -1.5073 -0.2777
    1OL    H11S 2364   4.705   3.688   5.497 -1.0582  0.2971  1.9325
    1OL    C112 2365   4.855   3.830   5.450 -0.3824  0.0586 -0.0340
    1OL    H12R 2366   4.900   3.768   5.372 -2.0549 -0.0902 -0.8971
    1OL    H12S 2367   4.932   3.877   5.512  1.0528 -1.1757 -0.8564
    1OL    C113 2368   4.769   3.950   5.398  0.0957  0.1671 -0.3791
    1OL    H13R 2369   4.717   3.995   5.482  2.0859  3.5220 -0.8713
    1OL    H13S 2370   4.697   3.910   5.326 -0.1400 -1.0840  0.5379
    1OL    C114 2371   4.857   4.057   5.331 -0.1426  0.2065 -0.0315
    1OL    H14R 2372   4.945   4.087   5.388 -0.2086  3.7102 -1.6306
    1OL    H14S 2373   4.792   4.144   5.331  1.4508  1.4831 -2.7666
    1OL    C115 2374   4.897   4.041   5.181  0.0412  0.1325 -0.4443
    1OL    H15R 2375   4.834   3.973   5.123 -0.7863  0.4677  0.0482
    1OL    H15S 2376   4.995   3.993   5.179  0.3933  0.8687 -0.8194
    1OL    C116 2377   4.891   4.184   5.109  0.2242  0.0860 -0.1640
    1OL    H16R 2378   4.960   4.251   5.161 -0.5595  1.0372 -0.3161
    1OL    H16S 2379   4.789   4.224   5.115 -0.3907 -1.0746 -2.4643
    1OL    C117 2380   4.942   4.173   4.956 -0.3232 -0.4628  1.1011
    1OL    H17R 2381   5.042   4.130   4.955 -0.2764 -0.3508  0.9264
    1OL    H17S 2382   4.950   4.270   4.906  0.3864 -1.7088 -1.3004
    1OL    C118 2383   4.852   4.096   4.861 -0.0606  0.5676  0.2178
    1OL    H18R 2384   4.904   4.093   4.764  0.0265  1.1183  0.2455
    1OL    H18S 2385   4.763   4.153   4.837 -0.7228 -1.5384 -2.7326
    1OL    H18T 2386   4.824   4.003   4.912  0.3867 -0.0266 -0.5940
    1PA    C116 2387   0.804   3.765   5.937  0.0949 -0.3980 -0.0925
    1PA    H16R 2388   0.750   3.792   6.028 -0.9020  1.4849 -1.1893
    1PA    H16S 2389   0.765   3.671   5.897 -0.8549  0.2667 -0.7788
    1PA    H16T 2390   0.786   3.842   5.861 -1.8147 -0.2553  0.4655
    1PA    C115 2391   0.951   3.746   5.972  0.3814  0.0146  0.0747
    1PA    H15R 2392   1.003   3.697   5.889  1.5988 -0.0952  0.8836
    1PA    H15S 2393   1.000   3.841   5.996 -0.1140  0.0116  1.1180
    1PA    C114 2394   0.973   3.662   6.104  0.1573  0.2517 -0.3073
    1PA    H14R 2395   0.942   3.714   6.195 -1.8741  0.3078 -1.0112
    1PA    H14S 2396   0.918   3.568   6.093 -1.5055  0.8738  2.1957
    1PA    C113 2397   1.125   3.629   6.121 -0.0798 -0.3928 -0.5797
    1PA    H13R 2398   1.192   3.713   6.102  0.9412 -1.6083 -2.4771
    1PA    H13S 2399   1.134   3.600   6.225  2.7126  1.9994 -0.1012
    1PA    C112 2400   1.177   3.506   6.036 -0.3859  0.3042  0.2379
    1PA    H12R 2401   1.106   3.423   6.037 -0.9435  0.7026 -2.3368
    1PA    H12S 2402   1.181   3.537   5.931  1.2057  0.9464  0.4813
    1PA    C111 2403   1.316   3.453   6.099  0.4877 -0.4668  1.1409
    1PA    H11R 2404   1.310   3.431   6.206  5.0198 -0.6402  1.4868
    1PA    H11S 2405   1.337   3.360   6.047  0.1005 -0.9662  1.8664
    1PA    C110 2406   1.427   3.560   6.099 -0.6656 -0.5087  0.0719
    1PA    H10R 2407   1.454   3.586   5.996  0.9189  0.6389  0.7555
    1PA    H10S 2408   1.396   3.653   6.146 -0.2018 -0.7166  0.7941
    1PA     C19 2409   1.551   3.495   6.157 -0.5778  0.3507  0.3830
    1PA     H9R 2410   1.532   3.455   6.256  0.6087  0.3281  0.5963
    1PA     H9S 2411   1.573   3.411   6.091 -1.2556 -1.5815  2.5557
    1PA     C18 2412   1.675   3.591   6.149 -0.0519  0.4344 -0.5575
    1PA     H8R 2413   1.769   3.537   6.144  0.6242  1.3182  1.6796
    1PA     H8S 2414   1.665   3.645   6.055 -2.6077  1.4728  0.2515
    1PA     C17 2415   1.664   3.682   6.279  0.1961  0.4713 -0.3095
    1PA     H7R 2416   1.559   3.710   6.286 -0.3584 -2.2470  3.6242
    1PA     H7S 2417   1.691   3.626   6.369  0.8046  1.7155  0.3048
    1PA     C16 2418   1.755   3.806   6.293  0.9400 -0.4823  0.0373
    1PA     H6R 2419   1.854   3.772   6.261  0.6957  0.3577 -1.6784
    1PA     H6S 2420   1.730   3.884   6.221  1.0668 -1.5092 -1.1368
    1PA     C15 2421   1.756   3.861   6.440 -0.2658  0.3163  0.3271
    1PA     H5R 2422   1.784   3.780   6.508  1.6203 -0.1754 -0.9944
    1PA     H5S 2423   1.839   3.932   6.445 -0.3300  0.5026 -1.0689
    1PA     C14 2424   1.630   3.938   6.481 -0.6731 -0.1326 -0.3689
    1PA     H4R 2425   1.607   3.999   6.394  0.7102  2.9509  1.3431
    1PA     H4S 2426   1.565   3.852   6.500 -1.3886  0.4587 -0.0694
    1PA     C13 2427   1.638   4.032   6.602  0.5110  0.2508 -0.1988
    1PA     H3R 2428   1.725   4.097   6.589  0.1891  0.5561 -0.8130
    1PA     H3S 2429   1.544   4.087   6.594  0.9010  0.6399 -2.5768
    1PA     C12 2430   1.655   3.950   6.732  0.7042  0.9185 -0.4255
    1PA     H2R 2431   1.723   3.865   6.723 -2.7373 -2.1025  1.1147
    1PA     H2S 2432   1.696   4.023   6.802  3.3838  0.6028 -1.6200
    1PC     C11 2433   1.526   3.907   6.797  0.0189 -0.4477 -0.3219
    1PC     O12 2434   1.463   3.978   6.870 -0.4356  0.3724 -0.0550
    1PC     O11 2435   1.485   3.783   6.763  0.2279  1.0914  0.2367
    1PC      C1 2436   1.377   3.724   6.838  0.2641 -0.9586  0.3655
    1PC      HR 2437   1.357   3.763   6.938 -1.4074  1.1860 -0.7574
    1PC      HS 2438   1.285   3.762   6.793 -0.0260 -0.6861  1.1745
    1PC      C2 2439   1.377   3.571   6.830 -0.2628  0.5692 -0.3957
    1PC      HX 2440   1.273   3.541   6.818 -0.7149  2.9929 -2.9780
    1PC      C3 2441   1.436   3.495   6.953 -0.7742 -0.3301 -0.0618
    1PC      HA 2442   1.367   3.501   7.038 -0.1463 -2.1375  0.5881
    1PC      HB 2443   1.447   3.387   6.943 -1.0160 -0.2732 -0.9365
    1PC     O31 2444   1.561   3.544   6.993  0.2257  0.1255 -0.2872
    1PC     P31 2445   1.635   3.501   7.128  0.5890  0.4185  0.0105
    1PC     O32 2446   1.698   3.359   7.083  0.8744 -0.4358 -0.2689
    1PC     C31 2447   1.831   3.356   7.016  0.6408 -0.0870  0.0598
    1PC     H1A 2448   1.820   3.314   6.915 -2.1474  0.4892  0.0667
    1PC     H1B 2449   1.864   3.459   7.002  0.9605 -0.0717  0.9534
    1PC     C32 2450   1.921   3.279   7.118  0.2598  0.4184 -0.1897
    1PC     H2A 2451   1.912   3.329   7.215 -0.2134 -2.0380  1.0740
    1PC     H2B 2452   1.886   3.176   7.114  0.3263  0.3353  1.1103
    1PC     N31 2453   2.066   3.271   7.088  0.5440 -0.1028 -0.5418
    1PC     C33 2454   2.089   3.188   6.969  1.0633 -1.1077 -0.7147
    1PC     H3A 2455   2.192   3.210   6.939 -0.3512  3.2848 -2.7561
    1PC     H3B 2456   2.079   3.082   6.993  1.2894 -1.4055 -1.8961
    1PC     H3C 2457   2.021   3.215   6.888  0.4798 -0.9992 -0.1911
    1PC     C34 2458   2.126   3.406   7.064  0.2678 -0.0452 -0.4426
    1PC     H4A 2459   2.094   3.439   6.965 -0.6402  0.4388  0.0084
    1PC     H4B 2460   2.083   3.470   7.142 -2.1929 -2.3390  0.1876
    1PC     H4C 2461   2.234   3.394   7.066  0.3695  1.0175  1.7244
    1PC     C35 2462   2.135   3.212   7.208  0.6813  0.8845 -0.2219
    1PC     H5A 2463   2.126   3.277   7.296 -0.4651 -3.8969  3.3871
    1PC     H5B 2464   2.237   3.190   7.179  0.8775  1.7894 -0.2379
    1PC     H5C 2465   2.091   3.119   7.245 -1.1552  0.9138 -2.2166
    1PC     O33 2466   1.735   3.606   7.162 -0.5244 -0.3903 -0.2790
    1PC     O34 2467   1.526   3.467   7.224  0.2437  0.2396  0.4111
    1PC     O21 2468   1.456   3.512   6.722  0.3237 -0.1645 -1.0653
    1PC     C21 2469   1.412   3.415   6.647  0.7792  0.0316 -0.2092
    1PC     O22 2470   1.310   3.351   6.671  0.0914 -0.0988  0.3229
    1OL     C12 2471   1.507   3.408   6.525 -0.3561 -0.4791  0.3252
    1OL     H2R 2472   1.531   3.505   6.481  0.6824 -0.1347  1.6113
    1OL     H2S 2473   1.456   3.345   6.452  0.7785 -0.3505 -0.5890
    1OL     C13 2474   1.641   3.346   6.570 -0.0533  0.1611 -0.1048
    1OL     H3R 2475   1.613   3.250   6.613 -2.7060  1.2044  0.6107
    1OL     H3S 2476   1.689   3.400   6.652  0.2926 -0.6607  0.2309
    1OL     C14 2477   1.745   3.322   6.456 -0.2476 -0.0908 -0.4887
    1OL     H4R 2478   1.772   3.420   6.418 -1.6945  1.0025  1.2355
    1OL     H4S 2479   1.698   3.267   6.375 -2.1239 -0.8689  1.0814
    1OL     C15 2480   1.877   3.254   6.509  0.8283 -0.2725 -0.2127
    1OL     H5R 2481   1.858   3.152   6.542 -0.7146  0.4853  1.3255
    1OL     H5S 2482   1.910   3.311   6.597  0.1122 -2.3433  1.4324
    1OL     C16 2483   1.989   3.253   6.398 -0.1416  0.3297  0.1444
    1OL     H6R 2484   2.001   3.352   6.353 -1.8509  0.5079  0.0363
    1OL     H6S 2485   1.940   3.192   6.321  2.1232 -1.0021 -0.2865
    1OL     C17 2486   2.120   3.181   6.437 -0.1175  0.5630 -0.1089
    1OL     H7R 2487   2.095   3.084   6.479  2.1809  0.3820  0.9363
    1OL     H7S 2488   2.175   3.235   6.514 -2.1168  1.5997  0.6160
    1OL     C18 2489   2.221   3.154   6.327 -0.2591 -0.2387 -0.1298
    1OL     H8R 2490   2.173   3.092   6.251 -0.3117 -0.4264  0.0574
    1OL     H8S 2491   2.306   3.097   6.367 -0.4435 -0.2783  0.2038
    1OL     C19 2492   2.259   3.281   6.259 -0.0487 -0.0001  0.1700
    1OL     H9R 2493   2.319   3.344   6.324 -0.4021  1.3763 -0.8147
    1OL    C110 2494   2.230   3.319   6.137 -0.7983  0.5261  0.3202
    1OL    H10R 2495   2.249   3.420   6.101 -0.8645  0.4586  0.0949
    1OL    C111 2496   2.143   3.246   6.033 -0.3856 -0.0974 -0.2362
    1OL    H11R 2497   2.086   3.321   5.978 -1.3571  0.2794  1.2524
    1OL    H11S 2498   2.070   3.177   6.075  1.0722 -1.5234  0.0328
    1OL    C112 2499   2.232   3.179   5.925 -0.0808 -0.2924 -0.1062
    1OL    H12R 2500   2.165   3.132   5.852  0.7839  1.1094 -1.8576
    1OL    H12S 2501   2.284   3.094   5.969  0.9283  1.0072  1.2530
    1OL    C113 2502   2.338   3.263   5.858  0.1916  0.2176  0.0915
    1OL    H13R 2503   2.412   3.289   5.934 -0.1444 -0.6294  0.7176
    1OL    H13S 2504   2.302   3.360   5.821  1.7795  1.8631  2.6941
    1OL    C114 2505   2.402   3.176   5.746 -0.3576  0.7200 -0.2665
    1OL    H14R 2506   2.334   3.181   5.660 -2.4150  0.3437  1.2962
    1OL    H14S 2507   2.414   3.074   5.784  0.9691  1.3489  1.0566
    1OL    C115 2508   2.542   3.225   5.697  0.4615  0.0376  0.6284
    1OL    H15R 2509   2.567   3.160   5.612  0.1686 -1.3364  1.5789
    1OL    H15S 2510   2.622   3.205   5.769 -0.1281 -2.4621  0.6572
    1OL    C116 2511   2.551   3.376   5.670 -0.2906 -0.5732  0.2607
    1OL    H16R 2512   2.527   3.429   5.762 -0.8739  1.4396 -1.0177
    1OL    H16S 2513   2.485   3.421   5.595  1.3991  0.0068 -0.9078
    1OL    C117 2514   2.694   3.407   5.607 -0.6238 -0.2139 -0.0584
    1OL    H17R 2515   2.771   3.376   5.677  0.8472 -0.1568 -1.6292
    1OL    H17S 2516   2.706   3.515   5.598 -0.6962 -0.1859  0.1715
    1OL    C118 2517   2.700   3.351   5.465 -1.0019  0.0029  0.2942
    1OL    H18R 2518   2.780   3.413   5.424 -1.3021  0.7177  0.7659
    1OL    H18S 2519   2.606   3.357   5.410 -0.7462 -0.3816 -0.1774
    1OL    H18T 2520   2.731   3.247   5.465 -0.3870  0.1835 -1.0884
    1PA    C116 2521   1.418   1.045   5.151  0.0884  0.4635 -0.0793
    1PA    H16R 2522   1.365   1.101   5.073 -1.2805 -0.7952 -0.0742
    1PA    H16S 2523   1.343   0.996   5.214  1.2876  1.6030  2.3003
    1PA    H16T 2524   1.477   0.967   5.103 -1.5412 -1.0681  0.3354
    1PA    C115 2525   1.502   1.139   5.236 -0.0136  0.2602  0.5016
    1PA    H15R 2526   1.560   1.080   5.307 -1.0487 -0.3250  0.8765
    1PA    H15S 2527   1.572   1.190   5.169  0.9703 -3.8800 -1.7713
    1PA    C114 2528   1.413   1.237   5.307  0.1542 -0.1096  0.0082
    1PA    H14R 2529   1.363   1.307   5.240 -0.9098 -1.2620 -0.4275
    1PA    H14S 2530   1.335   1.185   5.365  0.5745 -1.2077 -0.3984
    1PA    C113 2531   1.512   1.320   5.400 -0.6108 -0.3987  0.1001
    1PA    H13R 2532   1.578   1.257   5.460 -1.2633 -2.2662 -1.1011
    1PA    H13S 2533   1.588   1.374   5.343 -0.8880  1.1969  1.2138
    1PA    C112 2534   1.434   1.419   5.495  0.3357 -0.2354 -0.1774
    1PA    H12R 2535   1.365   1.469   5.426  0.1694 -0.0191  0.1427
    1PA    H12S 2536   1.381   1.369   5.576 -0.8210 -0.4864 -1.0783
    1PA    C111 2537   1.521   1.522   5.561 -0.0226  0.2586 -0.3137
    1PA    H11R 2538   1.597   1.470   5.620 -1.0248 -0.2231  0.5926
    1PA    H11S 2539   1.584   1.577   5.492  0.1785  1.6697  0.9673
    1PA    C110 2540   1.447   1.628   5.648  0.9406 -0.1850 -0.3547
    1PA    H10R 2541   1.416   1.709   5.582 -2.3303 -0.4972  0.7033
    1PA    H10S 2542   1.354   1.579   5.675  0.1411  1.2363 -0.4688
    1PA     C19 2543   1.521   1.694   5.757  0.2257 -0.5511 -0.5527
    1PA     H9R 2544   1.516   1.622   5.838  0.3108 -0.1468 -0.1856
    1PA     H9S 2545   1.626   1.702   5.728  0.2970 -0.1735 -0.1989
    1PA     C18 2546   1.460   1.829   5.795 -0.0225 -0.4551 -0.1147
    1PA     H8R 2547   1.454   1.890   5.704  1.7005 -0.5797 -0.3278
    1PA     H8S 2548   1.361   1.816   5.839  0.4847  0.8064  1.4528
    1PA     C17 2549   1.542   1.894   5.904 -0.0254 -0.4300  0.6421
    1PA     H7R 2550   1.555   1.827   5.989 -1.2887  2.5788  3.3271
    1PA     H7S 2551   1.643   1.912   5.866 -0.7901 -0.7062 -1.6063
    1PA     C16 2552   1.479   2.022   5.954  0.2244 -0.3236 -0.3839
    1PA     H6R 2553   1.494   2.099   5.878 -1.0239  0.1215 -0.1827
    1PA     H6S 2554   1.370   2.016   5.953  0.2079 -1.5747  2.7921
    1PA     C15 2555   1.519   2.069   6.098  0.5834  0.0560 -0.1255
    1PA     H5R 2556   1.540   1.974   6.148 -3.1832 -0.6072  0.3887
    1PA     H5S 2557   1.614   2.123   6.098  0.8402 -0.3924 -0.7879
    1PA     C14 2558   1.422   2.175   6.166 -0.7776  0.8327 -0.5262
    1PA     H4R 2559   1.453   2.185   6.270 -1.2222 -0.8460 -0.2174
    1PA     H4S 2560   1.427   2.270   6.113  0.4224  0.6369 -0.7901
    1PA     C13 2561   1.273   2.137   6.181 -0.0861 -0.4615 -0.7101
    1PA     H3R 2562   1.223   2.211   6.243 -0.1133 -0.5922 -0.5755
    1PA     H3S 2563   1.230   2.127   6.081 -0.5265  0.0396 -0.5726
    1PA     C12 2564   1.258   2.002   6.255 -0.6083  0.0147  0.4971
    1PA     H2R 2565   1.177   1.950   6.205 -0.9126  0.1939  0.7961
    1PA     H2S 2566   1.345   1.936   6.253  0.8404  1.8846 -0.5569
    1PC     C11 2567   1.213   2.026   6.392 -0.2518 -0.0332 -0.8245
    1PC     O12 2568   1.284   2.086   6.471 -0.6358 -0.1805  0.3586
    1PC     O11 2569   1.102   1.957   6.422  0.6839  0.1938 -0.5254
    1PC      C1 2570   1.055   1.956   6.555  0.4948  0.5393 -0.5102
    1PC      HR 2571   1.075   2.052   6.604  0.9195 -0.9062  2.2595
    1PC      HS 2572   0.946   1.953   6.547  0.6073 -0.4227 -1.8047
    1PC      C2 2573   1.107   1.839   6.638 -0.2535 -0.3508  0.3333
    1PC      HX 2574   1.088   1.744   6.588 -2.1350 -0.9554  2.1310
    1PC      C3 2575   1.033   1.837   6.775  0.6143 -1.2317 -0.1095
    1PC      HA 2576   0.925   1.823   6.765  0.4039  0.0216  0.3732
    1PC      HB 2577   1.067   1.756   6.840 -1.4383 -1.9243  0.1424
    1PC     O31 2578   1.041   1.965   6.847 -0.5962 -0.2183  0.1341
    1PC     P31 2579   1.122   1.985   6.984 -0.2406 -0.0816 -0.3126
    1PC     O32 2580   1.272   2.003   6.931  0.2442  0.3207  0.0173
    1PC     C31 2581   1.332   2.130   6.897 -1.0634 -0.1792  0.5133
    1PC     H1A 2582   1.345   2.194   6.985 -0.7722 -1.5853  1.5214
    1PC     H1B 2583   1.429   2.103   6.855  0.2845  3.5472  1.1135
    1PC     C32 2584   1.249   2.184   6.775  0.7185  0.2264 -0.4562
    1PC     H2A 2585   1.262   2.111   6.695 -0.2610  0.4540 -0.8256
    1PC     H2B 2586   1.146   2.183   6.808  0.5720 -4.1443 -0.8162
    1PC     N31 2587   1.287   2.321   6.722 -0.0446 -0.1482  0.3108
    1PC     C33 2588   1.187   2.361   6.625  0.4935 -0.7360 -0.0817
    1PC     H3A 2589   1.196   2.303   6.533 -1.7644 -0.4577 -0.5084
    1PC     H3B 2590   1.093   2.334   6.673  0.7039 -1.5884 -0.1457
    1PC     H3C 2591   1.188   2.469   6.606  1.1904 -0.7412 -0.0735
    1PC     C34 2592   1.283   2.422   6.836  0.1701 -0.5412  0.3882
    1PC     H4A 2593   1.287   2.528   6.812  0.1527 -0.8279 -0.9129
    1PC     H4B 2594   1.186   2.409   6.885  0.2580 -0.3776  0.6089
    1PC     H4C 2595   1.353   2.400   6.917  0.5894  0.5416  0.3313
    1PC     C35 2596   1.416   2.316   6.649 -0.0508  0.1891 -0.3086
    1PC     H5A 2597   1.494   2.294   6.721 -0.4262  0.6203  0.2447
    1PC     H5B 2598   1.433   2.412   6.601 -1.1732 -0.1974 -1.5043
    1PC     H5C 2599   1.403   2.243   6.570  0.5316 -0.6948  0.4043
    1PC     O33 2600   1.080   2.119   7.035  0.2305 -0.3234 -0.9114
    1PC     O34 2601   1.106   1.877   7.078 -1.0752  0.3092  0.3539
    1PC     O21 2602   1.247   1.864   6.667 -0.1448 -0.2637  0.7615
    1PC     C21 2603   1.317   1.768   6.715 -0.5941 -0.1566  0.5884
    1PC     O22 2604   1.274   1.658   6.749 -0.2441 -0.1965  0.4724
    1OL     C12 2605   1.468   1.798   6.706  0.6132  0.2897 -0.7002
    1OL     H2R 2606   1.513   1.704   6.740  0.6230  1.0448  1.4912
    1OL     H2S 2607   1.486   1.877   6.779 -2.0747 -0.7951  1.2417
    1OL     C13 2608   1.514   1.829   6.565  0.5789  0.0756 -0.8281
    1OL     H3R 2609   1.473   1.927   6.540 -0.8033 -0.0520  0.8434
    1OL     H3S 2610   1.461   1.762   6.497  0.4601  1.2836 -1.9538
    1OL     C14 2611   1.670   1.828   6.573  0.4665  0.3606 -0.1610
    1OL     H4R 2612   1.693   1.722   6.580 -1.6407 -0.1861 -1.2290
    1OL     H4S 2613   1.708   1.869   6.667 -0.4237 -0.8419  0.7254
    1OL     C15 2614   1.749   1.892   6.452  0.4164  0.1237 -0.5334
    1OL     H5R 2615   1.711   1.843   6.362 -0.8910 -0.2637  0.2198
    1OL     H5S 2616   1.855   1.864   6.452  0.4683  0.3245 -0.3467
    1OL     C16 2617   1.725   2.043   6.443  0.5947 -0.2093 -0.3995
    1OL     H6R 2618   1.624   2.068   6.410  0.0976 -0.6410  0.7662
    1OL     H6S 2619   1.784   2.082   6.361 -0.7601  0.4514 -1.0690
    1OL     C17 2620   1.762   2.115   6.570  1.2091 -0.0646 -0.5392
    1OL     H7R 2621   1.861   2.078   6.598  0.1942 -0.4941  2.6686
    1OL     H7S 2622   1.692   2.105   6.654  0.7793  0.8795 -0.7785
    1OL     C18 2623   1.782   2.268   6.564 -0.1180 -0.0083 -0.5601
    1OL     H8R 2624   1.803   2.308   6.663 -0.2556 -1.4532  0.0573
    1OL     H8S 2625   1.685   2.314   6.543  0.6786  2.0993  0.2326
    1OL     C19 2626   1.884   2.328   6.466  0.3601 -0.1474  0.6254
    1OL     H9R 2627   1.984   2.287   6.469  1.2388  1.9335  0.4391
    1OL    C110 2628   1.862   2.407   6.359  0.2905  0.4990  0.1154
    1OL    H10R 2629   1.941   2.431   6.288 -0.2497 -0.7596 -0.9230
    1OL    C111 2630   1.725   2.453   6.315 -0.0195  0.2283 -0.2701
    1OL    H11R 2631   1.717   2.562   6.320 -0.4463  0.1644  0.7051
    1OL    H11S 2632   1.645   2.413   6.378  0.0548  2.3642  1.2532
    1OL    C112 2633   1.698   2.412   6.176  0.0445 -0.1146 -0.3913
    1OL    H12R 2634   1.590   2.423   6.169  0.2586  1.5716 -1.2398
    1OL    H12S 2635   1.719   2.305   6.176  3.1138  0.4230  1.1497
    1OL    C113 2636   1.760   2.501   6.063  0.1954 -0.5088  0.9409
    1OL    H13R 2637   1.856   2.537   6.099  0.3180  1.0112 -0.8248
    1OL    H13S 2638   1.699   2.589   6.040  0.3304 -1.0051 -1.5141
    1OL    C114 2639   1.785   2.435   5.927  0.6693 -0.3814  0.7920
    1OL    H14R 2640   1.839   2.342   5.943  2.6698  0.7682  0.8379
    1OL    H14S 2641   1.838   2.503   5.860 -0.7047 -0.6546 -0.6138
    1OL    C115 2642   1.652   2.389   5.854  0.0726 -0.2519  0.6656
    1OL    H15R 2643   1.577   2.468   5.859  1.1939  0.7974  1.0361
    1OL    H15S 2644   1.618   2.297   5.903 -0.1448 -0.3887  0.2653
    1OL    C116 2645   1.681   2.370   5.704 -0.0864 -0.1958 -0.4868
    1OL    H16R 2646   1.759   2.295   5.686  0.1692 -0.6953  2.5046
    1OL    H16S 2647   1.705   2.467   5.660  0.6346  1.1485  2.7615
    1OL    C117 2648   1.552   2.327   5.632 -0.1464 -0.7219 -0.7522
    1OL    H17R 2649   1.478   2.401   5.663  0.3763 -0.2491 -0.6401
    1OL    H17S 2650   1.518   2.231   5.671  0.6036 -1.0939 -1.0001
    1OL    C118 2651   1.569   2.305   5.482  0.0429  0.3069  0.5366
    1OL    H18R 2652   1.478   2.266   5.437 -0.9906  1.9785  1.1085
    1OL    H18S 2653   1.647   2.229   5.475 -0.2155  0.0847  0.1234
    1OL    H18T 2654   1.599   2.402   5.440  3.0845  0.0419  1.9531
    1PA    C116 2655   2.291   1.242   6.466 -0.2172  0.7064 -0.2019
    1PA    H16R 2656   2.391   1.257   6.424 -0.0920 -0.8760 -0.5193
    1PA    H16S 2657   2.222   1.274   6.388 -2.6664  0.6039  1.8360
    1PA    H16T 2658   2.273   1.137   6.490 -1.6475  1.0109  0.0702
    1PA    C115 2659   2.283   1.320   6.598  0.1948  0.1736  0.0930
    1PA    H15R 2660   2.353   1.282   6.673  0.4747  0.4515 -0.0276
    1PA    H15S 2661   2.309   1.425   6.587  0.8208 -0.0247 -0.3514
    1PA    C114 2662   2.145   1.341   6.659 -0.1603 -0.1212 -0.4889
    1PA    H14R 2663   2.098   1.248   6.693 -2.2795  0.3366 -2.0234
    1PA    H14S 2664   2.142   1.408   6.745  2.5740 -2.4184  1.5133
    1PA    C113 2665   2.057   1.398   6.552 -0.8136 -0.1912  0.0769
    1PA    H13R 2666   2.115   1.479   6.507 -0.5011 -1.2829 -1.5513
    1PA    H13S 2667   2.041   1.329   6.468 -2.5224  1.4749 -0.9884
    1PA    C112 2668   1.928   1.460   6.598  0.3414 -0.4799 -0.7897
    1PA    H12R 2669   1.958   1.557   6.638 -2.2804 -0.7742  2.1456
    1PA    H12S 2670   1.866   1.475   6.509 -1.0409  0.0094  0.2384
    1PA    C111 2671   1.848   1.368   6.698 -0.3272  0.2193  0.9647
    1PA    H11R 2672   1.830   1.279   6.637  1.2159  1.1612 -0.9573
    1PA    H11S 2673   1.911   1.354   6.786  0.0435  0.2653  0.7111
    1PA    C110 2674   1.711   1.421   6.730 -0.0221  0.0880 -0.0970
    1PA    H10R 2675   1.661   1.343   6.789 -0.9927 -1.0242 -2.3262
    1PA    H10S 2676   1.710   1.511   6.792  0.2116  0.4045 -0.5591
    1PA     C19 2677   1.616   1.434   6.611  0.7749  0.1225  0.1731
    1PA     H9R 2678   1.526   1.485   6.644  1.6624  0.7728  1.6649
    1PA     H9S 2679   1.657   1.501   6.536  0.4320  2.1390  1.7426
    1PA     C18 2680   1.569   1.293   6.545 -0.6546 -0.4033 -0.0908
    1PA     H8R 2681   1.539   1.314   6.442  1.7507  1.3422 -0.4894
    1PA     H8S 2682   1.648   1.217   6.542 -0.7251 -0.5332  1.1725
    1PA     C17 2683   1.457   1.221   6.616 -0.1585 -0.2830 -0.0596
    1PA     H7R 2684   1.498   1.185   6.711 -2.8315 -0.9215  0.9313
    1PA     H7S 2685   1.385   1.299   6.641  0.7486  0.7934 -0.8268
    1PA     C16 2686   1.405   1.102   6.540  0.5683  0.1033  0.2370
    1PA     H6R 2687   1.347   1.145   6.457  0.7808 -1.0574 -0.5206
    1PA     H6S 2688   1.493   1.045   6.511  0.5082  0.8033 -1.4373
    1PA     C15 2689   1.319   1.005   6.623 -0.4545  0.5183  1.1671
    1PA     H5R 2690   1.365   0.985   6.720  3.4367 -2.7870 -1.1840
    1PA     H5S 2691   1.223   1.056   6.626  0.1934  1.9998 -1.1524
    1PA     C14 2692   1.279   0.871   6.552 -0.3647  0.3222 -0.0241
    1PA     H4R 2693   1.194   0.820   6.598 -0.0432  0.4623  0.7402
    1PA     H4S 2694   1.250   0.898   6.450 -1.7413  1.3923  0.6450
    1PA     C13 2695   1.403   0.779   6.536 -0.3107  0.2262  0.0892
    1PA     H3R 2696   1.374   0.691   6.478 -0.4813 -0.4282  1.1638
    1PA     H3S 2697   1.482   0.835   6.486 -0.4303  0.2094 -0.1195
    1PA     C12 2698   1.454   0.726   6.670  0.0569  0.7242 -0.0975
    1PA     H2R 2699   1.457   0.799   6.751  1.5964 -1.7364  2.1716
    1PA     H2S 2700   1.380   0.651   6.698 -1.0377  2.0831  0.6756
    1PC     C11 2701   1.585   0.652   6.662 -0.1533 -0.3366  0.0720
    1PC     O12 2702   1.666   0.666   6.570  0.0327 -0.0877  0.1834
    1PC     O11 2703   1.610   0.586   6.775  0.2955 -0.6398  0.3909
    1PC      C1 2704   1.745   0.555   6.809 -0.4288 -0.3992 -0.3957
    1PC      HR 2705   1.740   0.472   6.880  2.6183  1.3052  1.9425
    1PC      HS 2706   1.799   0.513   6.724 -2.1882 -2.3218 -0.6317
    1PC      C2 2707   1.818   0.680   6.868  0.1291 -0.3950  0.0800
    1PC      HX 2708   1.918   0.661   6.907 -1.0731  0.6878  3.9853
    1PC      C3 2709   1.737   0.720   6.993  0.6083  0.4258 -0.1197
    1PC      HA 2710   1.633   0.687   6.991  1.3796 -2.1525 -0.3829
    1PC      HB 2711   1.791   0.676   7.078 -0.9228  0.2956  0.8058
    1PC     O31 2712   1.747   0.860   7.004 -0.1240 -0.4017  0.1787
    1PC     P31 2713   1.674   0.939   7.118 -0.0109 -0.1502 -0.0341
    1PC     O32 2714   1.516   0.936   7.085  0.0141  0.4829  0.0834
    1PC     C31 2715   1.445   1.030   6.999 -0.0585 -0.4250  0.3878
    1PC     H1A 2716   1.499   1.032   6.905  1.1593 -0.3495  1.0793
    1PC     H1B 2717   1.345   0.991   6.976 -0.3326  1.2529 -1.3268
    1PC     C32 2718   1.432   1.169   7.061 -0.1730  0.4446 -0.2450
    1PC     H2A 2719   1.525   1.225   7.052 -0.1704  1.1196  3.3254
    1PC     H2B 2720   1.371   1.230   6.994  1.1232  1.3873 -0.5824
    1PC     N31 2721   1.384   1.188   7.203 -0.4368  0.0660 -0.5028
    1PC     C33 2722   1.262   1.106   7.241  0.1332  0.1325 -0.4157
    1PC     H3A 2723   1.172   1.126   7.182  0.0696 -0.4245 -0.5093
    1PC     H3B 2724   1.281   0.999   7.229 -0.7102  0.1730 -2.2642
    1PC     H3C 2725   1.228   1.118   7.344  1.3080  0.3523 -0.0518
    1PC     C34 2726   1.484   1.149   7.306 -0.3094  0.2439  0.2455
    1PC     H4A 2727   1.486   1.040   7.315  1.9218  0.0184 -2.3476
    1PC     H4B 2728   1.585   1.181   7.281  0.3016 -1.3464  0.6322
    1PC     H4C 2729   1.444   1.197   7.396 -0.8389  0.8062 -0.2888
    1PC     C35 2730   1.351   1.326   7.235  0.4525  0.3331 -0.0865
    1PC     H5A 2731   1.422   1.377   7.170  1.2264 -0.3524  0.2159
    1PC     H5B 2732   1.372   1.347   7.340  0.9471 -0.0713 -0.1071
    1PC     H5C 2733   1.250   1.352   7.203  0.1374 -1.4351 -0.5503
    1PC     O33 2734   1.698   0.856   7.242 -0.4999 -0.1332  0.0494
    1PC     O34 2735   1.724   1.077   7.130 -0.6704 -0.2690 -0.1768
    1PC     O21 2736   1.813   0.785   6.768  0.5984 -0.2812  0.1045
    1PC     C21 2737   1.922   0.866   6.748  0.2425  0.2208 -0.5411
    1PC     O22 2738   2.030   0.834   6.788  0.1433  0.3254 -0.1426
    1OL     C12 2739   1.895   0.995   6.670  0.3359  0.1413 -0.3280
    1OL     H2R 2740   1.940   1.072   6.732 -0.9106  0.5022  0.1489
    1OL     H2S 2741   1.787   1.016   6.669 -0.1954 -2.3623  0.6907
    1OL     C13 2742   1.958   1.018   6.535  0.0749  0.1477 -0.0091
    1OL     H3R 2743   2.064   1.002   6.555  0.8009  2.4549 -1.7379
    1OL     H3S 2744   1.942   1.125   6.520 -0.1752  0.1258  0.0978
    1OL     C14 2745   1.904   0.929   6.412 -0.2626 -0.3340 -0.0373
    1OL     H4R 2746   1.908   0.824   6.443  0.6327 -1.0449 -2.4031
    1OL     H4S 2747   1.963   0.927   6.320 -0.2715  1.8020 -0.1153
    1OL     C15 2748   1.760   0.964   6.378 -1.0087  0.6492  0.7160
    1OL     H5R 2749   1.759   1.069   6.345  1.2219  0.7332  0.8251
    1OL     H5S 2750   1.701   0.959   6.470  0.1140 -0.3133  1.3972
    1OL     C16 2751   1.699   0.870   6.273 -0.4287  0.6903  0.2576
    1OL     H6R 2752   1.692   0.768   6.312 -0.8781  1.6493  2.7795
    1OL     H6S 2753   1.761   0.882   6.184 -0.0352 -0.4721  0.3711
    1OL     C17 2754   1.554   0.918   6.236 -0.3677  0.2317  0.1611
    1OL     H7R 2755   1.534   1.013   6.286 -1.2601 -0.1450  0.5387
    1OL     H7S 2756   1.473   0.854   6.271 -2.1393  2.3232 -0.0039
    1OL     C18 2757   1.534   0.952   6.086  0.1181 -0.2380  0.4716
    1OL     H8R 2758   1.546   0.862   6.026 -0.2936  0.2506 -0.3631
    1OL     H8S 2759   1.609   1.025   6.058 -0.3776  0.4344  0.8725
    1OL     C19 2760   1.393   1.012   6.079 -0.5563  0.3448 -0.5888
    1OL     H9R 2761   1.317   0.962   6.140  0.0079 -0.1320 -0.2736
    1OL    C110 2762   1.352   1.121   6.013 -0.2909  0.2891 -0.0045
    1OL    H10R 2763   1.249   1.152   6.027 -0.6801 -0.3562 -1.3261
    1OL    C111 2764   1.436   1.214   5.924  0.1233 -0.1356 -0.6219
    1OL    H11R 2765   1.416   1.196   5.818 -0.2788 -1.4150 -0.3361
    1OL    H11S 2766   1.543   1.201   5.941 -0.0887 -2.2934 -0.7988
    1OL    C112 2767   1.390   1.358   5.952 -0.4520  0.2322 -0.5174
    1OL    H12R 2768   1.292   1.386   5.915 -0.6237  0.4640  0.1112
    1OL    H12S 2769   1.457   1.424   5.896  0.3484 -0.0782  0.0588
    1OL    C113 2770   1.411   1.405   6.099  0.1351  0.4664 -0.0060
    1OL    H13R 2771   1.343   1.347   6.160 -1.5385 -0.5226 -2.6987
    1OL    H13S 2772   1.373   1.507   6.106  1.2658  0.9866 -1.2147
    1OL    C114 2773   1.561   1.394   6.146 -0.4882 -0.5133  0.3746
    1OL    H14R 2774   1.586   1.288   6.147  0.3904 -0.3081  0.7488
    1OL    H14S 2775   1.567   1.423   6.251 -1.1409  2.4132 -0.3414
    1OL    C115 2776   1.666   1.470   6.063  0.8014 -0.0842 -0.5515
    1OL    H15R 2777   1.628   1.569   6.036 -0.8398 -0.1330  1.4569
    1OL    H15S 2778   1.669   1.406   5.974  1.5638  0.8989 -1.2506
    1OL    C116 2779   1.794   1.486   6.144  0.2784  0.1412 -0.4663
    1OL    H16R 2780   1.809   1.402   6.213 -0.0550  0.2551 -0.2513
    1OL    H16S 2781   1.781   1.575   6.207 -4.3221 -0.6365 -0.0876
    1OL    C117 2782   1.922   1.510   6.056 -0.0300 -0.7337  0.3586
    1OL    H17R 2783   1.913   1.613   6.024 -2.1054 -0.7470  0.7671
    1OL    H17S 2784   1.894   1.444   5.974 -1.0883  0.3912 -0.2062
    1OL    C118 2785   2.062   1.479   6.110 -0.5420  0.3995  0.2852
    1OL    H18R 2786   2.132   1.522   6.038 -1.6254  1.8987  0.1022
    1OL    H18S 2787   2.068   1.370   6.117 -3.2931  0.0810 -1.4250
    1OL    H18T 2788   2.072   1.513   6.213  0.3463 -2.3236  1.1565
    1PA    C116 2789   2.925   4.924   5.508 -0.5055 -0.3117  0.0116
    1PA    H16R 2790   2.954   5.005   5.575  0.5036 -0.2480 -0.4891
    1PA    H16S 2791   2.895   4.949   5.406  0.8143 -0.1786 -0.3520
    1PA    H16T 2792   3.011   4.860   5.486 -1.2159 -1.7226  1.2295
    1PA    C115 2793   2.821   4.845   5.587  0.0998  0.4016 -0.4302
    1PA    H15R 2794   2.736   4.911   5.602 -0.2712 -0.0776 -0.4223
    1PA    H15S 2795   2.798   4.754   5.531  0.4382 -0.8781  1.4610
    1PA    C114 2796   2.869   4.798   5.730 -0.0368 -0.5045  1.0698
    1PA    H14R 2797   2.927   4.867   5.791  1.0709 -0.6627  0.1938
    1PA    H14S 2798   2.787   4.769   5.797  1.0174  0.1276  2.6726
    1PA    C113 2799   2.956   4.677   5.713 -0.0657  0.0952 -0.5949
    1PA    H13R 2800   2.890   4.602   5.669  0.3194  0.3904 -1.7073
    1PA    H13S 2801   3.023   4.698   5.629 -0.3545  0.0422 -0.8401
    1PA    C112 2802   3.023   4.622   5.843  0.1202 -0.2207 -0.5382
    1PA    H12R 2803   2.946   4.606   5.917  0.3783  1.6633  0.1636
    1PA    H12S 2804   3.066   4.522   5.829 -0.7630 -0.7950  0.7886
    1PA    C111 2805   3.127   4.722   5.906  0.1004 -0.2531 -0.6946
    1PA    H11R 2806   3.089   4.822   5.929  2.2081  0.5848 -0.7628
    1PA    H11S 2807   3.160   4.671   5.997 -0.1365  0.9091  0.0548
    1PA    C110 2808   3.241   4.762   5.817  0.3835  0.1939  0.4576
    1PA    H10R 2809   3.282   4.668   5.780  0.0599  0.5945 -0.9694
    1PA    H10S 2810   3.216   4.820   5.727  0.8002  1.6606  1.2682
    1PA     C19 2811   3.362   4.833   5.887  0.9126 -0.1481  0.4062
    1PA     H9R 2812   3.374   4.783   5.983  1.4149 -0.9702 -0.0809
    1PA     H9S 2813   3.462   4.823   5.843  0.7655  3.2759 -0.8734
    1PA     C18 2814   3.336   4.976   5.929 -0.5347 -0.0810 -0.2468
    1PA     H8R 2815   3.329   5.037   5.838 -0.0070  1.2391  0.5838
    1PA     H8S 2816   3.238   4.981   5.978  0.1750 -4.0689  1.7398
    1PA     C17 2817   3.433   5.045   6.027  0.1708 -0.6053 -0.0079
    1PA     H7R 2818   3.532   5.054   5.980  0.9829  0.0469  1.7799
    1PA     H7S 2819   3.384   5.141   6.041 -1.3142 -1.4393  0.5446
    1PA     C16 2820   3.437   4.963   6.157 -0.1378 -0.3122 -0.0683
    1PA     H6R 2821   3.335   4.930   6.178 -0.8018  1.5335 -0.2796
    1PA     H6S 2822   3.492   4.872   6.136 -1.2901 -1.4206  1.5894
    1PA     C15 2823   3.501   5.029   6.277 -0.6136 -0.1467 -0.0147
    1PA     H5R 2824   3.601   5.067   6.253 -0.7585 -0.1629 -0.6503
    1PA     H5S 2825   3.438   5.115   6.301  0.6437  0.9869 -0.6910
    1PA     C14 2826   3.510   4.939   6.398  1.0612 -0.4384 -0.1628
    1PA     H4R 2827   3.409   4.924   6.437  1.2059 -2.5764 -0.5366
    1PA     H4S 2828   3.555   4.844   6.368  1.5300 -0.8404  1.7426
    1PA     C13 2829   3.588   5.004   6.517 -0.5309  0.5652  0.0393
    1PA     H3R 2830   3.675   5.053   6.474  1.1236 -1.3364  1.1347
    1PA     H3S 2831   3.516   5.074   6.560 -1.3525  0.2008 -0.7204
    1PA     C12 2832   3.642   4.908   6.625  0.8278  0.1626  0.2447
    1PA     H2R 2833   3.719   4.853   6.572  0.2600  1.1545 -1.6663
    1PA     H2S 2834   3.694   4.962   6.704  0.8978 -1.4311  1.3110
    1PC     C11 2835   3.541   4.813   6.677 -0.2537 -0.3741 -0.1965
    1PC     O12 2836   3.460   4.834   6.769 -0.7142 -0.1969 -0.4067
    1PC     O11 2837   3.549   4.696   6.608 -0.0207 -0.2530 -0.1323
    1PC      C1 2838   3.464   4.584   6.656  0.4269 -0.2272 -0.0851
    1PC      HR 2839   3.483   4.503   6.585 -0.6159 -2.5353  2.1635
    1PC      HS 2840   3.486   4.551   6.758  1.2441  1.1865  0.1940
    1PC      C2 2841   3.312   4.612   6.634  0.2244  0.2775  0.7586
    1PC      HX 2842   3.287   4.691   6.706 -0.8431  2.5364 -1.9801
    1PC      C3 2843   3.235   4.479   6.659 -0.1304  0.7690  0.4302
    1PC      HA 2844   3.140   4.484   6.605 -0.2258  1.5440  0.6604
    1PC      HB 2845   3.294   4.398   6.616 -2.0188 -0.8338  0.7819
    1PC     O31 2846   3.218   4.465   6.800 -0.3208  0.2533  0.2459
    1PC     P31 2847   3.074   4.443   6.866 -0.1971 -0.2758  0.2537
    1PC     O32 2848   3.082   4.322   6.973  0.4736  0.4387  0.0143
    1PC     C31 2849   3.154   4.329   7.096 -0.0509 -0.4760 -1.1644
    1PC     H1A 2850   3.108   4.410   7.152  0.3815 -1.0516  0.0359
    1PC     H1B 2851   3.143   4.240   7.159  0.6482 -0.5084 -1.0849
    1PC     C32 2852   3.299   4.356   7.059  0.1619  0.1461  0.1436
    1PC     H2A 2853   3.351   4.275   7.008 -1.7995 -0.5730 -0.7595
    1PC     H2B 2854   3.312   4.447   7.000 -0.1704  0.9256  1.2585
    1PC     N31 2855   3.384   4.399   7.175 -0.6586 -0.2903  0.0293
    1PC     C33 2856   3.511   4.464   7.122 -0.0382 -0.1462  0.0939
    1PC     H3A 2857   3.490   4.555   7.066 -2.9879 -0.9807 -0.2617
    1PC     H3B 2858   3.578   4.488   7.204 -0.3934  0.5647  0.1778
    1PC     H3C 2859   3.561   4.389   7.060  0.6998  1.6569 -1.5066
    1PC     C34 2860   3.327   4.507   7.260  0.1244  0.2366  0.4183
    1PC     H4A 2861   3.302   4.593   7.198 -4.6222 -2.8583 -2.2793
    1PC     H4B 2862   3.231   4.472   7.300 -0.1337  1.1708  0.6422
    1PC     H4C 2863   3.389   4.531   7.347 -1.0274 -1.7519  1.8406
    1PC     C35 2864   3.424   4.283   7.251  0.9546 -0.0169  0.2775
    1PC     H5A 2865   3.334   4.229   7.281 -0.4682  1.1846 -1.7194
    1PC     H5B 2866   3.475   4.321   7.340 -0.6768 -0.5758  1.4706
    1PC     H5C 2867   3.482   4.220   7.183  0.3279  0.9697 -1.1918
    1PC     O33 2868   3.035   4.565   6.944 -0.4007 -0.2584 -0.1635
    1PC     O34 2869   2.976   4.394   6.773  0.3001 -0.2551  0.3225
    1PC     O21 2870   3.274   4.651   6.494 -0.0360  0.0735 -0.4798
    1PC     C21 2871   3.151   4.712   6.484  0.0279  0.3245 -0.4267
    1PC     O22 2872   3.087   4.748   6.580  0.3614 -0.1634  0.6657
    1OL     C12 2873   3.111   4.710   6.345  0.2151 -0.1555 -0.2837
    1OL     H2R 2874   3.196   4.725   6.279 -0.0434  1.0504 -0.3490
    1OL     H2S 2875   3.053   4.802   6.332 -0.5831 -0.4389  1.1754
    1OL     C13 2876   3.023   4.591   6.307 -0.2661 -0.0140  0.3104
    1OL     H3R 2877   2.974   4.548   6.395 -2.7079  1.0674 -0.4736
    1OL     H3S 2878   3.083   4.515   6.255 -1.4275 -1.4971  1.0969
    1OL     C14 2879   2.908   4.649   6.216  0.2062  0.1453 -0.5935
    1OL     H4R 2880   2.949   4.680   6.119  1.1316  1.3069  0.1621
    1OL     H4S 2881   2.859   4.724   6.278  0.2318  0.8705 -1.4291
    1OL     C15 2882   2.803   4.542   6.197 -0.3751 -0.0224 -0.8337
    1OL     H5R 2883   2.727   4.592   6.137  0.5056 -0.0463 -1.9975
    1OL     H5S 2884   2.763   4.509   6.293  0.1647 -1.3812 -1.0625
    1OL     C16 2885   2.840   4.413   6.127 -0.1808  0.0820 -0.1660
    1OL     H6R 2886   2.924   4.363   6.176 -0.9575  0.1639  1.2509
    1OL     H6S 2887   2.871   4.432   6.023 -1.0575 -1.3104 -0.6900
    1OL     C17 2888   2.723   4.312   6.125 -0.0369  1.0759 -0.3226
    1OL     H7R 2889   2.628   4.365   6.112 -0.2712  0.3415 -1.7019
    1OL     H7S 2890   2.721   4.259   6.221 -3.7443  1.8365  0.0826
    1OL     C18 2891   2.727   4.195   6.027  0.1167 -0.0655 -0.7809
    1OL     H8R 2892   2.781   4.111   6.073  2.1533  0.5004 -2.0827
    1OL     H8S 2893   2.783   4.223   5.937  1.0132 -0.5657 -0.3901
    1OL     C19 2894   2.592   4.139   5.991  0.1718 -0.4367  0.1728
    1OL     H9R 2895   2.568   4.075   6.076  1.9779 -2.3881 -0.7269
    1OL    C110 2896   2.526   4.168   5.883 -0.5979  0.2197 -0.1990
    1OL    H10R 2897   2.438   4.111   5.855 -0.8791  0.8163 -0.5190
    1OL    C111 2898   2.579   4.257   5.768  0.4650  0.5688  0.3011
    1OL    H11R 2899   2.683   4.228   5.750  0.5831  1.8432 -1.1834
    1OL    H11S 2900   2.569   4.357   5.811  0.6886  0.0271  1.6304
    1OL    C112 2901   2.488   4.232   5.650  0.2992  0.0166 -0.1374
    1OL    H12R 2902   2.486   4.124   5.639 -1.0191  0.0271 -0.0425
    1OL    H12S 2903   2.529   4.262   5.553  0.7225  0.5032  0.1856
    1OL    C113 2904   2.343   4.277   5.658 -0.8388 -0.5005  1.1300
    1OL    H13R 2905   2.354   4.386   5.660 -0.0466 -0.5954  2.1725
    1OL    H13S 2906   2.306   4.235   5.752 -3.1461 -0.4040  0.2944
    1OL    C114 2907   2.268   4.232   5.536 -0.2213 -0.1143  0.1497
    1OL    H14R 2908   2.267   4.123   5.528 -0.9291 -0.3532  2.9618
    1OL    H14S 2909   2.314   4.280   5.449  0.4368 -0.4472  0.3199
    1OL    C115 2910   2.115   4.278   5.533 -0.1715  0.3267  0.3488
    1OL    H15R 2911   2.065   4.239   5.443 -0.8369 -0.8447  1.2042
    1OL    H15S 2912   2.118   4.386   5.517 -1.7913  0.3047 -0.2772
    1OL    C116 2913   2.016   4.245   5.646 -0.1528 -0.0826 -0.4056
    1OL    H16R 2914   1.918   4.279   5.613  0.9647  2.5283 -1.2044
    1OL    H16S 2915   2.028   4.289   5.745 -0.4056 -0.7442 -0.0774
    1OL    C117 2916   2.006   4.093   5.676  0.4819  0.2945 -0.7102
    1OL    H17R 2917   1.950   4.069   5.767 -0.3240  0.1586 -1.2424
    1OL    H17S 2918   2.105   4.047   5.672  0.2453 -0.2341 -0.5589
    1OL    C118 2919   1.919   4.009   5.577  0.0099 -0.4932  0.2362
    1OL    H18R 2920   1.932   4.053   5.478  0.2139 -0.5812  0.2251
    1OL    H18S 2921   1.815   4.007   5.613  0.6998 -1.6926  2.2443
    1OL    H18T 2922   1.949   3.905   5.567  0.8121 -0.2866  0.4565
    1PA    C116 2923   4.613   2.557   5.109  1.0768 -0.1725  0.2702
    1PA    H16R 2924   4.648   2.644   5.054  0.4042 -0.4291 -0.5638
    1PA    H16S 2925   4.533   2.588   5.176  0.8850  2.0028 -0.9212
    1PA    H16T 2926   4.571   2.480   5.043 -1.7354  1.6336 -0.1069
    1PA    C115 2927   4.730   2.500   5.186 -0.9465  0.1955  0.4585
    1PA    H15R 2928   4.800   2.480   5.105  0.7465  1.9370  1.4565
    1PA    H15S 2929   4.774   2.571   5.257 -1.3627  1.5054 -0.5732
    1PA    C114 2930   4.677   2.371   5.252  0.1549 -1.0000 -0.0530
    1PA    H14R 2931   4.635   2.392   5.350 -1.2061 -3.7894  0.0169
    1PA    H14S 2932   4.594   2.328   5.196 -0.6524 -1.5155  1.5044
    1PA    C113 2933   4.791   2.261   5.264  0.0177 -0.0323 -0.3328
    1PA    H13R 2934   4.741   2.174   5.307  0.0249 -0.9356 -2.1600
    1PA    H13S 2935   4.828   2.230   5.167 -1.5684 -1.8063 -0.3986
    1PA    C112 2936   4.916   2.305   5.352 -0.2719 -0.3414  0.4547
    1PA    H12R 2937   4.993   2.227   5.354  0.3062  0.1957 -0.4919
    1PA    H12S 2938   4.953   2.404   5.323 -0.2282  0.2118  2.2984
    1PA    C111 2939   4.875   2.316   5.499  0.8531 -0.1279  0.1830
    1PA    H11R 2940   4.819   2.410   5.502  1.5149  0.2653  0.1202
    1PA    H11S 2941   4.815   2.234   5.539  1.5788 -0.3965  0.7238
    1PA    C110 2942   4.999   2.324   5.591 -0.5313  0.1912  0.2224
    1PA    H10R 2943   5.046   2.225   5.587  2.2932  1.5198 -0.8068
    1PA    H10S 2944   5.071   2.386   5.537  0.3127 -0.9061  0.0772
    1PA     C19 2945   4.967   2.383   5.728  0.4207 -0.8187  0.3826
    1PA     H9R 2946   4.907   2.474   5.722 -1.0110 -1.7113  0.8808
    1PA     H9S 2947   4.905   2.317   5.789  0.6172  0.2832  1.7944
    1PA     C18 2948   5.095   2.413   5.801  0.0024  0.1834  0.3830
    1PA     H8R 2949   5.167   2.332   5.787 -0.4923 -0.2886  0.5981
    1PA     H8S 2950   5.150   2.497   5.757 -1.4925  0.8168 -0.2792
    1PA     C17 2951   5.079   2.422   5.947 -0.1059 -0.0800 -0.6804
    1PA     H7R 2952   5.007   2.500   5.974  1.6145  1.3221 -0.0517
    1PA     H7S 2953   5.043   2.324   5.980  1.3387 -0.0755  0.9778
    1PA     C16 2954   5.212   2.454   6.022 -0.3433 -0.1206 -0.1289
    1PA     H6R 2955   5.277   2.366   6.017  2.5084  1.9719 -1.1437
    1PA     H6S 2956   5.269   2.538   5.982  0.0083  0.2831  1.2176
    1PA     C15 2957   5.172   2.476   6.165  0.0678 -0.1692  0.7092
    1PA     H5R 2958   5.118   2.570   6.180 -1.6463 -0.6557 -2.1931
    1PA     H5S 2959   5.104   2.397   6.196 -0.7860 -0.0730 -0.8753
    1PA     C14 2960   5.291   2.468   6.259  0.9042 -0.5253 -0.2734
    1PA     H4R 2961   5.341   2.374   6.235  0.3500 -1.3352  1.6466
    1PA     H4S 2962   5.360   2.552   6.252  0.6551 -0.2358  0.5942
    1PA     C13 2963   5.239   2.463   6.408 -0.0001 -0.5573  0.3228
    1PA     H3R 2964   5.186   2.550   6.444  0.0378 -1.1676  1.8761
    1PA     H3S 2965   5.169   2.379   6.410 -1.6368  0.8027  1.0536
    1PA     C12 2966   5.350   2.442   6.508 -1.1954 -0.2966 -0.3434
    1PA     H2R 2967   5.404   2.348   6.504 -0.0502  0.4216 -2.0496
    1PA     H2S 2968   5.430   2.516   6.501 -0.2906 -1.2452 -0.1843
    1PC     C11 2969   5.287   2.452   6.648  0.3318  0.2301  1.3842
    1PC     O12 2970   5.183   2.514   6.671 -0.1687 -0.4468  0.0882
    1PC     O11 2971   5.353   2.385   6.745 -0.0418  0.1376  0.3290
    1PC      C1 2972   5.313   2.401   6.883  0.3843 -0.4669 -0.0425
    1PC      HR 2973   5.206   2.411   6.903  0.4765  0.6471 -0.0860
    1PC      HS 2974   5.345   2.308   6.931 -0.0695 -0.4830  0.2353
    1PC      C2 2975   5.396   2.529   6.930  0.9788  0.0055  0.4396
    1PC      HX 2976   5.505   2.521   6.923  1.2316  0.4143  3.1319
    1PC      C3 2977   5.368   2.539   7.088 -0.2641 -0.3789 -0.6237
    1PC      HA 2978   5.378   2.441   7.135 -2.5262 -0.7820 -0.9298
    1PC      HB 2979   5.435   2.611   7.136  1.0338 -1.0833 -1.3458
    1PC     O31 2980   5.231   2.588   7.113  0.5228 -0.0287  0.0286
    1PC     P31 2981   5.186   2.642   7.251  0.3256 -0.1304 -0.0349
    1PC     O32 2982   5.069   2.553   7.306  0.0154  0.4146  0.0645
    1PC     C31 2983   5.083   2.406   7.314 -1.1935 -0.0654 -0.6849
    1PC     H1A 2984   5.188   2.379   7.307 -0.8991  0.8140  0.1282
    1PC     H1B 2985   5.051   2.371   7.413 -0.3634  0.1847 -0.3274
    1PC     C32 2986   4.993   2.344   7.210  0.0658 -0.5357  0.6913
    1PC     H2A 2987   5.048   2.350   7.116 -0.9923 -1.2302  0.0170
    1PC     H2B 2988   4.973   2.238   7.230  0.1946 -0.9771 -1.4088
    1PC     N31 2989   4.858   2.410   7.185 -0.1735 -0.1201  0.1251
    1PC     C33 2990   4.781   2.449   7.304  0.6713  0.6199 -0.9179
    1PC     H3A 2991   4.837   2.528   7.355  1.2229 -0.0053 -0.5522
    1PC     H3B 2992   4.678   2.481   7.288  0.2347 -0.2735  0.0285
    1PC     H3C 2993   4.771   2.364   7.371 -1.5628 -0.0905 -2.1007
    1PC     C34 2994   4.882   2.520   7.094 -0.8275  0.0467 -0.3803
    1PC     H4A 2995   4.929   2.481   7.003 -2.2373 -0.8785 -0.7252
    1PC     H4B 2996   4.786   2.559   7.060  0.1139  2.2746 -0.5395
    1PC     H4C 2997   4.950   2.600   7.125  1.3331 -1.9611  0.2606
    1PC     C35 2998   4.766   2.324   7.112  0.1077  0.0621  0.4418
    1PC     H5A 2999   4.733   2.234   7.166 -3.1654  1.5565  1.0220
    1PC     H5B 3000   4.822   2.286   7.027  2.0074 -4.1838  3.3618
    1PC     H5C 3001   4.671   2.373   7.091 -0.7093 -0.4050  2.8429
    1PC     O33 3002   5.303   2.641   7.345  0.0427  0.4666 -0.2650
    1PC     O34 3003   5.116   2.774   7.230 -0.3444 -0.6648  0.0167
    1PC     O21 3004   5.344   2.655   6.877 -0.0306  0.1275  0.6067
    1PC     C21 3005   5.429   2.726   6.807  0.4325 -0.0716 -0.3174
    1PC     O22 3006   5.542   2.699   6.774 -0.0392 -0.0800 -0.1672
    1OL     C12 3007   5.368   2.858   6.750 -0.0281 -0.4838 -0.2109
    1OL     H2R 3008   5.265   2.825   6.737  0.0274 -0.2924 -1.1294
    1OL     H2S 3009   5.428   2.891   6.665  0.0627  0.4037  0.1898
    1OL     C13 3010   5.372   2.961   6.861 -0.1883  0.5509  0.4383
    1OL     H3R 3011   5.459   2.954   6.927 -2.4017  2.0552  3.6544
    1OL     H3S 3012   5.284   2.945   6.922 -0.8222  2.7375  0.1622
    1OL     C14 3013   5.368   3.110   6.816  0.0064 -0.0033 -0.3020
    1OL     H4R 3014   5.455   3.129   6.753 -1.1747 -0.3788 -2.0753
    1OL     H4S 3015   5.383   3.174   6.903  1.5349  0.4199 -0.8641
    1OL     C15 3016   5.233   3.148   6.749  0.3564 -0.0090 -0.0522
    1OL     H5R 3017   5.238   3.107   6.648  1.3711  2.9136 -1.2578
    1OL     H5S 3018   5.234   3.256   6.732 -1.9273  0.0698  0.2318
    1OL     C16 3019   5.104   3.107   6.820 -0.4145  0.7184 -0.2494
    1OL     H6R 3020   5.103   3.158   6.916 -3.9264 -0.1044  0.2333
    1OL     H6S 3021   5.105   3.000   6.842  0.7131  0.5365 -1.1540
    1OL     C17 3022   4.966   3.113   6.740  0.1247  0.3001  0.1600
    1OL     H7R 3023   4.938   3.218   6.730 -1.2207 -0.2336 -1.8689
    1OL     H7S 3024   4.889   3.060   6.797  0.0694 -0.0742 -0.2710
    1OL     C18 3025   4.971   3.046   6.604 -0.0998 -0.6546  0.7904
    1OL     H8R 3026   5.038   3.107   6.542 -1.2569 -0.7752 -0.6153
    1OL     H8S 3027   4.874   3.048   6.556  0.5216  0.0696 -0.4628
    1OL     C19 3028   5.023   2.900   6.612  0.2404  0.1001  0.4443
    1OL     H9R 3029   5.002   2.843   6.702 -0.8920 -2.1929 -1.2355
    1OL    C110 3030   5.085   2.830   6.513 -0.4313 -0.1582 -0.7010
    1OL    H10R 3031   5.111   2.726   6.526  1.8842  0.3892 -0.8252
    1OL    C111 3032   5.116   2.876   6.375  0.0902 -0.5996 -0.1726
    1OL    H11R 3033   5.198   2.815   6.335  0.8806  0.7293 -0.5849
    1OL    H11S 3034   5.149   2.979   6.382 -2.6376  0.3773 -0.8547
    1OL    C112 3035   5.003   2.863   6.274 -0.4453  0.4711 -0.1046
    1OL    H12R 3036   4.992   2.757   6.253 -1.0362  0.8550 -1.8007
    1OL    H12S 3037   5.036   2.918   6.186  1.3701 -1.3153 -0.5843
    1OL    C113 3038   4.874   2.926   6.318  0.6333 -0.2825  0.5280
    1OL    H13R 3039   4.889   3.032   6.340 -0.3890 -0.2430  1.0829
    1OL    H13S 3040   4.840   2.864   6.402 -1.5427 -0.2476 -0.3001
    1OL    C114 3041   4.769   2.911   6.208 -0.2755  0.0121  0.1135
    1OL    H14R 3042   4.749   2.804   6.218 -0.5526  0.0980  0.4843
    1OL    H14S 3043   4.823   2.914   6.113  1.3115  1.6561  1.0430
    1OL    C115 3044   4.635   2.994   6.204 -0.7499 -0.3074  0.4052
    1OL    H15R 3045   4.664   3.100   6.205  0.7500 -0.7033  1.3727
    1OL    H15S 3046   4.584   2.977   6.299 -1.2295  0.6264  0.3154
    1OL    C116 3047   4.549   2.970   6.083 -0.5582 -0.4975 -0.2572
    1OL    H16R 3048   4.457   3.025   6.105  0.9019  1.6504  0.7132
    1OL    H16S 3049   4.516   2.866   6.072  0.0530 -0.8439  1.1066
    1OL    C117 3050   4.599   3.013   5.945 -0.5015 -0.0506 -0.6076
    1OL    H17R 3051   4.521   2.998   5.871 -1.0100  1.5975 -0.4007
    1OL    H17S 3052   4.676   2.937   5.924  0.6196  0.4110  1.6358
    1OL    C118 3053   4.665   3.148   5.932 -0.8650 -0.8707  0.0654
    1OL    H18R 3054   4.603   3.211   5.867  0.0370 -0.6545 -0.5952
    1OL    H18S 3055   4.765   3.153   5.890 -0.7863  3.3484  0.5452
    1OL    H18T 3056   4.671   3.195   6.030  0.7970  1.9027 -1.3005
    1PA    C116 3057   4.381   0.938   5.506  0.3209 -0.0377  0.6781
    1PA    H16R 3058   4.462   1.001   5.469 -0.2315 -0.0073 -0.5011
    1PA    H16S 3059   4.310   0.924   5.424  0.8657  0.2393  0.1565
    1PA    H16T 3060   4.433   0.844   5.529  1.3678  0.7866  1.7251
    1PA    C115 3061   4.321   0.993   5.636 -0.9026  0.6377 -0.1516
    1PA    H15R 3062   4.279   1.092   5.618 -1.9534 -0.0453 -1.5676
    1PA    H15S 3063   4.244   0.921   5.663 -1.6902  1.2078 -0.8412
    1PA    C114 3064   4.422   1.021   5.753  0.1322 -0.5093 -0.3885
    1PA    H14R 3065   4.360   1.055   5.837 -0.3639  0.4526 -1.1314
    1PA    H14S 3066   4.460   0.922   5.777  0.3248 -0.1991  0.6534
    1PA    C113 3067   4.525   1.122   5.715  0.6898  0.1729 -0.1432
    1PA    H13R 3068   4.587   1.087   5.632  1.0529  1.3935 -0.3874
    1PA    H13S 3069   4.479   1.219   5.698 -2.4174 -1.4176 -1.2133
    1PA    C112 3070   4.620   1.153   5.834 -0.0509 -0.0407 -0.2456
    1PA    H12R 3071   4.688   1.233   5.802  0.0679 -0.4594 -1.0621
    1PA    H12S 3072   4.570   1.199   5.919 -2.3230  1.7650 -2.4611
    1PA    C111 3073   4.714   1.034   5.877 -0.1550 -0.3346 -0.4907
    1PA    H11R 3074   4.653   0.957   5.924 -1.7151  0.5520 -1.0122
    1PA    H11S 3075   4.758   0.989   5.788 -0.9105 -0.4463 -0.8161
    1PA    C110 3076   4.829   1.076   5.978 -0.7893 -0.0535  0.4159
    1PA    H10R 3077   4.917   1.114   5.925 -1.6969 -0.8506 -1.6805
    1PA    H10S 3078   4.796   1.138   6.062 -1.6364 -1.0083  0.8063
    1PA     C19 3079   4.875   0.948   6.053  0.0543  0.1970 -0.8650
    1PA     H9R 3080   4.778   0.903   6.075 -0.9398  2.7065 -0.0118
    1PA     H9S 3081   4.935   0.887   5.984 -0.4427 -0.2636 -0.8997
    1PA     C18 3082   4.958   0.964   6.186 -0.1684  0.1843  0.7512
    1PA     H8R 3083   4.894   1.011   6.261 -0.6270  0.8996 -0.0859
    1PA     H8S 3084   4.982   0.863   6.218 -0.6342 -1.1910 -2.9757
    1PA     C17 3085   5.092   1.044   6.167 -0.3037  0.2934 -0.3126
    1PA     H7R 3086   5.153   0.998   6.089  1.3234 -1.3020  1.8375
    1PA     H7S 3087   5.071   1.141   6.122  2.4439  0.4476 -1.3317
    1PA     C16 3088   5.169   1.057   6.297 -0.1215  0.4784 -0.0314
    1PA     H6R 3089   5.231   1.146   6.284 -1.6986  1.7929  1.1190
    1PA     H6S 3090   5.101   1.070   6.382  1.2165  2.4585  0.7789
    1PA     C15 3091   5.261   0.943   6.327 -0.0235  0.1425 -0.2677
    1PA     H5R 3092   5.204   0.855   6.357  1.1917 -0.4491  0.3106
    1PA     H5S 3093   5.315   0.920   6.235 -0.1513  3.0409 -1.1321
    1PA     C14 3094   5.362   0.965   6.438 -0.3708 -0.0224 -0.4831
    1PA     H4R 3095   5.439   0.888   6.447 -0.4651 -0.2963 -1.9827
    1PA     H4S 3096   5.417   1.057   6.417 -0.2369 -0.5119 -2.3649
    1PA     C13 3097   5.302   0.972   6.578  0.4178 -0.5985 -0.4360
    1PA     H3R 3098   5.365   1.026   6.648 -1.2096  1.2687 -0.3570
    1PA     H3S 3099   5.208   1.028   6.574  1.6442  1.5819  0.7180
    1PA     C12 3100   5.271   0.828   6.626 -0.4991  0.0082  0.4446
    1PA     H2R 3101   5.193   0.781   6.566 -0.6984  0.5489  0.2769
    1PA     H2S 3102   5.355   0.759   6.620 -1.2914 -0.8463 -1.1215
    1PC     C11 3103   5.214   0.835   6.766 -0.3996  0.0583  0.3927
    1PC     O12 3104   5.276   0.785   6.857  0.0755  0.0409  0.2918
    1PC     O11 3105   5.094   0.897   6.776 -0.8226 -0.8785 -0.2421
    1PC      C1 3106   5.037   0.907   6.907 -0.0391  0.5421  0.0947
    1PC      HR 3107   4.930   0.919   6.891  0.1864  0.8574 -1.1829
    1PC      HS 3108   5.058   0.818   6.967 -0.8182 -0.3737 -0.9739
    1PC      C2 3109   5.096   1.025   6.986  0.3160  0.5327  0.8650
    1PC      HX 3110   5.203   1.002   6.988  0.2502  0.1645  0.2809
    1PC      C3 3111   5.035   1.028   7.126 -0.5944  0.8165 -0.0247
    1PC      HA 3112   5.088   0.975   7.206 -1.8775  0.9853  0.9679
    1PC      HB 3113   5.044   1.132   7.158  1.4227  1.0565 -1.3156
    1PC     O31 3114   4.893   0.992   7.133  0.5041 -0.3703 -0.2086
    1PC     P31 3115   4.791   1.055   7.244 -0.3080  0.4039 -0.0592
    1PC     O32 3116   4.767   1.198   7.187 -0.1794 -0.4112 -0.0063
    1PC     C31 3117   4.720   1.210   7.053  0.5289 -0.9362 -0.2433
    1PC     H1A 3118   4.800   1.174   6.988  0.6023 -1.1605 -0.0304
    1PC     H1B 3119   4.625   1.159   7.041 -0.2213  0.4784 -0.5034
    1PC     C32 3120   4.688   1.357   7.018 -0.1464 -0.2631  0.1431
    1PC     H2A 3121   4.766   1.421   7.061 -0.4217  0.4556 -0.4183
    1PC     H2B 3122   4.678   1.382   6.912  1.1863  3.1436  0.7296
    1PC     N31 3123   4.563   1.414   7.075 -0.2705  0.5628  0.8760
    1PC     C33 3124   4.447   1.323   7.045  0.1050 -0.3293 -0.1105
    1PC     H3A 3125   4.456   1.305   6.938  0.3320 -2.4739  0.2425
    1PC     H3B 3126   4.455   1.226   7.096 -4.1890 -0.7197 -0.0482
    1PC     H3C 3127   4.349   1.366   7.066  0.9959  0.4617  2.6702
    1PC     C34 3128   4.570   1.438   7.226 -0.3321  0.0958  0.7441
    1PC     H4A 3129   4.673   1.468   7.243 -0.1656 -0.0483 -0.0064
    1PC     H4B 3130   4.498   1.515   7.255  0.1902  1.1576 -0.6898
    1PC     H4C 3131   4.546   1.341   7.269  1.2629 -0.0989  1.2287
    1PC     C35 3132   4.553   1.551   7.009 -0.3820 -0.7934 -0.3708
    1PC     H5A 3133   4.648   1.603   7.020 -1.4365  1.2071 -0.6226
    1PC     H5B 3134   4.479   1.617   7.055  0.9191 -0.2550  0.9973
    1PC     H5C 3135   4.534   1.534   6.903  1.1277 -2.3269 -0.4206
    1PC     O33 3136   4.659   0.986   7.243  0.2003  0.5397  0.3067
    1PC     O34 3137   4.862   1.078   7.377 -0.3438 -0.2393  0.7701
    1PC     O21 3138   5.059   1.159   6.925 -0.1261  0.2227  0.4686
    1PC     C21 3139   5.158   1.250   6.926  0.5572 -0.3417 -0.1539
    1PC     O22 3140   5.271   1.231   6.973 -0.2678  0.1112 -0.0426
    1OL     C12 3141   5.124   1.381   6.864 -0.3506 -0.5141  0.4891
    1OL     H2R 3142   5.129   1.461   6.938  1.1098  1.0596 -1.2297
    1OL     H2S 3143   5.026   1.369   6.816 -0.4622  3.6797 -0.5650
    1OL     C13 3144   5.234   1.425   6.761  0.4836 -0.2087 -0.1802
    1OL     H3R 3145   5.335   1.402   6.793 -0.1568 -1.2706  1.1481
    1OL     H3S 3146   5.239   1.532   6.737 -1.9088  0.2596  1.1847
    1OL     C14 3147   5.204   1.353   6.632 -0.6069 -0.2728 -0.1607
    1OL     H4R 3148   5.108   1.380   6.586  0.9676  1.9231 -2.2826
    1OL     H4S 3149   5.211   1.244   6.639  0.9008 -0.2095 -0.5901
    1OL     C15 3150   5.318   1.389   6.525 -0.0721 -0.0653  0.2340
    1OL     H5R 3151   5.300   1.314   6.447  0.3680  1.0185 -0.9271
    1OL     H5S 3152   5.417   1.362   6.564 -0.5588 -0.1612  1.4027
    1OL     C16 3153   5.328   1.531   6.460 -0.5677 -0.4990 -0.3318
    1OL     H6R 3154   5.410   1.525   6.389  0.2274  0.7533  0.4564
    1OL     H6S 3155   5.364   1.606   6.531 -0.0008 -2.1950  1.2464
    1OL     C17 3156   5.202   1.566   6.383 -0.0856 -0.0613 -0.5471
    1OL     H7R 3157   5.135   1.616   6.452 -1.3800 -0.5231 -1.4567
    1OL     H7S 3158   5.154   1.480   6.337  1.3195 -1.7184  1.0266
    1OL     C18 3159   5.236   1.669   6.277  0.1363  0.1507 -0.3125
    1OL     H8R 3160   5.305   1.616   6.210  1.3765 -1.3540  2.0870
    1OL     H8S 3161   5.285   1.753   6.327 -1.1662  1.2973 -0.9315
    1OL     C19 3162   5.109   1.701   6.211  0.0245 -0.0890  0.7324
    1OL     H9R 3163   5.020   1.720   6.270  0.9458  0.9094  1.8324
    1OL    C110 3164   5.095   1.693   6.080  0.1737  0.0867 -0.0491
    1OL    H10R 3165   4.993   1.701   6.042 -0.6885  1.2668  2.4029
    1OL    C111 3166   5.181   1.650   5.964 -0.1985 -0.1658 -0.0805
    1OL    H11R 3167   5.281   1.688   5.985  0.3988 -1.1303 -1.1899
    1OL    H11S 3168   5.147   1.713   5.881 -1.1699 -1.7859 -0.9360
    1OL    C112 3169   5.158   1.504   5.925 -0.4352  0.3167 -0.4988
    1OL    H12R 3170   5.206   1.440   5.998  1.8369 -1.3743 -3.3704
    1OL    H12S 3171   5.221   1.497   5.836 -1.7750 -1.6531 -1.3175
    1OL    C113 3172   5.008   1.450   5.902  0.4244  1.0678  0.1290
    1OL    H13R 3173   4.941   1.478   5.983  1.3764  1.6359  0.7180
    1OL    H13S 3174   5.019   1.342   5.886 -2.1702  1.0883 -2.3273
    1OL    C114 3175   4.941   1.509   5.781 -0.6952  0.1137 -0.2317
    1OL    H14R 3176   4.954   1.616   5.798 -0.4952  0.0487  0.0271
    1OL    H14S 3177   4.834   1.490   5.776 -1.0650  1.8524  0.7257
    1OL    C115 3178   5.001   1.457   5.647  0.0428  0.2393 -0.6178
    1OL    H15R 3179   5.105   1.486   5.633  0.0718  0.3638 -0.1370
    1OL    H15S 3180   4.944   1.500   5.564 -1.5335  1.6683  1.1835
    1OL    C116 3181   4.988   1.305   5.639 -0.3785  0.3877  0.6817
    1OL    H16R 3182   4.890   1.270   5.672  0.0594 -3.5507 -1.8517
    1OL    H16S 3183   5.069   1.250   5.687 -0.1381  0.0409 -0.1121
    1OL    C117 3184   4.987   1.256   5.493  0.4864  0.2966 -0.6837
    1OL    H17R 3185   4.895   1.281   5.439 -0.2710 -4.1569 -1.6784
    1OL    H17S 3186   4.982   1.148   5.478 -1.3066  0.4120 -1.0399
    1OL    C118 3187   5.112   1.310   5.411  0.0292 -0.4813  0.1548
    1OL    H18R 3188   5.209   1.277   5.448  0.0432  1.6892  2.1787
    1OL    H18S 3189   5.113   1.416   5.386 -0.4485 -0.5443 -0.1389
    1OL    H18T 3190   5.120   1.261   5.313 -0.0663 -2.3605  1.0653
    1PA    C116 3191   4.000   1.225   5.654  0.3556 -0.5162 -0.5488
    1PA    H16R 3192   3.947   1.131   5.643  1.2487 -0.9804 -0.9664
    1PA    H16S 3193   4.072   1.230   5.572  0.8108 -0.3676 -0.1409
    1PA    H16T 3194   3.945   1.315   5.626 -0.1025  0.3038  2.8064
    1PA    C115 3195   4.072   1.244   5.789 -0.8258  0.2721 -0.2059
    1PA    H15R 3196   3.989   1.258   5.860  0.4744  0.1838  1.3651
    1PA    H15S 3197   4.106   1.143   5.814 -0.6123  0.2286 -0.6644
    1PA    C114 3198   4.184   1.351   5.793  0.2851  0.2460 -0.7065
    1PA    H14R 3199   4.255   1.335   5.711 -0.5904  1.2273 -1.6845
    1PA    H14S 3200   4.134   1.447   5.780  0.0881  0.4992  1.8198
    1PA    C113 3201   4.247   1.361   5.932  0.4947 -0.2320 -0.2937
    1PA    H13R 3202   4.179   1.399   6.008  0.3449 -1.6229  0.2879
    1PA    H13S 3203   4.289   1.269   5.973 -0.8872 -1.1246 -0.8378
    1PA    C112 3204   4.360   1.465   5.925  0.6341 -0.0602 -0.2522
    1PA    H12R 3205   4.422   1.445   5.837  0.3570 -0.5561 -0.3355
    1PA    H12S 3206   4.329   1.567   5.905  2.8324  0.9755  1.3389
    1PA    C111 3207   4.450   1.471   6.050  1.0382  0.1168 -0.4448
    1PA    H11R 3208   4.381   1.500   6.129 -1.0752 -0.9036 -1.8479
    1PA    H11S 3209   4.482   1.370   6.075  3.0932  1.2195  1.5162
    1PA    C110 3210   4.572   1.556   6.028  0.6959  0.0179 -0.0981
    1PA    H10R 3211   4.631   1.490   5.964 -0.0493 -0.8634  0.1100
    1PA    H10S 3212   4.552   1.647   5.971 -0.0628 -0.0821 -0.0059
    1PA     C19 3213   4.652   1.581   6.157  0.6356 -0.2013  0.2463
    1PA     H9R 3214   4.748   1.628   6.133  0.8115 -1.7597 -2.2788
    1PA     H9S 3215   4.599   1.641   6.232 -2.8749 -0.6754 -1.7627
    1PA     C18 3216   4.687   1.448   6.226 -0.7989 -0.1908 -0.3575
    1PA     H8R 3217   4.610   1.421   6.298 -0.3830 -2.3973 -0.6956
    1PA     H8S 3218   4.696   1.368   6.151 -0.0266 -0.3874 -0.0582
    1PA     C17 3219   4.823   1.443   6.300  0.3419  0.0192  0.0584
    1PA     H7R 3220   4.902   1.481   6.235 -0.1057 -1.1482 -1.1861
    1PA     H7S 3221   4.829   1.512   6.385 -0.6550 -1.4161  1.3146
    1PA     C16 3222   4.871   1.302   6.345 -0.2071 -0.2439 -0.3560
    1PA     H6R 3223   4.865   1.233   6.261  0.1079  1.1734 -1.5605
    1PA     H6S 3224   4.976   1.298   6.375 -0.3925  0.0203  0.3446
    1PA     C15 3225   4.785   1.254   6.469 -0.0566  0.3900 -0.5484
    1PA     H5R 3226   4.772   1.340   6.535  0.2279  0.5901 -0.7469
    1PA     H5S 3227   4.687   1.233   6.427  0.4265  0.1046 -1.5724
    1PA     C14 3228   4.850   1.140   6.545  0.1042 -0.0508  0.3950
    1PA     H4R 3229   4.865   1.053   6.480 -2.0024  0.4788 -0.8562
    1PA     H4S 3230   4.948   1.176   6.577  0.3278 -0.5284  0.2587
    1PA     C13 3231   4.772   1.093   6.669  0.8248 -0.0413 -0.6235
    1PA     H3R 3232   4.842   1.039   6.734 -1.2961 -0.5845  1.2751
    1PA     H3S 3233   4.742   1.182   6.726  1.4560 -1.7245  2.4543
    1PA     C12 3234   4.646   1.015   6.630  0.3532  0.0479  0.0016
    1PA     H2R 3235   4.567   1.081   6.594  1.5179  0.6698 -1.4457
    1PA     H2S 3236   4.672   0.943   6.553  2.1782  0.6360  0.0437
    1PC     C11 3237   4.581   0.937   6.739  0.0353  0.1180 -0.9116
    1PC     O12 3238   4.637   0.922   6.847 -0.1427  0.0192  0.1747
    1PC     O11 3239   4.457   0.894   6.725 -0.2245 -0.8132 -0.6347
    1PC      C1 3240   4.389   0.840   6.843 -0.5722 -0.1873  1.3324
    1PC      HR 3241   4.298   0.796   6.801  0.2486 -0.8393  0.2009
    1PC      HS 3242   4.455   0.765   6.888  1.6612 -0.8371 -2.7746
    1PC      C2 3243   4.338   0.945   6.956 -0.1474 -0.2887 -0.1692
    1PC      HX 3244   4.424   1.003   6.992  0.3744 -1.5782  0.6868
    1PC      C3 3245   4.278   0.857   7.076  0.1149 -0.0179 -0.2051
    1PC      HA 3246   4.353   0.791   7.119  0.2283  0.4328  0.2957
    1PC      HB 3247   4.249   0.937   7.145  0.7719  0.2591 -0.2489
    1PC     O31 3248   4.161   0.771   7.032  0.3829 -0.6157 -0.0971
    1PC     P31 3249   4.078   0.693   7.137  0.0646 -0.5185 -0.2123
    1PC     O32 3250   4.178   0.589   7.200 -0.4021  0.2493  0.0832
    1PC     C31 3251   4.224   0.480   7.124  0.5173 -0.4328 -0.1125
    1PC     H1A 3252   4.146   0.431   7.065  0.6303 -1.5478  0.6594
    1PC     H1B 3253   4.297   0.518   7.052 -0.8255  2.0402 -0.2139
    1PC     C32 3254   4.269   0.380   7.226  0.6701 -0.6510  0.4450
    1PC     H2A 3255   4.331   0.305   7.176 -0.9560 -2.8156  1.5679
    1PC     H2B 3256   4.330   0.426   7.304 -0.1271  0.6180  0.3314
    1PC     N31 3257   4.162   0.309   7.306 -0.0246  0.0209  0.4361
    1PC     C33 3258   4.040   0.391   7.347  0.3208 -0.2129  0.2912
    1PC     H3A 3259   3.992   0.332   7.424 -1.0938 -1.8462 -1.8010
    1PC     H3B 3260   4.075   0.485   7.390 -0.5201  1.1251 -1.8475
    1PC     H3C 3261   3.984   0.408   7.254 -0.1893 -1.4578  0.3658
    1PC     C34 3262   4.126   0.189   7.236  0.2180  0.2528 -0.1458
    1PC     H4A 3263   4.059   0.122   7.291  0.4223  0.1237 -0.0528
    1PC     H4B 3264   4.084   0.224   7.142  1.5506  2.5448  0.0689
    1PC     H4C 3265   4.214   0.128   7.215 -0.5602 -0.8835 -0.1848
    1PC     C35 3266   4.234   0.264   7.430  0.3912  0.5339  0.1975
    1PC     H5A 3267   4.167   0.238   7.512  0.2645 -1.5596 -0.5489
    1PC     H5B 3268   4.300   0.345   7.462 -0.0326  0.9351  0.0530
    1PC     H5C 3269   4.294   0.175   7.411 -0.1892  0.5628 -1.8449
    1PC     O33 3270   4.051   0.787   7.246  1.0236  0.1740 -0.0977
    1PC     O34 3271   3.969   0.620   7.075 -0.3097 -0.3927  0.3876
    1PC     O21 3272   4.234   1.036   6.909 -0.3605 -0.1113 -0.2054
    1PC     C21 3273   4.273   1.122   6.814 -1.0188 -0.0214 -0.4680
    1PC     O22 3274   4.382   1.170   6.806 -0.4370  0.7649 -0.4417
    1OL     C12 3275   4.170   1.141   6.704  0.3383  0.0117 -0.2726
    1OL     H2R 3276   4.107   1.225   6.735  1.0115  0.8342 -1.1194
    1OL     H2S 3277   4.104   1.054   6.695 -0.3771  0.8089 -3.7065
    1OL     C13 3278   4.236   1.177   6.565  0.0195 -0.7241  0.1735
    1OL     H3R 3279   4.324   1.113   6.553  0.7577 -0.1514  2.3172
    1OL     H3S 3280   4.271   1.280   6.573  0.5261 -1.0609  2.7125
    1OL     C14 3281   4.154   1.164   6.440  0.0319  0.6468  0.5607
    1OL     H4R 3282   4.061   1.220   6.447 -0.5789 -0.5260  1.8601
    1OL     H4S 3283   4.119   1.061   6.435 -1.3464  1.0678  1.5624
    1OL     C15 3284   4.232   1.194   6.312 -0.5715  0.8589 -0.1353
    1OL     H5R 3285   4.229   1.302   6.299 -2.2556  0.8704  0.1869
    1OL     H5S 3286   4.171   1.168   6.225 -0.4825 -0.2505  0.1251
    1OL     C16 3287   4.377   1.138   6.290 -0.2004  0.0016  0.6086
    1OL     H6R 3288   4.444   1.192   6.357 -0.4366  2.3315 -0.9678
    1OL     H6S 3289   4.413   1.171   6.192 -0.8467 -3.0586 -0.7158
    1OL     C17 3290   4.403   0.990   6.310  0.5851  0.3029  0.8647
    1OL     H7R 3291   4.395   0.975   6.418  2.4264 -0.3551  0.9272
    1OL     H7S 3292   4.506   0.960   6.289  0.0769  0.6753 -2.3397
    1OL     C18 3293   4.309   0.897   6.246  0.4729 -0.0515  0.1932
    1OL     H8R 3294   4.322   0.897   6.137  0.0463 -0.5114  0.1407
    1OL     H8S 3295   4.201   0.913   6.254  0.2918  1.4447 -3.8823
    1OL     C19 3296   4.343   0.761   6.299 -0.5654 -0.2851 -0.1110
    1OL     H9R 3297   4.323   0.741   6.404 -1.0406  0.9535  0.0427
    1OL    C110 3298   4.418   0.669   6.237 -0.0490 -0.1935 -0.4438
    1OL    H10R 3299   4.451   0.580   6.290  0.8202  0.6917  0.5101
    1OL    C111 3300   4.473   0.688   6.093 -0.2319  0.2547  0.3987
    1OL    H11R 3301   4.563   0.749   6.101  0.8073 -1.3229  1.0225
    1OL    H11S 3302   4.390   0.735   6.040  0.2688  1.5902  0.7742
    1OL    C112 3303   4.523   0.562   6.024 -0.1907  0.4932 -0.4323
    1OL    H12R 3304   4.446   0.484   6.026 -0.3137  0.6292  2.8143
    1OL    H12S 3305   4.601   0.525   6.091 -0.8656 -0.1321  0.0243
    1OL    C113 3306   4.586   0.579   5.883 -0.0520 -0.3559 -0.1393
    1OL    H13R 3307   4.672   0.647   5.888  0.7561 -1.2764 -1.1650
    1OL    H13S 3308   4.513   0.631   5.820  0.9292  1.4375  0.1530
    1OL    C114 3309   4.624   0.441   5.821  0.5237 -0.2030 -0.1682
    1OL    H14R 3310   4.661   0.454   5.719  1.1105  0.9567  0.1806
    1OL    H14S 3311   4.536   0.377   5.816  0.0189  0.5319 -0.9136
    1OL    C115 3312   4.740   0.372   5.904 -0.4129 -0.2066 -0.0803
    1OL    H15R 3313   4.706   0.358   6.007  0.2073  1.5419  0.3754
    1OL    H15S 3314   4.812   0.452   5.914 -0.5783 -0.2808  1.7649
    1OL    C116 3315   4.819   0.255   5.835  0.4392 -0.3331  0.0787
    1OL    H16R 3316   4.892   0.210   5.903  2.3730  0.3972 -1.4779
    1OL    H16S 3317   4.875   0.308   5.758 -1.0194 -0.3908 -1.0495
    1OL    C117 3318   4.721   0.150   5.767  0.1872  0.9317 -0.3032
    1OL    H17R 3319   4.787   0.087   5.706 -0.4935  0.1003 -0.1837
    1OL    H17S 3320   4.650   0.200   5.701  0.7376  2.9229  0.5849
    1OL    C118 3321   4.657   0.063   5.887 -0.1515  0.3542 -0.5730
    1OL    H18R 3322   4.592   0.123   5.952 -0.9918 -0.7232 -0.4069
    1OL    H18S 3323   4.740   0.019   5.942 -0.5680 -1.7327 -1.5785
    1OL    H18T 3324   4.590  -0.013   5.847 -0.4598 -1.1793  2.6762
    1PA    C116 3325   5.167   4.563   5.529  0.2568 -0.4928 -0.6490
    1PA    H16R 3326   5.242   4.488   5.554  1.2322  0.9486  0.8506
    1PA    H16S 3327   5.119   4.597   5.621 -1.0830  1.1300 -1.9032
    1PA    H16T 3328   5.214   4.655   5.494 -2.7426  1.7457  1.0302
    1PA    C115 3329   5.066   4.514   5.425  0.6920  0.0055  0.0097
    1PA    H15R 3330   4.982   4.582   5.409 -0.6139 -1.2174  1.4442
    1PA    H15S 3331   5.119   4.499   5.331  0.0581 -2.2148 -0.0302
    1PA    C114 3332   5.004   4.374   5.459 -0.1144  0.3024 -0.0684
    1PA    H14R 3333   4.948   4.338   5.372  1.8171 -0.4297 -1.0214
    1PA    H14S 3334   5.076   4.295   5.480 -0.6307  0.2700  1.6810
    1PA    C113 3335   4.895   4.398   5.566 -0.5678  0.2369 -0.1951
    1PA    H13R 3336   4.934   4.473   5.635 -0.0927 -0.3174  0.1458
    1PA    H13S 3337   4.808   4.440   5.516 -0.4404  0.8134  0.0680
    1PA    C112 3338   4.859   4.272   5.649  0.1482  0.6616  0.4522
    1PA    H12R 3339   4.838   4.184   5.589  0.3061 -0.1974  1.6306
    1PA    H12S 3340   4.948   4.235   5.702  0.8518 -0.8213 -1.7097
    1PA    C111 3341   4.752   4.288   5.757  0.2777  0.1952 -0.2979
    1PA    H11R 3342   4.792   4.360   5.829  0.7026 -0.7120  0.3889
    1PA    H11S 3343   4.658   4.329   5.721 -0.3163 -1.0084 -0.1480
    1PA    C110 3344   4.720   4.167   5.836 -0.3921  0.0587 -0.0775
    1PA    H10R 3345   4.655   4.213   5.910  0.7643 -0.3468  1.2032
    1PA    H10S 3346   4.668   4.092   5.775 -2.5543  2.3253 -1.1266
    1PA     C19 3347   4.850   4.101   5.894 -0.4442  0.4257  0.0389
    1PA     H9R 3348   4.888   4.026   5.825 -3.7103  0.2807 -1.7337
    1PA     H9S 3349   4.920   4.183   5.911 -1.5123  0.7020  3.5336
    1PA     C18 3350   4.814   4.049   6.034  0.2226 -0.3090 -1.3568
    1PA     H8R 3351   4.752   4.125   6.083 -0.7845 -1.8240 -0.2200
    1PA     H8S 3352   4.753   3.962   6.010  0.2073 -0.4352 -0.8779
    1PA     C17 3353   4.926   4.013   6.131 -0.1893 -0.5334 -0.1104
    1PA     H7R 3354   4.987   3.930   6.094 -0.5293 -0.0162 -1.8870
    1PA     H7S 3355   4.999   4.095   6.136 -0.8404 -0.0121  0.9164
    1PA     C16 3356   4.875   3.966   6.268  0.5214  0.5047  0.7589
    1PA     H6R 3357   4.814   4.041   6.319 -2.0509 -2.5752  2.4467
    1PA     H6S 3358   4.821   3.875   6.239 -0.4443  1.0325  0.8798
    1PA     C15 3359   4.995   3.930   6.366  0.1728 -0.5604 -0.3426
    1PA     H5R 3360   5.065   3.863   6.315  2.2062  2.1595 -1.2361
    1PA     H5S 3361   5.057   4.019   6.376  3.3717 -2.6676 -0.7061
    1PA     C14 3362   4.956   3.879   6.512 -0.2351  0.5643  1.0446
    1PA     H4R 3363   4.919   3.776   6.501 -1.2024  1.0507 -0.4721
    1PA     H4S 3364   5.047   3.879   6.572  0.7251  1.6762 -0.3777
    1PA     C13 3365   4.843   3.963   6.580 -0.0297  0.3782 -0.0285
    1PA     H3R 3366   4.752   3.974   6.521  0.5747 -1.0527 -1.2381
    1PA     H3S 3367   4.816   3.922   6.677 -1.2893 -0.5535 -0.7585
    1PA     C12 3368   4.893   4.109   6.610  0.4602  0.8010 -0.0215
    1PA     H2R 3369   4.970   4.101   6.687 -0.1308  0.4078  0.5300
    1PA     H2S 3370   4.936   4.160   6.523 -0.0802  0.4597 -0.4859
    1PC     C11 3371   4.785   4.196   6.669 -0.6025 -0.2360 -0.9220
    1PC     O12 3372   4.697   4.152   6.746 -0.2232 -0.6532  0.0616
    1PC     O11 3373   4.790   4.320   6.615 -0.1202 -0.3099 -0.3149
    1PC      C1 3374   4.691   4.423   6.651  0.4705 -0.0676 -0.7495
    1PC      HR 3375   4.732   4.493   6.578  1.5231 -1.0330 -1.1186
    1PC      HS 3376   4.590   4.383   6.642  0.4773 -0.6989  1.6242
    1PC      C2 3377   4.704   4.468   6.798 -0.4776  0.2058  0.3264
    1PC      HX 3378   4.704   4.386   6.870 -1.8791  0.3993  0.5538
    1PC      C3 3379   4.582   4.552   6.834 -0.0522 -0.1787 -0.0594
    1PC      HA 3380   4.569   4.623   6.753 -1.1955 -1.0644 -0.6616
    1PC      HB 3381   4.496   4.485   6.842 -0.2140 -0.3278 -2.6713
    1PC     O31 3382   4.593   4.616   6.968 -0.1414 -0.5321 -0.5137
    1PC     P31 3383   4.588   4.527   7.109  0.6328  0.2116  0.1438
    1PC     O32 3384   4.711   4.422   7.109  0.1699 -0.1971 -0.2327
    1PC     C31 3385   4.684   4.282   7.146  0.4615  0.2073 -0.3203
    1PC     H1A 3386   4.656   4.281   7.252 -0.6040 -0.4994 -0.6058
    1PC     H1B 3387   4.594   4.254   7.091  1.5785 -1.3515 -1.4282
    1PC     C32 3388   4.803   4.197   7.095 -0.7659 -0.6611 -0.3231
    1PC     H2A 3389   4.782   4.090   7.101  0.7917 -0.9155  0.8633
    1PC     H2B 3390   4.829   4.230   6.995  1.9516 -0.8152  0.2859
    1PC     N31 3391   4.935   4.213   7.165 -0.3247 -0.1049  0.1128
    1PC     C33 3392   4.933   4.142   7.291 -0.5217 -0.3880  0.4642
    1PC     H3A 3393   5.025   4.172   7.342 -1.0589 -0.0798  1.2612
    1PC     H3B 3394   4.850   4.178   7.352 -1.1858 -0.2881 -0.4771
    1PC     H3C 3395   4.932   4.034   7.278  3.3170 -0.5351  0.7318
    1PC     C34 3396   5.038   4.156   7.076  0.0913  0.6000  0.5297
    1PC     H4A 3397   5.137   4.185   7.112  0.8863  1.5475 -2.2484
    1PC     H4B 3398   5.031   4.047   7.075  1.9554  0.4558  0.4104
    1PC     H4C 3399   5.033   4.199   6.976  0.4027 -1.0486 -0.2156
    1PC     C35 3400   4.972   4.355   7.194 -0.5035  0.5025 -0.3233
    1PC     H5A 3401   5.074   4.353   7.233 -0.5764  0.0394 -0.1539
    1PC     H5B 3402   4.898   4.395   7.263 -2.2398  2.6218 -3.3288
    1PC     H5C 3403   4.965   4.410   7.100 -1.0931 -1.0733 -1.2174
    1PC     O33 3404   4.611   4.617   7.226  0.2423  0.1036 -0.0348
    1PC     O34 3405   4.467   4.446   7.106 -0.7162  0.1655  0.1476
    1PC     O21 3406   4.822   4.543   6.820 -0.7950  0.4371 -0.2855
    1PC     C21 3407   4.941   4.482   6.833 -0.0818 -0.6993 -0.1141
    1PC     O22 3408   4.958   4.366   6.847 -0.2823 -0.5118  0.0743
    1OL     C12 3409   5.061   4.582   6.823 -0.0308  0.2805 -0.8894
    1OL     H2R 3410   5.132   4.567   6.904 -1.3770 -1.7728 -0.0411
    1OL     H2S 3411   5.027   4.684   6.842  1.0158  0.3593  0.6255
    1OL     C13 3412   5.136   4.581   6.688 -0.2124 -0.2938 -0.2357
    1OL     H3R 3413   5.201   4.494   6.675  1.5336  1.1120 -1.2170
    1OL     H3S 3414   5.201   4.668   6.676  0.2554 -0.6510 -0.3202
    1OL     C14 3415   5.041   4.579   6.576 -0.1010  0.1365  0.8849
    1OL     H4R 3416   4.957   4.647   6.593  1.1370  1.4389  1.9387
    1OL     H4S 3417   4.992   4.482   6.565 -0.5520  0.6555 -1.9900
    1OL     C15 3418   5.115   4.612   6.441  0.0303  0.3849 -0.6112
    1OL     H5R 3419   5.213   4.564   6.445 -0.2702 -0.1158  1.1868
    1OL     H5S 3420   5.121   4.721   6.434 -0.4884  0.4484 -0.0389
    1OL     C16 3421   5.034   4.560   6.324  0.6802 -0.0639 -0.3439
    1OL     H6R 3422   4.931   4.596   6.317  1.8499  3.0182 -3.3258
    1OL     H6S 3423   5.041   4.453   6.343  0.1616 -0.1358 -0.5451
    1OL     C17 3424   5.112   4.581   6.191 -0.0085  0.6857 -0.7643
    1OL     H7R 3425   5.221   4.579   6.202  0.0526  2.1992 -1.0153
    1OL     H7S 3426   5.102   4.687   6.164 -1.8335  1.1334  1.5502
    1OL     C18 3427   5.060   4.487   6.082  0.8632 -0.0896 -0.4988
    1OL     H8R 3428   5.059   4.381   6.110  1.3286 -0.4388 -1.7486
    1OL     H8S 3429   5.112   4.494   5.986 -0.5736 -0.5529 -1.3353
    1OL     C19 3430   4.921   4.530   6.071  1.0067  0.2219 -0.5893
    1OL     H9R 3431   4.861   4.487   6.151  1.2315 -0.6667 -0.8862
    1OL    C110 3432   4.862   4.605   5.982  0.6061 -0.1102 -0.5578
    1OL    H10R 3433   4.755   4.619   5.991  0.8149  0.2045  1.8800
    1OL    C111 3434   4.928   4.679   5.864 -0.6140 -0.4670 -0.1586
    1OL    H11R 3435   4.883   4.630   5.777 -1.3233 -0.8942  0.4368
    1OL    H11S 3436   5.032   4.646   5.865  0.2301  2.0347  3.4312
    1OL    C112 3437   4.908   4.834   5.870 -0.2727  0.2298  0.1043
    1OL    H12R 3438   4.886   4.870   5.971 -1.5398  0.1083 -0.1103
    1OL    H12S 3439   4.817   4.867   5.819  0.0080 -1.8651 -1.8460
    1OL    C113 3440   5.036   4.911   5.819 -0.7548 -0.4115  0.4429
    1OL    H13R 3441   5.120   4.873   5.878 -1.5581  0.5931  2.2796
    1OL    H13S 3442   5.034   5.014   5.855  0.3921 -0.5232  0.8692
    1OL    C114 3443   5.049   4.916   5.667 -0.2528  0.1201  0.8736
    1OL    H14R 3444   4.949   4.939   5.629  0.5836  1.3984 -0.5810
    1OL    H14S 3445   5.079   4.818   5.628 -0.5076  1.0135 -1.6935
    1OL    C115 3446   5.138   5.034   5.616  0.0786  0.3057 -0.0839
    1OL    H15R 3447   5.231   5.035   5.674 -0.4002  0.5159  0.6948
    1OL    H15S 3448   5.081   5.127   5.621  2.8703  2.0469  0.4152
    1OL    C116 3449   5.177   5.006   5.473  0.8937  0.1165 -0.4151
    1OL    H16R 3450   5.088   4.988   5.413 -0.4542  1.6092  1.0682
    1OL    H16S 3451   5.231   4.912   5.483  0.5825 -0.0533 -0.2992
    1OL    C117 3452   5.258   5.129   5.419 -0.3359 -0.1005  0.1882
    1OL    H17R 3453   5.349   5.148   5.477 -0.2642  0.6206 -0.1545
    1OL    H17S 3454   5.201   5.220   5.437 -1.4115 -1.1712  2.2965
    1OL    C118 3455   5.286   5.128   5.263  0.3083 -0.4245  0.2955
    1OL    H18R 3456   5.361   5.203   5.237 -0.5585  0.1120 -0.6911
    1OL    H18S 3457   5.197   5.155   5.206  0.8047  0.0696 -0.2475
    1OL    H18T 3458   5.322   5.032   5.226  2.7292  0.6472 -0.2065
    1PA    C116 3459   2.807   0.394   5.355 -0.2786 -0.4620  0.5511
    1PA    H16R 3460   2.903   0.395   5.303 -0.8806  2.1231 -0.6331
    1PA    H16S 3461   2.778   0.496   5.385  3.3205  0.4444  1.1554
    1PA    H16T 3462   2.744   0.339   5.285  0.3033 -1.1359  0.5598
    1PA    C115 3463   2.826   0.325   5.493  0.4075 -0.4665  0.6656
    1PA    H15R 3464   2.897   0.388   5.545 -1.7763  2.2735  0.4629
    1PA    H15S 3465   2.733   0.336   5.550  1.1860 -0.7690  2.0047
    1PA    C114 3466   2.893   0.187   5.478 -0.0274  0.5417 -0.5474
    1PA    H14R 3467   2.849   0.128   5.397 -0.8414 -0.7488  0.7964
    1PA    H14S 3468   2.993   0.216   5.446 -0.7733  3.6690 -0.1720
    1PA    C113 3469   2.886   0.113   5.614 -0.3987  0.7702 -0.1634
    1PA    H13R 3470   2.952   0.027   5.602 -1.3550  0.2112 -1.5061
    1PA    H13S 3471   2.933   0.172   5.693  3.2430 -2.3758  0.1731
    1PA    C112 3472   2.736   0.065   5.644 -0.0777  0.2172  0.1169
    1PA    H12R 3473   2.669   0.150   5.627  0.3838  0.6485  0.4222
    1PA    H12S 3474   2.705  -0.006   5.567 -1.6286 -0.4842  1.3659
    1PA    C111 3475   2.729  -0.021   5.775  0.6799 -0.2662  0.3554
    1PA    H11R 3476   2.787   0.029   5.853  1.5330 -0.2302 -0.3028
    1PA    H11S 3477   2.626  -0.025   5.811  0.9003 -1.3107  0.8991
    1PA    C110 3478   2.785  -0.169   5.763 -0.3050 -0.1508  0.8316
    1PA    H10R 3479   2.717  -0.224   5.697 -1.2335  1.3194  0.5394
    1PA    H10S 3480   2.889  -0.159   5.732 -0.6917  0.1523 -0.4170
    1PA     C19 3481   2.790  -0.247   5.901 -0.6355  0.1740 -0.0962
    1PA     H9R 3482   2.827  -0.175   5.974 -2.1151  1.1858 -0.3151
    1PA     H9S 3483   2.692  -0.270   5.943 -0.3994  0.1849  0.4559
    1PA     C18 3484   2.872  -0.372   5.883 -0.0439 -0.5328 -0.2007
    1PA     H8R 3485   2.817  -0.441   5.819  0.6189  0.9457 -2.4079
    1PA     H8S 3486   2.964  -0.348   5.829  0.0423 -0.3838  0.0078
    1PA     C17 3487   2.918  -0.442   6.016  0.1674  0.1823  0.3454
    1PA     H7R 3488   2.834  -0.480   6.074  1.6008 -3.4377  0.1880
    1PA     H7S 3489   2.989  -0.521   5.990  2.0621  1.8909  0.1940
    1PA     C16 3490   2.999  -0.352   6.104 -0.2408 -0.0014 -0.0667
    1PA     H6R 3491   3.094  -0.334   6.052  0.1314 -2.2531 -0.1986
    1PA     H6S 3492   2.962  -0.251   6.121  1.4318  0.8689 -1.3485
    1PA     C15 3493   3.035  -0.417   6.240 -0.0725  0.0024  0.2988
    1PA     H5R 3494   2.943  -0.428   6.297 -0.2613  0.8153  0.1604
    1PA     H5S 3495   3.062  -0.522   6.234 -1.3588 -0.3987  1.1537
    1PA     C14 3496   3.130  -0.341   6.334 -0.0488  0.8754  0.6227
    1PA     H4R 3497   3.231  -0.329   6.293 -0.8130  0.0998 -1.5055
    1PA     H4S 3498   3.095  -0.239   6.354  0.2380  1.3658 -1.2852
    1PA     C13 3499   3.146  -0.419   6.469 -0.3720  0.2462  0.6780
    1PA     H3R 3500   3.165  -0.524   6.446  1.5889  1.0727 -1.7546
    1PA     H3S 3501   3.240  -0.378   6.508  0.0317  0.4196 -0.4517
    1PA     C12 3502   3.019  -0.404   6.561 -0.0656 -0.4721 -0.0417
    1PA     H2R 3503   2.974  -0.306   6.545  0.3172 -0.6283 -2.3327
    1PA     H2S 3504   2.951  -0.481   6.521  0.6310 -1.1036 -0.0240
    1PC     C11 3505   3.047  -0.436   6.705 -0.3135 -0.4747  0.1238
    1PC     O12 3506   3.158  -0.437   6.748 -0.2679  0.8751 -0.1661
    1PC     O11 3507   2.933  -0.468   6.776 -0.0288 -0.8233 -0.0964
    1PC      C1 3508   2.950  -0.513   6.913 -1.3730  0.4423  0.2503
    1PC      HR 3509   2.853  -0.548   6.950 -1.2918  0.7599  0.7701
    1PC      HS 3510   3.024  -0.593   6.918 -0.4867  1.3208  1.3550
    1PC      C2 3511   2.995  -0.393   6.998 -0.1072 -0.3637  0.3155
    1PC      HX 3512   3.102  -0.382   6.983 -0.7126  3.8121 -1.5276
    1PC      C3 3513   2.979  -0.424   7.148  0.6623  0.0393 -0.3993
    1PC      HA 3514   3.020  -0.522   7.173  3.4656  0.8933 -1.4390
    1PC      HB 3515   3.020  -0.343   7.209 -0.1735  0.6482 -0.6332
    1PC     O31 3516   2.836  -0.429   7.184 -0.4674  0.0865 -0.0825
    1PC     P31 3517   2.755  -0.303   7.242 -0.3637  0.4392 -0.3816
    1PC     O32 3518   2.692  -0.224   7.116  0.0752  0.8244  0.1936
    1PC     C31 3519   2.560  -0.175   7.114  0.2636  0.3285 -0.1112
    1PC     H1A 3520   2.541  -0.116   7.204 -1.6848  0.5802 -0.6474
    1PC     H1B 3521   2.544  -0.100   7.035 -1.2930 -1.8153 -1.9160
    1PC     C32 3522   2.453  -0.281   7.099 -0.2919 -0.0384 -0.5012
    1PC     H2A 3523   2.471  -0.352   7.180 -1.1989  0.6409  0.3030
    1PC     H2B 3524   2.360  -0.226   7.113  1.4821  2.1302  3.1896
    1PC     N31 3525   2.454  -0.360   6.975 -0.0803 -1.1537  0.4594
    1PC     C33 3526   2.418  -0.276   6.860  0.3654  0.3121  0.2506
    1PC     H3A 3527   2.507  -0.220   6.830  2.8669 -2.5859  2.0251
    1PC     H3B 3528   2.384  -0.351   6.788 -0.1566  1.3499 -0.6103
    1PC     H3C 3529   2.334  -0.208   6.877  0.1614  0.1527 -0.1130
    1PC     C34 3530   2.586  -0.424   6.946  0.7422 -0.4451 -0.3730
    1PC     H4A 3531   2.626  -0.473   7.035  2.4202  0.4966 -0.5869
    1PC     H4B 3532   2.576  -0.500   6.868 -1.6854 -0.0948 -0.4550
    1PC     H4C 3533   2.659  -0.349   6.916 -0.5045  0.8149 -0.3312
    1PC     C35 3534   2.355  -0.466   6.977 -0.2893  0.1954 -0.2121
    1PC     H5A 3535   2.363  -0.526   6.887  1.6682  2.2302 -1.4549
    1PC     H5B 3536   2.254  -0.429   6.995 -0.5107 -1.0568  1.3179
    1PC     H5C 3537   2.385  -0.541   7.051 -0.8301 -0.8875 -1.0777
    1PC     O33 3538   2.641  -0.345   7.328  0.4147  0.3782  0.1545
    1PC     O34 3539   2.857  -0.216   7.295  0.6113  0.1843 -0.1890
    1PC     O21 3540   2.915  -0.273   6.961 -0.4637 -0.4677 -1.1773
    1PC     C21 3541   2.973  -0.154   6.961  0.0090 -0.2392 -0.2798
    1PC     O22 3542   3.088  -0.141   6.983 -0.6443 -0.1852  0.2579
    1OL     C12 3543   2.882  -0.043   6.919  0.5702  0.3703  0.2445
    1OL     H2R 3544   2.871   0.028   7.001 -2.3064 -1.4757  1.5388
    1OL     H2S 3545   2.783  -0.080   6.891 -0.2359  0.2428  3.0346
    1OL     C13 3546   2.940   0.030   6.794 -0.2914  0.1472 -0.3595
    1OL     H3R 3547   2.932  -0.045   6.715  1.3275 -0.6065  0.1639
    1OL     H3S 3548   3.042   0.065   6.815 -0.3122  0.3560 -0.6008
    1OL     C14 3549   2.852   0.149   6.749 -0.0370  0.5786 -0.7397
    1OL     H4R 3550   2.852   0.222   6.831  2.2047 -2.1427  1.7668
    1OL     H4S 3551   2.750   0.114   6.732 -0.4534  0.5391  1.6342
    1OL     C15 3552   2.917   0.222   6.633 -0.2065  0.2905  0.4579
    1OL     H5R 3553   3.022   0.241   6.660 -0.2811  1.5554 -0.0953
    1OL     H5S 3554   2.868   0.318   6.615  1.0738  1.5087  3.1168
    1OL     C16 3555   2.928   0.145   6.500  0.9962 -0.1188  0.1445
    1OL     H6R 3556   2.827   0.123   6.466  0.6481  2.4646 -0.6505
    1OL     H6S 3557   2.984   0.052   6.509  0.1839 -0.6547 -0.3345
    1OL     C17 3558   2.989   0.240   6.389  0.3689  0.2718 -0.4416
    1OL     H7R 3559   3.090   0.273   6.415  0.5346 -0.9368  0.5205
    1OL     H7S 3560   2.936   0.335   6.388  0.6927  0.4531 -0.3937
    1OL     C18 3561   2.984   0.173   6.252 -0.7054 -0.1774  0.4073
    1OL     H8R 3562   3.010   0.069   6.270 -0.5223  0.3841  3.6724
    1OL     H8S 3563   3.064   0.219   6.192 -0.3132 -2.5973 -0.9828
    1OL     C19 3564   2.841   0.180   6.187 -0.5724  0.6283  0.3217
    1OL     H9R 3565   2.770   0.104   6.219  1.4990 -1.0966  0.9472
    1OL    C110 3566   2.794   0.270   6.104 -0.3971  0.4180 -0.0895
    1OL    H10R 3567   2.690   0.272   6.074 -0.7314  0.5682  1.0525
    1OL    C111 3568   2.872   0.386   6.041  0.1812 -0.4399  0.2328
    1OL    H11R 3569   2.935   0.427   6.121 -0.5037 -0.3126  0.7153
    1OL    H11S 3570   2.795   0.462   6.024 -0.1642 -0.6962  0.6346
    1OL    C112 3571   2.952   0.365   5.912  0.9297  0.7450  0.6984
    1OL    H12R 3572   2.886   0.369   5.825 -0.4251  0.8184  1.7159
    1OL    H12S 3573   3.002   0.271   5.936 -2.4675 -0.8050  1.9457
    1OL    C113 3574   3.065   0.468   5.888  0.3353 -0.6085  0.0853
    1OL    H13R 3575   3.137   0.461   5.970 -0.1021  0.1060  0.5387
    1OL    H13S 3576   3.014   0.564   5.897  1.1310 -0.2527  0.8298
    1OL    C114 3577   3.134   0.464   5.750  0.5974  0.4366 -0.3777
    1OL    H14R 3578   3.053   0.441   5.680  0.8493 -0.4464 -0.3843
    1OL    H14S 3579   3.218   0.394   5.748  0.1536 -0.1249  0.6270
    1OL    C115 3580   3.193   0.604   5.706 -0.5968  0.1319  0.1785
    1OL    H15R 3581   3.275   0.631   5.772 -0.1687 -0.5815 -0.0584
    1OL    H15S 3582   3.108   0.671   5.723  1.4888  2.6864  0.8682
    1OL    C116 3583   3.249   0.628   5.566 -0.0874 -0.3902  0.4278
    1OL    H16R 3584   3.318   0.544   5.564 -0.0026 -0.3346  1.0029
    1OL    H16S 3585   3.302   0.723   5.562 -0.3154 -0.2427  0.8790
    1OL    C117 3586   3.144   0.629   5.457 -0.0926  0.5386  0.0298
    1OL    H17R 3587   3.062   0.696   5.483  0.0797  0.3607  1.0623
    1OL    H17S 3588   3.099   0.530   5.464 -1.6130  1.2653  0.8979
    1OL    C118 3589   3.201   0.663   5.312 -0.4125 -0.1000  0.0100
    1OL    H18R 3590   3.278   0.740   5.316 -2.0885  1.7227 -1.7796
    1OL    H18S 3591   3.114   0.695   5.255 -0.3372  3.8559  1.9791
    1OL    H18T 3592   3.244   0.579   5.257  1.6056 -0.2224  1.7048
    1PA    C116 3593   5.422   2.385   5.576 -0.1015  0.0991  0.5188
    1PA    H16R 3594   5.324   2.432   5.574 -0.1391 -0.0001 -1.1553
    1PA    H16S 3595   5.417   2.309   5.654  0.3429 -0.9543 -0.4652
    1PA    H16T 3596   5.446   2.338   5.480 -0.7801  1.2215 -0.2012
    1PA    C115 3597   5.537   2.485   5.609  0.5974 -0.2635 -0.2311
    1PA    H15R 3598   5.630   2.433   5.583  1.1940  0.3676  0.6335
    1PA    H15S 3599   5.529   2.571   5.543 -2.8651  0.7591  1.4071
    1PA    C114 3600   5.528   2.535   5.752  0.3698 -0.2418 -0.3590
    1PA    H14R 3601   5.429   2.577   5.772  0.4686 -0.3850  0.4446
    1PA    H14S 3602   5.542   2.448   5.818 -0.2696 -0.1982 -0.1697
    1PA    C113 3603   5.648   2.630   5.787  0.2690  0.1762 -0.2761
    1PA    H13R 3604   5.668   2.703   5.709 -3.4557 -0.6709 -2.1509
    1PA    H13S 3605   5.620   2.696   5.869  0.0483 -0.0289 -0.1840
    1PA    C112 3606   5.774   2.557   5.831 -0.7330 -0.1455  0.2918
    1PA    H12R 3607   5.745   2.472   5.893  2.6385 -1.7492 -0.1849
    1PA    H12S 3608   5.824   2.508   5.747  1.7149  1.3737  0.7974
    1PA    C111 3609   5.875   2.645   5.900  0.5641 -0.2658 -0.5138
    1PA    H11R 3610   5.893   2.736   5.843  1.2401 -1.0240 -1.5218
    1PA    H11S 3611   5.833   2.680   5.995 -1.4101  0.3481 -1.6068
    1PA    C110 3612   6.005   2.566   5.941  0.2563 -0.4531  0.4061
    1PA    H10R 3613   5.990   2.465   5.979 -2.0146 -0.1268  0.4582
    1PA    H10S 3614   6.060   2.547   5.849  0.1768 -0.9729  0.4687
    1PA     C19 3615   6.080   2.648   6.054  0.0418  0.1801  0.7840
    1PA     H9R 3616   6.109   2.748   6.022  0.0723 -0.4918 -1.3646
    1PA     H9S 3617   6.003   2.662   6.130 -2.7174 -1.2970 -1.5975
    1PA     C18 3618   6.206   2.567   6.097  0.1863  0.5198  0.1140
    1PA     H8R 3619   6.236   2.610   6.193 -0.1618 -0.9461  0.8918
    1PA     H8S 3620   6.173   2.466   6.121  1.7219  0.0550  0.3642
    1PA     C17 3621   6.321   2.571   5.993  0.6034  0.1092 -0.1854
    1PA     H7R 3622   6.279   2.513   5.911  1.5473 -0.3762 -0.3350
    1PA     H7S 3623   6.348   2.671   5.959 -1.9684  1.0635  0.4813
    1PA     C16 3624   6.450   2.506   6.050 -1.0737 -0.1092  0.9350
    1PA     H6R 3625   6.413   2.408   6.080 -0.5113 -0.5894  0.0724
    1PA     H6S 3626   6.526   2.482   5.976 -1.8218 -1.9857  0.7494
    1PA     C15 3627   6.508   2.598   6.161 -0.0803 -0.4187  0.1410
    1PA     H5R 3628   6.541   2.692   6.116  1.0708 -1.2885 -0.8725
    1PA     H5S 3629   6.432   2.637   6.229 -0.7804 -0.3482 -0.6745
    1PA     C14 3630   6.621   2.523   6.235 -0.5600 -0.3396 -1.2893
    1PA     H4R 3631   6.629   2.564   6.336 -1.1196 -2.8167 -0.1897
    1PA     H4S 3632   6.584   2.422   6.256  0.4118 -0.8321 -1.8885
    1PA     C13 3633   6.758   2.527   6.161  0.3842 -0.0562 -0.1716
    1PA     H3R 3634   6.822   2.445   6.194 -0.1655  0.0108  1.0889
    1PA     H3S 3635   6.745   2.514   6.053  3.4510 -1.1340 -0.4597
    1PA     C12 3636   6.850   2.650   6.198  0.5967 -0.6790  0.2882
    1PA     H2R 3637   6.946   2.650   6.147 -1.3052 -1.7984 -3.4886
    1PA     H2S 3638   6.800   2.740   6.161 -1.6613 -1.6200  0.9177
    1PC     C11 3639   6.869   2.663   6.348 -0.3979  0.2392 -0.7219
    1PC     O12 3640   6.883   2.562   6.418 -0.4467 -0.6074 -0.4700
    1PC     O11 3641   6.889   2.792   6.394  0.2193 -0.0519 -0.4913
    1PC      C1 3642   6.910   2.820   6.531 -0.1048 -0.1651  1.0111
    1PC      HR 3643   6.845   2.760   6.594  0.1593 -0.3205  1.1356
    1PC      HS 3644   7.014   2.796   6.553  0.2716  2.0142  1.7563
    1PC      C2 3645   6.883   2.971   6.561  0.1192 -0.2690 -0.5299
    1PC      HX 3646   6.963   3.023   6.508  0.2896  2.2479  2.0400
    1PC      C3 3647   6.882   3.001   6.710 -0.2174  0.4807  0.2670
    1PC      HA 3648   6.975   2.968   6.757 -0.2117  0.4136  0.2082
    1PC      HB 3649   6.858   3.104   6.737  2.4710  2.0793 -3.0924
    1PC     O31 3650   6.774   2.918   6.768 -0.0580  0.2565 -0.5115
    1PC     P31 3651   6.793   2.831   6.899 -0.3913  0.3393  0.2089
    1PC     O32 3652   6.752   2.932   7.019 -0.3130 -0.2957  0.1233
    1PC     C31 3653   6.841   3.033   7.075 -0.3210  0.3222 -0.0350
    1PC     H1A 3654   6.916   3.056   6.999 -0.5117 -1.4760 -0.7943
    1PC     H1B 3655   6.783   3.123   7.093  0.2278  0.6944 -0.1143
    1PC     C32 3656   6.897   2.969   7.202 -0.2587 -0.0576  0.0498
    1PC     H2A 3657   6.810   2.935   7.259 -0.5151  1.3418  0.5023
    1PC     H2B 3658   6.962   2.887   7.172  0.4899  0.1455  1.1111
    1PC     N31 3659   7.001   3.048   7.274 -0.4413 -0.2750 -0.5731
    1PC     C33 3660   6.957   3.187   7.278  0.2371 -0.3239  0.0153
    1PC     H3A 3661   7.019   3.252   7.340 -0.7807 -0.2858  1.0231
    1PC     H3B 3662   6.966   3.213   7.173 -0.9691 -1.4873 -0.4014
    1PC     H3C 3663   6.854   3.191   7.315  0.0721 -0.3373 -0.4381
    1PC     C34 3664   7.027   3.000   7.416 -0.2864 -0.5055  0.3492
    1PC     H4A 3665   6.934   3.025   7.468 -1.6581  1.0237 -2.7753
    1PC     H4B 3666   7.059   2.895   7.419 -4.0890 -1.7833 -0.6773
    1PC     H4C 3667   7.098   3.077   7.446  1.2872 -2.1422  0.9902
    1PC     C35 3668   7.132   3.045   7.203  0.7561  0.3650 -0.8622
    1PC     H5A 3669   7.164   2.940   7.204  0.9205  0.4018  2.1451
    1PC     H5B 3670   7.203   3.104   7.262 -0.1382  0.3208  0.2685
    1PC     H5C 3671   7.136   3.069   7.097  1.6270  0.8390 -0.7322
    1PC     O33 3672   6.700   2.721   6.900 -0.3309  0.3379 -0.1536
    1PC     O34 3673   6.937   2.798   6.912  0.4954  0.7440  0.0386
    1PC     O21 3674   6.750   3.000   6.510 -0.2812  0.1555  0.5966
    1PC     C21 3675   6.745   3.074   6.397  0.1810  0.3900  0.4277
    1PC     O22 3676   6.842   3.132   6.355 -0.4077 -0.1896  0.4129
    1OL     C12 3677   6.614   3.057   6.323 -0.2625  0.1836  0.0964
    1OL     H2R 3678   6.534   3.032   6.392 -0.2181  0.4241  0.2377
    1OL     H2S 3679   6.623   2.974   6.254 -0.8354  0.1385  0.0736
    1OL     C13 3680   6.577   3.184   6.237  0.4953 -0.5422 -0.6990
    1OL     H3R 3681   6.622   3.179   6.137 -1.0794  0.4255 -1.4671
    1OL     H3S 3682   6.620   3.276   6.277  0.8983 -0.4216 -1.3853
    1OL     C14 3683   6.421   3.205   6.224 -0.8611  0.5144 -0.4309
    1OL     H4R 3684   6.409   3.300   6.172 -0.6393  1.6453  1.5375
    1OL     H4S 3685   6.384   3.224   6.325  1.5840 -1.6265  0.9348
    1OL     C15 3686   6.348   3.080   6.168  0.6806 -0.6597  0.6961
    1OL     H5R 3687   6.242   3.105   6.174  0.2421 -2.2418 -0.2514
    1OL     H5S 3688   6.367   3.001   6.242 -1.4678  1.5667  3.7757
    1OL     C16 3689   6.396   3.040   6.033  0.3675  0.5167 -0.4956
    1OL     H6R 3690   6.354   2.939   6.027 -2.4995  1.5912  0.7237
    1OL     H6S 3691   6.505   3.033   6.037  0.4026  1.4845  0.3902
    1OL     C17 3692   6.344   3.129   5.918  0.3735  0.0019  1.1534
    1OL     H7R 3693   6.371   3.234   5.931  1.0699 -0.1116  0.6530
    1OL     H7S 3694   6.235   3.123   5.916  0.4330 -0.6441 -2.2940
    1OL     C18 3695   6.411   3.079   5.790 -0.7243 -0.7292 -0.1479
    1OL     H8R 3696   6.401   2.971   5.778  0.9227 -0.8695 -0.4039
    1OL     H8S 3697   6.519   3.079   5.807 -0.7681  0.3643  0.1420
    1OL     C19 3698   6.352   3.173   5.679 -0.0254 -0.2393 -0.9401
    1OL     H9R 3699   6.264   3.130   5.632 -1.7540 -0.6083  2.5481
    1OL    C110 3700   6.404   3.295   5.648 -0.3657  0.1524  0.0574
    1OL    H10R 3701   6.358   3.350   5.567  2.0605  1.7662 -0.2810
    1OL    C111 3702   6.523   3.362   5.715  0.0804  0.0772 -0.3885
    1OL    H11R 3703   6.534   3.348   5.822 -0.1400  1.9217 -0.1081
    1OL    H11S 3704   6.515   3.470   5.701 -1.5201 -0.1403 -1.2220
    1OL    C112 3705   6.657   3.310   5.648  0.6621  1.1060  0.3570
    1OL    H12R 3706   6.650   3.317   5.539 -0.2654  1.3506  0.4253
    1OL    H12S 3707   6.661   3.202   5.666 -1.4597  1.0095  0.4285
    1OL    C113 3708   6.790   3.377   5.699  0.6963  0.2951  0.3368
    1OL    H13R 3709   6.795   3.357   5.807 -0.0725  0.3832  0.3927
    1OL    H13S 3710   6.776   3.484   5.682 -0.2670  0.6788  3.2177
    1OL    C114 3711   6.923   3.338   5.632  0.1087 -0.4577  0.1245
    1OL    H14R 3712   6.917   3.347   5.523 -1.3439 -2.8949 -0.0319
    1OL    H14S 3713   6.936   3.231   5.650 -0.5859 -0.5648  0.0110
    1OL    C115 3714   7.045   3.417   5.689 -0.2989 -0.3779 -0.7376
    1OL    H15R 3715   7.138   3.369   5.655  0.1284 -0.5525  0.6588
    1OL    H15S 3716   7.056   3.411   5.797  1.7105 -1.2777 -0.9565
    1OL    C116 3717   7.043   3.573   5.657 -0.0422 -0.2224 -0.4065
    1OL    H16R 3718   7.131   3.617   5.705 -0.6549  1.3836 -0.7259
    1OL    H16S 3719   6.959   3.622   5.706 -1.5348 -1.5297 -1.5613
    1OL    C117 3720   7.052   3.611   5.501  0.1705  0.3620 -0.5153
    1OL    H17R 3721   6.976   3.556   5.445  1.3877 -2.8950  0.8808
    1OL    H17S 3722   7.149   3.583   5.459 -1.4777 -3.0695 -2.2062
    1OL    C118 3723   7.033   3.763   5.483 -0.3463 -0.2052  0.7207
    1OL    H18R 3724   6.925   3.777   5.487 -0.3945  0.1225 -1.2754
    1OL    H18S 3725   7.052   3.788   5.379  2.2855  0.1985  1.2611
    1OL    H18T 3726   7.084   3.834   5.548 -1.0095  2.3513 -1.4881
    1PA    C116 3727   1.392   0.936   5.637  0.6052 -0.3369 -0.0838
    1PA    H16R 3728   1.428   0.883   5.549 -0.8167 -0.6959 -0.4584
    1PA    H16S 3729   1.467   0.929   5.717  1.4545  2.2829 -0.5925
    1PA    H16T 3730   1.390   1.043   5.614  0.1675  0.1470  2.0081
    1PA    C115 3731   1.244   0.897   5.663 -0.3339  0.8610  0.3489
    1PA    H15R 3732   1.210   0.945   5.755 -0.6020  0.7965  0.2827
    1PA    H15S 3733   1.178   0.948   5.592  0.9760  0.2785 -1.3374
    1PA    C114 3734   1.224   0.742   5.667 -0.0732 -0.1915  0.1764
    1PA    H14R 3735   1.132   0.708   5.716  1.2308 -0.5127  2.4965
    1PA    H14S 3736   1.219   0.699   5.567 -2.7248  0.6575 -0.0975
    1PA    C113 3737   1.334   0.674   5.750  0.4557 -0.4458 -0.0835
    1PA    H13R 3738   1.429   0.687   5.698 -0.0891 -0.1111 -1.0126
    1PA    H13S 3739   1.342   0.720   5.849  0.5650 -0.0134 -0.2926
    1PA    C112 3740   1.308   0.522   5.752  0.2394 -0.4430  0.0070
    1PA    H12R 3741   1.210   0.511   5.800 -0.6496  2.9061 -0.9347
    1PA    H12S 3742   1.307   0.481   5.651 -1.0695 -0.6050  0.0666
    1PA    C111 3743   1.417   0.451   5.831 -0.0474 -0.8601 -0.0479
    1PA    H11R 3744   1.402   0.343   5.831  1.4528 -1.0992  1.4941
    1PA    H11S 3745   1.508   0.465   5.772  0.2021  1.9919  0.9079
    1PA    C110 3746   1.433   0.505   5.974 -0.2466  0.2099  0.0155
    1PA    H10R 3747   1.473   0.606   5.959  3.2949 -0.7050  2.4733
    1PA    H10S 3748   1.335   0.519   6.020 -1.3545 -1.3271 -1.8271
    1PA     C19 3749   1.527   0.403   6.056 -0.0412  0.4600  0.5261
    1PA     H9R 3750   1.475   0.311   6.086  3.1779 -1.4341  0.5156
    1PA     H9S 3751   1.609   0.364   5.995 -1.1312 -0.7309 -0.2116
    1PA     C18 3752   1.585   0.468   6.178 -0.3280 -0.4063  0.3517
    1PA     H8R 3753   1.654   0.410   6.240 -0.6249 -1.0118  0.1154
    1PA     H8S 3754   1.642   0.558   6.155  2.3716 -1.9067  1.0284
    1PA     C17 3755   1.474   0.508   6.275  0.0728  0.0263 -0.6408
    1PA     H7R 3756   1.526   0.567   6.351 -1.0571 -0.7192  0.7333
    1PA     H7S 3757   1.415   0.586   6.228 -1.7340  0.1635  1.7891
    1PA     C16 3758   1.377   0.399   6.337 -0.0955 -0.0866 -0.4400
    1PA     H6R 3759   1.295   0.436   6.399 -0.3957 -0.1829 -0.7801
    1PA     H6S 3760   1.344   0.338   6.253 -1.1185  0.1420 -0.2100
    1PA     C15 3761   1.451   0.307   6.436 -0.1881  0.2283  0.3638
    1PA     H5R 3762   1.377   0.227   6.449  0.6541 -0.7283 -0.6302
    1PA     H5S 3763   1.533   0.256   6.386  0.1120 -0.2636  1.3370
    1PA     C14 3764   1.509   0.368   6.563 -0.2029 -0.5894  0.5791
    1PA     H4R 3765   1.590   0.431   6.527 -0.8640 -0.2464 -0.3434
    1PA     H4S 3766   1.425   0.423   6.608 -1.2092 -0.7105 -1.1134
    1PA     C13 3767   1.571   0.257   6.644  0.8306 -0.0671  0.3142
    1PA     H3R 3768   1.582   0.312   6.738  0.2034  2.0121 -0.7989
    1PA     H3S 3769   1.496   0.177   6.644  0.9186 -0.1703  1.5933
    1PA     C12 3770   1.703   0.204   6.592  0.1618 -0.2325  0.6571
    1PA     H2R 3771   1.701   0.134   6.509  0.6248 -1.6325  1.8037
    1PA     H2S 3772   1.757   0.296   6.566 -0.6468  0.6170  1.8958
    1PC     C11 3773   1.777   0.150   6.705  0.4372  0.2531  0.2071
    1PC     O12 3774   1.725   0.065   6.781  0.0025  0.2254 -0.8618
    1PC     O11 3775   1.895   0.205   6.721 -0.3341 -0.4347  0.1266
    1PC      C1 3776   1.965   0.161   6.834  0.0310  0.4795  0.7299
    1PC      HR 3777   1.918   0.202   6.923 -0.8255  0.8266  0.1319
    1PC      HS 3778   1.956   0.052   6.835  0.3817  0.4088 -1.1444
    1PC      C2 3779   2.113   0.194   6.828 -0.9227 -0.7487  0.0375
    1PC      HX 3780   2.176   0.145   6.903  0.3291 -0.8875 -1.0768
    1PC      C3 3781   2.129   0.345   6.859  0.7178  0.0402  0.2985
    1PC      HA 3782   2.216   0.374   6.799 -1.3719 -1.3540 -3.5521
    1PC      HB 3783   2.045   0.408   6.829  0.0288 -0.6033  0.8352
    1PC     O31 3784   2.154   0.370   6.998  0.3775 -0.3258  0.1970
    1PC     P31 3785   2.046   0.407   7.098  0.2587  0.3720 -0.2219
    1PC     O32 3786   1.990   0.264   7.149  0.1804 -0.6909  0.1525
    1PC     C31 3787   2.068   0.151   7.200  0.2570  0.2518  0.4067
    1PC     H1A 3788   2.024   0.054   7.174  0.2064 -0.2915  2.4253
    1PC     H1B 3789   2.171   0.160   7.166  0.0995 -0.6342 -0.3199
    1PC     C32 3790   2.069   0.172   7.354  0.1907 -0.3532  1.1175
    1PC     H2A 3791   2.159   0.129   7.399  1.5425  0.5394 -0.6835
    1PC     H2B 3792   2.089   0.277   7.374  0.5615 -0.7197  2.7758
    1PC     N31 3793   1.955   0.132   7.443 -0.0708 -0.1619  0.2295
    1PC     C33 3794   1.829   0.198   7.391 -0.7230 -1.1737 -0.3004
    1PC     H3A 3795   1.798   0.150   7.298 -0.6162  1.7873 -1.9111
    1PC     H3B 3796   1.752   0.196   7.467  1.1763  3.2289  1.9290
    1PC     H3C 3797   1.850   0.303   7.368 -1.8810 -1.1657 -1.4018
    1PC     C34 3798   1.935  -0.014   7.441  0.3862 -0.8384 -0.2222
    1PC     H4A 3799   1.901  -0.031   7.338  1.2940 -2.6047 -0.2384
    1PC     H4B 3800   2.024  -0.068   7.470  0.5636  0.1602  1.1324
    1PC     H4C 3801   1.868  -0.038   7.524 -0.6567  1.2629 -0.4204
    1PC     C35 3802   1.978   0.172   7.580  0.2825 -1.0859 -0.3562
    1PC     H5A 3803   1.987   0.281   7.582  1.4662 -1.1592 -1.2026
    1PC     H5B 3804   2.071   0.133   7.620  0.5178 -0.6154 -0.4491
    1PC     H5C 3805   1.894   0.150   7.647 -0.1761 -0.1473 -0.6099
    1PC     O33 3806   2.110   0.466   7.213 -0.5815  0.4254  0.1830
    1PC     O34 3807   1.939   0.478   7.038  0.1545  0.5434  0.4498
    1PC     O21 3808   2.174   0.155   6.698 -0.2734  0.3556  0.0930
    1PC     C21 3809   2.182   0.023   6.671  0.0159 -0.4334  0.3816
    1PC     O22 3810   2.142  -0.060   6.752  0.2848 -0.8187 -0.0035
    1OL     C12 3811   2.236  -0.002   6.536  0.0800 -0.0888 -0.7766
    1OL     H2R 3812   2.261  -0.107   6.517 -0.0495 -0.6559  1.9542
    1OL     H2S 3813   2.329   0.055   6.543 -2.6078  4.4543  0.0780
    1OL     C13 3814   2.145   0.056   6.432 -0.3212  0.1416 -1.3447
    1OL     H3R 3815   2.203   0.044   6.341  1.8780  0.2198  0.0131
    1OL     H3S 3816   2.132   0.164   6.448 -0.4458 -0.4342  3.2764
    1OL     C14 3817   2.011  -0.012   6.406 -0.4700  0.0912 -0.2949
    1OL     H4R 3818   1.964  -0.016   6.504 -1.8028  3.7651 -0.7030
    1OL     H4S 3819   2.026  -0.110   6.359  0.5443  0.7463 -1.3794
    1OL     C15 3820   1.924   0.066   6.301 -0.2222 -0.3095 -0.2097
    1OL     H5R 3821   1.895   0.166   6.334 -0.1538 -0.1836 -0.5341
    1OL     H5S 3822   1.827   0.020   6.286  0.0839 -0.7337 -0.8912
    1OL     C16 3823   1.993   0.077   6.167  0.2457 -0.7683  0.1237
    1OL     H6R 3824   2.019  -0.023   6.133 -0.3131 -0.8287 -0.1437
    1OL     H6S 3825   2.084   0.136   6.173 -0.3344  0.0242  1.3237
    1OL     C17 3826   1.903   0.125   6.054  0.2417 -0.4219  0.3637
    1OL     H7R 3827   1.817   0.057   6.054 -0.7695  0.8106 -1.1916
    1OL     H7S 3828   1.955   0.108   5.960 -0.7983  2.4324 -0.7897
    1OL     C18 3829   1.871   0.271   6.055  0.5527  0.5366  0.4390
    1OL     H8R 3830   1.840   0.312   6.152 -0.9041  0.9204 -0.1798
    1OL     H8S 3831   1.780   0.289   5.998  0.5681  0.8214  0.5031
    1OL     C19 3832   1.986   0.357   5.995 -0.8618 -0.5106 -0.4250
    1OL     H9R 3833   2.088   0.319   6.004 -0.5162  1.0588  3.0909
    1OL    C110 3834   1.969   0.470   5.930  0.6283 -0.1283 -0.4658
    1OL    H10R 3835   2.058   0.526   5.900 -0.1643  1.1253 -0.4979
    1OL    C111 3836   1.839   0.542   5.897 -0.6171 -0.1851 -0.4543
    1OL    H11R 3837   1.830   0.614   5.979  1.5421  0.0326 -0.3754
    1OL    H11S 3838   1.754   0.474   5.895 -1.5052  0.9183 -1.2851
    1OL    C112 3839   1.855   0.628   5.761  0.3601 -1.0271  0.0022
    1OL    H12R 3840   1.879   0.562   5.678  0.4659 -1.9845  0.7806
    1OL    H12S 3841   1.932   0.703   5.778 -1.8454  1.2536  0.3025
    1OL    C113 3842   1.731   0.702   5.721  0.0761 -0.6012  0.1813
    1OL    H13R 3843   1.707   0.775   5.799  0.2307 -0.4345  0.0757
    1OL    H13S 3844   1.638   0.644   5.715 -0.8470  0.8377  0.1503
    1OL    C114 3845   1.746   0.776   5.586  0.2701 -0.0107  0.1755
    1OL    H14R 3846   1.836   0.837   5.598  1.2887 -1.7127  1.4225
    1OL    H14S 3847   1.662   0.844   5.570  0.9020  0.3697 -1.6025
    1OL    C115 3848   1.758   0.683   5.467 -0.3063 -0.3167  0.2194
    1OL    H15R 3849   1.681   0.606   5.469  0.2330 -0.8312  1.7106
    1OL    H15S 3850   1.862   0.648   5.474  0.4385  0.9777 -3.1612
    1OL    C116 3851   1.750   0.761   5.331 -0.1280  0.2181  0.0932
    1OL    H16R 3852   1.821   0.844   5.340  0.5761 -0.5675  2.0073
    1OL    H16S 3853   1.654   0.812   5.324  0.5837  1.7854  1.2517
    1OL    C117 3854   1.790   0.679   5.208  0.6313  0.6841  0.0616
    1OL    H17R 3855   1.895   0.651   5.216  0.3275 -0.2239  1.0445
    1OL    H17S 3856   1.781   0.738   5.117  1.1556 -0.2009 -0.5767
    1OL    C118 3857   1.703   0.549   5.188  0.7419  0.1586  0.4030
    1OL    H18R 3858   1.710   0.513   5.085  0.9341 -0.7112  0.7194
    1OL    H18S 3859   1.596   0.565   5.204  0.4317  1.4902 -2.4905
    1OL    H18T 3860   1.735   0.474   5.260  0.8173  0.7546  0.9916
    1PA    C116 3861   5.391   1.474   4.990 -0.9665 -0.4240 -0.5005
    1PA    H16R 3862   5.472   1.534   4.946 -0.5479 -1.1668 -0.7452
    1PA    H16S 3863   5.301   1.494   4.932 -0.0472  2.2051 -1.1095
    1PA    H16T 3864   5.411   1.367   4.999  2.6292  0.2892  0.9417
    1PA    C115 3865   5.366   1.508   5.140  0.4388  0.5500 -0.1564
    1PA    H15R 3866   5.361   1.616   5.155 -3.1955  0.5412 -0.7617
    1PA    H15S 3867   5.271   1.473   5.181  0.4270  0.8139  0.0396
    1PA    C114 3868   5.486   1.454   5.224 -0.6592 -0.0013 -0.4532
    1PA    H14R 3869   5.478   1.346   5.236 -4.3051  0.4642  2.0961
    1PA    H14S 3870   5.579   1.494   5.183 -0.9031  3.1772  1.8439
    1PA    C113 3871   5.475   1.511   5.362  0.0401 -0.3409  0.3970
    1PA    H13R 3872   5.444   1.616   5.360  2.9153  0.5248 -0.7559
    1PA    H13S 3873   5.399   1.465   5.426 -0.2247 -0.3217  0.0993
    1PA    C112 3874   5.601   1.468   5.447  0.1445 -0.6829 -0.4948
    1PA    H12R 3875   5.592   1.360   5.459  1.1046 -0.5858  1.1357
    1PA    H12S 3876   5.685   1.488   5.381  0.8633  1.5581  1.0743
    1PA    C111 3877   5.634   1.547   5.574 -0.0277 -0.6872 -0.0262
    1PA    H11R 3878   5.728   1.509   5.616  0.2291  1.7622  1.6552
    1PA    H11S 3879   5.649   1.652   5.548  0.3289  0.0176  2.8557
    1PA    C110 3880   5.515   1.541   5.673  0.2907  0.0906 -0.1159
    1PA    H10R 3881   5.432   1.599   5.631 -1.0740 -2.2665 -0.8071
    1PA    H10S 3882   5.479   1.439   5.685 -0.9667  0.6373  0.8470
    1PA     C19 3883   5.550   1.585   5.820 -0.6249  0.0001 -0.1961
    1PA     H9R 3884   5.465   1.560   5.883  1.2938 -1.3994  1.9044
    1PA     H9S 3885   5.625   1.521   5.867  0.7076  1.8844  0.2661
    1PA     C18 3886   5.592   1.725   5.830  0.1680 -0.1540 -0.5333
    1PA     H8R 3887   5.687   1.743   5.779  0.0384  1.3537 -0.2545
    1PA     H8S 3888   5.506   1.770   5.780  1.1050  2.0756 -0.1990
    1PA     C17 3889   5.592   1.776   5.976  0.4835 -0.0123  0.0430
    1PA     H7R 3890   5.596   1.885   5.970  0.3653  0.1465  2.6256
    1PA     H7S 3891   5.500   1.746   6.026  0.6648 -0.0936  0.3307
    1PA     C16 3892   5.716   1.739   6.055 -0.0103 -0.1492  0.5160
    1PA     H6R 3893   5.705   1.634   6.082 -0.1204  0.1733  1.7533
    1PA     H6S 3894   5.814   1.756   6.010 -0.1054 -0.0526  0.3418
    1PA     C15 3895   5.715   1.823   6.189 -0.5922  0.6418  0.2223
    1PA     H5R 3896   5.746   1.923   6.159 -1.0355  1.2629  1.7865
    1PA     H5S 3897   5.617   1.846   6.231 -1.5798  1.6520 -2.4624
    1PA     C14 3898   5.808   1.754   6.292  0.0978  0.0984  0.0610
    1PA     H4R 3899   5.787   1.647   6.288 -2.9658  0.7121 -1.5908
    1PA     H4S 3900   5.908   1.781   6.257 -1.0008  0.7713 -2.7428
    1PA     C13 3901   5.798   1.806   6.432 -0.2468  0.7157  0.2689
    1PA     H3R 3902   5.834   1.909   6.438 -1.2382  0.9614  2.1095
    1PA     H3S 3903   5.695   1.809   6.466 -0.6655 -0.2293 -0.8633
    1PA     C12 3904   5.886   1.726   6.535  0.2651  0.2205  0.3317
    1PA     H2R 3905   5.873   1.618   6.537  2.7894 -0.1139  0.7628
    1PA     H2S 3906   5.991   1.752   6.521  0.5223 -0.6177  0.6923
    1PC     C11 3907   5.868   1.778   6.671 -0.5924 -0.8010 -0.1615
    1PC     O12 3908   5.959   1.828   6.736  0.0262 -0.4657  0.1144
    1PC     O11 3909   5.742   1.757   6.721  0.2541 -0.0707  0.2688
    1PC      C1 3910   5.705   1.817   6.850 -0.1037  0.5394  0.8946
    1PC      HR 3911   5.770   1.783   6.932  2.9154  1.4441 -1.0255
    1PC      HS 3912   5.719   1.925   6.845 -0.6549  0.6660  2.0541
    1PC      C2 3913   5.554   1.792   6.880 -0.8585  0.6652 -0.1111
    1PC      HX 3914   5.526   1.869   6.951  0.0915  0.6567  0.2778
    1PC      C3 3915   5.519   1.651   6.938 -0.2123 -0.7052 -0.0703
    1PC      HA 3916   5.410   1.646   6.939 -0.2438 -0.0804  1.5934
    1PC      HB 3917   5.565   1.571   6.879  0.8555 -0.6807  0.7038
    1PC     O31 3918   5.572   1.631   7.072 -0.5669  0.1769 -0.3918
    1PC     P31 3919   5.493   1.674   7.207  0.6169  0.1133 -0.4548
    1PC     O32 3920   5.472   1.532   7.273 -0.0914  0.5709 -0.4248
    1PC     C31 3921   5.360   1.453   7.243 -0.5308  0.5957 -0.3371
    1PC     H1A 3922   5.261   1.498   7.254  0.0359  1.4355  1.4096
    1PC     H1B 3923   5.380   1.420   7.141 -1.0350  1.0950 -0.6017
    1PC     C32 3924   5.361   1.328   7.334  0.1753 -0.6921  0.6028
    1PC     H2A 3925   5.283   1.263   7.295 -2.1798  0.9708  2.4308
    1PC     H2B 3926   5.457   1.276   7.335  0.9964  0.7203 -1.0949
    1PC     N31 3927   5.322   1.339   7.480 -0.3944  0.3775 -0.8289
    1PC     C33 3928   5.296   1.201   7.521 -0.3469 -0.1570  0.1490
    1PC     H3A 3929   5.385   1.141   7.507 -1.4445 -1.3860 -1.7538
    1PC     H3B 3930   5.275   1.208   7.628  0.7445  0.5573  0.3172
    1PC     H3C 3931   5.215   1.155   7.463 -0.0670  0.5930 -0.8374
    1PC     C34 3932   5.429   1.400   7.566 -0.0873 -0.4725 -0.4749
    1PC     H4A 3933   5.404   1.396   7.672  0.4073  0.8508 -0.2957
    1PC     H4B 3934   5.529   1.363   7.542 -0.0221 -0.0313 -0.8971
    1PC     H4C 3935   5.429   1.505   7.535  1.1457 -0.4698 -0.4835
    1PC     C35 3936   5.197   1.419   7.489 -0.1809  0.0838  0.0459
    1PC     H5A 3937   5.174   1.440   7.593  0.7705  0.8621  0.1065
    1PC     H5B 3938   5.119   1.357   7.445  0.0190  0.3361 -0.6802
    1PC     H5C 3939   5.206   1.514   7.436  1.6594 -0.8528 -1.3823
    1PC     O33 3940   5.582   1.752   7.291  0.1391  0.4259  0.1786
    1PC     O34 3941   5.354   1.731   7.175 -0.9100  0.2513 -0.0281
    1PC     O21 3942   5.467   1.800   6.762 -0.6776  0.4039 -0.5097
    1PC     C21 3943   5.455   1.925   6.710  0.2680  0.6199 -0.0131
    1PC     O22 3944   5.490   2.028   6.763  0.1084  0.4167 -0.5318
    1OL     C12 3945   5.386   1.922   6.578 -0.5496 -0.2600 -0.0237
    1OL     H2R 3946   5.313   1.843   6.592 -1.9236  1.3998  2.5455
    1OL     H2S 3947   5.460   1.899   6.501 -2.2248 -0.6193 -1.5446
    1OL     C13 3948   5.316   2.054   6.567  0.0876  0.1395  0.1595
    1OL     H3R 3949   5.393   2.131   6.560  1.0390 -0.5703  2.2592
    1OL     H3S 3950   5.254   2.066   6.656 -0.2778 -1.8249  0.1891
    1OL     C14 3951   5.229   2.048   6.443  0.2676  0.0002 -0.0846
    1OL     H4R 3952   5.145   2.118   6.455  0.5954  0.1737  1.3181
    1OL     H4S 3953   5.177   1.952   6.443 -0.0407  0.1582  1.3293
    1OL     C15 3954   5.308   2.069   6.314 -0.0159  0.0896 -0.5257
    1OL     H5R 3955   5.386   1.993   6.323 -0.0738  0.1011  0.0627
    1OL     H5S 3956   5.345   2.172   6.311  2.3011 -0.6985 -0.3616
    1OL     C16 3957   5.225   2.047   6.189 -0.0260 -0.5101  0.2957
    1OL     H6R 3958   5.133   2.105   6.182  0.0816 -0.3573  0.1503
    1OL     H6S 3959   5.176   1.950   6.196  0.2082 -0.5019  2.5591
    1OL     C17 3960   5.306   2.062   6.068 -0.7266 -0.5180 -0.1883
    1OL     H7R 3961   5.392   1.995   6.074 -0.0480  0.3614 -0.0020
    1OL     H7S 3962   5.353   2.160   6.073 -1.3030 -0.2614  0.2211
    1OL     C18 3963   5.234   2.056   5.929 -0.2421  0.7061 -0.3457
    1OL     H8R 3964   5.167   2.142   5.936 -1.0683 -0.1586  3.4219
    1OL     H8S 3965   5.171   1.967   5.928 -0.5642  0.9251  0.2322
    1OL     C19 3966   5.326   2.071   5.811  0.0021 -0.5526  0.1862
    1OL     H9R 3967   5.390   2.159   5.821 -3.4047  1.9038  1.1952
    1OL    C110 3968   5.333   1.998   5.709  0.3687  0.3225  0.2416
    1OL    H10R 3969   5.404   2.026   5.631 -1.6463 -0.6694 -2.0033
    1OL    C111 3970   5.249   1.874   5.674 -0.5871  0.2667  0.1212
    1OL    H11R 3971   5.159   1.877   5.736 -2.1175  0.8004 -2.0748
    1OL    H11S 3972   5.302   1.783   5.702 -1.7095 -0.2422  0.6780
    1OL    C112 3973   5.212   1.863   5.528  0.1170 -0.2961 -0.0724
    1OL    H12R 3974   5.308   1.868   5.474  2.0919 -1.2097  3.2170
    1OL    H12S 3975   5.157   1.954   5.504  0.4613  0.8072  3.0683
    1OL    C113 3976   5.155   1.724   5.489  0.0901  0.0179 -0.2981
    1OL    H13R 3977   5.068   1.702   5.550  0.5715  0.7437  0.6748
    1OL    H13S 3978   5.224   1.650   5.530 -1.1971  0.0574  2.0079
    1OL    C114 3979   5.117   1.703   5.342  0.0169  0.3715 -0.1258
    1OL    H14R 3980   5.088   1.599   5.324  1.3592 -0.1972  0.8882
    1OL    H14S 3981   5.200   1.738   5.280  1.0261  0.2944  1.1411
    1OL    C115 3982   4.996   1.794   5.311  0.1460  0.2646 -0.2182
    1OL    H15R 3983   5.023   1.899   5.324  1.4066  0.2651 -2.5109
    1OL    H15S 3984   4.910   1.769   5.373  0.5609  0.4118  0.4216
    1OL    C116 3985   4.954   1.782   5.159  0.1766 -0.4022 -0.5046
    1OL    H16R 3986   4.926   1.679   5.136  1.2326 -0.8839  0.3315
    1OL    H16S 3987   5.044   1.809   5.102  0.8267 -0.3422  0.5353
    1OL    C117 3988   4.842   1.883   5.131  0.4643 -0.6460  1.0268
    1OL    H17R 3989   4.866   1.974   5.186  0.2251 -0.1156  0.2687
    1OL    H17S 3990   4.745   1.844   5.163 -0.1970 -0.3953 -0.5983
    1OL    C118 3991   4.830   1.924   4.984 -0.0935  0.0665 -0.0248
    1OL    H18R 3992   4.923   1.956   4.936 -0.9038  2.1806 -0.2205
    1OL    H18S 3993   4.752   1.999   4.971 -1.6349 -1.2264  1.5175
    1OL    H18T 3994   4.789   1.833   4.939  2.2133 -0.6569 -0.7389
    1PA    C116 3995   1.339   4.742   5.355  1.1266  0.8718 -0.5089
    1PA    H16R 3996   1.366   4.763   5.458 -1.3334  1.8279 -0.0221
    1PA    H16S 3997   1.434   4.756   5.302  0.5022 -2.3694 -2.6453
    1PA    H16T 3998   1.294   4.644   5.343 -0.7185  1.9770 -3.1801
    1PA    C115 3999   1.230   4.837   5.310  0.0146 -0.3480 -0.5377
    1PA    H15R 4000   1.271   4.938   5.318 -0.3173 -0.1661 -1.0677
    1PA    H15S 4001   1.207   4.818   5.205 -0.7394 -4.1674  0.2394
    1PA    C114 4002   1.098   4.830   5.397  0.0894 -0.2477 -0.2368
    1PA    H14R 4003   1.014   4.868   5.339  2.2850  4.2593 -0.7077
    1PA    H14S 4004   1.073   4.726   5.417 -2.2134 -0.2919 -3.0954
    1PA    C113 4005   1.100   4.916   5.524 -0.6937  0.0128  0.2339
    1PA    H13R 4006   1.196   4.907   5.575  0.3139  1.9211 -1.2329
    1PA    H13S 4007   1.087   5.022   5.499  1.1204  0.3312  0.5889
    1PA    C112 4008   0.991   4.870   5.616 -0.2593  0.2009 -0.0662
    1PA    H12R 4009   0.893   4.878   5.570  0.1718 -2.3399 -1.5234
    1PA    H12S 4010   1.010   4.764   5.635  0.6032  0.1418 -1.2311
    1PA    C111 4011   0.996   4.951   5.744 -0.5641  0.0409  0.1270
    1PA    H11R 4012   1.101   4.947   5.774 -0.7333  1.0160  0.8860
    1PA    H11S 4013   0.976   5.052   5.706 -0.8232 -0.1580 -0.2626
    1PA    C110 4014   0.904   4.911   5.862 -0.0200 -0.2903 -0.2827
    1PA    H10R 4015   0.938   4.966   5.950  0.2425  0.2266 -0.7048
    1PA    H10S 4016   0.800   4.932   5.837 -0.4140  0.0827  1.5435
    1PA     C19 4017   0.915   4.762   5.879  0.1107  0.3303  0.4447
    1PA     H9R 4018   0.845   4.739   5.960 -0.1169  1.0041  0.4365
    1PA     H9S 4019   0.890   4.705   5.790 -1.4320 -0.2169  1.1975
    1PA     C18 4020   1.049   4.707   5.921 -0.5705  0.4020 -0.1169
    1PA     H8R 4021   1.120   4.715   5.839 -0.9114 -0.6048 -0.5283
    1PA     H8S 4022   1.084   4.761   6.009  0.2985 -0.7359  0.2578
    1PA     C17 4023   1.011   4.551   5.949  0.3894  0.0281  0.0372
    1PA     H7R 4024   0.935   4.552   6.028  1.8769 -0.8773  1.5252
    1PA     H7S 4025   0.970   4.515   5.855  0.8554  2.1662 -1.0160
    1PA     C16 4026   1.134   4.468   5.990  0.0351  0.2473  1.0056
    1PA     H6R 4027   1.111   4.362   5.991  1.0105  0.0331  1.2702
    1PA     H6S 4028   1.219   4.480   5.921 -0.7278 -0.4382 -0.0677
    1PA     C15 4029   1.179   4.507   6.126 -0.2572 -0.3319 -0.2512
    1PA     H5R 4030   1.201   4.613   6.137 -1.1831 -0.1895  0.2802
    1PA     H5S 4031   1.097   4.484   6.194 -1.5721  1.2861 -1.2617
    1PA     C14 4032   1.309   4.438   6.165  0.5677  0.6581  0.5808
    1PA     H4R 4033   1.291   4.330   6.160  0.0977  0.8148 -1.9858
    1PA     H4S 4034   1.383   4.463   6.088  2.3758 -0.4682  1.9164
    1PA     C13 4035   1.349   4.509   6.302 -0.2117 -0.5266  0.2142
    1PA     H3R 4036   1.387   4.610   6.283  0.8866 -0.8803  0.4728
    1PA     H3S 4037   1.268   4.522   6.374 -0.1242 -0.0115  0.2202
    1PA     C12 4038   1.455   4.423   6.371  0.4500 -0.0475  0.9147
    1PA     H2R 4039   1.416   4.322   6.365 -0.3209  0.1925  1.7839
    1PA     H2S 4040   1.554   4.432   6.325  0.2186 -2.4118 -0.0928
    1PC     C11 4041   1.475   4.457   6.513  0.3405 -0.1705 -0.0418
    1PC     O12 4042   1.467   4.570   6.547 -0.4164 -0.5217 -0.1030
    1PC     O11 4043   1.474   4.356   6.598  0.2907 -0.1911 -0.6104
    1PC      C1 4044   1.467   4.377   6.741  0.3110  0.2753  0.3976
    1PC      HR 4045   1.508   4.286   6.786 -0.8175 -0.3192  0.2384
    1PC      HS 4046   1.526   4.464   6.773  1.6076 -0.0882 -0.9627
    1PC      C2 4047   1.322   4.395   6.796 -0.3729 -0.2476  0.1322
    1PC      HX 4048   1.270   4.469   6.734 -1.4864  0.3284  1.7222
    1PC      C3 4049   1.321   4.441   6.948 -0.2162  0.6071 -0.1352
    1PC      HA 4050   1.352   4.545   6.955 -1.5095  1.1243 -1.6098
    1PC      HB 4051   1.224   4.412   6.991  0.2326 -0.4035  0.2231
    1PC     O31 4052   1.421   4.375   7.023 -0.2039 -0.1982  0.2219
    1PC     P31 4053   1.438   4.400   7.186 -0.2534  0.0170  0.2581
    1PC     O32 4054   1.395   4.265   7.250 -0.6205  0.8218  0.1267
    1PC     C31 4055   1.491   4.150   7.242  0.2747 -0.6991 -0.3980
    1PC     H1A 4056   1.506   4.133   7.135  2.3586 -3.1371  0.2454
    1PC     H1B 4057   1.577   4.185   7.300  0.0827 -2.3366  0.9051
    1PC     C32 4058   1.430   4.032   7.308 -0.4483  0.2784 -0.1822
    1PC     H2A 4059   1.419   4.049   7.415  2.3839  1.4736 -0.0336
    1PC     H2B 4060   1.329   4.014   7.271 -0.7389  0.3186  0.5914
    1PC     N31 4061   1.499   3.898   7.295 -0.4443 -0.2459  0.4293
    1PC     C33 4062   1.626   3.887   7.370 -0.5558 -0.3162 -0.0255
    1PC     H3A 4063   1.697   3.962   7.337  1.5443 -1.5841  1.5393
    1PC     H3B 4064   1.617   3.904   7.477 -1.8765 -0.9290 -0.0256
    1PC     H3C 4065   1.666   3.789   7.346 -0.6640 -0.9329  2.2015
    1PC     C34 4066   1.408   3.795   7.345 -0.2580  0.3381  0.1464
    1PC     H4A 4067   1.459   3.701   7.326  0.4752  1.1863 -2.1690
    1PC     H4B 4068   1.391   3.814   7.451  0.6443 -1.8557  0.6964
    1PC     H4C 4069   1.312   3.796   7.294 -0.9291  1.1140  1.3931
    1PC     C35 4070   1.520   3.869   7.144  0.3059  0.2405 -0.1405
    1PC     H5A 4071   1.422   3.848   7.102  0.0986  0.5938  0.1604
    1PC     H5B 4072   1.575   3.775   7.138 -0.5795 -0.3497  0.7330
    1PC     H5C 4073   1.569   3.955   7.098  0.7730 -0.9628 -1.9400
    1PC     O33 4074   1.585   4.425   7.205  0.1698  0.2843 -0.0834
    1PC     O34 4075   1.342   4.509   7.220  0.1284 -0.6062 -0.3968
    1PC     O21 4076   1.249   4.269   6.791 -0.0175  0.2689  0.2120
    1PC     C21 4077   1.180   4.236   6.681 -0.5180 -0.1382 -0.3887
    1PC     O22 4078   1.168   4.309   6.583  0.6256 -0.0700  0.5561
    1OL     C12 4079   1.120   4.097   6.684 -0.3057 -0.3581 -0.7796
    1OL     H2R 4080   1.011   4.107   6.694 -0.7247 -2.7366 -2.6339
    1OL     H2S 4081   1.163   4.053   6.774  2.8526  1.0210 -1.5342
    1OL     C13 4082   1.146   3.996   6.575 -0.5802  0.3934  0.1933
    1OL     H3R 4083   1.096   4.030   6.484 -0.0704  2.1890  0.5584
    1OL     H3S 4084   1.108   3.899   6.606  0.5668 -0.6370 -1.5287
    1OL     C14 4085   1.292   3.971   6.528  0.7207 -0.1700 -0.2635
    1OL     H4R 4086   1.337   3.902   6.599  0.0011 -1.2624 -0.8613
    1OL     H4S 4087   1.338   4.070   6.521  1.0004 -0.1008  2.2236
    1OL     C15 4088   1.288   3.911   6.384  0.3720 -0.2990 -0.8142
    1OL     H5R 4089   1.192   3.867   6.357 -0.7157  0.4813  1.6187
    1OL     H5S 4090   1.370   3.841   6.364  0.5584 -0.3995  0.2870
    1OL     C16 4091   1.315   4.016   6.275  0.1077 -0.0475 -0.3673
    1OL     H6R 4092   1.419   4.047   6.283  0.8393 -2.3192 -0.6228
    1OL     H6S 4093   1.252   4.103   6.293 -2.6090 -1.7386 -1.2027
    1OL     C17 4094   1.300   3.966   6.130  0.0872 -0.2413  0.2553
    1OL     H7R 4095   1.195   3.944   6.109  0.8208 -1.5388 -2.1734
    1OL     H7S 4096   1.364   3.878   6.123 -1.3991 -1.3411  0.3369
    1OL     C18 4097   1.329   4.063   6.016  0.1606 -0.2091 -0.1383
    1OL     H8R 4098   1.424   4.114   6.032 -0.7369  1.5688 -0.3336
    1OL     H8S 4099   1.250   4.138   6.014  1.0701  0.7583 -0.1555
    1OL     C19 4100   1.321   3.996   5.885 -0.3407 -0.1291  0.4737
    1OL     H9R 4101   1.218   3.972   5.858  0.4365 -0.8003 -2.0305
    1OL    C110 4102   1.413   3.973   5.790  0.6917  0.1515 -0.1017
    1OL    H10R 4103   1.380   3.927   5.697  0.6054  0.1285 -0.0597
    1OL    C111 4104   1.559   4.015   5.800  0.3887  0.0898  0.3183
    1OL    H11R 4105   1.612   3.927   5.764 -1.1703 -0.5769 -0.3913
    1OL    H11S 4106   1.598   4.020   5.902  0.3410 -0.0041  0.3412
    1OL    C112 4107   1.592   4.143   5.724  0.5537  0.4745 -0.5382
    1OL    H12R 4108   1.582   4.121   5.618  0.7809 -0.0195 -0.4577
    1OL    H12S 4109   1.696   4.167   5.748  0.7182 -0.1386 -0.6192
    1OL    C113 4110   1.502   4.264   5.767  0.2238  0.1152  0.1243
    1OL    H13R 4111   1.501   4.292   5.873 -2.0187  1.5069 -0.2258
    1OL    H13S 4112   1.400   4.248   5.732  0.5731 -1.3005 -0.2808
    1OL    C114 4113   1.551   4.384   5.695 -0.6201 -0.3435 -0.9766
    1OL    H14R 4114   1.537   4.374   5.587 -0.2767 -3.2175 -0.7946
    1OL    H14S 4115   1.655   4.405   5.721 -1.0413 -1.0054  1.4054
    1OL    C115 4116   1.467   4.509   5.732 -0.2417  0.4297  0.0921
    1OL    H15R 4117   1.375   4.471   5.776 -0.4708  0.4343 -0.3853
    1OL    H15S 4118   1.455   4.577   5.648  1.4947  0.9464  0.2441
    1OL    C116 4119   1.529   4.589   5.851 -0.8468  0.0442 -0.3852
    1OL    H16R 4120   1.618   4.648   5.829 -0.4058 -1.2524 -2.1370
    1OL    H16S 4121   1.573   4.521   5.925 -2.3290 -1.7367 -1.1252
    1OL    C117 4122   1.428   4.691   5.914  0.6920 -0.7705 -0.3685
    1OL    H17R 4123   1.334   4.650   5.951  1.9091 -1.8784  1.6237
    1OL    H17S 4124   1.402   4.771   5.845 -0.7482 -0.1157  0.9155
    1OL    C118 4125   1.499   4.755   6.032 -0.0400  0.8451  0.3217
    1OL    H18R 4126   1.506   4.679   6.110  1.7881 -0.5456 -1.1546
    1OL    H18S 4127   1.437   4.837   6.068 -0.0764  0.1801  1.8089
    1OL    H18T 4128   1.594   4.800   6.004 -0.2961  1.6632  0.7485
    1PA    C116 4129   3.487   0.579   5.946 -0.1275 -0.2447 -0.4589
    1PA    H16R 4130   3.474   0.539   5.845  1.7696 -0.3045 -0.6940
    1PA    H16S 4131   3.529   0.678   5.932  0.6449 -0.7288 -1.7453
    1PA    H16T 4132   3.392   0.590   5.998  0.2769 -1.4974  0.5730
    1PA    C115 4133   3.576   0.499   6.038 -0.6583 -0.4502 -0.0692
    1PA    H15R 4134   3.641   0.439   5.974  0.7093  1.1541 -0.2013
    1PA    H15S 4135   3.624   0.573   6.102 -0.7815  1.8511 -2.5154
    1PA    C114 4136   3.508   0.394   6.122 -0.3627  0.0590 -0.7134
    1PA    H14R 4137   3.414   0.433   6.161  0.9001 -0.2368  2.7980
    1PA    H14S 4138   3.475   0.312   6.057 -1.1724  0.4210 -0.7617
    1PA    C113 4139   3.601   0.352   6.234 -0.0609 -0.1680 -0.2564
    1PA    H13R 4140   3.599   0.432   6.308  0.4847 -0.5698  0.2015
    1PA    H13S 4141   3.561   0.266   6.288  0.0633  1.1838  2.0437
    1PA    C112 4142   3.755   0.324   6.202 -0.1761  0.2264  0.3785
    1PA    H12R 4143   3.761   0.246   6.126  3.3368 -0.6501  1.4561
    1PA    H12S 4144   3.803   0.413   6.160 -0.3629  0.2809  0.2788
    1PA    C111 4145   3.826   0.276   6.328  0.1991  0.0638  0.5862
    1PA    H11R 4146   3.811   0.345   6.411 -1.2388  0.0407  0.3525
    1PA    H11S 4147   3.779   0.179   6.344  0.6648 -0.1934  0.3884
    1PA    C110 4148   3.978   0.253   6.323 -0.3936 -0.2656 -0.2705
    1PA    H10R 4149   3.989   0.172   6.251 -2.0131 -2.5115  1.8887
    1PA    H10S 4150   4.037   0.334   6.280 -0.2006  0.5757  1.5488
    1PA     C19 4151   4.039   0.203   6.458  0.0672 -0.3647 -0.7347
    1PA     H9R 4152   4.041   0.286   6.529  1.9404 -0.4833 -0.6198
    1PA     H9S 4153   3.986   0.115   6.496 -0.0229 -2.4881 -5.4596
    1PA     C18 4154   4.186   0.163   6.435 -0.2511  0.5178  0.4604
    1PA     H8R 4155   4.219   0.114   6.527  2.7363  0.2545 -0.6967
    1PA     H8S 4156   4.189   0.077   6.367  0.2954  2.1108 -1.5577
    1PA     C17 4157   4.280   0.273   6.394  0.0395 -0.5036  0.0238
    1PA     H7R 4158   4.244   0.327   6.306  1.6447 -0.0894 -0.3803
    1PA     H7S 4159   4.278   0.355   6.466  0.5177  0.2118 -0.7789
    1PA     C16 4160   4.427   0.236   6.368  0.0440  0.0532 -0.0701
    1PA     H6R 4161   4.467   0.327   6.322 -0.8913 -0.2811 -1.5600
    1PA     H6S 4162   4.475   0.216   6.464 -0.9083  0.6581  0.5447
    1PA     C15 4163   4.442   0.110   6.277 -0.2784 -0.2309 -0.3495
    1PA     H5R 4164   4.406   0.017   6.321  1.7257 -0.2591  1.2910
    1PA     H5S 4165   4.385   0.134   6.187 -1.2998 -3.6922 -0.6786
    1PA     C14 4166   4.590   0.097   6.237  0.8980 -0.2002 -0.4163
    1PA     H4R 4167   4.598   0.004   6.181  0.0363 -0.0624 -0.7801
    1PA     H4S 4168   4.625   0.178   6.172 -1.0921  0.8220 -0.2517
    1PA     C13 4169   4.679   0.094   6.363  0.3448  0.1552  0.4525
    1PA     H3R 4170   4.697   0.197   6.394  0.8428  0.1394  0.2249
    1PA     H3S 4171   4.623   0.038   6.438 -1.2295  0.3927 -0.5163
    1PA     C12 4172   4.818   0.031   6.340 -0.1504  0.0069  0.7748
    1PA     H2R 4173   4.802  -0.073   6.310  0.7792 -0.1585  0.8299
    1PA     H2S 4174   4.868   0.092   6.264 -0.3692 -0.9215 -0.1364
    1PC     C11 4175   4.898   0.042   6.471  0.0981  0.5940  0.5222
    1PC     O12 4176   4.973   0.136   6.501  0.1204  0.0915 -0.2002
    1PC     O11 4177   4.878  -0.061   6.554 -0.2429  0.1404 -0.4561
    1PC      C1 4178   4.943  -0.058   6.684  0.3716  0.1509  0.0981
    1PC      HR 4179   4.943  -0.166   6.701  0.8488 -0.0659 -1.2128
    1PC      HS 4180   5.049  -0.029   6.677  0.2381  0.2735 -1.6836
    1PC      C2 4181   4.856   0.022   6.788 -0.7789  0.2653  0.2999
    1PC      HX 4182   4.867   0.129   6.765 -0.1563  0.2048  0.3056
    1PC      C3 4183   4.904   0.012   6.930  0.0056 -0.7725 -1.0962
    1PC      HA 4184   4.911  -0.092   6.963  0.9881 -0.4690 -0.2882
    1PC      HB 4185   5.006   0.052   6.941 -0.1645 -0.5248 -0.3998
    1PC     O31 4186   4.822   0.100   7.023  0.4079 -0.1027 -0.1662
    1PC     P31 4187   4.737   0.032   7.141  0.2761 -0.1683  0.1947
    1PC     O32 4188   4.627  -0.054   7.065 -0.0989  0.3393 -0.0284
    1PC     C31 4189   4.640  -0.196   7.044  0.0612 -0.0889  0.1800
    1PC     H1A 4190   4.589  -0.223   6.951  0.5993  1.1798 -0.5023
    1PC     H1B 4191   4.745  -0.224   7.045 -0.2414 -1.2074  0.9943
    1PC     C32 4192   4.571  -0.273   7.162 -0.1995  0.1872  0.0251
    1PC     H2A 4193   4.589  -0.379   7.143 -0.3128  0.2694 -0.5383
    1PC     H2B 4194   4.616  -0.243   7.257  0.7072 -0.2518 -0.2576
    1PC     N31 4195   4.420  -0.272   7.166  0.3140 -0.3993 -0.1418
    1PC     C33 4196   4.365  -0.292   7.031 -0.0633 -0.3476  0.0211
    1PC     H3A 4197   4.383  -0.196   6.982  0.8672 -1.0384 -1.0249
    1PC     H3B 4198   4.434  -0.354   6.972 -0.5768 -0.7621 -0.1464
    1PC     H3C 4199   4.263  -0.327   7.045 -0.7354  0.9838 -1.3844
    1PC     C34 4200   4.372  -0.392   7.245 -0.2061  0.1136 -0.1300
    1PC     H4A 4201   4.382  -0.482   7.184 -1.1747 -0.1527  0.0952
    1PC     H4B 4202   4.439  -0.408   7.330  0.9342  0.1194 -1.0121
    1PC     H4C 4203   4.270  -0.366   7.274  0.4905  0.2659  2.2513
    1PC     C35 4204   4.369  -0.143   7.225 -0.3783 -0.3244 -0.0389
    1PC     H5A 4205   4.400  -0.067   7.154  1.3709 -0.4086  0.6148
    1PC     H5B 4206   4.420  -0.137   7.321  1.4466  1.4336 -1.0745
    1PC     H5C 4207   4.260  -0.143   7.240 -0.1814  1.4456  1.5778
    1PC     O33 4208   4.825  -0.063   7.215  0.1720  0.0938  0.4988
    1PC     O34 4209   4.678   0.151   7.209  0.1094 -0.4721  0.2662
    1PC     O21 4210   4.723  -0.024   6.785  0.5143  0.2399 -0.4505
    1PC     C21 4211   4.635   0.065   6.730  0.1250  0.9450 -0.1077
    1PC     O22 4212   4.664   0.153   6.662  0.7164  0.2463 -0.3034
    1OL     C12 4213   4.497   0.022   6.765 -0.1057  0.0933  0.2243
    1OL     H2R 4214   4.443   0.115   6.780  2.6295  1.5246  1.5996
    1OL     H2S 4215   4.497  -0.025   6.864 -2.2481 -0.8011 -0.1742
    1OL     C13 4216   4.436  -0.073   6.658  0.2941 -0.6727  0.3086
    1OL     H3R 4217   4.511  -0.153   6.649  0.7252 -0.2799  0.4154
    1OL     H3S 4218   4.414  -0.027   6.562  0.3466  0.6065  0.9099
    1OL     C14 4219   4.311  -0.154   6.701 -0.1053  0.0131  0.0323
    1OL     H4R 4220   4.228  -0.084   6.711 -0.7305 -0.7284  0.0155
    1OL     H4S 4221   4.326  -0.202   6.797  1.7220 -0.8837 -0.6677
    1OL     C15 4222   4.279  -0.268   6.610  0.4735  1.0212 -0.4045
    1OL     H5R 4223   4.201  -0.330   6.656 -0.7570  1.3100 -2.0455
    1OL     H5S 4224   4.363  -0.336   6.594 -0.5524 -0.5438  0.6985
    1OL     C16 4225   4.230  -0.207   6.476 -0.3011 -0.9870  0.3108
    1OL     H6R 4226   4.315  -0.157   6.430 -2.6871  1.2033 -1.9091
    1OL     H6S 4227   4.164  -0.120   6.480  1.8829  0.7366 -0.0607
    1OL     C17 4228   4.168  -0.312   6.379  0.4700  0.7267  0.6350
    1OL     H7R 4229   4.121  -0.259   6.295 -3.5045  0.0464  2.3208
    1OL     H7S 4230   4.089  -0.361   6.435  0.5747  3.8206  3.6260
    1OL     C18 4231   4.270  -0.415   6.322 -0.0408 -0.5451  0.4831
    1OL     H8R 4232   4.312  -0.474   6.404  0.5933 -0.1837  0.4166
    1OL     H8S 4233   4.354  -0.369   6.271 -0.5467 -0.6156 -0.4176
    1OL     C19 4234   4.192  -0.506   6.229 -0.5626 -0.1458 -0.3136
    1OL     H9R 4235   4.139  -0.584   6.283  0.4727 -1.0295 -0.5540
    1OL    C110 4236   4.176  -0.489   6.096  0.5213 -0.6593 -0.3952
    1OL    H10R 4237   4.109  -0.555   6.042 -0.8483 -0.0410  0.5171
    1OL    C111 4238   4.236  -0.371   6.010 -0.0854 -0.5720 -0.2042
    1OL    H11R 4239   4.342  -0.363   6.036 -0.3027 -0.8222  0.7763
    1OL    H11S 4240   4.193  -0.274   6.034  0.7063  0.2087 -1.8423
    1OL    C112 4241   4.223  -0.386   5.863 -0.5855  0.7074 -0.1722
    1OL    H12R 4242   4.115  -0.378   5.848 -1.0533 -4.3115 -0.3771
    1OL    H12S 4243   4.261  -0.487   5.844  0.4761  1.2315 -0.9358
    1OL    C113 4244   4.290  -0.276   5.780  0.0873 -0.9333 -0.7304
    1OL    H13R 4245   4.260  -0.289   5.676  3.2450  0.6174 -1.8892
    1OL    H13S 4246   4.399  -0.280   5.785  0.2378  1.1523 -1.6621
    1OL    C114 4247   4.235  -0.138   5.825  0.2187  0.4024  0.0995
    1OL    H14R 4248   4.277  -0.112   5.923  0.9583  3.0159 -0.8586
    1OL    H14S 4249   4.129  -0.152   5.846  0.4292 -0.5161  0.5515
    1OL    C115 4250   4.250  -0.021   5.731 -0.8486  0.6147  0.0219
    1OL    H15R 4251   4.209  -0.045   5.633  0.1963 -1.3404  0.0344
    1OL    H15S 4252   4.353   0.007   5.707  0.1004 -0.7621  2.2562
    1OL    C116 4253   4.177   0.095   5.787  0.0911  0.8545  0.3214
    1OL    H16R 4254   4.204   0.109   5.891 -0.4180 -1.0337  0.7311
    1OL    H16S 4255   4.069   0.078   5.775  0.3115 -0.1103 -0.3800
    1OL    C117 4256   4.205   0.226   5.717 -0.5401  0.7825  0.4435
    1OL    H17R 4257   4.166   0.227   5.615  1.1009  1.0142 -0.1979
    1OL    H17S 4258   4.313   0.240   5.722 -0.5994  1.7986 -0.7605
    1OL    C118 4259   4.149   0.344   5.786  0.1020 -0.1620 -1.0882
    1OL    H18R 4260   4.205   0.357   5.879 -0.7568 -0.0194 -0.5857
    1OL    H18S 4261   4.042   0.340   5.807  0.6933  1.7988  2.6091
    1OL    H18T 4262   4.179   0.430   5.725  1.0547  0.8767  0.7838
    1PA    C116 4263   3.253   0.254   5.380 -0.6595 -0.0830  0.0867
    1PA    H16R 4264   3.239   0.190   5.468 -3.0850 -2.9674 -2.3012
    1PA    H16S 4265   3.173   0.228   5.312 -0.4635 -1.3249  0.3173
    1PA    H16T 4266   3.244   0.360   5.405 -1.8368 -0.0408 -0.5042
    1PA    C115 4267   3.387   0.232   5.307  0.0217  0.1478 -0.1408
    1PA    H15R 4268   3.395   0.295   5.217  0.1322  1.7270  0.9486
    1PA    H15S 4269   3.463   0.273   5.374  0.3298  1.1896 -1.0873
    1PA    C114 4270   3.416   0.084   5.276 -0.0603  0.0492  0.1579
    1PA    H14R 4271   3.424   0.029   5.370  0.6010  4.3352  2.7559
    1PA    H14S 4272   3.328   0.050   5.221  1.0601 -1.5543 -0.6591
    1PA    C113 4273   3.549   0.053   5.197 -0.3343 -0.1340  1.0779
    1PA    H13R 4274   3.555  -0.055   5.188 -0.2869 -0.0061 -0.4281
    1PA    H13S 4275   3.542   0.085   5.093 -1.0082  0.2410  1.2318
    1PA    C112 4276   3.679   0.113   5.259  0.2236 -0.5066 -0.4462
    1PA    H12R 4277   3.766   0.111   5.192  1.8825  2.3301  1.5079
    1PA    H12S 4278   3.675   0.221   5.276 -0.3435 -0.5373 -0.3767
    1PA    C111 4279   3.724   0.058   5.395  0.3628  0.7200  0.9172
    1PA    H11R 4280   3.699  -0.047   5.409  1.7639  0.1694 -0.6499
    1PA    H11S 4281   3.832   0.065   5.404  0.5656 -1.5093  0.3747
    1PA    C110 4282   3.663   0.123   5.518  0.1597 -0.4541 -0.1193
    1PA    H10R 4283   3.699   0.226   5.525  0.8142 -0.6617 -0.4090
    1PA    H10S 4284   3.554   0.127   5.515  0.1696 -1.1963 -1.8738
    1PA     C19 4285   3.712   0.043   5.640 -0.2769  0.3785 -0.6656
    1PA     H9R 4286   3.679  -0.061   5.632 -3.4442  1.1443  1.4024
    1PA     H9S 4287   3.821   0.035   5.640 -0.2277  1.0423 -0.0929
    1PA     C18 4288   3.655   0.086   5.778 -0.3437  0.0857  0.2959
    1PA     H8R 4289   3.699   0.184   5.799 -2.1240  1.3220 -1.6321
    1PA     H8S 4290   3.550   0.107   5.763 -0.0206  0.8019 -1.0051
    1PA     C17 4291   3.684  -0.008   5.895 -0.6995  0.3592  0.0851
    1PA     H7R 4292   3.655   0.062   5.974  0.5232  2.5737 -1.3483
    1PA     H7S 4293   3.613  -0.090   5.895 -1.9376  1.4000  1.1748
    1PA     C16 4294   3.823  -0.063   5.925 -0.3065 -0.1097 -0.1143
    1PA     H6R 4295   3.857  -0.123   5.840  0.3796 -0.9530  0.7433
    1PA     H6S 4296   3.896   0.017   5.942 -0.9524  0.5985 -0.6359
    1PA     C15 4297   3.824  -0.165   6.040 -0.0080  0.5851  0.4123
    1PA     H5R 4298   3.752  -0.245   6.024  0.3683  0.9618 -3.6659
    1PA     H5S 4299   3.915  -0.226   6.047 -1.1594 -1.7645 -3.4236
    1PA     C14 4300   3.807  -0.095   6.181 -0.5746 -0.7700  0.2870
    1PA     H4R 4301   3.889  -0.025   6.191 -0.0916 -1.4735  1.4858
    1PA     H4S 4302   3.720  -0.029   6.188 -0.1042 -0.2555  1.4571
    1PA     C13 4303   3.792  -0.191   6.308 -0.0301 -0.4556  0.2258
    1PA     H3R 4304   3.703  -0.253   6.304  0.9427 -1.8473 -0.3925
    1PA     H3S 4305   3.874  -0.261   6.328  0.3736 -0.3376 -0.9812
    1PA     C12 4306   3.774  -0.103   6.431 -0.0278  1.4045 -0.1033
    1PA     H2R 4307   3.866  -0.047   6.445  1.9855 -2.0044  0.9471
    1PA     H2S 4308   3.688  -0.040   6.406 -0.3130  0.8998 -0.3984
    1PC     C11 4309   3.736  -0.187   6.551  0.3445 -0.4642 -0.4800
    1PC     O12 4310   3.624  -0.196   6.602 -0.3543  0.2429  0.0463
    1PC     O11 4311   3.839  -0.263   6.596  0.5796  0.0413  0.2663
    1PC      C1 4312   3.848  -0.314   6.730  0.0580  0.0947  0.4923
    1PC      HR 4313   3.748  -0.338   6.767  0.6174 -2.2385  0.5828
    1PC      HS 4314   3.918  -0.398   6.729  0.9410  0.8129  0.9480
    1PC      C2 4315   3.922  -0.202   6.814 -0.2269 -0.0959  0.6040
    1PC      HX 4316   3.994  -0.150   6.749 -2.5686 -0.2404 -2.1948
    1PC      C3 4317   3.991  -0.258   6.937  0.0265  0.0857  0.6610
    1PC      HA 4318   3.942  -0.353   6.961  3.3118 -1.9972 -0.6124
    1PC      HB 4319   4.096  -0.273   6.911 -0.5970  0.7140 -2.3240
    1PC     O31 4320   3.968  -0.159   7.046  0.7907  0.0838  0.4936
    1PC     P31 4321   3.981  -0.208   7.195 -0.2643 -0.3482 -0.0738
    1PC     O32 4322   3.835  -0.246   7.242  0.4697 -0.1233 -0.6962
    1PC     C31 4323   3.793  -0.383   7.251 -1.0888 -0.0240  0.5427
    1PC     H1A 4324   3.826  -0.439   7.163 -1.4758  0.9097 -0.2016
    1PC     H1B 4325   3.839  -0.436   7.335 -1.7878 -1.1724  0.2073
    1PC     C32 4326   3.639  -0.374   7.267  0.1939  0.0245  0.1634
    1PC     H2A 4327   3.596  -0.473   7.252  0.5427  0.1679 -1.9195
    1PC     H2B 4328   3.614  -0.334   7.365 -0.5274  1.3708 -0.5537
    1PC     N31 4329   3.565  -0.296   7.163  0.0128  0.6164  0.0682
    1PC     C33 4330   3.590  -0.147   7.179  0.4014  0.2597 -0.3887
    1PC     H3A 4331   3.564  -0.130   7.284  0.4567  0.6775 -0.4421
    1PC     H3B 4332   3.693  -0.116   7.158  0.4183  0.1567 -0.4550
    1PC     H3C 4333   3.525  -0.085   7.117  0.8597 -1.5480 -2.7379
    1PC     C34 4334   3.603  -0.328   7.019 -0.3158 -0.8443 -0.2100
    1PC     H4A 4335   3.706  -0.297   7.007 -1.1364  1.4442 -1.6257
    1PC     H4B 4336   3.576  -0.433   7.004 -0.5872 -0.8537  0.3158
    1PC     H4C 4337   3.548  -0.266   6.949  2.1696  1.8939  0.1933
    1PC     C35 4338   3.421  -0.323   7.176  0.6503 -0.1367  0.3991
    1PC     H5A 4339   3.403  -0.306   7.282 -1.9067  1.2983 -0.2478
    1PC     H5B 4340   3.406  -0.429   7.152 -1.5340  0.2909 -0.2028
    1PC     H5C 4341   3.360  -0.264   7.108  0.0147  0.3438  1.3697
    1PC     O33 4342   4.069  -0.325   7.195 -0.0513  0.9322  0.5594
    1PC     O34 4343   4.019  -0.087   7.272 -0.0178 -0.4688  0.1917
    1PC     O21 4344   3.822  -0.109   6.857  0.2332  0.3230 -0.4272
    1PC     C21 4345   3.851   0.021   6.863  0.4313 -0.5744 -0.3671
    1PC     O22 4346   3.956   0.079   6.837 -0.1327 -0.0088  0.2376
    1OL     C12 4347   3.729   0.089   6.908 -0.5651 -0.3022  0.2413
    1OL     H2R 4348   3.746   0.159   6.991  1.5765  1.1880 -1.3882
    1OL     H2S 4349   3.658   0.013   6.941 -1.7896  1.0453  0.7312
    1OL     C13 4350   3.669   0.178   6.789 -0.3885 -0.1677 -0.2192
    1OL     H3R 4351   3.665   0.120   6.697 -0.1030  0.9965 -0.9668
    1OL     H3S 4352   3.737   0.261   6.769  2.2877 -2.0973  0.4883
    1OL     C14 4353   3.524   0.227   6.816  0.3379  0.2019  0.1975
    1OL     H4R 4354   3.536   0.307   6.890 -0.4480 -0.9309  1.5770
    1OL     H4S 4355   3.461   0.151   6.863 -0.3720 -1.4113 -3.2346
    1OL     C15 4356   3.450   0.293   6.691 -0.1456  0.5218 -0.2956
    1OL     H5R 4357   3.511   0.377   6.658  1.0137  0.6899  2.1197
    1OL     H5S 4358   3.364   0.339   6.741  0.9609  1.9560  0.3260
    1OL     C16 4359   3.410   0.198   6.575  0.0255 -0.5949  0.4522
    1OL     H6R 4360   3.495   0.161   6.518  0.2169  0.2807  0.1795
    1OL     H6S 4361   3.350   0.259   6.507  1.6525  1.2144  0.6141
    1OL     C17 4362   3.317   0.077   6.614 -0.5413  0.6552  0.1912
    1OL     H7R 4363   3.226   0.113   6.663 -1.4951 -2.0962  0.5421
    1OL     H7S 4364   3.385   0.017   6.675  2.0039  0.8132 -2.4024
    1OL     C18 4365   3.280  -0.004   6.485 -0.0425 -0.0221 -0.3513
    1OL     H8R 4366   3.227   0.063   6.417  0.9681  0.4608 -0.6737
    1OL     H8S 4367   3.209  -0.085   6.502 -1.5518  0.9839 -1.6852
    1OL     C19 4368   3.397  -0.079   6.405 -0.2400  0.0498 -0.3036
    1OL     H9R 4369   3.457  -0.153   6.455 -0.6490 -1.1123 -1.4810
    1OL    C110 4370   3.422  -0.070   6.276  0.7031 -0.2484 -0.4703
    1OL    H10R 4371   3.496  -0.140   6.238 -0.6418 -2.1792  0.3638
    1OL    C111 4372   3.352   0.021   6.178  0.1013 -0.1937  0.4076
    1OL    H11R 4373   3.431   0.053   6.109 -1.0909  1.2430 -0.3425
    1OL    H11S 4374   3.291   0.104   6.217 -1.2104 -0.3856 -1.1589
    1OL    C112 4375   3.260  -0.075   6.093 -0.3445  0.3046 -0.9438
    1OL    H12R 4376   3.192  -0.123   6.164 -0.4659 -1.0831 -1.9904
    1OL    H12S 4377   3.320  -0.161   6.062 -2.1406 -0.3524 -2.6762
    1OL    C113 4378   3.197   0.002   5.975  0.6620  0.9716 -0.3651
    1OL    H13R 4379   3.261   0.087   5.949  0.5334  1.1628 -0.0526
    1OL    H13S 4380   3.098   0.028   6.012 -0.8071 -1.4921 -2.3931
    1OL    C114 4381   3.149  -0.081   5.852  0.0511 -0.2572 -0.2014
    1OL    H14R 4382   3.101  -0.006   5.788 -0.1855 -0.3461 -0.1278
    1OL    H14S 4383   3.074  -0.151   5.889  0.0301  1.7053  3.7111
    1OL    C115 4384   3.261  -0.144   5.764 -0.0633 -0.1029  0.2787
    1OL    H15R 4385   3.325  -0.188   5.841  0.2541  0.3119  0.2547
    1OL    H15S 4386   3.327  -0.068   5.722 -0.1985 -0.3898 -0.4786
    1OL    C116 4387   3.210  -0.255   5.675 -0.2380 -0.3726 -0.4365
    1OL    H16R 4388   3.137  -0.221   5.601 -1.4897 -2.8489 -0.4042
    1OL    H16S 4389   3.156  -0.323   5.741 -0.1992  1.0809  1.1271
    1OL    C117 4390   3.328  -0.313   5.598  0.1398  0.2725  0.0809
    1OL    H17R 4391   3.402  -0.362   5.661 -1.1389 -0.9138  0.7028
    1OL    H17S 4392   3.379  -0.243   5.532  0.5363  1.4664  1.6194
    1OL    C118 4393   3.269  -0.431   5.504 -0.3874 -0.1342  0.7039
    1OL    H18R 4394   3.348  -0.479   5.446  0.7293  0.7425  1.4940
    1OL    H18S 4395   3.194  -0.396   5.433 -0.0957  1.5525  1.2205
    1OL    H18T 4396   3.236  -0.511   5.571  0.4490  0.0200  1.3021
    1PA    C116 4397   1.894   4.655   5.894  0.0464  0.0430  0.2276
    1PA    H16R 4398   1.806   4.635   5.956  0.0869  0.9389  0.5816
    1PA    H16S 4399   1.977   4.589   5.921 -0.9059 -1.5028 -0.5367
    1PA    H16T 4400   1.864   4.620   5.795 -1.0845  0.6083  0.3604
    1PA    C115 4401   1.944   4.804   5.898  0.0251 -0.4282  0.1348
    1PA    H15R 4402   2.029   4.830   5.836  0.2725 -0.1295  0.5914
    1PA    H15S 4403   1.863   4.870   5.866 -1.1404 -0.9987  1.7926
    1PA    C114 4404   1.974   4.827   6.049  0.0096  0.2621  0.9569
    1PA    H14R 4405   1.879   4.807   6.098 -0.0199  2.0549  1.6671
    1PA    H14S 4406   2.044   4.750   6.082 -0.6586 -1.2403 -1.0254
    1PA    C113 4407   2.012   4.972   6.080 -0.1307  0.6571  0.3774
    1PA    H13R 4408   2.103   4.972   6.020 -1.0080 -0.2794 -0.9894
    1PA    H13S 4409   1.949   5.046   6.029  3.4099  2.5013 -1.4983
    1PA    C112 4410   2.040   5.001   6.225 -0.3276  0.2696 -0.3394
    1PA    H12R 4411   1.951   4.997   6.288 -0.3619  1.7372 -0.2831
    1PA    H12S 4412   2.117   4.935   6.266  0.5466  0.8686 -0.9866
    1PA    C111 4413   2.071   5.154   6.246 -0.6809 -0.5719 -0.1866
    1PA    H11R 4414   2.115   5.188   6.152 -0.3147  1.5093  0.7003
    1PA    H11S 4415   1.979   5.211   6.259 -1.2031 -1.5735  0.5666
    1PA    C110 4416   2.181   5.183   6.357 -0.5179  0.2286 -0.0566
    1PA    H10R 4417   2.257   5.106   6.345 -1.2124 -0.4409 -0.2274
    1PA    H10S 4418   2.231   5.278   6.338 -0.0036  0.2946  1.5203
    1PA     C19 4419   2.115   5.187   6.497  0.2330  0.8283 -0.3175
    1PA     H9R 4420   2.186   5.234   6.566  2.1315 -0.9210 -1.0599
    1PA     H9S 4421   2.029   5.254   6.489 -1.1915 -0.9439 -0.0732
    1PA     C18 4422   2.082   5.045   6.555  0.0600 -0.7338 -0.1322
    1PA     H8R 4423   2.045   4.971   6.484  0.7852 -0.0046 -1.2681
    1PA     H8S 4424   2.175   5.000   6.592  0.1320 -0.0715  0.5081
    1PA     C17 4425   1.982   5.051   6.677 -0.1157 -0.2376  0.4732
    1PA     H7R 4426   2.019   5.123   6.751  0.9716  2.5430 -2.6401
    1PA     H7S 4427   1.886   5.093   6.646  0.4134  1.2675  0.8033
    1PA     C16 4428   1.951   4.919   6.744  0.2607  0.6481 -0.4348
    1PA     H6R 4429   2.043   4.891   6.795 -1.2055 -0.6494  1.5898
    1PA     H6S 4430   1.873   4.931   6.820  1.4767  0.2941  0.8976
    1PA     C15 4431   1.887   4.815   6.652  0.8327 -0.0385 -0.1988
    1PA     H5R 4432   1.790   4.850   6.617  0.1359 -1.3489  0.3599
    1PA     H5S 4433   1.943   4.810   6.558  1.4610  0.9286  0.1196
    1PA     C14 4434   1.877   4.665   6.696  0.0341 -0.0164  0.4678
    1PA     H4R 4435   1.975   4.645   6.739 -0.3155  0.4903  1.5073
    1PA     H4S 4436   1.808   4.663   6.781  1.7375 -0.8760  1.8648
    1PA     C13 4437   1.839   4.551   6.603  0.1753  0.2665 -0.2001
    1PA     H3R 4438   1.741   4.568   6.558  0.2116 -0.9239 -0.7463
    1PA     H3S 4439   1.907   4.541   6.518  1.1035 -3.2080  0.8724
    1PA     C12 4440   1.829   4.418   6.676 -0.0249  0.5701 -1.5419
    1PA     H2R 4441   1.762   4.424   6.763  1.3858  2.0972 -0.5170
    1PA     H2S 4442   1.784   4.346   6.608 -0.3445  0.0115 -0.7455
    1PC     C11 4443   1.960   4.367   6.736  0.5231 -1.4148  0.4291
    1PC     O12 4444   2.039   4.295   6.671  0.5230 -0.5526  0.5071
    1PC     O11 4445   1.992   4.421   6.856 -0.0093 -0.8744  0.6400
    1PC      C1 4446   2.116   4.381   6.925 -0.3246 -0.0137  1.0108
    1PC      HR 4447   2.107   4.363   7.033 -0.7045  0.7510  1.1079
    1PC      HS 4448   2.152   4.288   6.881 -2.1649 -0.2052 -0.1505
    1PC      C2 4449   2.213   4.498   6.928 -0.2270  0.2271  0.8111
    1PC      HX 4450   2.305   4.475   6.984 -0.6731 -0.7840  1.1398
    1PC      C3 4451   2.146   4.617   6.997  0.3881  0.5323 -0.3615
    1PC      HA 4452   2.172   4.710   6.946 -2.3920  1.2749 -0.5583
    1PC      HB 4453   2.037   4.614   6.981  0.2781  1.3544  0.1855
    1PC     O31 4454   2.185   4.631   7.132 -0.7612 -0.2261  0.0968
    1PC     P31 4455   2.076   4.584   7.252  0.0479 -0.1223  0.1724
    1PC     O32 4456   1.975   4.708   7.271 -0.4219 -0.2052 -0.2778
    1PC     C31 4457   2.025   4.825   7.349  0.0028  0.0841  0.0627
    1PC     H1A 4458   2.035   4.795   7.454  1.5411  1.2889  0.2840
    1PC     H1B 4459   2.115   4.864   7.301  0.9971 -0.9811  1.0203
    1PC     C32 4460   1.910   4.932   7.337 -0.2158 -0.1161  0.8104
    1PC     H2A 4461   1.820   4.883   7.373 -1.1803 -0.3488 -1.8076
    1PC     H2B 4462   1.923   5.018   7.403  0.5890  0.3091  0.1150
    1PC     N31 4463   1.879   4.997   7.202 -0.2549 -0.0608 -0.1232
    1PC     C33 4464   1.801   4.896   7.122  0.0244 -0.2030  0.3178
    1PC     H3A 4465   1.764   4.932   7.027 -2.4406 -0.5874  1.1100
    1PC     H3B 4466   1.864   4.809   7.098 -2.4754 -1.8164 -0.5905
    1PC     H3C 4467   1.715   4.855   7.175 -0.7250 -0.6906 -1.2452
    1PC     C34 4468   1.810   5.120   7.227 -0.8349  1.4014  0.4516
    1PC     H4A 4469   1.886   5.192   7.255  1.7352 -1.6787  1.7237
    1PC     H4B 4470   1.767   5.156   7.133  1.6643 -1.3736 -1.8730
    1PC     H4C 4471   1.736   5.109   7.306  0.8857 -1.0878  1.7950
    1PC     C35 4472   2.002   5.032   7.128 -0.1836  0.4955  0.2132
    1PC     H5A 4473   2.070   5.093   7.187 -1.3952  3.0116 -0.8931
    1PC     H5B 4474   1.966   5.072   7.033  1.1178 -2.1928 -1.4820
    1PC     H5C 4475   2.055   4.937   7.117 -0.7077  0.1061  0.9452
    1PC     O33 4476   1.994   4.472   7.212  0.4394 -0.1642  0.4292
    1PC     O34 4477   2.160   4.566   7.369 -0.6887 -0.3132  0.3006
    1PC     O21 4478   2.246   4.543   6.796  0.2485 -0.1137 -0.3763
    1PC     C21 4479   2.330   4.466   6.722 -0.8367  0.4927 -0.3531
    1PC     O22 4480   2.390   4.371   6.764  0.2425  0.4869  0.3212
    1OL     C12 4481   2.363   4.517   6.581  0.0603  0.4108  0.0460
    1OL     H2R 4482   2.269   4.518   6.526  0.5177 -0.2094 -0.7558
    1OL     H2S 4483   2.431   4.447   6.532 -0.3460 -0.0334  0.1106
    1OL     C13 4484   2.415   4.662   6.584 -0.3969 -0.2885 -0.4168
    1OL     H3R 4485   2.504   4.662   6.647 -1.3852  1.4891  1.0224
    1OL     H3S 4486   2.338   4.723   6.632  1.6030  1.3827  0.7669
    1OL     C14 4487   2.454   4.723   6.443  0.0775 -0.1788 -0.2110
    1OL     H4R 4488   2.359   4.716   6.389  1.6810 -4.3309 -2.6943
    1OL     H4S 4489   2.526   4.654   6.399 -1.4848 -1.1622 -1.2540
    1OL     C15 4490   2.503   4.864   6.448  0.3756 -0.3149  0.5476
    1OL     H5R 4491   2.417   4.926   6.475  0.1132  0.3298 -1.7214
    1OL     H5S 4492   2.539   4.889   6.348 -0.5968  1.4758  0.6415
    1OL     C16 4493   2.628   4.895   6.536 -0.6990  0.2155  0.1057
    1OL     H6R 4494   2.718   4.857   6.486 -0.3460  0.7497  0.3260
    1OL     H6S 4495   2.608   4.840   6.629  2.0746 -1.4440 -0.2307
    1OL     C17 4496   2.646   5.043   6.560 -0.2671 -0.1141 -0.0438
    1OL     H7R 4497   2.703   5.067   6.650 -2.1824  2.0699  0.6537
    1OL     H7S 4498   2.549   5.084   6.589 -0.4539  0.7796 -1.8492
    1OL     C18 4499   2.689   5.122   6.435 -0.3938  0.0620  0.3605
    1OL     H8R 4500   2.617   5.118   6.354 -0.3683 -0.1318  0.3475
    1OL     H8S 4501   2.779   5.073   6.396 -1.7460 -2.4452  0.2323
    1OL     C19 4502   2.721   5.259   6.483 -0.7891  0.6815 -0.3901
    1OL     H9R 4503   2.735   5.278   6.589  1.0597  2.0853 -0.8564
    1OL    C110 4504   2.722   5.364   6.403 -0.2825 -0.2019 -0.3254
    1OL    H10R 4505   2.749   5.462   6.441 -2.4536 -0.1027  1.0358
    1OL    C111 4506   2.691   5.375   6.258  0.2591  0.3740 -0.2608
    1OL    H11R 4507   2.684   5.282   6.202  0.0272  1.1776 -1.5856
    1OL    H11S 4508   2.766   5.441   6.212 -1.2971  0.6897 -2.4038
    1OL    C112 4509   2.554   5.443   6.251  0.0015  0.2172  0.2373
    1OL    H12R 4510   2.549   5.538   6.305  1.1927  1.4710 -1.7905
    1OL    H12S 4511   2.479   5.387   6.306  0.9133 -0.3257  0.9447
    1OL    C113 4512   2.510   5.470   6.103  0.0536 -0.1874 -0.2639
    1OL    H13R 4513   2.538   5.385   6.041  0.3002  0.8362 -1.5918
    1OL    H13S 4514   2.569   5.550   6.057 -2.9885  1.6256 -1.1703
    1OL    C114 4515   2.363   5.521   6.094  0.8836  0.2820 -0.3608
    1OL    H14R 4516   2.362   5.613   6.153 -0.4645  0.1012 -0.0975
    1OL    H14S 4517   2.290   5.451   6.133  1.4677 -0.2073 -0.1376
    1OL    C115 4518   2.326   5.559   5.946  0.5160  0.0771  0.1410
    1OL    H15R 4519   2.217   5.568   5.944  0.6609  2.0401 -0.1857
    1OL    H15S 4520   2.345   5.474   5.880  2.0665  2.6712 -2.8673
    1OL    C116 4521   2.388   5.686   5.886 -0.3761  0.3113  0.9470
    1OL    H16R 4522   2.496   5.676   5.876 -0.3975  2.7983 -2.9982
    1OL    H16S 4523   2.377   5.773   5.951  1.6807 -0.5639  2.5143
    1OL    C117 4524   2.342   5.722   5.742 -0.8439 -0.1775 -0.3069
    1OL    H17R 4525   2.406   5.801   5.702 -0.4427 -1.1359 -1.6067
    1OL    H17S 4526   2.241   5.763   5.733 -0.7206  0.3743  0.7616
    1OL    C118 4527   2.358   5.595   5.655  0.3735 -0.2685  0.1613
    1OL    H18R 4528   2.431   5.526   5.698  0.7572  0.4243  0.6422
    1OL    H18S 4529   2.388   5.622   5.553 -1.0767 -0.9515 -0.4581
    1OL    H18T 4530   2.261   5.546   5.649 -0.1020  0.5481  1.1249
    1PA    C116 4531   5.467   4.712   5.897 -0.9086  0.4747 -0.0483
    1PA    H16R 4532   5.454   4.708   6.005  1.8943  0.4045  0.3303
    1PA    H16S 4533   5.372   4.693   5.848 -1.3094 -0.8278  1.1803
    1PA    H16T 4534   5.498   4.816   5.885 -0.7700  0.7514  2.3932
    1PA    C115 4535   5.578   4.619   5.849 -0.5379  0.1648  0.0381
    1PA    H15R 4536   5.669   4.659   5.896  0.2347 -0.2997 -1.0279
    1PA    H15S 4537   5.548   4.519   5.881  2.7706 -0.1553  2.3974
    1PA    C114 4538   5.585   4.626   5.696 -0.2993 -0.4125 -0.6794
    1PA    H14R 4539   5.489   4.609   5.645 -0.5129 -2.1023  0.2622
    1PA    H14S 4540   5.620   4.728   5.681 -1.2492  0.3478  1.9609
    1PA    C113 4541   5.683   4.532   5.641  0.0243  1.2877  0.2079
    1PA    H13R 4542   5.711   4.570   5.542 -2.0967  0.9033 -0.5572
    1PA    H13S 4543   5.778   4.538   5.695 -0.9322  0.3786  2.0104
    1PA    C112 4544   5.643   4.380   5.613  0.8116 -0.4162  0.2401
    1PA    H12R 4545   5.599   4.331   5.700 -0.5378  1.2737  0.5438
    1PA    H12S 4546   5.567   4.379   5.534 -0.4883 -0.4015  1.4701
    1PA    C111 4547   5.760   4.292   5.573 -0.1694  1.0112 -0.5054
    1PA    H11R 4548   5.720   4.197   5.538 -0.8354  1.0299  0.2118
    1PA    H11S 4549   5.821   4.341   5.495 -0.0373 -0.4507 -1.3356
    1PA    C110 4550   5.840   4.249   5.690 -0.3979 -0.2246  0.8750
    1PA    H10R 4551   5.894   4.333   5.733 -0.0980  0.4473 -0.7628
    1PA    H10S 4552   5.766   4.209   5.759 -0.8423 -2.6135 -0.9058
    1PA     C19 4553   5.955   4.148   5.648  0.6714  0.6311 -0.8303
    1PA     H9R 4554   5.921   4.062   5.589  2.1184 -0.8409  0.4380
    1PA     H9S 4555   6.021   4.206   5.584  0.6691  1.2296 -0.2929
    1PA     C18 4556   6.034   4.090   5.768  0.9993 -0.2730  0.2388
    1PA     H8R 4557   6.123   4.039   5.730  0.6557  0.0295 -1.0023
    1PA     H8S 4558   6.070   4.181   5.818 -0.0703  0.5038 -0.3777
    1PA     C17 4559   5.951   4.002   5.867 -0.4993 -0.6829  0.6560
    1PA     H7R 4560   5.848   4.037   5.872  0.1618  1.9098 -2.4080
    1PA     H7S 4561   5.943   3.897   5.836 -3.5244 -0.1283 -0.6135
    1PA     C16 4562   6.016   4.003   6.011  0.6951  0.7836  0.2324
    1PA     H6R 4563   6.116   3.960   6.000 -0.4855 -1.5535 -1.6254
    1PA     H6S 4564   6.014   4.108   6.042 -0.7155  0.7878  0.1539
    1PA     C15 4565   5.935   3.928   6.122  0.0345  0.2452  0.6506
    1PA     H5R 4566   5.837   3.975   6.128  1.3149  2.8739  2.0789
    1PA     H5S 4567   5.914   3.831   6.077  0.9152  1.1076 -1.6944
    1PA     C14 4568   5.993   3.926   6.264 -0.6018  0.3224  0.4753
    1PA     H4R 4569   6.070   3.848   6.260 -1.2595 -0.3407  0.6118
    1PA     H4S 4570   6.034   4.024   6.288 -0.4576  0.0099  1.5385
    1PA     C13 4571   5.882   3.883   6.359 -0.6005 -0.5313 -0.2256
    1PA     H3R 4572   5.817   3.811   6.310 -1.5159 -0.4513  0.8623
    1PA     H3S 4573   5.928   3.858   6.455 -0.6677 -1.2152 -0.3694
    1PA     C12 4574   5.787   4.002   6.393  0.2891 -0.0572  0.5478
    1PA     H2R 4575   5.758   4.051   6.299  2.8931  1.5322  0.5128
    1PA     H2S 4576   5.698   3.958   6.439  1.4255 -1.5030  1.3605
    1PC     C11 4577   5.854   4.107   6.485 -0.3127  0.8598  0.3975
    1PC     O12 4578   5.908   4.207   6.443  0.0001 -0.9110 -0.0157
    1PC     O11 4579   5.829   4.077   6.612  0.4293 -0.1545  0.4064
    1PC      C1 4580   5.887   4.163   6.714 -0.6593 -0.6983  0.0496
    1PC      HR 4581   5.915   4.093   6.794  1.7991  1.2245  0.9368
    1PC      HS 4582   5.982   4.208   6.684 -1.2780  0.7314  0.1985
    1PC      C2 4583   5.783   4.268   6.762  0.2029  0.2012  0.0384
    1PC      HX 4584   5.765   4.343   6.683  0.7738 -0.3422 -0.6075
    1PC      C3 4585   5.831   4.348   6.890 -0.2774 -0.0161 -0.6095
    1PC      HA 4586   5.906   4.424   6.868  0.9509 -0.6567  1.2728
    1PC      HB 4587   5.745   4.396   6.936  0.3734 -0.7466  1.4081
    1PC     O31 4588   5.893   4.260   6.993 -0.0674  0.5732 -0.3333
    1PC     P31 4589   5.823   4.217   7.126 -0.0100 -0.3520 -0.1294
    1PC     O32 4590   5.738   4.095   7.088 -0.5224 -0.4114  0.6565
    1PC     C31 4591   5.791   3.965   7.075  0.3694 -0.1490 -0.2122
    1PC     H1A 4592   5.835   3.952   6.976  0.8786  3.5080 -0.5045
    1PC     H1B 4593   5.859   3.945   7.158  0.3882  0.1741 -0.1524
    1PC     C32 4594   5.678   3.861   7.083  0.5891  0.2088 -0.3737
    1PC     H2A 4595   5.615   3.866   6.995  0.0705  0.6553  0.0202
    1PC     H2B 4596   5.731   3.766   7.087 -0.3282 -0.3147 -0.5543
    1PC     N31 4597   5.586   3.868   7.210 -0.2880 -0.8533  0.3132
    1PC     C33 4598   5.485   3.971   7.181  0.4752  0.1940 -0.8831
    1PC     H3A 4599   5.532   4.065   7.154  1.5443 -0.9741 -3.1537
    1PC     H3B 4600   5.443   3.935   7.087  0.0772  0.6358 -0.8734
    1PC     H3C 4601   5.423   3.985   7.270  2.0903  0.2057  0.2549
    1PC     C34 4602   5.510   3.735   7.223  0.1222 -0.1406  0.0114
    1PC     H4A 4603   5.443   3.709   7.141 -1.1336 -0.7505  1.2263
    1PC     H4B 4604   5.590   3.663   7.241  0.5774  0.7896  1.7866
    1PC     H4C 4605   5.442   3.732   7.307  0.5078 -1.6915  0.2760
    1PC     C35 4606   5.656   3.900   7.337  0.0053 -0.1862  0.5487
    1PC     H5A 4607   5.688   4.005   7.334 -2.9749  1.0396  5.4714
    1PC     H5B 4608   5.741   3.833   7.350  2.0579  2.4033  0.8643
    1PC     H5C 4609   5.584   3.886   7.417  0.3724 -1.2639  0.6922
    1PC     O33 4610   5.931   4.186   7.219  0.0443  0.8734  0.0554
    1PC     O34 4611   5.731   4.328   7.167  0.2916  0.4556  0.0589
    1PC     O21 4612   5.662   4.199   6.789 -0.2481 -0.2494 -0.6598
    1PC     C21 4613   5.545   4.273   6.810 -0.3771 -0.5966 -0.0928
    1PC     O22 4614   5.538   4.395   6.803  0.1662 -0.0434 -0.1484
    1OL     C12 4615   5.425   4.186   6.839  0.0000  0.4036 -0.7128
    1OL     H2R 4616   5.417   4.183   6.948  2.1961  0.2967 -0.5169
    1OL     H2S 4617   5.444   4.083   6.807 -3.2167 -0.9964  1.5966
    1OL     C13 4618   5.284   4.237   6.789 -0.6545 -1.0903  0.6312
    1OL     H3R 4619   5.287   4.346   6.795  3.4014 -1.1234  0.7528
    1OL     H3S 4620   5.202   4.194   6.846 -1.4467 -0.3079  0.0936
    1OL     C14 4621   5.253   4.204   6.642 -0.5853  0.3557 -0.3389
    1OL     H4R 4622   5.162   4.255   6.611 -1.9811 -1.7022  0.2516
    1OL     H4S 4623   5.236   4.097   6.629  0.6286  0.1999 -0.7029
    1OL     C15 4624   5.366   4.236   6.545 -0.6184 -0.5149  0.0377
    1OL     H5R 4625   5.459   4.188   6.577 -0.9654 -1.2621 -0.0448
    1OL     H5S 4626   5.378   4.344   6.535 -1.4765 -0.4289 -0.1395
    1OL     C16 4627   5.315   4.192   6.407  0.4535 -0.3422  0.4588
    1OL     H6R 4628   5.224   4.248   6.384  0.7657  0.1152  0.3410
    1OL     H6S 4629   5.288   4.087   6.414 -1.2443  0.0600  0.0772
    1OL     C17 4630   5.423   4.205   6.299 -0.1315  0.0996 -0.3183
    1OL     H7R 4631   5.517   4.170   6.344 -0.1598  0.1255 -0.2405
    1OL     H7S 4632   5.444   4.311   6.285 -1.3712  0.1844 -1.5794
    1OL     C18 4633   5.391   4.138   6.168  0.2398  0.8176 -0.5704
    1OL     H8R 4634   5.285   4.148   6.146 -0.2043  1.0171  1.5422
    1OL     H8S 4635   5.408   4.031   6.187 -0.1106  0.7057 -0.8860
    1OL     C19 4636   5.487   4.180   6.056  0.4422 -0.2033 -0.0122
    1OL     H9R 4637   5.585   4.143   6.084 -0.0710 -1.4487  0.1497
    1OL    C110 4638   5.456   4.249   5.945 -0.5567  0.4444 -0.0052
    1OL    H10R 4639   5.538   4.258   5.874 -0.9264 -1.7561 -0.7577
    1OL    C111 4640   5.317   4.299   5.909 -0.5313  0.3132 -0.3621
    1OL    H11R 4641   5.313   4.407   5.926 -2.5006 -0.0243  1.5686
    1OL    H11S 4642   5.245   4.267   5.985  1.0694  1.6527  1.7949
    1OL    C112 4643   5.285   4.252   5.762 -0.0191  0.4271 -0.1695
    1OL    H12R 4644   5.358   4.276   5.684 -0.9005  2.5598 -0.3583
    1OL    H12S 4645   5.188   4.292   5.732 -0.8957 -2.5738 -1.5548
    1OL    C113 4646   5.269   4.106   5.747 -0.1484 -0.0185  0.1425
    1OL    H13R 4647   5.192   4.076   5.819 -1.7432  2.1301 -0.6280
    1OL    H13S 4648   5.353   4.044   5.777  1.3855  2.2151  0.5503
    1OL    C114 4649   5.216   4.057   5.607  0.0312 -0.2452  0.9324
    1OL    H14R 4650   5.113   4.089   5.594  0.6532  1.0771 -0.8895
    1OL    H14S 4651   5.227   3.948   5.603  4.2354  0.1051  0.1766
    1OL    C115 4652   5.305   4.109   5.484 -0.6203 -0.4020 -0.6808
    1OL    H15R 4653   5.408   4.072   5.487 -0.6860 -0.5112  0.7953
    1OL    H15S 4654   5.316   4.217   5.495  0.7684 -0.6412  0.4706
    1OL    C116 4655   5.238   4.083   5.347 -0.2941 -0.4267 -0.3720
    1OL    H16R 4656   5.250   4.175   5.289  0.7872  0.2704  0.9161
    1OL    H16S 4657   5.136   4.060   5.378 -0.2951 -0.9634 -0.7690
    1OL    C117 4658   5.311   3.972   5.268 -0.3264  0.4256 -0.0186
    1OL    H17R 4659   5.419   3.981   5.283  0.0901 -1.4494 -1.6347
    1OL    H17S 4660   5.291   3.975   5.160  2.0783 -0.8441 -0.5320
    1OL    C118 4661   5.264   3.835   5.322  0.1225 -0.1110  0.1912
    1OL    H18R 4662   5.301   3.802   5.419 -0.6831 -0.7858  0.2687
    1OL    H18S 4663   5.301   3.767   5.245 -1.8825 -0.4392 -0.5144
    1OL    H18T 4664   5.156   3.818   5.322 -0.2842  2.3539  0.3956
    1PA    C116 4665   1.480   1.879   5.119 -0.3504 -0.5458  0.0830
    1PA    H16R 4666   1.518   1.981   5.126 -0.4148 -0.5638  0.6618
    1PA    H16S 4667   1.480   1.848   5.014  1.1947  1.1088 -0.4262
    1PA    H16T 4668   1.551   1.815   5.173 -0.6107 -0.1780  0.8661
    1PA    C115 4669   1.341   1.855   5.171 -0.2028  0.6088 -1.2973
    1PA    H15R 4670   1.337   1.892   5.274  1.0562  0.5889 -1.2241
    1PA    H15S 4671   1.272   1.925   5.125  0.5601  1.0380 -1.8081
    1PA    C114 4672   1.301   1.714   5.155 -0.2658 -0.1690 -0.0291
    1PA    H14R 4673   1.308   1.687   5.050 -2.1043  1.7915 -0.6965
    1PA    H14S 4674   1.379   1.652   5.200  0.4429  1.7615  1.4864
    1PA    C113 4675   1.163   1.677   5.205  0.2654 -0.2072  0.7547
    1PA    H13R 4676   1.153   1.720   5.304 -0.2608 -1.6980  1.3682
    1PA    H13S 4677   1.086   1.722   5.141  2.5531 -0.0565 -1.9685
    1PA    C112 4678   1.141   1.520   5.215  0.0919  0.3659  0.9099
    1PA    H12R 4679   1.151   1.477   5.115 -0.7775  2.3114 -0.0563
    1PA    H12S 4680   1.211   1.474   5.286 -1.0083  0.6489  2.2025
    1PA    C111 4681   0.999   1.480   5.263 -0.3387 -0.3123 -0.7821
    1PA    H11R 4682   0.921   1.528   5.203  0.0003  1.5158  0.2042
    1PA    H11S 4683   0.995   1.371   5.270 -0.7926 -0.3438 -1.4726
    1PA    C110 4684   0.970   1.531   5.407  0.5158 -0.0618  0.2171
    1PA    H10R 4685   0.966   1.640   5.411 -2.1798 -0.1170 -0.2854
    1PA    H10S 4686   0.874   1.491   5.439 -0.1650 -0.2745 -1.9702
    1PA     C19 4687   1.074   1.479   5.505  0.3998  0.0199 -0.0970
    1PA     H9R 4688   1.094   1.372   5.492 -1.9905 -0.7151  1.7271
    1PA     H9S 4689   1.168   1.531   5.487 -0.5544  0.7617 -3.2242
    1PA     C18 4690   1.022   1.509   5.652 -0.3737 -0.6630  0.0318
    1PA     H8R 4691   0.918   1.478   5.658 -1.2437  1.8452 -1.3292
    1PA     H8S 4692   1.087   1.446   5.714  0.0344  1.3866  1.7495
    1PA     C17 4693   1.031   1.657   5.695 -0.0651 -1.1948  0.0254
    1PA     H7R 4694   1.129   1.702   5.683 -0.7452  0.2656 -0.2436
    1PA     H7S 4695   0.965   1.708   5.624  2.1076  0.1153 -1.0842
    1PA     C16 4696   0.994   1.674   5.839  0.2418 -0.6983 -0.2262
    1PA     H6R 4697   0.984   1.780   5.863 -0.6600 -0.4052 -1.8030
    1PA     H6S 4698   0.898   1.622   5.843 -0.1028 -0.1428 -1.3464
    1PA     C15 4699   1.089   1.615   5.948  0.6514  0.3011  0.4079
    1PA     H5R 4700   1.045   1.520   5.976 -1.6135  0.4931 -2.3533
    1PA     H5S 4701   1.191   1.611   5.907  0.0947 -1.8364 -0.8553
    1PA     C14 4702   1.072   1.703   6.081 -0.4243  0.1440  0.5057
    1PA     H4R 4703   1.121   1.799   6.061 -1.8987  0.8813  0.3378
    1PA     H4S 4704   0.968   1.733   6.096 -0.3459  1.4448 -1.2652
    1PA     C13 4705   1.136   1.654   6.202  0.6252  0.1262  0.4198
    1PA     H3R 4706   1.243   1.649   6.181  0.5045 -0.4524 -0.0969
    1PA     H3S 4707   1.110   1.715   6.289  0.7323  1.9659 -0.8135
    1PA     C12 4708   1.091   1.513   6.243 -0.3220  0.0135 -0.0152
    1PA     H2R 4709   0.982   1.524   6.249 -0.4007 -1.1067  0.8210
    1PA     H2S 4710   1.114   1.438   6.167 -1.9150  2.0253 -2.5538
    1PC     C11 4711   1.147   1.470   6.380  0.4591  0.3885 -0.3070
    1PC     O12 4712   1.260   1.441   6.388 -0.1466 -0.2056 -0.0487
    1PC     O11 4713   1.057   1.461   6.482 -0.1468 -0.4892 -0.8874
    1PC      C1 4714   1.094   1.395   6.610  0.0107 -0.1913 -0.0588
    1PC      HR 4715   1.085   1.287   6.607  0.6065 -0.4409  3.8073
    1PC      HS 4716   1.201   1.404   6.633  0.0491 -1.6236  0.3274
    1PC      C2 4717   1.009   1.458   6.715  0.4277  0.1595  2.0129
    1PC      HX 4718   1.023   1.566   6.716  1.8350  0.0182 -0.2407
    1PC      C3 4719   1.036   1.403   6.858 -0.5657 -1.0946 -0.6975
    1PC      HA 4720   1.135   1.441   6.886  0.1438 -2.2208 -1.6113
    1PC      HB 4721   0.971   1.451   6.931  0.4806  0.2192 -0.6157
    1PC     O31 4722   1.036   1.258   6.849 -0.3968 -0.2474 -0.2634
    1PC     P31 4723   0.972   1.164   6.959 -0.0296 -0.0137  0.0390
    1PC     O32 4724   0.819   1.147   6.909  0.3495  0.1709  0.3318
    1PC     C31 4725   0.712   1.243   6.941 -0.3883  1.4364 -0.0979
    1PC     H1A 4726   0.752   1.344   6.927 -1.1122  1.8440  0.7515
    1PC     H1B 4727   0.639   1.221   6.862  1.2762 -0.5899 -1.1255
    1PC     C32 4728   0.651   1.231   7.084  0.2366 -0.4179 -0.2397
    1PC     H2A 4729   0.727   1.245   7.161 -2.4036  2.5486  1.9258
    1PC     H2B 4730   0.575   1.308   7.099 -0.2485 -0.9326  0.0111
    1PC     N31 4731   0.563   1.112   7.105  0.2474  0.3719 -0.8113
    1PC     C33 4732   0.645   0.989   7.130  0.0865  0.4156 -0.4616
    1PC     H3A 4733   0.698   1.003   7.224 -1.8128  2.2459  0.3611
    1PC     H3B 4734   0.586   0.897   7.126 -1.3562  1.3704 -2.3044
    1PC     H3C 4735   0.713   0.984   7.045  1.1182  0.6164  0.3487
    1PC     C34 4736   0.480   1.126   7.229 -0.6539 -0.8915  0.4333
    1PC     H4A 4737   0.445   1.029   7.264 -1.7428  0.4118  3.0349
    1PC     H4B 4738   0.535   1.174   7.310 -0.1812  0.3054 -0.5853
    1PC     H4C 4739   0.401   1.201   7.222 -0.5138 -0.7573  0.2702
    1PC     C35 4740   0.468   1.087   6.992  0.1675  0.5608  0.2234
    1PC     H5A 4741   0.402   1.006   7.024  1.8604 -0.9083  0.0514
    1PC     H5B 4742   0.525   1.058   6.904  0.1541 -0.8953  0.6859
    1PC     H5C 4743   0.408   1.177   6.979 -0.8045  0.1427  1.6733
    1PC     O33 4744   1.035   1.032   6.947  0.2687 -0.0328  0.0028
    1PC     O34 4745   0.981   1.238   7.089 -0.2288 -0.0634 -0.5660
    1PC     O21 4746   0.874   1.419   6.690 -0.1816  0.0720 -0.1390
    1PC     C21 4747   0.787   1.515   6.678  0.0307 -0.0914 -0.2245
    1PC     O22 4748   0.800   1.631   6.713  0.5862 -0.0924 -0.3995
    1OL     C12 4749   0.668   1.462   6.603 -0.0666 -0.2986  0.1496
    1OL     H2R 4750   0.584   1.523   6.639 -0.5231 -1.0875  0.4291
    1OL     H2S 4751   0.644   1.356   6.614  3.1991 -1.0959  0.0487
    1OL     C13 4752   0.676   1.511   6.454 -0.2104  0.7401  0.6312
    1OL     H3R 4753   0.780   1.499   6.423 -0.9878  1.7357 -2.5474
    1OL     H3S 4754   0.650   1.617   6.445  0.0385  0.7519  0.0266
    1OL     C14 4755   0.566   1.435   6.371 -0.1138 -0.1728  0.3108
    1OL     H4R 4756   0.470   1.452   6.420  0.0592 -0.2793  0.6944
    1OL     H4S 4757   0.579   1.327   6.372 -0.9035 -0.2951 -1.7932
    1OL     C15 4758   0.558   1.470   6.219  0.5929  0.1105  0.5636
    1OL     H5R 4759   0.558   1.578   6.205 -0.4847  0.0390 -0.1042
    1OL     H5S 4760   0.468   1.438   6.166  1.0016 -0.6671  0.3343
    1OL     C16 4761   0.685   1.408   6.136 -0.1860 -0.5289 -0.1833
    1OL     H6R 4762   0.686   1.299   6.130  1.6751 -0.5233 -0.5580
    1OL     H6S 4763   0.779   1.424   6.190 -0.1990 -2.3064  0.3871
    1OL     C17 4764   0.701   1.467   5.991  0.0484  0.5510 -0.2076
    1OL     H7R 4765   0.793   1.422   5.953  0.0980  1.1701 -0.8354
    1OL     H7S 4766   0.723   1.574   5.995  1.5555  0.2089  1.3055
    1OL     C18 4767   0.590   1.440   5.890  0.0003  0.0833 -0.3595
    1OL     H8R 4768   0.532   1.359   5.933 -1.9464  0.1126 -2.8723
    1OL     H8S 4769   0.628   1.404   5.794 -0.7717  0.0320 -0.6493
    1OL     C19 4770   0.497   1.558   5.884  0.0894 -0.3248  0.5822
    1OL     H9R 4771   0.437   1.568   5.974 -0.0361 -0.3027  0.4966
    1OL    C110 4772   0.474   1.654   5.790 -0.0780  0.3276  0.3015
    1OL    H10R 4773   0.402   1.733   5.804  1.4137  1.9105 -0.7853
    1OL    C111 4774   0.557   1.665   5.658  0.4788  0.4507 -0.3517
    1OL    H11R 4775   0.639   1.593   5.664  1.5432  1.4961 -2.2137
    1OL    H11S 4776   0.605   1.763   5.655  0.3840  0.6465  2.7088
    1OL    C112 4777   0.487   1.660   5.509 -0.1814 -0.3481 -0.1080
    1OL    H12R 4778   0.407   1.734   5.515 -0.7850 -0.9991 -0.1339
    1OL    H12S 4779   0.446   1.560   5.497 -0.1730 -0.4139  0.3996
    1OL    C113 4780   0.593   1.705   5.400 -0.2469  0.6630  0.6364
    1OL    H13R 4781   0.693   1.663   5.409 -0.5075 -0.2057 -0.3935
    1OL    H13S 4782   0.613   1.809   5.424  1.6653  0.2496  0.9022
    1OL    C114 4783   0.554   1.697   5.257 -0.1264  0.3115 -0.1234
    1OL    H14R 4784   0.648   1.728   5.211  0.4074  0.1456  0.8383
    1OL    H14S 4785   0.474   1.770   5.238 -0.9055 -0.4107  0.3431
    1OL    C115 4786   0.516   1.551   5.220 -0.2325  0.3610  0.8318
    1OL    H15R 4787   0.427   1.524   5.277  0.5744  1.5807  2.7384
    1OL    H15S 4788   0.590   1.474   5.243 -1.2122 -1.9216 -3.1921
    1OL    C116 4789   0.480   1.538   5.068 -0.7451  0.5510  0.1657
    1OL    H16R 4790   0.466   1.430   5.058 -0.3635  0.4342  0.8184
    1OL    H16S 4791   0.573   1.564   5.017  0.4280  1.5728  2.7260
    1OL    C117 4792   0.361   1.624   5.028 -0.3150 -0.3316 -0.4302
    1OL    H17R 4793   0.400   1.725   5.039 -0.0604 -0.3108 -1.4900
    1OL    H17S 4794   0.267   1.617   5.083 -2.2805  1.0318 -3.4922
    1OL    C118 4795   0.336   1.578   4.884  0.5782  0.0926  0.2656
    1OL    H18R 4796   0.297   1.478   4.866 -1.2116  0.5507  1.4719
    1OL    H18S 4797   0.428   1.597   4.828  0.2791  0.5281 -0.0884
    1OL    H18T 4798   0.262   1.650   4.848 -0.8116 -0.9330  1.0193
    1PA    C116 4799   5.376   1.890   5.013 -0.6138 -0.6658 -0.0769
    1PA    H16R 4800   5.340   1.844   4.921 -0.1155 -1.9501  0.3457
    1PA    H16S 4801   5.376   1.998   5.001  0.4882 -0.6302  0.1453
    1PA    H16T 4802   5.314   1.860   5.098 -2.3796 -0.6799 -1.3468
    1PA    C115 4803   5.518   1.860   5.052  0.0599  0.5296  0.1052
    1PA    H15R 4804   5.516   1.758   5.090 -0.1188  0.1128 -1.0006
    1PA    H15S 4805   5.587   1.866   4.967  1.0786 -1.7382  0.7385
    1PA    C114 4806   5.574   1.945   5.164  0.1103  0.2726 -0.4775
    1PA    H14R 4807   5.544   2.050   5.163  0.1279  0.3782  3.1614
    1PA    H14S 4808   5.525   1.908   5.254  1.7981 -0.8124  0.0137
    1PA    C113 4809   5.731   1.916   5.176  0.0741 -0.0747 -0.1972
    1PA    H13R 4810   5.743   1.810   5.198 -1.1640  0.1191  1.5124
    1PA    H13S 4811   5.784   1.943   5.085  2.0724  0.2763  1.0346
    1PA    C112 4812   5.780   1.983   5.298  0.4518  0.0187 -0.1556
    1PA    H12R 4813   5.881   1.944   5.311 -0.0308 -0.7522  1.3809
    1PA    H12S 4814   5.791   2.089   5.273  2.5377 -0.2423 -0.4503
    1PA    C111 4815   5.698   1.962   5.425 -0.0487 -0.2215  0.1484
    1PA    H11R 4816   5.606   2.019   5.409  1.1828  1.9434  0.5383
    1PA    H11S 4817   5.670   1.856   5.426 -0.4103 -0.1418  2.3912
    1PA    C110 4818   5.763   2.008   5.553  0.1590  0.3720  0.4736
    1PA    H10R 4819   5.834   1.931   5.585 -1.8447 -0.4864  3.1247
    1PA    H10S 4820   5.820   2.098   5.534  0.4911 -0.1281 -0.9565
    1PA     C19 4821   5.670   2.052   5.660  0.2730  0.0675  0.1174
    1PA     H9R 4822   5.620   2.141   5.620  0.2147  0.4738  1.0800
    1PA     H9S 4823   5.599   1.977   5.696 -1.6588  1.4412 -0.7643
    1PA     C18 4824   5.749   2.095   5.786 -0.5387 -0.2197 -0.3688
    1PA     H8R 4825   5.792   2.001   5.823  0.1635  0.1884 -0.1464
    1PA     H8S 4826   5.834   2.161   5.766 -0.1611  0.0706  1.9683
    1PA     C17 4827   5.669   2.163   5.900 -0.0049 -0.5881 -0.1960
    1PA     H7R 4828   5.621   2.256   5.872  0.4651 -1.0614 -2.6864
    1PA     H7S 4829   5.589   2.100   5.939 -0.4432  0.4830  0.6626
    1PA     C16 4830   5.774   2.190   6.010  0.6115  0.2249 -0.2042
    1PA     H6R 4831   5.843   2.106   6.023 -0.4125 -0.6753 -0.5449
    1PA     H6S 4832   5.833   2.276   5.977 -0.0989  0.2094 -1.5121
    1PA     C15 4833   5.699   2.228   6.142  0.2339  0.2520  0.2462
    1PA     H5R 4834   5.642   2.321   6.132  1.5769  1.0511 -0.0350
    1PA     H5S 4835   5.623   2.152   6.162  0.0069 -0.2389 -2.3595
    1PA     C14 4836   5.792   2.215   6.261  0.8474 -0.1436 -0.2622
    1PA     H4R 4837   5.739   2.236   6.354  1.1895 -0.7849  0.0778
    1PA     H4S 4838   5.819   2.109   6.254  0.3550 -0.2289 -0.9460
    1PA     C13 4839   5.905   2.316   6.263 -0.3834  0.6447  0.3197
    1PA     H3R 4840   5.993   2.282   6.318 -0.4407 -1.3398 -0.7897
    1PA     H3S 4841   5.948   2.334   6.164 -1.2753  1.7391  0.1207
    1PA     C12 4842   5.856   2.451   6.318 -0.6937 -0.1191  0.5660
    1PA     H2R 4843   5.924   2.533   6.297 -1.8741  0.9429  0.7965
    1PA     H2S 4844   5.758   2.483   6.280 -1.0008 -1.4091  0.2625
    1PC     C11 4845   5.858   2.464   6.472  0.2061 -0.1408  0.7617
    1PC     O12 4846   5.960   2.497   6.526  0.2782 -0.1304  0.2510
    1PC     O11 4847   5.740   2.426   6.527 -0.2267  0.4030 -0.8627
    1PC      C1 4848   5.723   2.410   6.676  0.4473 -0.1602 -0.1014
    1PC      HR 4849   5.791   2.484   6.719  1.3899 -2.6311  2.8302
    1PC      HS 4850   5.625   2.433   6.717 -0.8682 -0.9071 -2.7092
    1PC      C2 4851   5.761   2.266   6.728  0.4092 -0.1339 -0.2701
    1PC      HX 4852   5.713   2.197   6.659 -0.5558  0.8139 -0.5612
    1PC      C3 4853   5.719   2.234   6.874 -0.4067 -0.3024 -0.0719
    1PC      HA 4854   5.611   2.224   6.872 -0.6197  0.5066  3.2619
    1PC      HB 4855   5.754   2.133   6.899 -1.4023 -0.5862  0.1792
    1PC     O31 4856   5.752   2.330   6.968  0.8925 -0.6970  0.5308
    1PC     P31 4857   5.696   2.326   7.123 -0.3679 -0.0941  0.4315
    1PC     O32 4858   5.821   2.283   7.203  0.2337  0.6254 -0.4338
    1PC     C31 4859   5.899   2.387   7.269 -0.1417  0.6275  0.7127
    1PC     H1A 4860   5.842   2.472   7.308 -2.0437  0.9303 -2.5283
    1PC     H1B 4861   5.953   2.336   7.350 -0.9848 -1.4787 -0.0072
    1PC     C32 4862   6.001   2.434   7.155 -0.8066  0.2975  0.1217
    1PC     H2A 4863   5.941   2.482   7.077 -1.5203 -0.4637  0.1987
    1PC     H2B 4864   6.066   2.511   7.197 -0.1051 -0.3858  0.2811
    1PC     N31 4865   6.099   2.331   7.097 -0.5282 -0.4164  0.3485
    1PC     C33 4866   6.193   2.271   7.194  0.3372 -0.1474 -0.3790
    1PC     H3A 4867   6.276   2.228   7.138 -0.2965 -1.9687  0.0628
    1PC     H3B 4868   6.215   2.353   7.262 -4.2174  0.8769  0.0339
    1PC     H3C 4869   6.125   2.211   7.255  1.5488  0.7058  1.8670
    1PC     C34 4870   6.038   2.220   7.025 -0.2317  0.4220 -0.0064
    1PC     H4A 4871   6.014   2.247   6.922  2.8152 -0.0528 -0.8928
    1PC     H4B 4872   6.114   2.143   7.011  0.0048  0.8361 -1.0794
    1PC     H4C 4873   5.946   2.187   7.072 -0.2753  0.9095  0.2514
    1PC     C35 4874   6.181   2.406   7.008 -0.4542  0.7839  0.2576
    1PC     H5A 4875   6.212   2.495   7.062  0.5141  0.4664  0.2336
    1PC     H5B 4876   6.126   2.423   6.916 -0.1532  0.5816  0.0377
    1PC     H5C 4877   6.265   2.340   6.987 -0.0419  0.2521  3.3295
    1PC     O33 4878   5.658   2.458   7.164 -0.5841  0.0091  0.4171
    1PC     O34 4879   5.596   2.224   7.129  0.2785  0.3841  0.0809
    1PC     O21 4880   5.909   2.265   6.732  0.8827 -0.0297 -0.9088
    1PC     C21 4881   5.956   2.180   6.639 -0.8078  0.3077 -0.2988
    1PC     O22 4882   5.898   2.096   6.575  0.8408 -0.2973 -0.3103
    1OL     C12 4883   6.107   2.188   6.626  0.3661  0.2499  0.0602
    1OL     H2R 4884   6.154   2.187   6.725 -0.1589 -0.2932  0.3049
    1OL     H2S 4885   6.141   2.274   6.567 -1.1907  0.7777 -0.0888
    1OL     C13 4886   6.169   2.055   6.560  0.2876  1.2056  0.8796
    1OL     H3R 4887   6.126   1.967   6.608  2.5169 -0.1376  0.4907
    1OL     H3S 4888   6.272   2.071   6.591  0.7720 -0.2337  0.0242
    1OL     C14 4889   6.163   2.049   6.406  0.8667  0.0515 -0.2757
    1OL     H4R 4890   6.198   2.142   6.360  2.7228 -0.0501  0.8950
    1OL     H4S 4891   6.057   2.049   6.381  0.6947  2.3473  0.3280
    1OL     C15 4892   6.247   1.932   6.339  0.3868 -0.2548 -0.1844
    1OL     H5R 4893   6.213   1.843   6.393  0.2942  0.0296  0.2250
    1OL     H5S 4894   6.354   1.950   6.354  0.4211  1.9010 -2.7613
    1OL     C16 4895   6.228   1.913   6.190 -0.0645 -0.6660 -0.1992
    1OL     H6R 4896   6.120   1.923   6.181  0.1626  1.8734 -0.4590
    1OL     H6S 4897   6.264   1.814   6.163 -0.4582 -0.6484 -0.8172
    1OL     C17 4898   6.296   2.025   6.110  0.1501  0.2156  0.1004
    1OL     H7R 4899   6.400   2.031   6.143 -0.2299  1.4276  1.1015
    1OL     H7S 4900   6.247   2.119   6.132  1.2046  0.4388  1.5530
    1OL     C18 4901   6.284   2.009   5.956  0.8153 -0.9548 -0.1443
    1OL     H8R 4902   6.179   2.000   5.925  1.3069  0.5499 -2.3759
    1OL     H8S 4903   6.340   1.921   5.924  3.1183  1.1581 -2.0858
    1OL     C19 4904   6.361   2.125   5.887  0.4360  0.2976 -0.6251
    1OL     H9R 4905   6.443   2.157   5.951 -1.8067 -0.0985  2.5154
    1OL    C110 4906   6.341   2.179   5.769  0.2193  0.3260  0.5442
    1OL    H10R 4907   6.419   2.253   5.751 -0.1236  1.1091  2.2315
    1OL    C111 4908   6.233   2.140   5.664  0.4355 -0.1514 -0.0260
    1OL    H11R 4909   6.149   2.211   5.657 -1.1745 -1.6994  2.7886
    1OL    H11S 4910   6.185   2.046   5.692 -1.5673  0.6633 -0.6036
    1OL    C112 4911   6.291   2.107   5.526 -0.5410 -0.6710 -0.0301
    1OL    H12R 4912   6.332   2.203   5.495 -1.7685 -0.8152 -2.2126
    1OL    H12S 4913   6.208   2.078   5.461 -1.6861  0.9566  0.6749
    1OL    C113 4914   6.407   2.005   5.515 -0.0511  0.4991 -0.1027
    1OL    H13R 4915   6.369   1.905   5.538  0.4294  0.8799  2.4160
    1OL    H13S 4916   6.470   2.036   5.598 -0.6259  1.0474  0.1285
    1OL    C114 4917   6.488   2.002   5.382 -0.0206 -0.0285  0.2304
    1OL    H14R 4918   6.546   1.910   5.388 -0.4548 -0.3566 -0.4815
    1OL    H14S 4919   6.554   2.088   5.370  1.8696 -1.6696 -1.4448
    1OL    C115 4920   6.392   1.988   5.265 -0.0133  0.5777  0.1208
    1OL    H15R 4921   6.326   2.074   5.259  0.9214  1.2131 -1.3692
    1OL    H15S 4922   6.317   1.909   5.275  0.8799 -0.1249  1.4422
    1OL    C116 4923   6.451   1.993   5.131  0.4591  0.6547 -0.3100
    1OL    H16R 4924   6.506   1.899   5.115  0.3340  0.3134  1.1533
    1OL    H16S 4925   6.514   2.081   5.115  0.9531  0.6352  1.4301
    1OL    C117 4926   6.339   2.003   5.025  0.4394  0.1123 -0.0602
    1OL    H17R 4927   6.284   2.098   5.025  0.1975 -0.0254  0.2511
    1OL    H17S 4928   6.271   1.921   5.047  2.6847 -1.8011 -0.1256
    1OL    C118 4929   6.393   1.976   4.875  0.5083 -0.2150  0.4703
    1OL    H18R 4930   6.471   2.049   4.854  1.3195 -1.1626  0.1093
    1OL    H18S 4931   6.428   1.873   4.868  0.0120 -0.3085 -0.8058
    1OL    H18T 4932   6.317   1.989   4.798 -0.7946  0.0696  1.7847
    1PA    C116 4933   0.439   4.523   5.339 -0.5550 -0.2227 -0.2133
    1PA    H16R 4934   0.428   4.625   5.378 -0.7637 -1.0197  1.8273
    1PA    H16S 4935   0.454   4.446   5.414  0.2772 -0.1314 -0.2820
    1PA    H16T 4936   0.345   4.498   5.288 -1.0826 -0.1945  0.7366
    1PA    C115 4937   0.562   4.518   5.245  0.2463  0.2667 -0.3504
    1PA    H15R 4938   0.606   4.419   5.235  0.9389  0.3527  1.6096
    1PA    H15S 4939   0.522   4.547   5.147  2.1761  1.3686 -0.8283
    1PA    C114 4940   0.675   4.611   5.298 -0.3791 -0.6099 -0.0024
    1PA    H14R 4941   0.756   4.627   5.226  2.1470 -0.0550  2.8827
    1PA    H14S 4942   0.624   4.706   5.314 -0.2169 -0.5543  0.1773
    1PA    C113 4943   0.731   4.564   5.431 -0.4381  0.3444 -0.5330
    1PA    H13R 4944   0.785   4.646   5.478  0.3613 -0.1947 -0.4809
    1PA    H13S 4945   0.647   4.534   5.493 -0.1832  0.9740  0.1223
    1PA    C112 4946   0.832   4.453   5.422 -0.1255  0.3015  0.6463
    1PA    H12R 4947   0.779   4.367   5.381  2.9937 -0.5706 -1.7463
    1PA    H12S 4948   0.909   4.487   5.353 -0.8854 -0.1578 -0.4468
    1PA    C111 4949   0.897   4.409   5.552  0.1046  0.7587 -0.2353
    1PA    H11R 4950   0.985   4.469   5.576 -1.3878  2.5224  0.9559
    1PA    H11S 4951   0.829   4.421   5.636  0.0246 -1.8846  0.1015
    1PA    C110 4952   0.943   4.269   5.548 -0.1241  0.4182 -0.3236
    1PA    H10R 4953   0.859   4.211   5.509 -0.0643  0.5291 -0.6177
    1PA    H10S 4954   1.020   4.263   5.471  0.2288  2.1307 -0.1384
    1PA     C19 4955   0.996   4.205   5.685 -0.0503  0.2481  0.4140
    1PA     H9R 4956   1.033   4.105   5.660  1.5842  1.6787 -3.2821
    1PA     H9S 4957   1.085   4.263   5.709  1.5668 -1.9146 -0.1323
    1PA     C18 4958   0.894   4.214   5.807 -0.3194  0.4020  0.5850
    1PA     H8R 4959   0.880   4.322   5.818  1.9179  0.9639 -1.5018
    1PA     H8S 4960   0.794   4.183   5.775  0.5459 -0.8989 -0.9310
    1PA     C17 4961   0.930   4.142   5.933  0.1791 -0.1193  0.4553
    1PA     H7R 4962   0.913   4.035   5.918 -0.4067  0.3943 -3.0807
    1PA     H7S 4963   1.032   4.161   5.965  0.4143 -1.4404  0.5373
    1PA     C16 4964   0.844   4.182   6.055 -0.3288 -0.5625  0.4840
    1PA     H6R 4965   0.868   4.284   6.086  0.3085 -0.3038 -0.8009
    1PA     H6S 4966   0.737   4.180   6.032 -0.7046 -1.2070  2.2042
    1PA     C15 4967   0.860   4.079   6.165 -0.4466 -0.3433  0.7385
    1PA     H5R 4968   0.820   3.983   6.134 -1.8162  0.4300  0.0379
    1PA     H5S 4969   0.965   4.073   6.194 -0.3789 -0.1821  0.5306
    1PA     C14 4970   0.786   4.122   6.291  0.5071 -0.3119 -0.7619
    1PA     H4R 4971   0.841   4.206   6.333 -0.7716  1.4413 -2.4611
    1PA     H4S 4972   0.685   4.154   6.262  0.5382  0.7862  0.2882
    1PA     C13 4973   0.787   4.020   6.406 -0.1286  0.9492  0.4879
    1PA     H3R 4974   0.733   3.929   6.379  0.6969  0.0722  1.7493
    1PA     H3S 4975   0.891   3.988   6.421 -0.4901 -0.3891  0.2047
    1PA     C12 4976   0.723   4.079   6.528 -0.9316  0.5835 -0.2505
    1PA     H2R 4977   0.780   4.159   6.575 -2.3100  0.7774  1.1173
    1PA     H2S 4978   0.630   4.120   6.487 -1.1759 -1.2452 -1.5933
    1PC     C11 4979   0.676   3.981   6.633 -0.0212  0.5280  0.1932
    1PC     O12 4980   0.558   3.944   6.646 -0.2376 -0.6728 -0.0015
    1PC     O11 4981   0.777   3.928   6.704  0.4073  0.0732 -0.3042
    1PC      C1 4982   0.741   3.832   6.808 -0.4235 -0.6806  0.4194
    1PC      HR 4983   0.676   3.884   6.878 -1.6033  0.1116 -1.2268
    1PC      HS 4984   0.685   3.756   6.752  0.4374 -1.4213  0.5425
    1PC      C2 4985   0.864   3.767   6.879 -0.5848 -0.0752 -0.0606
    1PC      HX 4986   0.837   3.694   6.956  0.3778 -0.0570  0.3124
    1PC      C3 4987   0.946   3.884   6.944  0.4978  1.3756  0.2426
    1PC      HA 4988   0.959   3.949   6.857  1.1261  2.0137  0.8111
    1PC      HB 4989   0.888   3.925   7.027 -1.1014 -1.4845  0.5933
    1PC     O31 4990   1.069   3.836   6.981 -0.3313 -0.3866  0.2453
    1PC     P31 4991   1.091   3.762   7.122 -0.1514  0.1774 -0.1016
    1PC     O32 4992   1.142   3.882   7.208 -0.1644 -0.0321  0.6756
    1PC     C31 4993   1.081   3.938   7.324 -0.2337 -0.5302 -0.0291
    1PC     H1A 4994   1.039   3.854   7.378  1.1583 -1.1424  0.1348
    1PC     H1B 4995   1.161   3.978   7.388  0.4812  1.5471 -2.1388
    1PC     C32 4996   0.972   4.048   7.301  0.3046  0.9912  0.7560
    1PC     H2A 4997   0.907   3.998   7.229  3.1241  0.1890 -1.3603
    1PC     H2B 4998   0.920   4.065   7.395  1.9161  0.2794  1.8115
    1PC     N31 4999   1.010   4.180   7.233  0.2294 -0.3990 -0.0331
    1PC     C33 5000   1.058   4.166   7.094 -0.1969  0.2388 -0.2360
    1PC     H3A 5001   1.140   4.095   7.090 -0.8313 -0.4685 -0.9474
    1PC     H3B 5002   0.973   4.136   7.033  0.9054 -0.2695 -1.5331
    1PC     H3C 5003   1.099   4.261   7.060 -0.1408  0.1524 -0.4096
    1PC     C34 5004   0.894   4.267   7.219  0.8069 -0.6945 -0.0339
    1PC     H4A 5005   0.922   4.371   7.198  0.4412 -1.0157 -2.2388
    1PC     H4B 5006   0.832   4.225   7.140  0.3069 -0.2034  0.0891
    1PC     H4C 5007   0.841   4.271   7.314 -1.3648 -1.0545 -1.2082
    1PC     C35 5008   1.123   4.251   7.305 -0.7859  0.1189 -0.2750
    1PC     H5A 5009   1.190   4.168   7.327  0.5606  0.6386 -2.3027
    1PC     H5B 5010   1.088   4.290   7.401 -0.8832 -2.3985  0.7300
    1PC     H5C 5011   1.164   4.329   7.241  0.2365  1.4221  1.9071
    1PC     O33 5012   0.957   3.716   7.173 -0.3137 -0.1519 -0.5007
    1PC     O34 5013   1.197   3.660   7.116 -0.1059 -0.3672 -0.0654
    1PC     O21 5014   0.949   3.704   6.777 -0.3669 -0.4153 -0.4253
    1PC     C21 5015   0.909   3.587   6.715  0.3704 -0.0040 -0.5151
    1PC     O22 5016   0.807   3.525   6.756 -0.3450  0.0529 -0.3325
    1OL     C12 5017   0.996   3.542   6.602  0.1518  0.2779 -1.0749
    1OL     H2R 5018   1.056   3.457   6.636 -1.8672 -0.6078  0.4045
    1OL     H2S 5019   1.058   3.628   6.576  1.0927 -0.5243 -1.5193
    1OL     C13 5020   0.900   3.504   6.479  0.1900  0.5823 -0.7143
    1OL     H3R 5021   0.839   3.420   6.512  1.9232 -0.5400 -0.2990
    1OL     H3S 5022   0.966   3.471   6.399 -0.4927 -2.7058  0.0308
    1OL     C14 5023   0.809   3.615   6.434  0.0290 -0.1042  0.3427
    1OL     H4R 5024   0.879   3.696   6.411  1.0374 -0.8753  0.6945
    1OL     H4S 5025   0.751   3.648   6.521  0.7120  1.6291  0.1605
    1OL     C15 5026   0.714   3.597   6.312 -0.1821 -0.2121 -0.1516
    1OL     H5R 5027   0.779   3.565   6.230 -0.3023 -0.9672  0.0446
    1OL     H5S 5028   0.658   3.687   6.285 -1.0762 -0.0688  2.0830
    1OL     C16 5029   0.618   3.485   6.347  0.0544  0.9473  0.3529
    1OL     H6R 5030   0.600   3.483   6.455 -1.3755  0.3027  0.1197
    1OL     H6S 5031   0.680   3.395   6.339 -1.0043  0.3403 -1.2856
    1OL     C17 5032   0.494   3.463   6.255  0.4636  0.2721  0.0013
    1OL     H7R 5033   0.425   3.546   6.276 -0.1925 -0.6565  1.6201
    1OL     H7S 5034   0.443   3.373   6.289 -0.1110  0.0359 -1.4662
    1OL     C18 5035   0.535   3.460   6.109 -0.2171 -0.2359  0.3649
    1OL     H8R 5036   0.592   3.369   6.086  1.5279  1.6723 -3.4495
    1OL     H8S 5037   0.596   3.546   6.081 -1.3320 -0.1590 -1.9835
    1OL     C19 5038   0.407   3.477   6.022 -0.4200 -0.1260  0.6086
    1OL     H9R 5039   0.317   3.510   6.074 -0.4645 -0.1982  0.5768
    1OL    C110 5040   0.399   3.468   5.891 -1.2542 -0.8307 -0.3884
    1OL    H10R 5041   0.307   3.490   5.837 -1.0853 -0.0231 -0.3611
    1OL    C111 5042   0.519   3.438   5.796 -0.4979 -0.8231  0.2732
    1OL    H11R 5043   0.544   3.333   5.780  0.9220 -0.3188 -0.9261
    1OL    H11S 5044   0.613   3.474   5.839  0.4324 -0.7352 -1.8110
    1OL    C112 5045   0.495   3.506   5.654 -0.4497 -0.2339 -0.1670
    1OL    H12R 5046   0.411   3.478   5.590 -0.6968 -1.3315  0.6264
    1OL    H12S 5047   0.580   3.472   5.596  0.2244  0.4051  0.4336
    1OL    C113 5048   0.497   3.664   5.672 -0.2118 -0.2785 -0.3597
    1OL    H13R 5049   0.575   3.701   5.738  0.4283 -2.0716 -0.0897
    1OL    H13S 5050   0.404   3.691   5.723  0.7455 -0.7897  1.6687
    1OL    C114 5051   0.517   3.743   5.543 -0.4920 -0.0410  0.5202
    1OL    H14R 5052   0.474   3.843   5.549  1.6957  1.0033 -0.6082
    1OL    H14S 5053   0.469   3.690   5.461  1.5189 -2.8687  1.0897
    1OL    C115 5054   0.665   3.754   5.497  0.2611  0.1089 -0.7976
    1OL    H15R 5055   0.720   3.660   5.511 -0.5613  0.0465  2.4916
    1OL    H15S 5056   0.717   3.828   5.558 -1.3496 -0.5142  1.3747
    1OL    C116 5057   0.673   3.808   5.352  0.2085  0.1409  0.0371
    1OL    H16R 5058   0.636   3.910   5.361  0.7789  0.2171  1.7806
    1OL    H16S 5059   0.600   3.756   5.290  2.1108 -2.5406 -0.0756
    1OL    C117 5060   0.811   3.794   5.285 -0.2714 -0.5919  0.7463
    1OL    H17R 5061   0.808   3.829   5.182 -0.0670 -0.2103  0.8681
    1OL    H17S 5062   0.841   3.690   5.297  0.0962 -0.4016  1.5054
    1OL    C118 5063   0.919   3.874   5.362 -0.0645 -0.6345 -0.1685
    1OL    H18R 5064   0.911   3.983   5.365  1.9335 -0.4681 -0.0530
    1OL    H18S 5065   1.016   3.853   5.316  0.1261  0.4113 -0.2629
    1OL    H18T 5066   0.929   3.849   5.467 -0.2567  1.1776  0.3079
    1PA    C116 5067   5.063   0.945   5.713  0.9056 -0.1204  0.1850
    1PA    H16R 5068   4.987   1.021   5.697  1.9665  1.1062  0.8812
    1PA    H16S 5069   5.148   1.004   5.747 -0.0895  1.0319  0.6960
    1PA    H16T 5070   5.034   0.869   5.786  0.1942  0.9327  1.0028
    1PA    C115 5071   5.085   0.875   5.580  0.4071 -0.3237  0.5450
    1PA    H15R 5072   5.071   0.950   5.502  1.5178  0.6614  1.2811
    1PA    H15S 5073   5.187   0.839   5.565  0.0614  0.1009 -3.4124
    1PA    C114 5074   4.979   0.761   5.554 -0.3204 -0.0392 -0.0322
    1PA    H14R 5075   4.878   0.803   5.562 -0.8548 -1.0563 -1.1768
    1PA    H14S 5076   4.993   0.718   5.455 -1.4024 -0.0689 -0.1790
    1PA    C113 5077   4.975   0.647   5.657  0.3343 -0.0503 -0.0150
    1PA    H13R 5078   4.917   0.675   5.746  0.7376 -0.9324  0.5281
    1PA    H13S 5079   4.931   0.558   5.611  0.0210 -0.1652  0.4973
    1PA    C112 5080   5.108   0.580   5.706 -0.2685 -0.0462 -0.1984
    1PA    H12R 5081   5.181   0.660   5.694 -1.1346  0.5651 -1.6059
    1PA    H12S 5082   5.101   0.538   5.806  0.9413  0.8014  0.2589
    1PA    C111 5083   5.151   0.472   5.605 -0.4932 -0.8483 -0.1308
    1PA    H11R 5084   5.072   0.398   5.595 -0.4980 -0.9557  0.6455
    1PA    H11S 5085   5.165   0.529   5.513 -1.0449 -1.6334 -0.7118
    1PA    C110 5086   5.288   0.414   5.620  0.6598  0.6669 -0.1470
    1PA    H10R 5087   5.289   0.320   5.565  1.5406  1.4511 -1.5115
    1PA    H10S 5088   5.373   0.475   5.589  1.6036 -0.9341 -0.7368
    1PA     C19 5089   5.329   0.365   5.763 -0.4131 -0.0570 -0.5169
    1PA     H9R 5090   5.334   0.441   5.841  0.0030  0.1226 -0.7143
    1PA     H9S 5091   5.261   0.287   5.798 -1.8333  0.2248 -2.5106
    1PA     C18 5092   5.465   0.300   5.755 -0.0460 -0.5148 -0.1422
    1PA     H8R 5093   5.483   0.241   5.665  1.7731 -2.7834  1.6460
    1PA     H8S 5094   5.540   0.380   5.747  0.0127 -0.7954 -2.5819
    1PA     C17 5095   5.492   0.213   5.884  0.5890 -0.5683  0.6374
    1PA     H7R 5096   5.413   0.138   5.890 -0.2673  0.0728 -1.9624
    1PA     H7S 5097   5.582   0.160   5.853  0.7830 -0.8885  1.7382
    1PA     C16 5098   5.509   0.293   6.013 -0.0041 -0.7618 -0.5022
    1PA     H6R 5099   5.551   0.391   5.988 -1.8948  0.5292  1.1719
    1PA     H6S 5100   5.411   0.325   6.048  0.6599 -0.0621  0.7560
    1PA     C15 5101   5.603   0.226   6.121  0.1206  0.4616 -0.2758
    1PA     H5R 5102   5.705   0.222   6.081  0.3514  1.7682  0.1432
    1PA     H5S 5103   5.611   0.281   6.215  1.5398 -0.6043  0.2426
    1PA     C14 5104   5.564   0.080   6.151  0.3307  0.4829  0.0851
    1PA     H4R 5105   5.587   0.019   6.063  0.5603  2.3509 -1.1965
    1PA     H4S 5106   5.631   0.048   6.232 -1.4487 -2.6822  0.3648
    1PA     C13 5107   5.416   0.054   6.197 -0.0335 -0.1558 -0.4772
    1PA     H3R 5108   5.355   0.068   6.108 -1.6383  1.4618  0.8234
    1PA     H3S 5109   5.395  -0.049   6.226 -1.3980  0.0698 -0.6435
    1PA     C12 5110   5.351   0.159   6.293  0.5137  0.8697  0.1059
    1PA     H2R 5111   5.362   0.256   6.244  0.6658  0.6763 -0.2395
    1PA     H2S 5112   5.244   0.147   6.311  0.2525  2.0032 -0.6347
    1PC     C11 5113   5.419   0.160   6.427  0.1731  0.0495 -0.1124
    1PC     O12 5114   5.527   0.209   6.447  0.3196 -0.0483 -0.2804
    1PC     O11 5115   5.343   0.100   6.518 -0.0273  0.0877 -0.2745
    1PC      C1 5116   5.394   0.118   6.659 -0.2654  0.0240  0.1296
    1PC      HR 5117   5.331   0.051   6.716  2.5165 -2.1172  0.7915
    1PC      HS 5118   5.497   0.083   6.672 -0.2163  0.4519  0.9121
    1PC      C2 5119   5.387   0.263   6.713  0.1416  0.4186  0.0298
    1PC      HX 5120   5.437   0.343   6.657  0.8489  0.5150  0.7846
    1PC      C3 5121   5.441   0.273   6.863  0.2818 -0.0377 -0.0730
    1PC      HA 5122   5.550   0.267   6.865  0.2469 -0.4965  0.4083
    1PC      HB 5123   5.413   0.371   6.901 -0.4534 -0.1548 -0.3054
    1PC     O31 5124   5.395   0.169   6.947  0.4028 -0.0136  0.4221
    1PC     P31 5125   5.418   0.170   7.102 -0.1931 -0.0426 -0.3686
    1PC     O32 5126   5.308   0.269   7.160  0.2010  0.5045  0.4881
    1PC     C31 5127   5.169   0.237   7.174 -0.0654 -0.3101  0.2072
    1PC     H1A 5128   5.121   0.253   7.077  1.9207  1.4673 -0.5203
    1PC     H1B 5129   5.164   0.131   7.202 -0.1744 -0.7359 -1.3559
    1PC     C32 5130   5.119   0.334   7.280  0.6784  0.4477  0.1628
    1PC     H2A 5131   5.166   0.325   7.378  0.1742 -1.3405  0.2560
    1PC     H2B 5132   5.155   0.434   7.253  4.1388 -0.8242 -0.2354
    1PC     N31 5133   4.969   0.329   7.314 -0.2418 -0.4679 -0.2217
    1PC     C33 5134   4.950   0.408   7.436 -0.4413  0.3107 -0.3903
    1PC     H3A 5135   5.020   0.371   7.511 -1.0047 -1.2906 -0.6154
    1PC     H3B 5136   4.978   0.512   7.422 -0.1732  0.3177  0.2058
    1PC     H3C 5137   4.848   0.407   7.474 -0.0891  1.2661  0.5931
    1PC     C34 5138   4.891   0.378   7.194  0.3431 -0.4397  0.1795
    1PC     H4A 5139   4.886   0.487   7.193 -1.2880 -0.4859 -3.7495
    1PC     H4B 5140   4.926   0.344   7.097  0.2039  2.1531 -0.7947
    1PC     H4C 5141   4.787   0.349   7.210 -0.1618  0.0545 -2.0908
    1PC     C35 5142   4.937   0.191   7.352 -0.2704  0.4846  0.1439
    1PC     H5A 5143   4.836   0.194   7.395  0.6218  1.5661  2.2449
    1PC     H5B 5144   5.011   0.162   7.426  0.7305 -0.6064 -1.2633
    1PC     H5C 5145   4.938   0.124   7.266 -2.0125 -0.8193  1.0939
    1PC     O33 5146   5.375   0.035   7.140  0.4462 -0.6562 -0.4723
    1PC     O34 5147   5.553   0.217   7.138 -0.5031 -0.3536  0.1484
    1PC     O21 5148   5.249   0.300   6.723 -0.1123 -0.0025  0.2297
    1PC     C21 5149   5.201   0.401   6.645 -0.4740 -0.6067  0.0419
    1PC     O22 5150   5.257   0.449   6.548 -0.1810 -0.5098 -0.2838
    1OL     C12 5151   5.067   0.453   6.699  0.4400 -1.2591 -0.3164
    1OL     H2R 5152   4.990   0.385   6.662  0.2550 -2.4830  2.2252
    1OL     H2S 5153   5.047   0.551   6.656 -0.5228 -1.1539  0.3527
    1OL     C13 5154   5.059   0.465   6.854 -0.0298  0.0724  0.4083
    1OL     H3R 5155   5.142   0.522   6.895  0.2628  2.3518 -3.1128
    1OL     H3S 5156   5.066   0.359   6.882  3.0972  0.3215  0.7291
    1OL     C14 5157   4.931   0.522   6.895  2.1295  0.8341  0.0649
    1OL     H4R 5158   4.919   0.620   6.848 -3.6874 -0.0285 -0.6449
    1OL     H4S 5159   4.937   0.537   7.003 -1.4671  0.1532  0.4189
    1OL     C15 5160   4.801   0.446   6.857 -0.4268  0.0212 -0.1922
    1OL     H5R 5161   4.786   0.354   6.913 -0.9271 -0.9397 -1.8638
    1OL     H5S 5162   4.810   0.414   6.753 -1.5151 -0.6581 -0.0868
    1OL     C16 5163   4.675   0.526   6.875 -0.1617 -0.2308 -0.1009
    1OL     H6R 5164   4.693   0.626   6.836  2.3780 -0.5016  0.2856
    1OL     H6S 5165   4.652   0.539   6.981  0.2634  1.5845 -0.2228
    1OL     C17 5166   4.543   0.454   6.819 -0.2701 -0.0711  0.1047
    1OL     H7R 5167   4.460   0.516   6.852  0.1881  0.2830  0.6028
    1OL     H7S 5168   4.531   0.364   6.880 -2.4556  0.6487  0.7894
    1OL     C18 5169   4.544   0.439   6.671 -0.2164  0.0669 -0.4679
    1OL     H8R 5170   4.478   0.354   6.654 -1.4829  0.7052  1.0868
    1OL     H8S 5171   4.636   0.406   6.623 -1.7510  0.2146 -3.6852
    1OL     C19 5172   4.495   0.568   6.604 -0.0714  1.1371 -0.0034
    1OL     H9R 5173   4.393   0.604   6.619  0.1517  1.7727  0.0153
    1OL    C110 5174   4.574   0.649   6.538 -0.1945 -0.2867 -0.2467
    1OL    H10R 5175   4.534   0.746   6.512  0.7280  0.3856  0.8251
    1OL    C111 5176   4.727   0.628   6.513 -0.2061  0.2083  0.2627
    1OL    H11R 5177   4.776   0.561   6.583  1.0344  1.3926  0.5601
    1OL    H11S 5178   4.789   0.718   6.516 -0.5578  0.4367  0.7879
    1OL    C112 5179   4.744   0.564   6.373 -0.0826  0.2863  0.1246
    1OL    H12R 5180   4.732   0.622   6.281 -0.3361  0.4421  0.2539
    1OL    H12S 5181   4.671   0.482   6.367 -0.4189  0.6783 -1.3931
    1OL    C113 5182   4.887   0.513   6.354  1.3018 -0.4525 -0.4439
    1OL    H13R 5183   4.921   0.459   6.442 -2.6890 -0.3508  1.2186
    1OL    H13S 5184   4.959   0.596   6.353 -0.6793  1.3193 -1.4576
    1OL    C114 5185   4.906   0.426   6.233  0.4007 -0.2546 -0.3629
    1OL    H14R 5186   4.870   0.477   6.143 -0.0080  1.1777  0.6033
    1OL    H14S 5187   4.849   0.334   6.245  3.5069 -2.1062  0.8244
    1OL    C115 5188   5.049   0.378   6.210  0.2525  0.6975 -0.4539
    1OL    H15R 5189   5.043   0.285   6.153 -1.1824  1.4309 -1.5365
    1OL    H15S 5190   5.103   0.350   6.301 -1.8199 -1.4699  0.1369
    1OL    C116 5191   5.129   0.469   6.124  0.2496  0.7554  0.8077
    1OL    H16R 5192   5.067   0.531   6.059  0.5324 -0.4295 -0.6074
    1OL    H16S 5193   5.184   0.412   6.050  0.4326  1.6612  0.2458
    1OL    C117 5194   5.231   0.554   6.203  0.5151  0.3671  1.0449
    1OL    H17R 5195   5.284   0.483   6.268  1.9193 -0.2581 -0.7319
    1OL    H17S 5196   5.174   0.621   6.267 -0.9779 -0.1217  0.2568
    1OL    C118 5197   5.323   0.627   6.109  1.0525  0.0064 -0.2171
    1OL    H18R 5198   5.375   0.702   6.170  0.2738 -0.4505  1.0091
    1OL    H18S 5199   5.271   0.685   6.032 -0.4158  0.0086  0.7645
    1OL    H18T 5200   5.393   0.562   6.057  0.8862 -1.7331  1.6922
    1PA    C116 5201   1.361   0.292   5.110 -0.5343 -0.1728  0.1459
    1PA    H16R 5202   1.379   0.283   5.218  1.3606  1.0321 -0.0573
    1PA    H16S 5203   1.435   0.361   5.070  1.0885 -2.7407 -1.3730
    1PA    H16T 5204   1.374   0.195   5.062  0.1158 -1.2890  2.4722
    1PA    C115 5205   1.221   0.337   5.072  0.0635 -0.2935 -0.9120
    1PA    H15R 5206   1.203   0.441   5.101 -2.1158 -1.1399  0.8889
    1PA    H15S 5207   1.199   0.326   4.965 -0.0634  0.4652 -0.9655
    1PA    C114 5208   1.102   0.271   5.151  0.1114 -0.0960  0.4962
    1PA    H14R 5209   1.009   0.312   5.112  1.2258  1.2177 -0.8350
    1PA    H14S 5210   1.103   0.162   5.145 -0.0964 -0.1017  0.5449
    1PA    C113 5211   1.102   0.281   5.300 -0.1192  0.6709  0.1146
    1PA    H13R 5212   1.040   0.195   5.330 -0.5149  0.8817 -0.0918
    1PA    H13S 5213   1.200   0.264   5.345 -1.1396 -0.2425  2.0540
    1PA    C112 5214   1.044   0.411   5.352 -0.4981  0.0325 -0.5013
    1PA    H12R 5215   1.106   0.492   5.314 -0.8109  0.1425 -0.7767
    1PA    H12S 5216   0.943   0.425   5.314 -0.1286  0.3909 -1.3462
    1PA    C111 5217   1.046   0.402   5.510 -0.2462  0.1164 -0.3301
    1PA    H11R 5218   1.145   0.371   5.545 -0.0889  0.5836 -0.3577
    1PA    H11S 5219   1.057   0.502   5.554 -0.3519  0.3590 -0.8505
    1PA    C110 5220   0.942   0.323   5.582 -0.2461 -0.0578 -0.0235
    1PA    H10R 5221   0.852   0.385   5.581 -0.0755  0.2116  0.8448
    1PA    H10S 5222   0.919   0.229   5.530 -1.9223 -0.1630  0.8608
    1PA     C19 5223   0.980   0.300   5.735 -0.3466  0.3621 -0.5180
    1PA     H9R 5224   1.082   0.262   5.739 -0.3422  0.5088  1.5752
    1PA     H9S 5225   0.985   0.399   5.782 -0.1417 -0.0825  0.4228
    1PA     C18 5226   0.885   0.211   5.811 -0.1192  0.0906  0.1203
    1PA     H8R 5227   0.783   0.242   5.786 -0.2309 -0.6567 -0.3548
    1PA     H8S 5228   0.890   0.111   5.767 -1.7512  0.3020 -0.5847
    1PA     C17 5229   0.905   0.195   5.959 -0.0440 -0.4171  0.3393
    1PA     H7R 5230   0.859   0.279   6.011 -1.1006 -1.0842  0.5016
    1PA     H7S 5231   0.847   0.113   6.002  0.9310 -0.4662  1.6221
    1PA     C16 5232   1.053   0.169   6.000  0.3115 -0.1027 -0.0893
    1PA     H6R 5233   1.092   0.106   5.920  4.5781  0.7646  1.1981
    1PA     H6S 5234   1.105   0.265   5.996  0.6680 -0.3502 -1.5534
    1PA     C15 5235   1.075   0.104   6.137  0.6483  0.1187  0.4851
    1PA     H5R 5236   1.029   0.006   6.152  0.6738 -0.0186 -0.3215
    1PA     H5S 5237   1.183   0.096   6.153  0.3946  1.5667  3.2388
    1PA     C14 5238   1.021   0.194   6.253 -0.3484  0.1923  0.5703
    1PA     H4R 5239   1.107   0.256   6.277  1.8159 -2.3803 -0.3700
    1PA     H4S 5240   0.937   0.258   6.225 -0.1963 -0.1575 -0.7117
    1PA     C13 5241   0.978   0.121   6.381 -0.1862 -0.3417  0.6973
    1PA     H3R 5242   0.888   0.067   6.352 -0.9452  0.9172  0.7017
    1PA     H3S 5243   1.044   0.043   6.422 -0.8372 -1.0171  0.4715
    1PA     C12 5244   0.946   0.216   6.500 -0.7391  0.8212 -0.0556
    1PA     H2R 5245   1.038   0.266   6.533 -0.1991  0.9641 -1.7078
    1PA     H2S 5246   0.881   0.298   6.470  0.8327  1.6779 -1.2489
    1PC     C11 5247   0.897   0.137   6.622 -0.3819  0.6437  0.1469
    1PC     O12 5248   0.778   0.132   6.645 -0.2663 -0.6153 -0.2244
    1PC     O11 5249   0.992   0.079   6.694 -0.2875  0.0058  0.3625
    1PC      C1 5250   0.952   0.025   6.824  0.1722 -0.1297  0.2702
    1PC      HR 5251   0.856  -0.026   6.817 -0.5043  1.3053 -1.2821
    1PC      HS 5252   1.027  -0.052   6.846  0.6269  0.2785  0.1530
    1PC      C2 5253   0.964   0.123   6.940  0.2119 -0.6082 -0.2964
    1PC      HX 5254   1.059   0.175   6.928 -0.4228  0.4444 -0.8181
    1PC      C3 5255   0.942   0.053   7.073  0.1269 -0.0843  0.8001
    1PC      HA 5256   0.837   0.029   7.089  0.6541 -1.5562  2.2277
    1PC      HB 5257   1.009  -0.033   7.067  1.1248  0.8630 -3.3850
    1PC     O31 5258   0.994   0.141   7.184 -0.0616 -0.5625  0.2380
    1PC     P31 5259   0.912   0.269   7.248 -0.1781 -0.4947  0.1204
    1PC     O32 5260   0.946   0.392   7.159  0.2924 -0.2349 -0.8688
    1PC     C31 5261   1.067   0.468   7.169 -0.1248 -0.0279 -0.2522
    1PC     H1A 5262   1.048   0.574   7.153 -2.0139  0.0935  2.4433
    1PC     H1B 5263   1.114   0.445   7.265 -0.8535  2.7950  0.8160
    1PC     C32 5264   1.158   0.417   7.056  0.0733  0.8144  0.6132
    1PC     H2A 5265   1.169   0.309   7.058 -0.4577  0.7093 -1.2684
    1PC     H2B 5266   1.108   0.442   6.963  1.9036 -1.4922 -1.0568
    1PC     N31 5267   1.297   0.482   7.055  0.4108  0.1412  0.7652
    1PC     C33 5268   1.364   0.429   7.178  0.3998 -0.0063  0.3505
    1PC     H3A 5269   1.358   0.320   7.183  0.2366 -0.0221 -0.1819
    1PC     H3B 5270   1.469   0.457   7.184  0.3022  0.7226 -1.2316
    1PC     H3C 5271   1.305   0.469   7.261 -1.8770 -2.9230  0.2325
    1PC     C34 5272   1.382   0.435   6.935 -0.3495 -0.4681  0.2687
    1PC     H4A 5273   1.357   0.494   6.846  1.0741 -0.1756  0.0459
    1PC     H4B 5274   1.485   0.443   6.970 -0.5088 -0.9989  0.8636
    1PC     H4C 5275   1.374   0.327   6.923  0.5669 -0.6529  1.3352
    1PC     C35 5276   1.302   0.630   7.055 -0.2170  0.3956 -0.4425
    1PC     H5A 5277   1.309   0.660   7.160 -1.5666 -1.1398  0.1131
    1PC     H5B 5278   1.202   0.662   7.025 -0.1494  1.1288  0.0943
    1PC     H5C 5279   1.390   0.668   7.003  1.2403 -2.0847  0.1036
    1PC     O33 5280   0.763   0.243   7.257  0.2874  1.3412  0.7643
    1PC     O34 5281   0.979   0.292   7.381  0.3537  0.3421  1.0223
    1PC     O21 5282   0.858   0.219   6.934 -0.4564 -0.2351 -0.3249
    1PC     C21 5283   0.874   0.331   6.861  0.8188  0.1832 -0.1759
    1PC     O22 5284   0.971   0.357   6.793 -0.3010 -0.7046  0.0449
    1OL     C12 5285   0.737   0.400   6.872 -0.2341 -0.1511  0.3447
    1OL     H2R 5286   0.744   0.492   6.931 -1.9887  0.7092 -0.7787
    1OL     H2S 5287   0.665   0.338   6.926 -0.7600  0.0582 -0.1205
    1OL     C13 5288   0.680   0.436   6.731 -0.3631  0.5413  0.3285
    1OL     H3R 5289   0.574   0.455   6.747 -0.6275 -0.7531  0.1923
    1OL     H3S 5290   0.701   0.357   6.658  0.0216 -0.0526  1.0669
    1OL     C14 5291   0.731   0.572   6.681  0.2235 -0.1722  0.0002
    1OL     H4R 5292   0.840   0.575   6.690  0.2103  2.0553 -0.3270
    1OL     H4S 5293   0.718   0.648   6.758  0.4778  0.6567 -0.7710
    1OL     C15 5294   0.678   0.607   6.540 -0.6444 -0.2081  0.0069
    1OL     H5R 5295   0.576   0.569   6.540 -0.0159 -1.9360 -0.2712
    1OL     H5S 5296   0.717   0.540   6.463 -2.3771 -0.5351 -0.6193
    1OL     C16 5297   0.691   0.754   6.504  0.6020  0.2820 -0.2078
    1OL     H6R 5298   0.679   0.751   6.396  1.5420 -1.0571 -0.2854
    1OL     H6S 5299   0.789   0.798   6.523  0.4083  0.8052 -0.4146
    1OL     C17 5300   0.590   0.842   6.574 -0.3809 -0.4394  0.1744
    1OL     H7R 5301   0.604   0.830   6.681  0.8802  0.7160  0.1444
    1OL     H7S 5302   0.493   0.806   6.540  0.3237  0.5179 -3.0917
    1OL     C18 5303   0.599   0.995   6.533  0.2079 -0.2196  0.1625
    1OL     H8R 5304   0.510   1.048   6.570  1.1303  0.9657  0.7107
    1OL     H8S 5305   0.606   1.017   6.427  0.5974 -1.2562 -0.0263
    1OL     C19 5306   0.712   1.059   6.609 -0.5629 -0.5846  0.3535
    1OL     H9R 5307   0.690   1.086   6.712 -0.8694 -0.3718  0.2333
    1OL    C110 5308   0.822   1.117   6.557 -0.5204  0.6807  0.3852
    1OL    H10R 5309   0.887   1.171   6.626  0.0377 -2.4243  2.3532
    1OL    C111 5310   0.853   1.122   6.414 -0.2063  0.5930 -0.6640
    1OL    H11R 5311   0.812   1.215   6.373 -1.0408  0.1518 -0.8363
    1OL    H11S 5312   0.800   1.034   6.376 -0.7653  1.3271 -1.6139
    1OL    C112 5313   1.007   1.111   6.384 -0.2595  0.4552 -0.5063
    1OL    H12R 5314   1.047   1.024   6.437 -3.5127 -0.3672  0.7103
    1OL    H12S 5315   1.053   1.198   6.430  1.4008  0.7010 -2.5352
    1OL    C113 5316   1.040   1.115   6.231  0.2078  0.2322 -0.5144
    1OL    H13R 5317   1.146   1.131   6.212  0.8249 -0.6681  2.0164
    1OL    H13S 5318   0.995   1.210   6.200 -0.0853  0.8833  1.7840
    1OL    C114 5319   0.983   0.996   6.150  0.3265 -0.4303 -0.9627
    1OL    H14R 5320   1.015   1.009   6.046 -0.6330  0.8250 -1.1224
    1OL    H14S 5321   0.874   0.991   6.147  0.1867  1.9957 -1.4987
    1OL    C115 5322   1.039   0.865   6.210 -0.2890  0.2452 -0.0611
    1OL    H15R 5323   0.991   0.847   6.306 -1.7038 -2.3434 -1.1780
    1OL    H15S 5324   1.146   0.881   6.224 -0.4073  1.1517 -0.2046
    1OL    C116 5325   1.015   0.749   6.107 -0.0264  0.0152 -0.2576
    1OL    H16R 5326   1.066   0.769   6.012 -0.7169  1.1194 -0.4096
    1OL    H16S 5327   0.910   0.748   6.079 -0.4121  2.7612  0.9085
    1OL    C117 5328   1.042   0.604   6.159 -1.0798  0.4117 -0.7909
    1OL    H17R 5329   1.145   0.599   6.194 -2.3715  0.3075  3.2375
    1OL    H17S 5330   1.023   0.525   6.085 -1.6985  0.9018 -1.1649
    1OL    C118 5331   0.956   0.569   6.285 -0.6402  0.6641 -0.2611
    1OL    H18R 5332   0.989   0.641   6.360  1.8241 -0.0108 -0.6471
    1OL    H18S 5333   0.973   0.467   6.318  1.8249  0.4611 -1.9691
    1OL    H18T 5334   0.849   0.577   6.263 -1.4237 -0.9724  2.7049
    1PA    C116 5335   4.936   5.454   5.323 -0.2096 -0.3039 -0.4953
    1PA    H16R 5336   4.867   5.519   5.270 -2.8342 -1.4035  1.4885
    1PA    H16S 5337   4.889   5.356   5.314 -0.7967 -0.1321  0.6617
    1PA    H16T 5338   5.031   5.475   5.273  0.0395  3.1658  1.2788
    1PA    C115 5339   4.947   5.492   5.474 -0.3937 -0.2154 -0.3496
    1PA    H15R 5340   4.886   5.582   5.485 -0.7683 -0.0262 -3.5295
    1PA    H15S 5341   4.915   5.407   5.535  0.8711 -1.7573 -1.7861
    1PA    C114 5342   5.092   5.540   5.516  0.2457  0.2447 -0.3952
    1PA    H14R 5343   5.161   5.456   5.503 -1.2635 -0.9049 -1.1065
    1PA    H14S 5344   5.128   5.611   5.441  0.2703  1.4110  0.7011
    1PA    C113 5345   5.106   5.599   5.668  0.0953 -0.0425  0.5125
    1PA    H13R 5346   5.212   5.618   5.684  0.2628 -0.5578  0.0032
    1PA    H13S 5347   5.044   5.688   5.685 -0.1371 -0.1187  0.0575
    1PA    C112 5348   5.069   5.500   5.771 -0.0218  0.2736 -0.0296
    1PA    H12R 5349   4.962   5.480   5.777  0.2540 -0.3976  3.4886
    1PA    H12S 5350   5.118   5.405   5.751 -0.0863 -0.3747  2.7827
    1PA    C111 5351   5.121   5.560   5.911 -0.1199  0.5770 -0.1454
    1PA    H11R 5352   5.230   5.565   5.909 -0.1455  1.3003  0.1109
    1PA    H11S 5353   5.073   5.657   5.927 -0.1812  0.4289  0.5851
    1PA    C110 5354   5.091   5.449   6.023  0.1021  0.1206 -0.0134
    1PA    H10R 5355   5.086   5.497   6.121 -0.3082  0.7389 -0.3366
    1PA    H10S 5356   4.993   5.404   6.007 -0.0111 -0.4123  2.0804
    1PA     C19 5357   5.189   5.327   6.020 -0.6115  0.6514  0.5481
    1PA     H9R 5358   5.196   5.291   5.917  1.5671 -0.3561  1.0124
    1PA     H9S 5359   5.288   5.355   6.058  0.0987 -0.0955 -0.7231
    1PA     C18 5360   5.139   5.219   6.112 -0.2180  0.3393 -0.0676
    1PA     H8R 5361   5.055   5.168   6.064 -0.4473 -0.4121  1.1239
    1PA     H8S 5362   5.210   5.136   6.104  0.4010  0.8530  0.0351
    1PA     C17 5363   5.110   5.260   6.253 -0.6734 -0.3714 -0.3977
    1PA     H7R 5364   5.198   5.314   6.289 -0.0545 -1.0974 -0.8103
    1PA     H7S 5365   5.027   5.331   6.254  0.2699  0.7432  0.3488
    1PA     C16 5366   5.071   5.146   6.359 -0.9183 -0.0401  0.0358
    1PA     H6R 5367   5.046   5.189   6.456  0.4143 -0.8792  0.7588
    1PA     H6S 5368   4.982   5.093   6.324 -0.8855  0.4808 -0.8683
    1PA     C15 5369   5.185   5.038   6.377  0.6916 -0.2901  0.3535
    1PA     H5R 5370   5.149   4.963   6.448 -1.1172  0.8517  0.6488
    1PA     H5S 5371   5.204   4.988   6.282 -5.3316 -1.2283 -0.5329
    1PA     C14 5372   5.319   5.101   6.427  1.0217 -0.6451  1.1807
    1PA     H4R 5373   5.353   5.174   6.354 -1.6761  1.4354  1.9078
    1PA     H4S 5374   5.301   5.164   6.515 -0.2058  2.1498 -0.9861
    1PA     C13 5375   5.427   4.986   6.447 -0.5487  0.2185 -0.7072
    1PA     H3R 5376   5.382   4.909   6.510  2.3811 -2.8668 -2.2377
    1PA     H3S 5377   5.441   4.947   6.345 -0.7819 -0.4240 -0.4935
    1PA     C12 5378   5.553   5.052   6.500 -0.7897  0.7778  0.1831
    1PA     H2R 5379   5.632   4.982   6.474 -1.8357 -0.6730  0.8023
    1PA     H2S 5380   5.579   5.152   6.467 -1.3576  0.0982 -2.4179
    1PC     C11 5381   5.553   5.057   6.652  0.8280 -0.0592  0.0968
    1PC     O12 5382   5.509   4.967   6.718 -0.3012 -0.7346  0.3986
    1PC     O11 5383   5.590   5.175   6.698 -0.0536 -0.2052 -0.5016
    1PC      C1 5384   5.604   5.209   6.841 -0.0469  0.3214  0.1940
    1PC      HR 5385   5.650   5.127   6.896 -3.7714 -1.4841  0.7806
    1PC      HS 5386   5.674   5.291   6.856 -0.5100  0.3957  2.0785
    1PC      C2 5387   5.474   5.268   6.895  0.1514  0.2096  0.5786
    1PC      HX 5388   5.451   5.361   6.842 -2.4335  0.0905  1.4178
    1PC      C3 5389   5.493   5.308   7.041  0.3113 -0.2530  0.9794
    1PC      HA 5390   5.551   5.400   7.046  1.3961 -0.8875  0.2842
    1PC      HB 5391   5.398   5.320   7.094  1.4542 -1.8696  3.5187
    1PC     O31 5392   5.565   5.203   7.115 -0.1377 -0.7787  0.4828
    1PC     P31 5393   5.507   5.117   7.233 -0.2167 -0.0162  0.6103
    1PC     O32 5394   5.401   5.020   7.162 -0.2861  0.5737  0.3140
    1PC     C31 5395   5.451   4.919   7.066  0.8982 -0.4906 -0.1291
    1PC     H1A 5396   5.418   4.956   6.969  0.2141  1.6825  0.8981
    1PC     H1B 5397   5.560   4.924   7.061  0.9380 -1.0165  0.2405
    1PC     C32 5398   5.395   4.782   7.100  0.4830  0.2046  0.3207
    1PC     H2A 5399   5.442   4.758   7.196  2.7794  1.7222 -0.3597
    1PC     H2B 5400   5.289   4.791   7.122  0.5622  3.3350 -0.3648
    1PC     N31 5401   5.423   4.661   7.020 -0.4449 -0.0418  0.2798
    1PC     C33 5402   5.564   4.613   7.034  0.3305 -0.5726  0.1285
    1PC     H3A 5403   5.594   4.584   6.934 -3.7117 -0.4867 -1.2095
    1PC     H3B 5404   5.625   4.700   7.057 -0.8455  0.0137  1.1031
    1PC     H3C 5405   5.577   4.530   7.103 -1.3778  0.6419  1.9865
    1PC     C34 5406   5.340   4.549   7.054 -0.6752 -0.8304 -0.1611
    1PC     H4A 5407   5.352   4.467   6.983 -2.0025 -0.4458 -0.8454
    1PC     H4B 5408   5.384   4.523   7.150  0.2820  0.3590 -0.2658
    1PC     H4C 5409   5.238   4.585   7.070  0.0769  1.7837 -1.0840
    1PC     C35 5410   5.399   4.693   6.875  0.3209  0.0670 -0.0384
    1PC     H5A 5411   5.424   4.603   6.819  1.4672 -0.1109  0.7431
    1PC     H5B 5412   5.462   4.780   6.855 -0.1380  1.0041  2.4448
    1PC     H5C 5413   5.293   4.713   6.864  0.2468 -0.3257 -0.0533
    1PC     O33 5414   5.622   5.037   7.284 -0.0579 -0.4801 -0.9050
    1PC     O34 5415   5.433   5.203   7.327  0.2640  0.8037  0.0636
    1PC     O21 5416   5.366   5.173   6.885 -0.0178 -0.5016  0.4893
    1PC     C21 5417   5.244   5.203   6.833 -0.5641 -0.1196 -0.2408
    1PC     O22 5418   5.209   5.311   6.794 -0.5035 -0.4327 -0.3176
    1OL     C12 5419   5.169   5.070   6.814  0.0896  0.5154  0.2907
    1OL     H2R 5420   5.174   5.021   6.912 -3.9117 -0.4054  0.1281
    1OL     H2S 5421   5.214   5.005   6.740 -1.5563 -1.5047  1.0194
    1OL     C13 5422   5.019   5.100   6.790  0.0253 -0.0177  0.0777
    1OL     H3R 5423   5.007   5.142   6.690  0.9148  1.3124  0.5139
    1OL     H3S 5424   4.989   5.180   6.858 -0.9199  1.2005 -1.7453
    1OL     C14 5425   4.936   4.973   6.801 -0.0300  0.2718 -0.2445
    1OL     H4R 5426   4.970   4.931   6.896 -0.3888  3.0805  1.1776
    1OL     H4S 5427   4.956   4.900   6.723 -0.7608 -2.1523  1.7633
    1OL     C15 5428   4.784   4.992   6.800 -0.6226  0.5308 -0.5272
    1OL     H5R 5429   4.765   5.048   6.892 -0.0328  1.9704 -1.2745
    1OL     H5S 5430   4.729   4.898   6.810 -1.4079  1.3136  3.4917
    1OL     C16 5431   4.730   5.063   6.674 -0.5896 -0.1390 -0.6439
    1OL     H6R 5432   4.764   5.166   6.679  3.1123 -1.1270 -3.5548
    1OL     H6S 5433   4.621   5.062   6.679 -0.5158 -2.8408  1.6842
    1OL     C17 5434   4.773   5.009   6.541 -0.1359 -0.5178  0.4123
    1OL     H7R 5435   4.785   4.901   6.540 -1.6287 -0.6912 -2.0667
    1OL     H7S 5436   4.876   5.041   6.518  0.0412 -3.2540 -3.0172
    1OL     C18 5437   4.676   5.051   6.427 -0.1795  0.0551  0.2604
    1OL     H8R 5438   4.576   5.014   6.451 -1.9262  3.0866 -1.9859
    1OL     H8S 5439   4.718   5.016   6.332  1.7269 -0.1222  1.1459
    1OL     C19 5440   4.652   5.197   6.420 -0.1900 -0.3108 -0.3208
    1OL     H9R 5441   4.645   5.255   6.512  1.0566  0.3721 -0.6477
    1OL    C110 5442   4.625   5.258   6.305 -0.2028 -0.1510  0.1381
    1OL    H10R 5443   4.615   5.366   6.305 -1.3224 -0.2226 -2.7591
    1OL    C111 5444   4.615   5.199   6.167 -0.7114 -0.0674  0.0465
    1OL    H11R 5445   4.518   5.238   6.134 -0.2763  0.6750 -0.3916
    1OL    H11S 5446   4.616   5.090   6.165 -0.3492 -0.0724  0.4095
    1OL    C112 5447   4.716   5.256   6.070 -0.8247  0.2872 -0.7646
    1OL    H12R 5448   4.815   5.226   6.106 -2.3908  0.9004  4.4513
    1OL    H12S 5449   4.706   5.365   6.068 -1.5923  0.2522  0.4990
    1OL    C113 5450   4.698   5.190   5.934 -0.1189 -0.2593 -0.3969
    1OL    H13R 5451   4.591   5.201   5.916 -0.1897  0.1461  0.2619
    1OL    H13S 5452   4.714   5.082   5.931 -0.0074 -0.2219 -1.1064
    1OL    C114 5453   4.792   5.235   5.821 -0.0152  0.1304  0.6164
    1OL    H14R 5454   4.892   5.219   5.864 -0.0984 -0.4784  0.5923
    1OL    H14S 5455   4.775   5.342   5.810  0.8710  0.0274 -1.9329
    1OL    C115 5456   4.782   5.172   5.686 -0.0521 -0.2255  0.0866
    1OL    H15R 5457   4.756   5.066   5.689  0.0938 -0.2196  3.3517
    1OL    H15S 5458   4.879   5.179   5.637  0.3840  2.3851  1.2879
    1OL    C116 5459   4.675   5.231   5.591  0.8234 -0.1472 -0.8158
    1OL    H16R 5460   4.668   5.339   5.610  3.0307 -0.7619  4.5143
    1OL    H16S 5461   4.584   5.184   5.630  0.2603  1.6753  0.1675
    1OL    C117 5462   4.688   5.198   5.439  0.6018 -1.2377  0.1199
    1OL    H17R 5463   4.659   5.093   5.433  0.9837 -1.2987 -0.9292
    1OL    H17S 5464   4.793   5.207   5.410  0.7912 -0.5924  0.9942
    1OL    C118 5465   4.604   5.283   5.351  0.1974 -0.1335  0.3340
    1OL    H18R 5466   4.498   5.280   5.376  0.3047  2.0933  1.1931
    1OL    H18S 5467   4.616   5.243   5.250 -1.4955 -0.7237  0.3456
    1OL    H18T 5468   4.630   5.389   5.361 -1.1107  0.2050  0.2718
    1PA    C116 5469   0.167   3.795   5.373  0.4641 -0.3942  0.3484
    1PA    H16R 5470   0.245   3.762   5.304 -0.8781 -0.2083 -1.2845
    1PA    H16S 5471   0.209   3.876   5.433  0.3382 -1.6372  2.1573
    1PA    H16T 5472   0.072   3.813   5.323  0.2161  1.0432  1.2905
    1PA    C115 5473   0.140   3.677   5.470 -0.5646 -0.1884 -0.2252
    1PA    H15R 5474   0.088   3.598   5.417 -0.9531 -1.8388  2.5191
    1PA    H15S 5475   0.238   3.638   5.499 -0.2463  1.0946  0.4757
    1PA    C114 5476   0.059   3.722   5.598  0.2389  0.2418 -0.1049
    1PA    H14R 5477  -0.038   3.763   5.568  0.0553  1.0052  1.4741
    1PA    H14S 5478   0.026   3.636   5.656 -1.0392  1.3674  0.8589
    1PA    C113 5479   0.124   3.830   5.687 -0.1933  0.2324  0.4183
    1PA    H13R 5480   0.231   3.807   5.685 -0.0853  0.6575  1.1251
    1PA    H13S 5481   0.116   3.926   5.635  1.8075  1.6199  2.5346
    1PA    C112 5482   0.066   3.855   5.827 -0.5275 -0.2893 -0.9311
    1PA    H12R 5483   0.109   3.940   5.881  0.3597 -0.1229 -1.8900
    1PA    H12S 5484  -0.039   3.876   5.807 -0.4651  0.4415 -0.5161
    1PA    C111 5485   0.071   3.739   5.921  0.3147  0.3234  0.5064
    1PA    H11R 5486   0.054   3.649   5.862  0.4582  0.0367  0.8990
    1PA    H11S 5487   0.176   3.738   5.953  0.2223 -0.7489  0.7921
    1PA    C110 5488  -0.018   3.751   6.049  0.0925 -0.1250  0.4353
    1PA    H10R 5489   0.022   3.843   6.093  0.7420 -0.4051  0.4470
    1PA    H10S 5490  -0.124   3.755   6.024 -0.2315 -0.6582  1.6717
    1PA     C19 5491   0.003   3.640   6.159 -0.1726  0.3152 -0.5012
    1PA     H9R 5492  -0.054   3.552   6.128  0.2012 -0.0198 -0.2326
    1PA     H9S 5493   0.109   3.615   6.162 -0.3031 -0.0291  1.5146
    1PA     C18 5494  -0.039   3.680   6.300  0.3070 -0.6746  0.1536
    1PA     H8R 5495   0.011   3.614   6.371 -2.1564  0.7172  3.3258
    1PA     H8S 5496  -0.017   3.786   6.316 -2.5524  0.0205 -0.2835
    1PA     C17 5497  -0.190   3.689   6.337 -0.0001 -0.4122 -0.4009
    1PA     H7R 5498  -0.243   3.739   6.255  0.7099 -0.3689 -0.8433
    1PA     H7S 5499  -0.235   3.590   6.343 -1.0677  0.0006 -1.3903
    1PA     C16 5500  -0.212   3.764   6.469 -0.1031  0.1545 -0.5998
    1PA     H6R 5501  -0.187   3.869   6.454 -1.0290  0.3966 -0.4435
    1PA     H6S 5502  -0.319   3.777   6.488  0.0160  0.2935 -0.0329
    1PA     C15 5503  -0.139   3.701   6.594 -0.4208 -0.5959 -0.6532
    1PA     H5R 5504  -0.035   3.685   6.565  0.0301  1.0078  0.0322
    1PA     H5S 5505  -0.133   3.769   6.679  3.2398 -2.6390  0.8349
    1PA     C14 5506  -0.208   3.568   6.644  0.4610 -1.0886  0.4377
    1PA     H4R 5507  -0.314   3.590   6.654  0.3487 -0.0661 -2.4671
    1PA     H4S 5508  -0.200   3.489   6.569  0.2607  0.7920 -1.6141
    1PA     C13 5509  -0.149   3.543   6.779 -0.8217  0.0223  0.3115
    1PA     H3R 5510  -0.171   3.633   6.836 -2.7397  0.0831 -0.5013
    1PA     H3S 5511  -0.196   3.458   6.829 -1.6483  0.8593  0.9581
    1PA     C12 5512   0.005   3.506   6.782 -0.0995 -0.0696  0.2725
    1PA     H2R 5513   0.020   3.439   6.696 -0.4026  1.9171 -1.3636
    1PA     H2S 5514   0.078   3.582   6.752 -0.6393  0.1096 -0.6228
    1PC     C11 5515   0.050   3.442   6.903 -0.5530 -0.6980  0.5410
    1PC     O12 5516   0.028   3.468   7.016  0.0706 -0.0886  0.1236
    1PC     O11 5517   0.140   3.346   6.864 -0.5540  0.3020  0.0667
    1PC      C1 5518   0.186   3.243   6.962  0.0814  0.8618  0.2270
    1PC      HR 5519   0.180   3.286   7.063 -0.0383  0.1330  0.5314
    1PC      HS 5520   0.123   3.154   6.959  1.2163  0.0537  0.3361
    1PC      C2 5521   0.323   3.196   6.914  0.3591  0.3980  0.3421
    1PC      HX 5522   0.340   3.092   6.945 -1.6231 -0.1995 -0.4521
    1PC      C3 5523   0.430   3.283   6.986 -0.0478  0.0956 -0.6893
    1PC      HA 5524   0.522   3.273   6.928 -1.0531 -0.5956 -2.1894
    1PC      HB 5525   0.396   3.386   6.998  2.5484  0.6387  2.5303
    1PC     O31 5526   0.465   3.231   7.119  0.1749 -0.0624 -0.0298
    1PC     P31 5527   0.583   3.295   7.209 -0.2177  0.5040 -0.2207
    1PC     O32 5528   0.702   3.195   7.188  0.6621 -0.0911  0.6101
    1PC     C31 5529   0.691   3.052   7.233  1.2978 -1.0479 -0.0052
    1PC     H1A 5530   0.754   3.049   7.323  0.7270 -0.7982  0.4070
    1PC     H1B 5531   0.585   3.034   7.252  1.3399 -0.8249  0.4486
    1PC     C32 5532   0.723   2.945   7.129 -0.0684 -0.1721 -0.1816
    1PC     H2A 5533   0.692   2.851   7.176 -1.5130  0.6519  0.5674
    1PC     H2B 5534   0.656   2.958   7.044  0.5321 -2.2106 -0.9968
    1PC     N31 5535   0.863   2.919   7.084 -0.0635  0.0528 -0.2455
    1PC     C33 5536   0.863   2.802   6.996  0.2316 -0.1543 -0.2937
    1PC     H3A 5537   0.834   2.710   7.047  0.4277  0.3283  0.7104
    1PC     H3B 5538   0.785   2.820   6.922 -0.0893 -0.6800 -0.0901
    1PC     H3C 5539   0.958   2.793   6.943  0.9199 -0.8875  1.0214
    1PC     C34 5540   0.919   3.032   7.012  0.3030 -0.2966 -0.1154
    1PC     H4A 5541   0.855   3.052   6.926  0.6382 -3.2865 -1.1419
    1PC     H4B 5542   0.927   3.122   7.072  0.4193 -0.4089  0.0385
    1PC     H4C 5543   1.018   3.008   6.972  1.3579 -0.9470  2.7646
    1PC     C35 5544   0.947   2.891   7.208  0.0661 -0.4134 -0.6849
    1PC     H5A 5545   0.913   2.794   7.245  2.8144 -1.0702  0.2295
    1PC     H5B 5546   0.923   2.967   7.283  1.0753 -2.6722  2.0097
    1PC     H5C 5547   1.053   2.889   7.180  0.6874  1.1573  1.3569
    1PC     O33 5548   0.622   3.421   7.147 -0.2845 -0.2459  0.3310
    1PC     O34 5549   0.534   3.289   7.347 -0.1110  0.1383 -0.2564
    1PC     O21 5550   0.330   3.197   6.770 -0.2324 -0.7515 -0.4474
    1PC     C21 5551   0.290   3.089   6.702  0.2443  0.4070 -0.7661
    1PC     O22 5552   0.234   2.987   6.751 -0.0406  0.2804 -0.3428
    1OL     C12 5553   0.311   3.091   6.549 -0.4458 -0.1609 -0.3972
    1OL     H2R 5554   0.348   2.995   6.512 -1.9381 -0.5014 -1.0305
    1OL     H2S 5555   0.391   3.165   6.537 -1.0789  0.5502 -0.2900
    1OL     C13 5556   0.192   3.125   6.455  0.2474 -0.3523 -0.1281
    1OL     H3R 5557   0.135   3.033   6.441  0.4276 -0.6211  0.8843
    1OL     H3S 5558   0.240   3.151   6.360  0.9255  1.8190  0.7739
    1OL     C14 5559   0.090   3.241   6.486 -0.1811 -0.4257 -0.2935
    1OL     H4R 5560   0.141   3.338   6.491  2.1132 -1.6750  2.0779
    1OL     H4S 5561   0.054   3.220   6.587 -1.1074 -1.6598 -0.8776
    1OL     C15 5562  -0.034   3.258   6.407 -0.6469 -0.1196  0.6504
    1OL     H5R 5563  -0.097   3.343   6.432 -1.3942 -1.0414  1.9909
    1OL     H5S 5564  -0.096   3.172   6.433 -1.4656  0.9824  2.3969
    1OL     C16 5565  -0.008   3.236   6.256  0.0432  0.7145 -0.8839
    1OL     H6R 5566   0.009   3.131   6.230 -1.2183 -0.6544  3.4198
    1OL     H6S 5567   0.078   3.297   6.226 -0.3773  1.9582  0.4015
    1OL     C17 5568  -0.128   3.281   6.166 -0.1489  0.4392  0.8458
    1OL     H7R 5569  -0.159   3.385   6.174  1.0873  0.9347 -0.7884
    1OL     H7S 5570  -0.219   3.225   6.192 -0.8552  0.6525 -1.0783
    1OL     C18 5571  -0.104   3.277   6.013 -0.4167 -1.2002  0.8471
    1OL     H8R 5572  -0.033   3.196   5.996  1.5072  0.6518 -0.2526
    1OL     H8S 5573  -0.047   3.367   5.986 -1.8090 -0.4647  0.3019
    1OL     C19 5574  -0.225   3.251   5.922  0.4671 -1.0917  0.0224
    1OL     H9R 5575  -0.283   3.164   5.952  0.0338 -0.7974  0.0320
    1OL    C110 5576  -0.274   3.321   5.819  0.7787  0.2258  0.3687
    1OL    H10R 5577  -0.355   3.274   5.765  0.9144  0.0808  0.2901
    1OL    C111 5578  -0.217   3.450   5.770 -0.7061  0.3214  0.9230
    1OL    H11R 5579  -0.114   3.465   5.804 -0.1043 -0.2043 -0.6229
    1OL    H11S 5580  -0.273   3.534   5.810  0.4587  0.3897  2.4384
    1OL    C112 5581  -0.214   3.460   5.615 -0.3267  0.2101 -0.1959
    1OL    H12R 5582  -0.191   3.561   5.580 -3.2053  1.7894  2.1747
    1OL    H12S 5583  -0.313   3.439   5.574 -1.2158  1.3413  1.3237
    1OL    C113 5584  -0.114   3.353   5.563  0.0322 -0.2625 -0.0686
    1OL    H13R 5585  -0.142   3.261   5.615 -0.2648 -1.1619 -1.7870
    1OL    H13S 5586  -0.012   3.388   5.582 -0.5248  1.8052 -0.7781
    1OL    C114 5587  -0.102   3.331   5.409  0.3933 -0.3144 -0.4583
    1OL    H14R 5588  -0.043   3.241   5.389  0.3472 -0.2136 -1.0635
    1OL    H14S 5589  -0.032   3.403   5.366  0.2653  0.2450  0.2653
    1OL    C115 5590  -0.238   3.322   5.345 -0.5714  0.2751 -0.4980
    1OL    H15R 5591  -0.289   3.417   5.364  0.7290  0.7500  0.7135
    1OL    H15S 5592  -0.288   3.242   5.399  0.2623  0.8774  1.2041
    1OL    C116 5593  -0.222   3.282   5.194  0.9686 -0.0037 -0.5411
    1OL    H16R 5594  -0.323   3.246   5.173  0.8102 -0.6287  1.1522
    1OL    H16S 5595  -0.153   3.198   5.193  1.6751  0.5721 -1.1556
    1OL    C117 5596  -0.190   3.394   5.098 -0.2918  0.0191  0.2808
    1OL    H17R 5597  -0.092   3.432   5.128  0.8298 -1.8076 -0.9216
    1OL    H17S 5598  -0.276   3.460   5.105 -0.1228  0.4121 -1.1103
    1OL    C118 5599  -0.183   3.318   4.965 -0.1394 -0.1249 -0.3717
    1OL    H18R 5600  -0.105   3.242   4.955  0.8810  1.0642 -1.7051
    1OL    H18S 5601  -0.278   3.266   4.956 -1.2449  1.4798  1.7150
    1OL    H18T 5602  -0.171   3.392   4.885  1.0616 -0.3024 -0.3743
    1PA    C116 5603   1.534   5.459   5.339 -0.1342  0.3594 -0.2636
    1PA    H16R 5604   1.610   5.401   5.392 -0.5461  0.9715  1.0154
    1PA    H16S 5605   1.576   5.522   5.261  1.4681 -0.9639 -0.5026
    1PA    H16T 5606   1.462   5.384   5.305 -0.6901  1.3442 -1.2603
    1PA    C115 5607   1.444   5.544   5.429 -0.1104 -0.6389 -0.0912
    1PA    H15R 5608   1.498   5.629   5.471  0.9515 -1.8051  0.9471
    1PA    H15S 5609   1.368   5.590   5.365 -0.7805  1.0074  1.8440
    1PA    C114 5610   1.376   5.463   5.547 -0.4285 -0.4187  0.0884
    1PA    H14R 5611   1.289   5.411   5.506 -1.6875  1.7077 -0.0223
    1PA    H14S 5612   1.448   5.395   5.592 -0.8651  0.0861  1.5721
    1PA    C113 5613   1.328   5.556   5.656 -0.5126  0.0956  0.2722
    1PA    H13R 5614   1.399   5.636   5.678  0.1237 -0.4026  0.0379
    1PA    H13S 5615   1.239   5.609   5.620 -0.9195 -0.6719  0.1140
    1PA    C112 5616   1.293   5.485   5.789 -0.4781 -0.0262  0.4565
    1PA    H12R 5617   1.378   5.429   5.830  1.0187  2.5021  0.9353
    1PA    H12S 5618   1.271   5.569   5.857 -2.6873  1.5178 -2.0775
    1PA    C111 5619   1.171   5.392   5.765  0.0794 -0.6338  0.4314
    1PA    H11R 5620   1.096   5.440   5.702  0.9564  0.5801  0.2995
    1PA    H11S 5621   1.216   5.305   5.715 -0.0709 -0.3950 -0.1174
    1PA    C110 5622   1.105   5.341   5.889  0.2243  0.5838  0.0608
    1PA    H10R 5623   1.101   5.430   5.953 -0.3947  0.0907  0.7143
    1PA    H10S 5624   1.002   5.310   5.871  0.7406 -0.7430 -0.6580
    1PA     C19 5625   1.183   5.220   5.950  0.2602  0.5655  0.2955
    1PA     H9R 5626   1.175   5.128   5.892 -3.5403 -1.1212  3.2279
    1PA     H9S 5627   1.290   5.237   5.961  0.3242  0.0659  0.4570
    1PA     C18 5628   1.119   5.179   6.082  0.2575 -0.0446 -0.1594
    1PA     H8R 5629   1.122   5.271   6.141 -0.0123 -0.5121  0.5959
    1PA     H8S 5630   1.010   5.167   6.073  0.3592 -0.6012 -0.6710
    1PA     C17 5631   1.179   5.060   6.166 -0.2282 -0.0194  1.0287
    1PA     H7R 5632   1.174   4.980   6.091  0.3354  1.7218 -0.9199
    1PA     H7S 5633   1.283   5.078   6.193  1.1905 -3.7421 -1.5882
    1PA     C16 5634   1.108   5.023   6.295  0.4823  0.5235 -0.6102
    1PA     H6R 5635   1.111   5.121   6.344  0.6103  0.1956  0.0380
    1PA     H6S 5636   1.007   4.995   6.264  0.1250  1.3998 -0.2567
    1PA     C15 5637   1.175   4.910   6.383 -0.8317  0.3379  0.1468
    1PA     H5R 5638   1.108   4.895   6.468 -1.0666  1.1961  0.1225
    1PA     H5S 5639   1.188   4.823   6.319 -1.6907 -0.3494  0.9021
    1PA     C14 5640   1.302   4.931   6.465 -0.1728 -0.1656 -0.2803
    1PA     H4R 5641   1.288   5.026   6.516 -0.9576  0.4880 -1.6776
    1PA     H4S 5642   1.315   4.852   6.539  2.3303 -0.4751 -1.0004
    1PA     C13 5643   1.436   4.922   6.380 -0.2297  0.5236 -0.1131
    1PA     H3R 5644   1.435   4.833   6.316  1.9327  0.0641  0.4713
    1PA     H3S 5645   1.437   5.009   6.315 -0.7428 -0.2392 -1.1549
    1PA     C12 5646   1.566   4.942   6.462 -0.4639 -0.0109 -0.3629
    1PA     H2R 5647   1.594   4.870   6.540  1.4048  1.2914  0.1999
    1PA     H2S 5648   1.648   4.931   6.391 -1.8151 -2.7260 -1.5764
    1PC     C11 5649   1.567   5.078   6.523  0.1908  0.3926  0.0745
    1PC     O12 5650   1.562   5.180   6.458 -0.3527 -0.1065  0.5197
    1PC     O11 5651   1.571   5.065   6.657  0.2829 -0.1249 -0.2614
    1PC      C1 5652   1.582   5.185   6.732  0.4379 -0.1051  0.3844
    1PC      HR 5653   1.649   5.159   6.813  0.8969 -0.0366  0.0307
    1PC      HS 5654   1.630   5.265   6.675 -0.0027 -0.9192 -1.1865
    1PC      C2 5655   1.442   5.234   6.782  0.8158 -0.1379 -0.2314
    1PC      HX 5656   1.453   5.327   6.839 -1.5256  1.8023 -2.8455
    1PC      C3 5657   1.385   5.123   6.875 -0.0706  0.5936 -0.2969
    1PC      HA 5658   1.372   5.037   6.810  0.9578  1.5710 -1.8202
    1PC      HB 5659   1.456   5.084   6.949  2.9235  0.8217 -2.9579
    1PC     O31 5660   1.257   5.163   6.928 -0.6518  0.1603 -0.1315
    1PC     P31 5661   1.241   5.268   7.045 -0.0610  0.4867 -0.1805
    1PC     O32 5662   1.315   5.198   7.170 -0.2527 -0.0074 -0.7350
    1PC     C31 5663   1.260   5.098   7.260 -0.3452 -0.2762  0.5676
    1PC     H1A 5664   1.199   5.020   7.214 -0.1130 -0.1628  0.0619
    1PC     H1B 5665   1.347   5.053   7.310  1.8814  1.0867 -1.9078
    1PC     C32 5666   1.171   5.158   7.371 -0.2329  0.3331  0.0561
    1PC     H2A 5667   1.081   5.209   7.335  0.0126  0.2253 -0.7357
    1PC     H2B 5668   1.136   5.076   7.434  0.9358 -0.5721 -0.4520
    1PC     N31 5669   1.239   5.245   7.474 -0.7775  0.6733  0.1772
    1PC     C33 5670   1.366   5.182   7.535 -0.4883  0.0189  0.2886
    1PC     H3A 5671   1.439   5.194   7.455  0.9779  1.7281  1.8227
    1PC     H3B 5672   1.402   5.241   7.620  1.1339  0.1869 -0.4980
    1PC     H3C 5673   1.351   5.076   7.556  1.4064 -0.3442 -0.1361
    1PC     C34 5674   1.263   5.375   7.413  0.7487  0.2750 -0.4634
    1PC     H4A 5675   1.298   5.441   7.492 -0.6460 -1.1471  1.3725
    1PC     H4B 5676   1.338   5.364   7.334  1.5528  1.8250  0.0540
    1PC     H4C 5677   1.169   5.411   7.372 -0.4080 -0.2411  1.6677
    1PC     C35 5678   1.150   5.265   7.589  1.0163  0.0893  0.2434
    1PC     H5A 5679   1.204   5.322   7.665 -0.1321 -1.1291  2.0175
    1PC     H5B 5680   1.096   5.176   7.624  0.7386 -0.0211 -0.4589
    1PC     H5C 5681   1.069   5.330   7.558  1.0505  1.5434  2.9964
    1PC     O33 5682   1.303   5.398   7.011 -0.2089  0.6172 -0.2380
    1PC     O34 5683   1.099   5.264   7.077 -0.1701 -0.4519 -0.1564
    1PC     O21 5684   1.356   5.254   6.661  0.7903  0.1232 -0.6463
    1PC     C21 5685   1.351   5.375   6.606 -0.3869 -0.5350 -0.5004
    1PC     O22 5686   1.391   5.472   6.658 -0.1099  0.1393 -0.2964
    1OL     C12 5687   1.278   5.362   6.478  0.1971  0.1628 -0.3032
    1OL     H2R 5688   1.175   5.379   6.508  0.3773  0.7025  0.0256
    1OL     H2S 5689   1.290   5.255   6.458  4.4741  0.3971  0.4851
    1OL     C13 5690   1.314   5.460   6.359  0.2639 -0.0065  0.3585
    1OL     H3R 5691   1.316   5.560   6.404 -1.7106  1.4287 -2.5638
    1OL     H3S 5692   1.225   5.451   6.297  0.1433  0.7887  0.4015
    1OL     C14 5693   1.443   5.442   6.286  0.1714  0.4942 -0.0293
    1OL     H4R 5694   1.530   5.451   6.352 -1.1285  2.0708  1.5337
    1OL     H4S 5695   1.453   5.534   6.227  0.5655  0.4335 -0.0560
    1OL     C15 5696   1.442   5.311   6.197 -0.4566 -0.1108 -0.3743
    1OL     H5R 5697   1.349   5.317   6.141 -1.9549 -0.9419  1.9244
    1OL     H5S 5698   1.420   5.227   6.264 -0.3437 -0.2677 -0.5363
    1OL     C16 5699   1.560   5.291   6.106 -0.3641  0.4620  0.4957
    1OL     H6R 5700   1.649   5.333   6.153 -0.1931  2.4053 -1.4974
    1OL     H6S 5701   1.550   5.352   6.016  1.9775  1.1164  0.6563
    1OL     C17 5702   1.592   5.143   6.063 -0.4327  0.1165 -0.6262
    1OL     H7R 5703   1.498   5.101   6.028  0.1969 -2.0231  0.1798
    1OL     H7S 5704   1.632   5.082   6.145  0.1252  2.1010  0.6214
    1OL     C18 5705   1.689   5.136   5.941 -0.2942  0.0695 -0.6444
    1OL     H8R 5706   1.705   5.029   5.923 -1.0878 -0.1076 -0.3349
    1OL     H8S 5707   1.776   5.200   5.956  0.9605 -1.7908  0.2045
    1OL     C19 5708   1.625   5.192   5.821  0.0531 -0.3573 -0.3505
    1OL     H9R 5709   1.519   5.171   5.816  0.2429 -1.2493 -0.8432
    1OL    C110 5710   1.681   5.260   5.717  0.1142  0.2153  0.3190
    1OL    H10R 5711   1.610   5.288   5.639  1.9171  1.6909 -0.8248
    1OL    C111 5712   1.827   5.299   5.696  0.1958  0.2550  0.1651
    1OL    H11R 5713   1.859   5.260   5.599 -1.8002 -0.4437 -0.2218
    1OL    H11S 5714   1.889   5.245   5.768 -1.7003 -1.4389  0.5742
    1OL    C112 5715   1.862   5.451   5.704 -0.8618  0.0969  0.2376
    1OL    H12R 5716   1.969   5.461   5.683 -0.5327 -0.6072  1.4730
    1OL    H12S 5717   1.856   5.484   5.808 -0.9628 -1.4704  0.7500
    1OL    C113 5718   1.777   5.545   5.613 -0.5946 -0.0116 -0.0170
    1OL    H13R 5719   1.673   5.517   5.631 -0.1496 -0.0463  2.7082
    1OL    H13S 5720   1.799   5.523   5.508  0.6063 -1.0868  0.4496
    1OL    C114 5721   1.808   5.688   5.643 -0.2606  0.4799  0.0264
    1OL    H14R 5722   1.766   5.719   5.739  3.5659 -0.2437  2.0476
    1OL    H14S 5723   1.747   5.739   5.568  0.7175 -0.2088 -1.2529
    1OL    C115 5724   1.956   5.735   5.631  0.0499 -0.3719  0.2260
    1OL    H15R 5725   2.012   5.709   5.721 -1.0372  1.0590  1.3382
    1OL    H15S 5726   1.952   5.844   5.627 -2.0221 -0.4165  0.2555
    1OL    C116 5727   2.033   5.701   5.502 -0.1339  0.0021 -0.5088
    1OL    H16R 5728   2.034   5.592   5.498 -0.1461 -0.0878  1.4807
    1OL    H16S 5729   2.132   5.744   5.515  0.8185 -1.8844 -1.3229
    1OL    C117 5730   1.967   5.753   5.366 -0.2820 -0.3001  0.9625
    1OL    H17R 5731   1.953   5.861   5.371  1.6339  0.0579 -0.9057
    1OL    H17S 5732   1.865   5.715   5.369  0.1492 -1.4842  0.8358
    1OL    C118 5733   2.042   5.709   5.239  0.4159  0.4493  0.8034
    1OL    H18R 5734   2.122   5.781   5.220  0.7746 -0.2067 -0.1721
    1OL    H18S 5735   1.978   5.712   5.151  0.6297 -0.6337  0.6021
    1OL    H18T 5736   2.086   5.611   5.256  0.3575  0.4600  1.0169
    1PA    C116 5737   5.523   5.489   5.476 -0.2584  0.7631  0.2197
    1PA    H16R 5738   5.588   5.573   5.501 -1.3467  1.4771  0.6927
    1PA    H16S 5739   5.449   5.529   5.407 -1.7133 -0.6210  0.9301
    1PA    H16T 5740   5.589   5.408   5.441 -0.9494 -0.1435  1.0000
    1PA    C115 5741   5.455   5.429   5.599 -0.5456 -0.6466  0.0265
    1PA    H15R 5742   5.421   5.514   5.659 -0.6728 -1.4440  1.0798
    1PA    H15S 5743   5.372   5.367   5.567 -1.0865  0.4180 -0.6674
    1PA    C114 5744   5.547   5.341   5.677  0.0346 -0.6429  0.3875
    1PA    H14R 5745   5.566   5.250   5.621  1.7895 -0.9768  1.4848
    1PA    H14S 5746   5.647   5.385   5.684  0.9720 -2.7530  0.4851
    1PA    C113 5747   5.501   5.289   5.816 -0.1559  1.1725  0.3602
    1PA    H13R 5748   5.462   5.375   5.871 -0.2763  1.5973 -0.3911
    1PA    H13S 5749   5.416   5.222   5.803  0.4085  1.1647 -3.9607
    1PA    C112 5750   5.609   5.209   5.893 -0.2340 -1.3045 -0.3280
    1PA    H12R 5751   5.638   5.128   5.826  0.9050 -0.2025 -1.1778
    1PA    H12S 5752   5.699   5.264   5.919  0.8768 -2.8035 -0.9263
    1PA    C111 5753   5.562   5.151   6.031  0.5325 -0.0233 -0.4541
    1PA    H11R 5754   5.502   5.228   6.081 -1.3373  0.0964 -2.7424
    1PA    H11S 5755   5.488   5.074   6.007  1.0000 -1.3439  2.1762
    1PA    C110 5756   5.668   5.082   6.125  0.4964  0.1520 -0.0335
    1PA    H10R 5757   5.742   5.152   6.164  1.7916  0.2896 -2.6472
    1PA    H10S 5758   5.608   5.048   6.210  0.2518  0.8614  0.0813
    1PA     C19 5759   5.725   4.959   6.053 -0.2582 -0.0326  0.2579
    1PA     H9R 5760   5.642   4.893   6.027  1.1482 -2.0904  0.7996
    1PA     H9S 5761   5.771   4.997   5.961  1.4969  0.4030  1.2946
    1PA     C18 5762   5.815   4.878   6.147  0.4345  0.0800  0.1572
    1PA     H8R 5763   5.779   4.855   6.247 -0.1058 -0.8856 -0.2511
    1PA     H8S 5764   5.834   4.778   6.106  0.4359  0.0608  0.2039
    1PA     C17 5765   5.951   4.937   6.173  0.2273 -0.3295  0.5428
    1PA     H7R 5766   5.998   4.957   6.077  0.4315 -0.2327  0.6618
    1PA     H7S 5767   5.930   5.035   6.216 -1.8869  0.6747 -2.6669
    1PA     C16 5768   6.043   4.854   6.269 -0.3007 -0.7380  0.1590
    1PA     H6R 5769   6.001   4.845   6.369  0.1956  2.5958  0.7315
    1PA     H6S 5770   6.041   4.750   6.236  1.0840 -1.0322  0.9648
    1PA     C15 5771   6.188   4.904   6.264 -0.1399 -0.3637  0.1775
    1PA     H5R 5772   6.224   4.889   6.162 -1.2415 -0.3477 -0.2209
    1PA     H5S 5773   6.192   5.009   6.295  3.2515 -0.3939 -0.0295
    1PA     C14 5774   6.280   4.817   6.356 -0.2894  0.1201  0.0144
    1PA     H4R 5775   6.366   4.881   6.378 -0.4240  0.1235  0.5241
    1PA     H4S 5776   6.253   4.793   6.459  0.2288 -1.1347 -0.1279
    1PA     C13 5777   6.320   4.676   6.297 -0.0018 -0.0181 -0.0440
    1PA     H3R 5778   6.231   4.617   6.274 -0.2272 -0.7086  2.4431
    1PA     H3S 5779   6.378   4.679   6.204 -1.0222  1.2991 -0.6580
    1PA     C12 5780   6.400   4.573   6.389 -0.2356  0.2933  0.2660
    1PA     H2R 5781   6.433   4.498   6.317 -1.1371  0.8406 -0.7281
    1PA     H2S 5782   6.489   4.618   6.434  1.2514 -0.4775 -1.8574
    1PC     C11 5783   6.321   4.510   6.500  0.1768 -0.8352  0.9962
    1PC     O12 5784   6.368   4.487   6.609  0.6890  0.0793 -0.6056
    1PC     O11 5785   6.192   4.489   6.461  1.0018 -0.8792  0.0464
    1PC      C1 5786   6.098   4.479   6.566  0.4740 -0.1515 -0.2183
    1PC      HR 5787   6.010   4.432   6.521  0.3025  0.4191 -0.4845
    1PC      HS 5788   6.124   4.413   6.649 -1.1132  0.9739  1.2160
    1PC      C2 5789   6.046   4.613   6.611  0.3881 -0.3994 -0.7579
    1PC      HX 5790   6.056   4.686   6.531 -2.1818 -2.1318 -2.7518
    1PC      C3 5791   6.105   4.671   6.743  0.0333  0.1823 -0.1489
    1PC      HA 5792   6.208   4.702   6.725  1.6088 -4.7321 -0.2296
    1PC      HB 5793   6.045   4.753   6.784 -0.0493  0.4376 -0.7610
    1PC     O31 5794   6.118   4.563   6.841 -0.3186 -0.1555  0.5913
    1PC     P31 5795   6.162   4.594   6.991 -0.1190 -0.1945  0.2692
    1PC     O32 5796   6.297   4.679   6.978  0.7372 -0.2781  0.3594
    1PC     C31 5797   6.305   4.821   6.995  0.0673 -0.5053  0.4877
    1PC     H1A 5798   6.267   4.877   6.909 -1.4286  2.8981  3.2825
    1PC     H1B 5799   6.241   4.851   7.077 -0.7014  2.0396 -1.0136
    1PC     C32 5800   6.450   4.866   7.033  0.1772 -0.0231  0.3210
    1PC     H2A 5801   6.458   4.972   7.057 -1.4644  0.5289 -1.4137
    1PC     H2B 5802   6.478   4.815   7.126 -0.6259  0.0416  0.6052
    1PC     N31 5803   6.567   4.828   6.934  0.0851  0.6872 -0.7340
    1PC     C33 5804   6.589   4.685   6.927 -0.3598 -0.1343  1.2359
    1PC     H3A 5805   6.602   4.651   7.030 -2.4658 -2.7690  0.6939
    1PC     H3B 5806   6.495   4.639   6.895 -0.3499  0.5578  0.1872
    1PC     H3C 5807   6.680   4.662   6.873 -0.1273 -1.8555  2.3346
    1PC     C34 5808   6.540   4.885   6.796 -0.4099  0.0522 -0.5752
    1PC     H4A 5809   6.629   4.867   6.736  0.8477  3.3742  0.1906
    1PC     H4B 5810   6.451   4.831   6.763 -0.5294  0.4589 -0.9266
    1PC     H4C 5811   6.528   4.991   6.819 -0.6600  0.1009 -0.9177
    1PC     C35 5812   6.693   4.874   6.993  0.2981  0.5997 -0.2572
    1PC     H5A 5813   6.678   4.978   7.021 -0.6805  0.6530 -0.9464
    1PC     H5B 5814   6.770   4.869   6.917 -0.0254 -0.3711 -0.5358
    1PC     H5C 5815   6.716   4.806   7.075 -2.3485 -0.0658  0.0075
    1PC     O33 5816   6.060   4.675   7.060  0.1487  0.6302 -0.0808
    1PC     O34 5817   6.197   4.466   7.053 -0.0591  0.3034  0.3007
    1PC     O21 5818   5.908   4.595   6.636 -0.2294 -0.1043 -0.6195
    1PC     C21 5819   5.831   4.699   6.625  0.3101  0.8366 -0.3768
    1PC     O22 5820   5.875   4.807   6.592 -0.4854 -0.1999 -0.3022
    1OL     C12 5821   5.684   4.670   6.639  0.4114  0.9153  0.4274
    1OL     H2R 5822   5.629   4.755   6.680  2.0487  2.2562 -0.0698
    1OL     H2S 5823   5.669   4.586   6.707  0.8387 -1.6205 -2.4733
    1OL     C13 5824   5.625   4.648   6.506  0.2481  0.4299 -0.3176
    1OL     H3R 5825   5.651   4.742   6.457  0.2229  0.1992 -0.7761
    1OL     H3S 5826   5.516   4.642   6.498  0.1808  0.7027  0.3629
    1OL     C14 5827   5.680   4.526   6.424 -0.3614  0.9781  0.1815
    1OL     H4R 5828   5.651   4.430   6.468  0.6354  0.1602 -0.9379
    1OL     H4S 5829   5.788   4.533   6.430 -0.2874 -0.2381  0.4700
    1OL     C15 5830   5.651   4.518   6.270 -0.2124  1.2282 -0.7191
    1OL     H5R 5831   5.682   4.618   6.238 -1.0045  2.0981  1.1507
    1OL     H5S 5832   5.547   4.487   6.260  0.6455 -2.0794  0.0518
    1OL     C16 5833   5.732   4.415   6.183  0.0372 -0.3235 -0.5129
    1OL     H6R 5834   5.671   4.397   6.094 -0.2820 -0.3624 -0.2890
    1OL     H6S 5835   5.749   4.316   6.226  0.8500  0.2476  0.4969
    1OL     C17 5836   5.865   4.478   6.145  0.2659 -0.7784 -0.3182
    1OL     H7R 5837   5.912   4.514   6.237  1.5222  0.0966 -1.2883
    1OL     H7S 5838   5.851   4.559   6.073 -1.1564  0.3281  1.1544
    1OL     C18 5839   5.959   4.373   6.087  0.7283 -0.3417 -0.4397
    1OL     H8R 5840   5.920   4.338   5.992 -1.3767 -1.5074  0.8126
    1OL     H8S 5841   5.958   4.292   6.161 -1.9238  1.4741  1.5991
    1OL     C19 5842   6.105   4.418   6.078  0.6496 -0.5526 -0.6815
    1OL     H9R 5843   6.165   4.393   6.166 -1.0392 -0.1627  0.6031
    1OL    C110 5844   6.160   4.495   5.983 -0.2332 -0.0978  0.4978
    1OL    H10R 5845   6.262   4.529   5.994 -0.6193  0.2294  3.3993
    1OL    C111 5846   6.090   4.548   5.862  0.5771 -0.1512 -0.3203
    1OL    H11R 5847   5.994   4.499   5.846  1.0896 -0.7733 -1.5745
    1OL    H11S 5848   6.148   4.530   5.771  1.0172  0.8493 -0.2396
    1OL    C112 5849   6.080   4.702   5.868  0.1268 -0.7456  0.5706
    1OL    H12R 5850   6.181   4.724   5.904 -0.1550  0.7727  0.4493
    1OL    H12S 5851   6.010   4.733   5.946 -2.7584 -2.6188 -1.1755
    1OL    C113 5852   6.036   4.764   5.728 -0.1462 -0.7229 -0.2726
    1OL    H13R 5853   5.946   4.714   5.692 -1.0531  1.7697 -1.5583
    1OL    H13S 5854   6.117   4.739   5.659 -0.6277 -0.3226 -0.9875
    1OL    C114 5855   6.013   4.915   5.743  0.1946 -0.0263 -0.4911
    1OL    H14R 5856   6.103   4.960   5.786  0.1828  0.7754 -1.2941
    1OL    H14S 5857   5.944   4.944   5.822  0.5542  0.5675 -0.3952
    1OL    C115 5858   5.980   4.983   5.614  0.4719 -0.7388  0.1818
    1OL    H15R 5859   6.014   4.935   5.522  0.9038 -0.5363  0.2328
    1OL    H15S 5860   6.040   5.074   5.625 -1.9177  0.7602  1.2967
    1OL    C116 5861   5.838   5.033   5.600 -1.1355  0.0663 -0.7893
    1OL    H16R 5862   5.817   5.102   5.682  0.7543  0.6803 -0.7779
    1OL    H16S 5863   5.756   4.963   5.615  1.2965 -2.9934 -1.3150
    1OL    C117 5864   5.826   5.123   5.476 -0.2592 -0.3765  0.2633
    1OL    H17R 5865   5.721   5.136   5.449  0.0732  0.1895 -0.8281
    1OL    H17S 5866   5.867   5.065   5.393  0.2128 -1.1114  1.0093
    1OL    C118 5867   5.909   5.262   5.479  0.2135  0.4645 -0.2235
    1OL    H18R 5868   5.886   5.321   5.568  1.4115 -0.1716  0.5294
    1OL    H18S 5869   5.897   5.313   5.383 -2.1778  1.3225  0.5080
    1OL    H18T 5870   6.013   5.238   5.500  0.5236  1.4986 -0.5417
    1PA    C116 5871   0.587   1.221   5.540 -0.2005  0.3457 -0.0930
    1PA    H16R 5872   0.560   1.232   5.645 -0.0790  0.5803 -0.0873
    1PA    H16S 5873   0.651   1.299   5.500  0.8649 -0.1908  0.5106
    1PA    H16T 5874   0.644   1.127   5.535 -1.6713 -0.6683  1.5587
    1PA    C115 5875   0.456   1.216   5.462  0.1060 -0.1962  0.3692
    1PA    H15R 5876   0.393   1.299   5.494 -1.3645 -1.7561  1.5657
    1PA    H15S 5877   0.479   1.238   5.357  1.7393  1.8356  1.1040
    1PA    C114 5878   0.387   1.075   5.460  0.2509  0.3153  0.0448
    1PA    H14R 5879   0.303   1.074   5.390 -1.2365  0.4070  1.7968
    1PA    H14S 5880   0.452   0.991   5.434  0.0998 -0.5486  2.3616
    1PA    C113 5881   0.328   1.038   5.598 -0.6534 -0.5812  0.2729
    1PA    H13R 5882   0.332   0.929   5.606  1.2952 -0.8732 -3.6919
    1PA    H13S 5883   0.393   1.086   5.672  0.5905 -0.3007 -0.9805
    1PA    C112 5884   0.181   1.084   5.610  0.1368  0.1724 -0.6722
    1PA    H12R 5885   0.173   1.190   5.583  3.5293  0.8962  0.8625
    1PA    H12S 5886   0.116   1.025   5.545 -0.6499 -0.4255  0.6392
    1PA    C111 5887   0.129   1.061   5.755  0.9427 -0.4831  0.5702
    1PA    H11R 5888   0.145   0.956   5.780  0.8738 -0.4889  0.5892
    1PA    H11S 5889   0.184   1.129   5.821  0.5418  1.8504 -1.4038
    1PA    C110 5890  -0.021   1.089   5.762  0.1875  0.5089  0.3071
    1PA    H10R 5891  -0.042   1.196   5.754 -1.2681  0.1172 -1.4642
    1PA    H10S 5892  -0.074   1.053   5.673  4.3771 -0.1805 -2.0513
    1PA     C19 5893  -0.087   1.031   5.890 -0.1520 -0.2008 -0.2966
    1PA     H9R 5894  -0.194   1.050   5.886  0.1864  1.7985 -0.5061
    1PA     H9S 5895  -0.072   0.923   5.880  0.6154 -0.1122 -0.1209
    1PA     C18 5896  -0.034   1.062   6.027  0.1405  0.2618  0.6543
    1PA     H8R 5897  -0.087   0.993   6.094  3.3091 -1.2966  1.6328
    1PA     H8S 5898   0.071   1.034   6.034 -0.1825 -1.6872 -1.6206
    1PA     C17 5899  -0.056   1.216   6.057 -0.0565  0.2869  0.0976
    1PA     H7R 5900   0.001   1.279   5.988  0.7766  1.1485  1.5607
    1PA     H7S 5901  -0.159   1.245   6.039 -0.5908 -1.1861  0.6847
    1PA     C16 5902  -0.005   1.260   6.192 -0.0736  0.7778 -0.3396
    1PA     H6R 5903  -0.032   1.365   6.207 -0.1373  0.8908 -1.2155
    1PA     H6S 5904  -0.053   1.207   6.274 -1.1437  2.9374  0.4904
    1PA     C15 5905   0.152   1.248   6.214  0.1483 -0.2534  0.5444
    1PA     H5R 5906   0.180   1.143   6.222 -0.2738 -0.1990  3.1594
    1PA     H5S 5907   0.205   1.279   6.123  0.1341 -2.7164 -0.3346
    1PA     C14 5908   0.197   1.326   6.333 -0.1062  0.5243  0.0934
    1PA     H4R 5909   0.305   1.336   6.348 -0.2018  1.8213  0.0027
    1PA     H4S 5910   0.167   1.429   6.316  0.0453  0.6916  0.8344
    1PA     C13 5911   0.136   1.280   6.467  0.0077  0.2256 -0.1067
    1PA     H3R 5912   0.131   1.357   6.545 -1.3005 -0.5233  0.5751
    1PA     H3S 5913   0.031   1.259   6.445  0.0946  0.3659 -0.6643
    1PA     C12 5914   0.201   1.145   6.517  0.1950 -0.2702 -0.7649
    1PA     H2R 5915   0.181   1.078   6.433  1.7652  1.4200 -2.5880
    1PA     H2S 5916   0.310   1.152   6.528 -0.0951 -1.4966  3.6278
    1PC     C11 5917   0.144   1.096   6.651  0.3170 -0.3445  0.2274
    1PC     O12 5918   0.118   1.167   6.740 -0.3577 -0.6325 -0.0893
    1PC     O11 5919   0.125   0.965   6.655  0.0441 -0.2012 -0.3148
    1PC      C1 5920   0.088   0.898   6.781 -0.2836  0.5098  0.0620
    1PC      HR 5921   0.140   0.942   6.867 -2.7207  2.1308  0.7657
    1PC      HS 5922  -0.018   0.915   6.799 -0.5175 -0.3735 -0.4539
    1PC      C2 5923   0.111   0.744   6.767 -0.2514  0.3692  0.7776
    1PC      HX 5924   0.057   0.689   6.845 -1.3910  1.0299  0.4773
    1PC      C3 5925   0.269   0.723   6.785  0.5972  0.4445  0.6381
    1PC      HA 5926   0.298   0.618   6.786 -0.9982 -0.0109  0.3838
    1PC      HB 5927   0.328   0.775   6.709  0.9608  0.3957  0.8905
    1PC     O31 5928   0.311   0.793   6.912 -1.0468  0.3558  0.8355
    1PC     P31 5929   0.299   0.732   7.058 -0.2763 -0.3245 -0.5033
    1PC     O32 5930   0.437   0.700   7.120 -0.0594  0.1176  0.1405
    1PC     C31 5931   0.499   0.571   7.115 -0.5830  0.3267  0.2804
    1PC     H1A 5932   0.434   0.500   7.167  0.4390 -1.9559 -1.4814
    1PC     H1B 5933   0.514   0.535   7.013  2.3989 -1.4456  1.3003
    1PC     C32 5934   0.639   0.577   7.186  0.6028  0.1398  0.5192
    1PC     H2A 5935   0.711   0.498   7.165  1.1778  0.7539  0.1711
    1PC     H2B 5936   0.681   0.674   7.158  0.6902  0.2783  1.1187
    1PC     N31 5937   0.632   0.578   7.339  0.7220  0.0095 -0.3732
    1PC     C33 5938   0.768   0.560   7.396 -0.8373  0.0427  0.6256
    1PC     H3A 5939   0.771   0.610   7.492 -1.7638  0.6338  0.3517
    1PC     H3B 5940   0.778   0.451   7.392  0.2281  0.1383  0.6782
    1PC     H3C 5941   0.848   0.595   7.331 -2.0903 -0.2423 -1.1252
    1PC     C34 5942   0.582   0.707   7.390 -0.5186 -0.5288 -0.7981
    1PC     H4A 5943   0.485   0.730   7.347 -2.1126  0.3518  3.0295
    1PC     H4B 5944   0.573   0.699   7.499  1.1881 -1.3047 -0.6956
    1PC     H4C 5945   0.646   0.791   7.363 -1.8707  1.0589  0.7666
    1PC     C35 5946   0.551   0.474   7.403  0.8895 -0.1157  0.2862
    1PC     H5A 5947   0.451   0.486   7.363  1.3838  2.8042 -0.1865
    1PC     H5B 5948   0.564   0.479   7.511  1.6794 -0.1724  0.2001
    1PC     H5C 5949   0.590   0.379   7.365  0.3927 -1.6884  3.6027
    1PC     O33 5950   0.238   0.843   7.137 -0.6414  0.5568 -0.3441
    1PC     O34 5951   0.220   0.602   7.046  0.1838  0.2520 -0.2560
    1PC     O21 5952   0.061   0.705   6.632  0.4604  0.0546 -0.1607
    1PC     C21 5953   0.078   0.576   6.597 -0.4495  0.0713 -0.5871
    1PC     O22 5954   0.108   0.488   6.678  0.5018 -0.0904 -0.1836
    1OL     C12 5955   0.069   0.563   6.451  0.0500 -0.3465  1.2664
    1OL     H2R 5956   0.039   0.656   6.402  0.9056 -1.0981 -0.7235
    1OL     H2S 5957  -0.007   0.491   6.420  1.3710 -1.6036  0.9165
    1OL     C13 5958   0.207   0.529   6.397 -0.0900 -0.2978 -0.0737
    1OL     H3R 5959   0.234   0.426   6.423 -0.2476 -0.6419 -1.2498
    1OL     H3S 5960   0.285   0.587   6.447  0.5608  0.1227 -1.5424
    1OL     C14 5961   0.217   0.545   6.242 -0.0814 -0.2330  0.6362
    1OL     H4R 5962   0.121   0.512   6.203 -0.3211  0.1034  0.9405
    1OL     H4S 5963   0.289   0.475   6.199 -0.8784 -0.4727 -0.3384
    1OL     C15 5964   0.223   0.695   6.199 -0.1261  0.1906  0.3510
    1OL     H5R 5965   0.127   0.746   6.196 -0.6054 -0.5780  2.0456
    1OL     H5S 5966   0.254   0.699   6.094  0.5047 -0.7498  0.4932
    1OL     C16 5967   0.332   0.777   6.275 -0.5585 -0.1092 -0.2664
    1OL     H6R 5968   0.416   0.710   6.292 -1.5156 -1.4140 -0.6606
    1OL     H6S 5969   0.293   0.812   6.371  1.8439  1.8132  0.0466
    1OL     C17 5970   0.377   0.899   6.202  0.4906 -1.3887 -0.0994
    1OL     H7R 5971   0.337   0.985   6.255  0.0503 -1.2802 -0.5902
    1OL     H7S 5972   0.318   0.906   6.110 -0.2797 -1.3449  0.3908
    1OL     C18 5973   0.525   0.903   6.164  1.0043  0.1223  0.3071
    1OL     H8R 5974   0.552   0.813   6.108  2.3112  1.2403 -0.8734
    1OL     H8S 5975   0.580   0.906   6.258  0.2261 -1.5324  0.8462
    1OL     C19 5976   0.549   1.031   6.088  0.2528  0.5720  0.0148
    1OL     H9R 5977   0.542   1.113   6.158  1.7132  0.6373  0.1006
    1OL    C110 5978   0.593   1.054   5.969  0.4309  0.5744  0.5251
    1OL    H10R 5979   0.612   1.154   5.932  2.1142 -0.4056 -1.3712
    1OL    C111 5980   0.634   0.936   5.877  0.5851 -0.2486 -0.9959
    1OL    H11R 5981   0.554   0.937   5.802  0.0287  0.3663 -0.3980
    1OL    H11S 5982   0.620   0.841   5.929 -0.8106  1.1565  1.2888
    1OL    C112 5983   0.772   0.960   5.808  0.1564  0.2239 -0.0473
    1OL    H12R 5984   0.848   0.943   5.884 -0.4986 -1.9820  0.1533
    1OL    H12S 5985   0.778   1.060   5.764  0.1540  0.0057 -0.5442
    1OL    C113 5986   0.809   0.852   5.702  0.6877  0.1913  0.6684
    1OL    H13R 5987   0.851   0.767   5.756  1.0840  1.2752  2.0913
    1OL    H13S 5988   0.893   0.887   5.642 -2.0960  2.3237 -2.1338
    1OL    C114 5989   0.703   0.803   5.600  0.0662  0.2470 -0.0462
    1OL    H14R 5990   0.664   0.894   5.552  0.8622 -1.3409 -3.8414
    1OL    H14S 5991   0.615   0.771   5.655 -0.0773  2.4302  1.0599
    1OL    C115 5992   0.754   0.701   5.496 -0.2818  0.0521  0.8111
    1OL    H15R 5993   0.765   0.606   5.550  1.4552 -0.8672 -1.0899
    1OL    H15S 5994   0.851   0.720   5.449  0.0019 -0.3750  1.2198
    1OL    C116 5995   0.652   0.695   5.378 -0.8757 -0.4687 -0.1520
    1OL    H16R 5996   0.673   0.785   5.320 -0.3194 -1.3793 -1.3888
    1OL    H16S 5997   0.552   0.700   5.421 -0.0241  2.1158  1.6554
    1OL    C117 5998   0.668   0.571   5.288  0.0191 -0.3191  0.2021
    1OL    H17R 5999   0.659   0.484   5.352 -0.4570 -0.4929 -0.0962
    1OL    H17S 6000   0.773   0.576   5.258  0.0440 -0.5432  0.2549
    1OL    C118 6001   0.585   0.564   5.164 -0.3881 -0.4317  0.0502
    1OL    H18R 6002   0.479   0.589   5.176 -1.1109 -2.9887 -0.6180
    1OL    H18S 6003   0.593   0.465   5.118  0.4473  0.1764 -1.1413
    1OL    H18T 6004   0.621   0.627   5.082  1.2940 -0.0652  1.0611
    1PA    C116 6005   0.042   0.600   5.446  0.5621 -0.7946  0.5112
    1PA    H16R 6006  -0.022   0.538   5.384  1.1993  1.0830 -2.0797
    1PA    H16S 6007   0.092   0.672   5.381 -1.5930  0.4210  0.1820
    1PA    H16T 6008  -0.014   0.649   5.526 -0.3931  0.5218 -0.9590
    1PA    C115 6009   0.150   0.510   5.517  0.3511 -0.9087 -0.0597
    1PA    H15R 6010   0.086   0.440   5.571 -0.6918  2.1513  2.8972
    1PA    H15S 6011   0.215   0.466   5.441 -1.0960 -2.3204 -0.5007
    1PA    C114 6012   0.244   0.579   5.621 -0.4644  0.2400  0.1204
    1PA    H14R 6013   0.285   0.670   5.577  2.2555  0.0026  2.0295
    1PA    H14S 6014   0.187   0.619   5.704 -1.0381 -2.3804  1.0604
    1PA    C113 6015   0.342   0.474   5.682 -1.1717  0.0938  0.4452
    1PA    H13R 6016   0.284   0.388   5.716 -2.7645  1.4205  1.1627
    1PA    H13S 6017   0.417   0.447   5.607 -0.6460 -1.1165  1.3807
    1PA    C112 6018   0.421   0.536   5.801 -0.1771  0.3046 -0.2542
    1PA    H12R 6019   0.455   0.635   5.770 -1.5619  1.3124  1.3460
    1PA    H12S 6020   0.360   0.540   5.892 -0.2031  0.2396 -0.2684
    1PA    C111 6021   0.545   0.453   5.831 -0.0769  0.3313 -0.5336
    1PA    H11R 6022   0.507   0.356   5.866 -0.5869  0.2402 -1.3374
    1PA    H11S 6023   0.598   0.435   5.738  1.4775  0.5435  0.2955
    1PA    C110 6024   0.649   0.520   5.928 -0.2787 -0.5428 -0.0401
    1PA    H10R 6025   0.748   0.477   5.913 -0.7048 -1.4187 -0.3405
    1PA    H10S 6026   0.660   0.623   5.892 -0.5051 -0.4353  0.1930
    1PA     C19 6027   0.619   0.520   6.076  0.2339 -0.2459 -0.0059
    1PA     H9R 6028   0.704   0.552   6.137 -1.5094  0.1140  2.2977
    1PA     H9S 6029   0.534   0.587   6.096  0.9754  0.4217  0.9993
    1PA     C18 6030   0.572   0.374   6.121 -0.2411  0.2108 -0.1811
    1PA     H8R 6031   0.470   0.353   6.088 -0.3178 -2.4086  1.5760
    1PA     H8S 6032   0.644   0.301   6.084 -0.7885 -0.7397  0.5831
    1PA     C17 6033   0.558   0.369   6.271 -0.8500  0.3913 -0.1156
    1PA     H7R 6034   0.657   0.385   6.315 -1.3046  4.2494 -0.3222
    1PA     H7S 6035   0.501   0.451   6.316  1.4147  0.8105  2.1315
    1PA     C16 6036   0.506   0.228   6.315  0.0000  0.2921 -0.9152
    1PA     H6R 6037   0.405   0.223   6.273  0.8222 -4.0011 -2.6470
    1PA     H6S 6038   0.572   0.159   6.263  1.0151  2.4489 -2.5532
    1PA     C15 6039   0.515   0.194   6.465  0.1386  0.0499 -0.3902
    1PA     H5R 6040   0.623   0.180   6.474  0.2649 -0.4796 -2.5177
    1PA     H5S 6041   0.489   0.277   6.531  2.2988 -1.3050  2.2691
    1PA     C14 6042   0.446   0.063   6.507  0.0481  0.1434 -0.5667
    1PA     H4R 6043   0.499  -0.019   6.457  1.9647 -0.8502  2.9517
    1PA     H4S 6044   0.470   0.053   6.613 -1.3144  1.5902 -0.1059
    1PA     C13 6045   0.293   0.058   6.479 -0.5432 -0.3989  0.5673
    1PA     H3R 6046   0.248   0.146   6.526 -0.2072 -0.2040  0.5236
    1PA     H3S 6047   0.271   0.069   6.373 -0.9149 -0.5482  0.6264
    1PA     C12 6048   0.215  -0.063   6.538  0.4044  0.5151  0.2329
    1PA     H2R 6049   0.224  -0.067   6.647 -0.4804 -1.9347  0.2426
    1PA     H2S 6050   0.111  -0.063   6.506  0.9096  1.6838 -1.4699
    1PC     C11 6051   0.273  -0.194   6.494 -0.2150 -0.2319 -0.3801
    1PC     O12 6052   0.260  -0.238   6.380 -0.1898  0.1358  0.0666
    1PC     O11 6053   0.336  -0.264   6.590  0.1611  0.8309 -0.3767
    1PC      C1 6054   0.366  -0.409   6.579  0.4665 -0.0445 -0.1076
    1PC      HR 6055   0.273  -0.458   6.610 -0.1123 -0.3405 -2.2644
    1PC      HS 6056   0.389  -0.440   6.477  0.0734  2.4665 -1.0054
    1PC      C2 6057   0.475  -0.436   6.675  0.4384  0.1803  0.5534
    1PC      HX 6058   0.498  -0.543   6.667 -0.8762 -0.2066  1.5960
    1PC      C3 6059   0.440  -0.408   6.822 -0.1978  0.3667  0.3288
    1PC      HA 6060   0.396  -0.309   6.835  1.2612  1.5623 -3.1696
    1PC      HB 6061   0.370  -0.485   6.856  0.0789  1.4064  3.4474
    1PC     O31 6062   0.565  -0.418   6.906  0.5592  0.4586  0.4953
    1PC     P31 6063   0.563  -0.370   7.054 -0.1404 -0.4862 -0.1509
    1PC     O32 6064   0.507  -0.224   7.056 -0.2026  0.2584  0.4420
    1PC     C31 6065   0.587  -0.117   7.021  1.1283  0.0290  0.4106
    1PC     H1A 6066   0.682  -0.114   7.075  1.4859 -0.7060 -0.1716
    1PC     H1B 6067   0.614  -0.133   6.916 -0.5384  1.0358 -0.1923
    1PC     C32 6068   0.511   0.006   7.056 -0.1180  0.5042  0.0833
    1PC     H2A 6069   0.578   0.091   7.044  0.2530  0.2228  0.1463
    1PC     H2B 6070   0.413   0.021   7.009 -0.7581  2.2858  1.9115
    1PC     N31 6071   0.463   0.014   7.198  0.2544 -0.2648 -0.0695
    1PC     C33 6072   0.435   0.157   7.236 -0.5232  0.6759  0.8242
    1PC     H3A 6073   0.536   0.197   7.235  0.0253 -0.7074 -0.3816
    1PC     H3B 6074   0.367   0.196   7.160 -0.6649 -1.7361 -0.3290
    1PC     H3C 6075   0.403   0.167   7.340  1.2058  2.8006  1.1801
    1PC     C34 6076   0.336  -0.060   7.222 -0.0901  0.2888 -0.1670
    1PC     H4A 6077   0.357  -0.165   7.201 -0.0342  0.1798  0.4234
    1PC     H4B 6078   0.303  -0.053   7.326 -0.9991  0.1935 -0.4412
    1PC     H4C 6079   0.258  -0.016   7.160 -0.7758 -0.7665 -0.0790
    1PC     C35 6080   0.572  -0.029   7.292  0.0700 -0.3641  0.2699
    1PC     H5A 6081   0.554  -0.002   7.397  1.5497 -1.4560  0.8211
    1PC     H5B 6082   0.667   0.011   7.257 -0.9361  1.2290 -0.6758
    1PC     H5C 6083   0.574  -0.136   7.275  1.7196 -0.1786 -0.8043
    1PC     O33 6084   0.474  -0.459   7.127  0.3115 -0.2994 -0.1249
    1PC     O34 6085   0.709  -0.369   7.097 -0.0792  0.3175 -0.0563
    1PC     O21 6086   0.587  -0.348   6.641 -0.2067 -0.8223  1.0129
    1PC     C21 6087   0.706  -0.400   6.623  0.3315 -0.1933  0.0831
    1PC     O22 6088   0.724  -0.524   6.630  0.6044  0.1848  0.3632
    1OL     C12 6089   0.811  -0.299   6.605 -0.4565 -0.0733  0.5382
    1OL     H2R 6090   0.900  -0.340   6.654 -0.9987 -4.4389 -1.8613
    1OL     H2S 6091   0.788  -0.205   6.654 -0.6964  0.5022 -0.6659
    1OL     C13 6092   0.841  -0.275   6.452 -0.3924  0.7324 -0.8674
    1OL     H3R 6093   0.873  -0.370   6.408  0.0624  0.5998 -0.2507
    1OL     H3S 6094   0.927  -0.208   6.443 -0.3176  0.7657  0.0502
    1OL     C14 6095   0.725  -0.224   6.362 -0.5233 -0.2179 -0.4718
    1OL     H4R 6096   0.710  -0.122   6.399  0.8713 -0.7807  1.7767
    1OL     H4S 6097   0.634  -0.276   6.393 -1.9932  0.9431 -2.6860
    1OL     C15 6098   0.759  -0.246   6.214 -0.5393  0.3693 -0.6081
    1OL     H5R 6099   0.755  -0.350   6.182 -0.1099  0.0915  0.2390
    1OL     H5S 6100   0.867  -0.228   6.214 -0.7700  1.8349  0.1875
    1OL     C16 6101   0.673  -0.149   6.128  0.5104 -0.2616 -0.5346
    1OL     H6R 6102   0.708  -0.151   6.024  2.7052 -1.1313  0.2075
    1OL     H6S 6103   0.690  -0.048   6.165  3.9746 -1.5955  1.6952
    1OL     C17 6104   0.523  -0.201   6.132 -0.0142 -0.4264 -0.7561
    1OL     H7R 6105   0.469  -0.183   6.225 -1.6979 -1.2997 -1.5573
    1OL     H7S 6106   0.522  -0.308   6.111 -0.0166 -0.4085 -0.8467
    1OL     C18 6107   0.434  -0.153   6.013  0.3832  0.2196 -0.1044
    1OL     H8R 6108   0.334  -0.194   6.024 -0.2383  1.4565 -1.0251
    1OL     H8S 6109   0.490  -0.181   5.923  1.3976  1.4804  0.1003
    1OL     C19 6110   0.408  -0.000   6.017 -0.2857  0.7693 -0.4349
    1OL     H9R 6111   0.381   0.034   6.117 -1.2747  0.8955 -0.7400
    1OL    C110 6112   0.411   0.079   5.912  0.1915  0.1115 -0.8310
    1OL    H10R 6113   0.386   0.182   5.931 -0.5493 -0.2507  0.1743
    1OL    C111 6114   0.441   0.029   5.772 -0.5726  0.5340  0.0333
    1OL    H11R 6115   0.368  -0.043   5.736  1.9741 -2.1053 -0.0770
    1OL    H11S 6116   0.543  -0.011   5.773 -1.2971 -1.3615 -0.3417
    1OL    C112 6117   0.449   0.145   5.667 -0.3769 -0.3343 -0.7933
    1OL    H12R 6118   0.516   0.225   5.699  0.1136  0.7839 -4.3841
    1OL    H12S 6119   0.355   0.199   5.657  1.2102  2.6394 -0.1705
    1OL    C113 6120   0.476   0.102   5.526  0.2689  0.5109  0.3794
    1OL    H13R 6121   0.455   0.184   5.458 -2.8074 -0.0974  0.5374
    1OL    H13S 6122   0.407   0.022   5.499  1.0315 -0.3411  0.8861
    1OL    C114 6123   0.623   0.079   5.502 -0.6144  0.5744  0.4237
    1OL    H14R 6124   0.665   0.022   5.585  0.5888  1.7861  0.6573
    1OL    H14S 6125   0.686   0.169   5.502  1.0329 -0.5523 -0.3692
    1OL    C115 6126   0.647  -0.008   5.371 -0.7280  0.6155 -0.1727
    1OL    H15R 6127   0.600   0.049   5.290 -3.3012 -1.1421  0.0059
    1OL    H15S 6128   0.587  -0.098   5.384  1.7619 -1.1914 -0.8900
    1OL    C116 6129   0.794  -0.033   5.336 -1.1444  0.2532  0.2318
    1OL    H16R 6130   0.847   0.061   5.319 -0.9259  0.1158  0.1585
    1OL    H16S 6131   0.801  -0.093   5.246  0.3598 -2.6482  2.2087
    1OL    C117 6132   0.876  -0.120   5.434  0.6484  0.2307 -0.0454
    1OL    H17R 6133   0.831  -0.219   5.442 -0.3186  0.7661  1.4797
    1OL    H17S 6134   0.887  -0.069   5.530  1.3675  0.1693 -0.0969
    1OL    C118 6135   1.029  -0.141   5.384  0.2721 -0.0235 -0.2766
    1OL    H18R 6136   1.033  -0.202   5.294 -0.8315  1.5163 -1.4064
    1OL    H18S 6137   1.083  -0.185   5.468 -0.4987  1.9067  1.2844
    1OL    H18T 6138   1.082  -0.046   5.370 -0.1222  0.3173  0.4929
    1PA    C116 6139   3.570   1.846   5.154 -0.1319  0.4137 -0.3646
    1PA    H16R 6140   3.667   1.876   5.196 -0.2895 -0.1199  0.3920
    1PA    H16S 6141   3.571   1.750   5.102  1.8001 -0.3510  1.0392
    1PA    H16T 6142   3.499   1.845   5.237  0.7505  2.8377  0.4470
    1PA    C115 6143   3.540   1.947   5.047 -0.1765 -0.5183 -0.3260
    1PA    H15R 6144   3.553   2.046   5.091  2.4020 -0.5242 -0.9792
    1PA    H15S 6145   3.618   1.938   4.971 -0.4332 -2.5482 -0.3604
    1PA    C114 6146   3.400   1.936   4.981  0.2323  0.5227  0.4624
    1PA    H14R 6147   3.384   1.828   4.975  0.2008  0.6601 -2.3163
    1PA    H14S 6148   3.318   1.971   5.045  0.8108  2.3989  0.2197
    1PA    C113 6149   3.392   1.996   4.838 -0.6063 -0.1214  0.1863
    1PA    H13R 6150   3.412   2.103   4.852  3.8522 -1.1276  2.5183
    1PA    H13S 6151   3.479   1.958   4.784  2.4875  1.7880  3.5662
    1PA    C112 6152   3.265   1.967   4.757 -0.0201 -0.2255 -0.0329
    1PA    H12R 6153   3.238   1.861   4.764 -0.9511 -0.1199 -1.9797
    1PA    H12S 6154   3.187   2.014   4.816  1.8559  0.5125  1.9295
    1PA    C111 6155   3.241   2.019   4.619  0.1650 -0.0268  1.1162
    1PA    H11R 6156   3.291   2.116   4.609 -1.5279  0.6500 -1.2884
    1PA    H11S 6157   3.298   1.959   4.549 -0.1720  1.1878 -0.2270
    1PA    C110 6158   3.093   2.035   4.572  0.5244  0.0417  0.5386
    1PA    H10R 6159   3.032   2.083   4.648 -0.4539 -0.9407  0.3757
    1PA    H10S 6160   3.105   2.105   4.489  3.0123  0.5555  1.2843
    1PA     C19 6161   3.035   1.908   4.502  0.1787 -0.9644 -0.0464
    1PA     H9R 6162   3.047   1.820   4.565 -1.3955 -2.4611 -1.7789
    1PA     H9S 6163   2.928   1.925   4.488  0.5897  1.5049 -0.3800
    1PA     C18 6164   3.097   1.870   4.369 -0.1266  0.2744  0.2190
    1PA     H8R 6165   3.072   1.955   4.306 -0.1352  1.7866  2.2243
    1PA     H8S 6166   3.206   1.861   4.375 -0.3275 -0.5133  3.0251
    1PA     C17 6167   3.019   1.749   4.302 -0.3435 -0.4511 -0.6175
    1PA     H7R 6168   3.046   1.662   4.362 -2.2176  0.7363  2.0818
    1PA     H7S 6169   2.911   1.767   4.297 -0.3558 -0.2768  0.2141
    1PA     C16 6170   3.072   1.727   4.154 -0.2260  0.2935 -0.0655
    1PA     H6R 6171   3.057   1.824   4.106  0.7407  0.7235  0.4864
    1PA     H6S 6172   3.177   1.700   4.163  0.0519  0.8329 -1.6300
    1PA     C15 6173   3.010   1.612   4.074  0.4960  0.3118  0.4959
    1PA     H5R 6174   3.013   1.526   4.141 -1.2914  0.3144  0.6008
    1PA     H5S 6175   2.904   1.636   4.064  0.8616  2.6916  2.0337
    1PA     C14 6176   3.079   1.589   3.933  0.1083  0.5827 -0.2022
    1PA     H4R 6177   3.082   1.678   3.869  0.6668  0.6293 -0.1193
    1PA     H4S 6178   3.184   1.565   3.949  0.5056  0.8835 -2.1615
    1PA     C13 6179   3.029   1.460   3.861 -0.1483 -0.1655  0.0931
    1PA     H3R 6180   3.095   1.459   3.775  0.4575  0.0919  0.5524
    1PA     H3S 6181   3.050   1.370   3.920  0.6696  0.9672  1.5471
    1PA     C12 6182   2.879   1.455   3.825  0.1526 -0.1630  0.0533
    1PA     H2R 6183   2.851   1.350   3.829 -0.7010  0.0514 -0.1964
    1PA     H2S 6184   2.812   1.502   3.897 -1.0543 -0.8270 -0.6228
    1PC     C11 6185   2.841   1.510   3.686 -1.1584  0.0924 -0.0219
    1PC     O12 6186   2.909   1.484   3.590 -0.2200  0.2528 -0.3363
    1PC     O11 6187   2.724   1.577   3.686 -0.1720 -0.1337  0.0837
    1PC      C1 6188   2.677   1.633   3.558  0.0195  0.2213  0.2851
    1PC      HR 6189   2.757   1.662   3.490  1.3255  2.2788  2.5865
    1PC      HS 6190   2.616   1.560   3.505  0.9888 -0.2033 -0.2506
    1PC      C2 6191   2.605   1.771   3.595  0.1164  0.1645 -0.1231
    1PC      HX 6192   2.531   1.743   3.671  0.6791  0.1231  0.4145
    1PC      C3 6193   2.544   1.840   3.475  0.2102 -0.0769 -0.1098
    1PC      HA 6194   2.479   1.761   3.437 -0.5176 -0.8692  2.7159
    1PC      HB 6195   2.478   1.919   3.512 -0.6351 -0.3846 -0.9084
    1PC     O31 6196   2.657   1.871   3.389 -0.9731  0.2107 -0.0424
    1PC     P31 6197   2.643   2.005   3.293 -0.0846 -0.1899 -0.3203
    1PC     O32 6198   2.607   2.134   3.388 -0.1316  0.2027  0.3787
    1PC     C31 6199   2.708   2.202   3.465  0.4671 -0.0278 -0.7288
    1PC     H1A 6200   2.698   2.173   3.570 -1.0095  0.5586 -0.6914
    1PC     H1B 6201   2.804   2.178   3.421  0.4085 -1.9623  0.1530
    1PC     C32 6202   2.688   2.355   3.450 -0.5282 -0.0155  0.3879
    1PC     H2A 6203   2.589   2.373   3.493 -0.8739 -2.6712  0.7552
    1PC     H2B 6204   2.759   2.408   3.513  2.2285 -0.1687 -2.4639
    1PC     N31 6205   2.685   2.418   3.315  0.3525 -0.1325  0.2067
    1PC     C33 6206   2.558   2.385   3.235 -0.4713 -0.0602 -0.1543
    1PC     H3A 6207   2.506   2.301   3.281  1.4183 -0.6239  1.0113
    1PC     H3B 6208   2.502   2.477   3.219  1.0396  0.6756 -1.3223
    1PC     H3C 6209   2.577   2.355   3.132 -3.1024 -3.3523  0.2288
    1PC     C34 6210   2.708   2.565   3.337  0.9013 -0.1569  0.7645
    1PC     H4A 6211   2.801   2.572   3.393  0.5325  3.2092  1.0661
    1PC     H4B 6212   2.720   2.610   3.238  1.7085 -1.4868  0.2494
    1PC     H4C 6213   2.626   2.615   3.388 -1.7729 -1.9184 -1.6822
    1PC     C35 6214   2.804   2.366   3.238  0.2981 -0.2591 -0.1555
    1PC     H5A 6215   2.899   2.398   3.283  1.1830  0.5170 -2.5005
    1PC     H5B 6216   2.789   2.406   3.137 -2.3298  1.7527  0.9773
    1PC     H5C 6217   2.806   2.257   3.235 -1.3504 -0.3878  2.2700
    1PC     O33 6218   2.779   2.030   3.243  0.1443 -1.0497 -0.4507
    1PC     O34 6219   2.530   1.983   3.197  0.3950  0.4707 -0.2009
    1PC     O21 6220   2.708   1.866   3.648  0.1695  0.4231  0.9969
    1PC     C21 6221   2.680   1.929   3.761  0.2783 -0.2698 -0.2603
    1PC     O22 6222   2.565   1.930   3.810  0.2861  0.4682 -0.3431
    1OL     C12 6223   2.805   1.992   3.825  0.5131 -0.2260  0.0584
    1OL     H2R 6224   2.859   2.053   3.752  2.0893 -2.5293 -0.7574
    1OL     H2S 6225   2.879   1.918   3.855  1.9514  0.4069 -1.8135
    1OL     C13 6226   2.766   2.073   3.953  0.5646 -0.2264 -0.1026
    1OL     H3R 6227   2.720   1.997   4.016 -2.3425  0.2236 -1.5974
    1OL     H3S 6228   2.678   2.136   3.937  2.0798  1.4740 -1.9265
    1OL     C14 6229   2.881   2.147   4.027  0.2512  0.9988  0.5054
    1OL     H4R 6230   2.938   2.210   3.957  3.0640  0.4161  2.1816
    1OL     H4S 6231   2.955   2.071   4.054 -0.1585 -0.0940 -1.3513
    1OL     C15 6232   2.828   2.238   4.140  0.1877 -0.4943  0.4076
    1OL     H5R 6233   2.772   2.177   4.212  0.3507 -0.2309  0.7591
    1OL     H5S 6234   2.767   2.315   4.092  0.6291 -0.2885  0.1795
    1OL     C16 6235   2.943   2.304   4.215  0.0427 -0.2517  0.2229
    1OL     H6R 6236   3.012   2.351   4.145 -1.2908  0.3021 -0.7429
    1OL     H6S 6237   2.995   2.227   4.272  0.7324  0.1767  0.1771
    1OL     C17 6238   2.897   2.412   4.311 -0.7147 -0.3717 -0.2078
    1OL     H7R 6239   2.817   2.372   4.373 -1.2909  0.6354 -0.2903
    1OL     H7S 6240   2.870   2.497   4.248 -2.1037  0.5087  1.5489
    1OL     C18 6241   3.014   2.454   4.405 -0.0208  0.3219 -0.2428
    1OL     H8R 6242   3.101   2.495   4.354 -0.1726  0.4614 -0.3873
    1OL     H8S 6243   3.047   2.360   4.449 -2.5485 -0.6391 -0.3195
    1OL     C19 6244   2.961   2.556   4.499 -0.3204 -1.1671 -0.3177
    1OL     H9R 6245   2.891   2.629   4.459 -0.4850 -0.4333  1.2799
    1OL    C110 6246   2.992   2.573   4.625  0.5751  0.5917 -0.1605
    1OL    H10R 6247   2.952   2.652   4.689 -0.9254 -0.2444 -0.0525
    1OL    C111 6248   3.094   2.482   4.693  0.8744  0.3289  0.6572
    1OL    H11R 6249   3.156   2.539   4.763  1.3733 -0.9257  1.2533
    1OL    H11S 6250   3.163   2.427   4.629 -0.5673 -1.0611  0.2590
    1OL    C112 6251   3.024   2.377   4.786 -0.0511 -0.3792 -0.9121
    1OL    H12R 6252   2.957   2.320   4.721 -0.5762  1.7735 -2.2904
    1OL    H12S 6253   2.954   2.419   4.859  0.2374  3.2145 -2.6327
    1OL    C113 6254   3.132   2.293   4.865 -0.0127  0.4520  0.0986
    1OL    H13R 6255   3.214   2.271   4.796  0.5870  2.5658  0.0958
    1OL    H13S 6256   3.088   2.202   4.906  0.4545 -0.1780 -0.7733
    1OL    C114 6257   3.205   2.366   4.977 -0.3357  0.2598 -0.2679
    1OL    H14R 6258   3.250   2.458   4.940 -0.1066  1.1374  2.1146
    1OL    H14S 6259   3.290   2.304   5.009  1.0074  0.1485 -3.8470
    1OL    C115 6260   3.117   2.414   5.092  0.3226  0.1485  0.4742
    1OL    H15R 6261   3.028   2.351   5.094  1.0806 -0.9014  1.9784
    1OL    H15S 6262   3.090   2.516   5.063  0.7278  0.4424  1.1291
    1OL    C116 6263   3.201   2.425   5.223  0.3923  0.1414 -0.0937
    1OL    H16R 6264   3.290   2.488   5.216 -0.6024  1.6772  0.9728
    1OL    H16S 6265   3.224   2.324   5.259  0.6167  0.1754 -0.1392
    1OL    C117 6266   3.124   2.491   5.338  0.1980  0.1190  0.3218
    1OL    H17R 6267   3.087   2.591   5.311 -1.4157  0.1551  2.4778
    1OL    H17S 6268   3.186   2.502   5.427  0.3401  1.9080  0.0218
    1OL    C118 6269   3.006   2.398   5.389 -0.5391 -0.5586  0.2500
    1OL    H18R 6270   2.945   2.366   5.305  0.7607 -2.8144  0.1136
    1OL    H18S 6271   2.941   2.451   5.459 -1.9235 -0.6140 -0.9720
    1OL    H18T 6272   3.056   2.311   5.432  0.7124  0.6511  1.3221
    1PA    C116 6273   3.158   3.270   4.837 -0.7607  0.8191 -0.6043
    1PA    H16R 6274   3.053   3.296   4.826 -1.1245 -0.1650  0.4301
    1PA    H16S 6275   3.216   3.354   4.877  0.6738  1.3829 -3.6939
    1PA    H16T 6276   3.175   3.178   4.893 -1.1036  0.2679 -1.3943
    1PA    C115 6277   3.207   3.250   4.690  0.0719 -0.0126 -0.0009
    1PA    H15R 6278   3.315   3.235   4.685  0.2737  1.1952  0.5233
    1PA    H15S 6279   3.152   3.166   4.647  1.4846 -0.4003 -1.1043
    1PA    C114 6280   3.189   3.380   4.605  0.9367  0.3747 -0.6925
    1PA    H14R 6281   3.093   3.424   4.632  0.5912 -1.6411  1.5589
    1PA    H14S 6282   3.258   3.453   4.648  1.5863 -0.6301 -0.0038
    1PA    C113 6283   3.221   3.367   4.461  0.6579 -0.2874 -0.1426
    1PA    H13R 6284   3.317   3.315   4.462 -0.7043 -2.8653  0.1898
    1PA    H13S 6285   3.148   3.312   4.401  0.1671  0.0793  0.1109
    1PA    C112 6286   3.269   3.498   4.399 -0.1173 -0.1866  0.2582
    1PA    H12R 6287   3.196   3.579   4.407 -0.5031 -0.5965  1.0190
    1PA    H12S 6288   3.359   3.533   4.449  0.1339  1.1988 -1.1322
    1PA    C111 6289   3.307   3.488   4.248  0.4293 -0.2084 -0.5969
    1PA    H11R 6290   3.220   3.484   4.182  0.3486  0.2728 -0.5201
    1PA    H11S 6291   3.351   3.584   4.223  0.9210 -0.3279 -0.2033
    1PA    C110 6292   3.417   3.397   4.191 -0.4689  0.6031  0.2044
    1PA    H10R 6293   3.496   3.391   4.265  1.1313 -0.2824 -1.5281
    1PA    H10S 6294   3.374   3.298   4.174  1.2066  0.0203 -0.8199
    1PA     C19 6295   3.479   3.451   4.059 -0.2299 -0.4083 -0.1361
    1PA     H9R 6296   3.406   3.439   3.978  0.9772 -3.5722 -0.8599
    1PA     H9S 6297   3.503   3.555   4.080 -0.5787 -0.0143 -1.6552
    1PA     C18 6298   3.615   3.382   4.018  0.4486 -0.5930  0.1190
    1PA     H8R 6299   3.651   3.434   3.928  0.4012 -0.4619  0.1754
    1PA     H8S 6300   3.679   3.401   4.104  0.8183  1.3041 -0.5373
    1PA     C17 6301   3.610   3.228   3.996 -0.3148  0.1447 -0.1635
    1PA     H7R 6302   3.708   3.182   3.989  0.4670  1.6448  0.5689
    1PA     H7S 6303   3.576   3.193   4.094  0.7006  1.3999  0.6561
    1PA     C16 6304   3.509   3.170   3.896  0.6343 -0.4356  0.9673
    1PA     H6R 6305   3.408   3.209   3.907  0.1048 -1.7636  0.9335
    1PA     H6S 6306   3.539   3.199   3.795 -1.9443  1.0340  0.6052
    1PA     C15 6307   3.506   3.008   3.896  0.1589 -0.1444  0.7851
    1PA     H5R 6308   3.603   2.979   3.937  1.3170  2.8798  0.3242
    1PA     H5S 6309   3.424   2.975   3.961  0.9308 -0.8010  1.4330
    1PA     C14 6310   3.485   2.952   3.756  0.4897 -0.4252 -0.2367
    1PA     H4R 6311   3.404   3.005   3.705  0.2378 -2.0026 -1.5311
    1PA     H4S 6312   3.572   2.989   3.700 -0.6770 -0.7982 -2.3775
    1PA     C13 6313   3.466   2.801   3.744 -0.8166 -0.3398  0.0077
    1PA     H3R 6314   3.554   2.743   3.775 -0.5256  0.0029 -0.1751
    1PA     H3S 6315   3.386   2.769   3.812 -1.2752  1.7258  0.4753
    1PA     C12 6316   3.439   2.756   3.601  0.8115 -0.5100  0.2855
    1PA     H2R 6317   3.522   2.788   3.538 -0.1786 -0.1680 -0.8535
    1PA     H2S 6318   3.432   2.647   3.594  1.7167 -0.5405 -0.2077
    1PC     C11 6319   3.315   2.814   3.553 -0.1318 -0.7444 -0.6426
    1PC     O12 6320   3.205   2.761   3.571 -0.3327  0.2940  0.5922
    1PC     O11 6321   3.333   2.929   3.481 -0.2580  0.3389  0.7774
    1PC      C1 6322   3.227   2.997   3.411 -0.0152 -0.5133  0.9557
    1PC      HR 6323   3.211   2.947   3.314  2.2591 -1.8379  1.2262
    1PC      HS 6324   3.138   2.994   3.473 -1.7627 -1.2740 -1.4930
    1PC      C2 6325   3.273   3.148   3.382 -0.5317  0.4938  0.0757
    1PC      HX 6326   3.190   3.187   3.323  0.0560  0.2522 -0.9157
    1PC      C3 6327   3.405   3.166   3.305  0.3631  0.4937 -0.1837
    1PC      HA 6328   3.441   3.270   3.299  0.5974  0.4590  0.6183
    1PC      HB 6329   3.473   3.099   3.357 -0.5685 -0.5442 -0.2928
    1PC     O31 6330   3.386   3.103   3.176 -0.2094  0.7072 -0.6950
    1PC     P31 6331   3.362   3.190   3.044 -0.8485 -0.0705  0.1112
    1PC     O32 6332   3.500   3.257   3.021 -0.0355 -0.3245  0.3911
    1PC     C31 6333   3.601   3.207   2.929  0.0483 -0.2305 -0.0168
    1PC     H1A 6334   3.567   3.108   2.896 -1.6594  0.1664  0.5154
    1PC     H1B 6335   3.618   3.276   2.847  1.6445  0.0796  0.5440
    1PC     C32 6336   3.730   3.189   3.013 -0.0107 -0.1368  0.5218
    1PC     H2A 6337   3.707   3.140   3.108 -1.1435  0.9047  0.7858
    1PC     H2B 6338   3.805   3.136   2.954  0.4533  1.4640 -0.3345
    1PC     N31 6339   3.800   3.308   3.060 -0.0106 -0.1177 -0.3754
    1PC     C33 6340   3.727   3.384   3.164  0.1347 -0.0690  0.7755
    1PC     H3A 6341   3.708   3.324   3.253  0.8274  2.9881  3.0889
    1PC     H3B 6342   3.786   3.469   3.198 -2.4822  1.1204  2.5038
    1PC     H3C 6343   3.633   3.410   3.115 -1.0916 -2.4264  1.7978
    1PC     C34 6344   3.927   3.261   3.128  0.6082  0.4151  0.6519
    1PC     H4A 6345   3.991   3.342   3.163 -0.6230  1.4343  0.5857
    1PC     H4B 6346   3.896   3.199   3.213  1.1483  1.8002  1.8790
    1PC     H4C 6347   3.974   3.198   3.053  0.0150  0.1321  0.5166
    1PC     C35 6348   3.833   3.396   2.952  0.1976  0.7230 -0.0711
    1PC     H5A 6349   3.857   3.342   2.861  0.0329  1.0329 -0.2980
    1PC     H5B 6350   3.916   3.460   2.982  0.2049  0.0119  1.5241
    1PC     H5C 6351   3.749   3.458   2.921 -0.4850  1.0857  2.3705
    1PC     O33 6352   3.334   3.098   2.940  0.0171  0.1973 -0.7099
    1PC     O34 6353   3.266   3.297   3.088  0.5072  0.0006  0.2409
    1PC     O21 6354   3.297   3.225   3.506 -0.6199 -0.2030 -0.0141
    1PC     C21 6355   3.198   3.309   3.541 -0.2640 -0.5746  0.0360
    1PC     O22 6356   3.093   3.314   3.480 -0.2805  0.0012 -0.0938
    1OL     C12 6357   3.237   3.396   3.657 -0.3087 -0.5217 -0.1281
    1OL     H2R 6358   3.269   3.485   3.604 -1.2586 -1.0804 -1.6585
    1OL     H2S 6359   3.324   3.345   3.700 -0.6806  0.4224  1.7884
    1OL     C13 6360   3.138   3.410   3.769  0.8446 -0.3023 -0.6920
    1OL     H3R 6361   3.038   3.433   3.732 -0.2635 -1.8301  1.2403
    1OL     H3S 6362   3.179   3.497   3.821 -2.3722  1.0303 -0.2644
    1OL     C14 6363   3.134   3.289   3.869 -0.4507 -0.4662  0.1502
    1OL     H4R 6364   3.222   3.276   3.932 -0.7216  3.6258  1.5253
    1OL     H4S 6365   3.117   3.193   3.820  1.9414  0.7804 -3.3293
    1OL     C15 6366   3.017   3.313   3.969  0.2571 -0.2603 -0.1367
    1OL     H5R 6367   2.927   3.288   3.912  0.0482  0.7772 -0.2727
    1OL     H5S 6368   3.021   3.418   4.001  1.1715  0.4126 -2.3809
    1OL     C16 6369   3.029   3.212   4.081  0.4597  0.0454 -0.0061
    1OL     H6R 6370   3.117   3.228   4.143 -0.1686  1.8022  0.4502
    1OL     H6S 6371   3.032   3.106   4.055  1.7218  0.3353 -1.0857
    1OL     C17 6372   2.911   3.239   4.173 -0.1169 -0.4642 -0.8243
    1OL     H7R 6373   2.817   3.213   4.122 -1.0428  0.3407  0.4526
    1OL     H7S 6374   2.905   3.346   4.193 -0.4881 -0.3661 -1.4327
    1OL     C18 6375   2.918   3.161   4.308  0.0559  0.6277  0.0187
    1OL     H8R 6376   2.825   3.176   4.362 -0.3703 -3.2875  0.5021
    1OL     H8S 6377   2.999   3.187   4.377  1.5535  0.9011 -1.7887
    1OL     C19 6378   2.903   3.011   4.285 -0.3254 -1.1194  0.7297
    1OL     H9R 6379   2.891   2.986   4.180  1.2776  2.9997 -0.5336
    1OL    C110 6380   2.916   2.917   4.377 -0.0569 -0.3145  0.2326
    1OL    H10R 6381   2.892   2.814   4.351  1.6081 -0.3532 -1.2232
    1OL    C111 6382   2.940   2.945   4.520 -0.4260  0.8767 -0.2248
    1OL    H11R 6383   3.005   3.032   4.536  2.0829 -0.5513 -2.3074
    1OL    H11S 6384   2.996   2.859   4.557 -0.6001  0.7102 -0.3506
    1OL    C112 6385   2.804   2.955   4.592  0.2116 -0.0198  0.9177
    1OL    H12R 6386   2.754   2.858   4.594 -0.0395  0.1197  1.4506
    1OL    H12S 6387   2.741   3.034   4.551 -2.1175 -1.9891  0.5779
    1OL    C113 6388   2.825   3.001   4.738  0.1295 -0.0517 -0.2660
    1OL    H13R 6389   2.882   3.094   4.746  0.1427 -0.2088  1.7162
    1OL    H13S 6390   2.893   2.926   4.779  0.2461  0.4406  0.4510
    1OL    C114 6391   2.706   3.016   4.825  0.2900 -0.4028  0.0200
    1OL    H14R 6392   2.644   2.927   4.820 -0.0369 -0.0984 -2.0180
    1OL    H14S 6393   2.645   3.095   4.779  0.6913 -0.1378 -0.0625
    1OL    C115 6394   2.750   3.047   4.967  0.7297 -0.1077 -0.1161
    1OL    H15R 6395   2.666   3.095   5.019  1.8337  1.0611  0.6169
    1OL    H15S 6396   2.835   3.116   4.971 -1.8673  3.1807  1.1084
    1OL    C116 6397   2.776   2.919   5.046 -0.3925 -0.2507 -0.8981
    1OL    H16R 6398   2.828   2.843   4.987 -0.5919 -0.3514 -0.9465
    1OL    H16S 6399   2.675   2.876   5.052  0.2610 -1.4459  3.2869
    1OL    C117 6400   2.826   2.935   5.188  0.2022 -0.0801 -1.5007
    1OL    H17R 6401   2.754   3.005   5.233  2.1587  2.1684 -1.7398
    1OL    H17S 6402   2.926   2.980   5.190  0.2964 -0.2081  3.2813
    1OL    C118 6403   2.827   2.807   5.273 -0.5316 -0.8298 -0.0631
    1OL    H18R 6404   2.904   2.740   5.233 -0.7860  0.1359 -2.1950
    1OL    H18S 6405   2.728   2.762   5.272 -0.6212 -0.7274  2.1598
    1OL    H18T 6406   2.847   2.840   5.376 -0.7031  2.8206 -1.1254
    1PA    C116 6407   3.283   1.450   5.066  0.4894 -0.5760  1.2231
    1PA    H16R 6408   3.250   1.346   5.065 -1.6332  0.0439 -2.5168
    1PA    H16S 6409   3.213   1.519   5.019  2.3133  1.4443  1.3924
    1PA    H16T 6410   3.276   1.478   5.171  1.8430  0.1364  1.1302
    1PA    C115 6411   3.424   1.477   5.002  0.0363  0.0603 -0.0343
    1PA    H15R 6412   3.449   1.578   5.035  1.8221 -0.0759 -0.9189
    1PA    H15S 6413   3.499   1.416   5.052 -0.8506  1.2941  2.9494
    1PA    C114 6414   3.449   1.494   4.845  0.0042 -0.2360 -0.1346
    1PA    H14R 6415   3.370   1.557   4.803 -0.5800 -0.2173  0.9762
    1PA    H14S 6416   3.538   1.553   4.822 -0.2536  0.0105 -0.5004
    1PA    C113 6417   3.458   1.352   4.770 -0.1772 -0.2508 -0.4570
    1PA    H13R 6418   3.509   1.285   4.839 -1.9541  1.2327  2.3934
    1PA    H13S 6419   3.356   1.311   4.764 -0.2594 -0.4330  1.8707
    1PA    C112 6420   3.523   1.369   4.628  1.0534 -0.2474 -0.1474
    1PA    H12R 6421   3.627   1.401   4.637  0.6695  1.2317 -0.7521
    1PA    H12S 6422   3.523   1.274   4.574  0.0647 -0.2772 -0.1155
    1PA    C111 6423   3.465   1.483   4.539 -0.0425  0.6033 -0.0602
    1PA    H11R 6424   3.475   1.583   4.582  0.2077  0.0255  1.2345
    1PA    H11S 6425   3.532   1.487   4.453 -1.1164 -0.2750 -0.9440
    1PA    C110 6426   3.316   1.470   4.509 -0.1866 -0.1791 -0.4784
    1PA    H10R 6427   3.261   1.494   4.600  1.5765  0.4347  0.4555
    1PA    H10S 6428   3.294   1.543   4.431  0.6060 -0.7474 -1.2483
    1PA     C19 6429   3.283   1.332   4.447  0.5490 -0.3014  0.4917
    1PA     H9R 6430   3.354   1.314   4.366  0.1779 -0.2817  0.1618
    1PA     H9S 6431   3.304   1.252   4.519  0.1111 -0.0288  0.9277
    1PA     C18 6432   3.135   1.334   4.397  0.1474  0.4322  0.3466
    1PA     H8R 6433   3.075   1.370   4.480 -0.5056  2.3970 -0.9414
    1PA     H8S 6434   3.119   1.411   4.321  0.8888 -2.3053 -2.7218
    1PA     C17 6435   3.092   1.194   4.345  0.1891  0.0677 -0.0707
    1PA     H7R 6436   3.173   1.165   4.277  0.3983  1.6852 -0.5271
    1PA     H7S 6437   3.098   1.130   4.434 -1.4729 -0.2859 -0.1985
    1PA     C16 6438   2.959   1.186   4.266 -1.0614 -0.3064  0.1298
    1PA     H6R 6439   2.879   1.233   4.325 -0.3520  2.6795 -1.1598
    1PA     H6S 6440   2.977   1.249   4.179  0.9957  1.1980  1.5873
    1PA     C15 6441   2.934   1.042   4.220 -0.4349 -0.6139 -0.6402
    1PA     H5R 6442   2.954   0.985   4.311 -0.4811 -0.9715 -0.8511
    1PA     H5S 6443   2.830   1.043   4.186 -1.1400 -1.2443  1.4320
    1PA     C14 6444   3.025   0.988   4.110  0.5362  0.1172  0.5479
    1PA     H4R 6445   3.128   1.014   4.134  1.3204 -1.6557 -0.7949
    1PA     H4S 6446   3.014   0.879   4.111 -0.0730  0.1561 -0.7523
    1PA     C13 6447   2.991   1.034   3.968 -0.7079  0.6327 -0.4303
    1PA     H3R 6448   2.883   1.029   3.949 -0.6489 -0.2993 -0.5381
    1PA     H3S 6449   3.031   1.135   3.955  0.2686  0.3145  0.1445
    1PA     C12 6450   3.069   0.960   3.856  0.3803 -0.5200  0.2578
    1PA     H2R 6451   3.175   0.968   3.882  0.7688  1.6968 -1.9292
    1PA     H2S 6452   3.033   0.857   3.856  0.4051 -0.5420  1.5194
    1PC     C11 6453   3.040   1.026   3.723 -0.5497 -1.1308  0.0810
    1PC     O12 6454   2.927   1.040   3.673  0.1264  0.1455 -0.2111
    1PC     O11 6455   3.152   1.089   3.675  0.5433  0.0378  0.1252
    1PC      C1 6456   3.130   1.182   3.563  0.2211  0.0731  0.6275
    1PC      HR 6457   3.107   1.136   3.467  1.7771 -0.7277  0.6322
    1PC      HS 6458   3.047   1.249   3.589 -0.7956 -2.1691  3.4446
    1PC      C2 6459   3.260   1.261   3.540 -0.2602 -0.0401 -0.0565
    1PC      HX 6460   3.229   1.325   3.457 -0.2816 -1.2615 -0.9976
    1PC      C3 6461   3.368   1.157   3.504 -0.0800 -0.2710 -1.0113
    1PC      HA 6462   3.373   1.080   3.581 -1.1840  1.4256  0.8188
    1PC      HB 6463   3.341   1.102   3.414 -0.2045 -0.1784 -1.0310
    1PC     O31 6464   3.495   1.213   3.476  0.1348  0.2662  0.2226
    1PC     P31 6465   3.524   1.245   3.324  0.3418 -0.0540  0.0361
    1PC     O32 6466   3.585   1.118   3.270 -0.0940  0.2689  0.4990
    1PC     C31 6467   3.508   1.019   3.197 -0.3513  0.6783 -0.0519
    1PC     H1A 6468   3.450   0.960   3.268  3.5506 -1.2418  1.7159
    1PC     H1B 6469   3.437   1.069   3.131  0.0285  2.3915  0.7968
    1PC     C32 6470   3.604   0.935   3.111 -0.1173 -0.5552  0.1981
    1PC     H2A 6471   3.541   0.854   3.074  0.1124 -0.3124 -0.7387
    1PC     H2B 6472   3.643   0.981   3.020  2.0178 -0.4596  1.1307
    1PC     N31 6473   3.721   0.874   3.180 -0.8294  0.1796  0.0423
    1PC     C33 6474   3.832   0.966   3.207 -0.0737  0.1199 -0.0203
    1PC     H3A 6475   3.815   1.031   3.294  0.2577  1.2292 -0.7752
    1PC     H3B 6476   3.924   0.910   3.218  0.5057  0.9367 -0.6820
    1PC     H3C 6477   3.834   1.025   3.116  1.7225  1.0531  0.6145
    1PC     C34 6478   3.684   0.804   3.310 -0.3449  0.0559 -0.9752
    1PC     H4A 6479   3.770   0.745   3.342 -1.2067 -1.1707 -0.8617
    1PC     H4B 6480   3.648   0.885   3.374  0.5471  0.6065 -1.1647
    1PC     H4C 6481   3.607   0.733   3.280 -1.0451 -0.3391  1.6001
    1PC     C35 6482   3.768   0.752   3.096  0.2870 -0.4623  0.4761
    1PC     H5A 6483   3.839   0.687   3.149  3.4884  1.3426 -1.3972
    1PC     H5B 6484   3.823   0.788   3.009  0.6897  0.0943  0.9569
    1PC     H5C 6485   3.689   0.693   3.049  0.3608  0.2616 -0.5644
    1PC     O33 6486   3.396   1.280   3.251  0.1255 -0.2854 -0.0758
    1PC     O34 6487   3.637   1.335   3.320 -0.3656 -0.0927  0.0997
    1PC     O21 6488   3.297   1.333   3.663 -0.0945  0.2625 -0.1820
    1PC     C21 6489   3.354   1.451   3.637 -0.1041  0.5612  0.1335
    1PC     O22 6490   3.361   1.515   3.536 -0.0323  0.3941  0.5623
    1OL     C12 6491   3.414   1.488   3.769 -0.2834 -0.1971  0.0726
    1OL     H2R 6492   3.343   1.456   3.846  1.1384  0.9250  1.8832
    1OL     H2S 6493   3.415   1.597   3.777  0.1123 -0.1261 -1.0012
    1OL     C13 6494   3.553   1.439   3.807  0.0813 -0.1443 -0.3251
    1OL     H3R 6495   3.628   1.470   3.733 -0.2597 -0.0764 -0.6449
    1OL     H3S 6496   3.554   1.329   3.804  1.0856 -0.2844  3.2942
    1OL     C14 6497   3.577   1.460   3.955 -0.0328  0.7533 -0.2988
    1OL     H4R 6498   3.670   1.406   3.975 -0.9268  0.0076  1.9538
    1OL     H4S 6499   3.490   1.429   4.013 -0.4435  0.6812 -0.9539
    1OL     C15 6500   3.603   1.610   3.994 -0.4140  0.3976 -0.5362
    1OL     H5R 6501   3.525   1.680   3.965  0.7680  2.3903  0.9381
    1OL     H5S 6502   3.690   1.645   3.939 -1.6068  1.4038 -1.8069
    1OL     C16 6503   3.624   1.619   4.146  0.4991 -0.6571  0.0697
    1OL     H6R 6504   3.690   1.538   4.179 -1.0473 -0.9431  2.5867
    1OL     H6S 6505   3.528   1.589   4.187 -0.6044  0.3462 -1.6876
    1OL     C17 6506   3.667   1.756   4.187  0.1682  0.7673  0.3193
    1OL     H7R 6507   3.745   1.784   4.116 -2.0735 -0.5856 -2.8092
    1OL     H7S 6508   3.714   1.753   4.285  0.3115 -0.6204  0.2111
    1OL     C18 6509   3.556   1.863   4.181  0.0740 -0.0593  0.0985
    1OL     H8R 6510   3.505   1.861   4.278  1.1670 -0.2004  0.6715
    1OL     H8S 6511   3.483   1.833   4.105 -1.5985  0.6154  1.4124
    1OL     C19 6512   3.598   2.004   4.147  0.0671  0.6102  0.1828
    1OL     H9R 6513   3.600   2.075   4.229 -1.8600  0.2894  0.5280
    1OL    C110 6514   3.641   2.050   4.030  0.4381  0.5412  0.5071
    1OL    H10R 6515   3.675   2.153   4.021  1.6421  0.0795 -0.4217
    1OL    C111 6516   3.664   1.960   3.910  0.1207 -0.5249  1.0021
    1OL    H11R 6517   3.589   1.973   3.832 -0.8588 -0.5915  1.9113
    1OL    H11S 6518   3.662   1.853   3.930  0.5913 -0.4141  1.6716
    1OL    C112 6519   3.802   1.994   3.843 -0.9965  0.1383  0.7195
    1OL    H12R 6520   3.882   1.989   3.918 -0.8523 -2.3401  0.4270
    1OL    H12S 6521   3.815   2.100   3.819  0.4786 -0.0100  0.7658
    1OL    C113 6522   3.838   1.912   3.715  0.2817  0.1949 -0.0288
    1OL    H13R 6523   3.917   1.973   3.669  1.1963 -1.2461 -0.4231
    1OL    H13S 6524   3.754   1.919   3.646  1.5637 -0.7048 -1.7322
    1OL    C114 6525   3.897   1.769   3.739  0.6573  0.0808  0.2954
    1OL    H14R 6526   3.906   1.725   3.640  0.7968  0.3327  0.1936
    1OL    H14S 6527   3.813   1.716   3.784  0.4892  0.7919  0.8393
    1OL    C115 6528   4.031   1.767   3.814 -0.2442  0.2578 -0.3876
    1OL    H15R 6529   4.019   1.817   3.910 -2.5155 -0.4051 -0.3079
    1OL    H15S 6530   4.093   1.828   3.747  0.1630 -1.2477 -1.4104
    1OL    C116 6531   4.099   1.629   3.829 -0.4478 -0.4139  0.4636
    1OL    H16R 6532   4.131   1.591   3.732 -0.6052 -0.8738  0.5902
    1OL    H16S 6533   4.029   1.555   3.868 -1.5317 -1.3241 -3.0182
    1OL    C117 6534   4.217   1.626   3.933 -0.4749 -0.0571  0.4499
    1OL    H17R 6535   4.308   1.675   3.898  0.0263 -0.4953  1.1211
    1OL    H17S 6536   4.241   1.519   3.940 -0.8237 -0.3160 -1.8990
    1OL    C118 6537   4.189   1.684   4.073 -0.1344  0.8210 -0.4063
    1OL    H18R 6538   4.265   1.643   4.140 -1.7617 -0.4663  0.6758
    1OL    H18S 6539   4.089   1.648   4.096  0.1226  0.2584 -0.1712
    1OL    H18T 6540   4.186   1.793   4.074 -0.2662  0.8467 -2.0919
    1PA    C116 6541   3.560   2.376   4.910  0.5666 -0.5433 -0.1662
    1PA    H16R 6542   3.521   2.405   5.008 -0.6323  0.4829 -0.9253
    1PA    H16S 6543   3.668   2.364   4.919  0.8263  1.5278 -0.2552
    1PA    H16T 6544   3.529   2.277   4.876  0.9638 -0.3800 -1.0240
    1PA    C115 6545   3.525   2.462   4.789 -0.1874  0.5364 -0.1307
    1PA    H15R 6546   3.418   2.479   4.782 -0.2445 -0.8407 -3.2896
    1PA    H15S 6547   3.555   2.565   4.811 -0.4840  0.7896 -0.8877
    1PA    C114 6548   3.576   2.420   4.652  1.1377  0.3430  0.0619
    1PA    H14R 6549   3.610   2.501   4.587  1.0928  1.5339  1.4905
    1PA    H14S 6550   3.660   2.353   4.667 -0.5158 -1.6975  0.5115
    1PA    C113 6551   3.469   2.329   4.569 -0.0519  0.1731  0.4823
    1PA    H13R 6552   3.436   2.250   4.637 -0.9040  1.7454  1.9532
    1PA    H13S 6553   3.377   2.385   4.552 -0.6554 -0.5142  1.3621
    1PA    C112 6554   3.515   2.267   4.434  0.2948 -0.0241 -0.5118
    1PA    H12R 6555   3.610   2.219   4.455  0.2050 -1.3898 -2.9802
    1PA    H12S 6556   3.455   2.179   4.409  1.0890 -0.4233 -1.0142
    1PA    C111 6557   3.532   2.383   4.331 -0.1162  0.5121 -0.4133
    1PA    H11R 6558   3.596   2.455   4.382  0.5483 -0.0515 -0.4313
    1PA    H11S 6559   3.593   2.349   4.247  1.4668  1.7181  0.2188
    1PA    C110 6560   3.408   2.465   4.297 -1.1666  0.0881 -0.0231
    1PA    H10R 6561   3.347   2.487   4.385 -1.1752 -0.1390  0.0270
    1PA    H10S 6562   3.437   2.563   4.259  1.9952 -1.0934 -0.7827
    1PA     C19 6563   3.314   2.396   4.203  0.6609 -0.4868 -0.0977
    1PA     H9R 6564   3.269   2.312   4.257 -0.1456  1.0871  1.7457
    1PA     H9S 6565   3.232   2.461   4.173  0.2790 -0.0606  1.7950
    1PA     C18 6566   3.375   2.344   4.065  0.2013  0.4329  0.5588
    1PA     H8R 6567   3.394   2.421   3.990 -1.9250 -0.7095 -1.2063
    1PA     H8S 6568   3.472   2.302   4.091  0.2602  0.9495  1.2176
    1PA     C17 6569   3.274   2.251   3.992 -0.1666 -0.1781  0.1058
    1PA     H7R 6570   3.180   2.304   3.976  0.1587  0.4454  0.2624
    1PA     H7S 6571   3.322   2.240   3.895  2.3954  1.8933  1.0975
    1PA     C16 6572   3.251   2.118   4.062 -0.0916 -0.1475 -0.2015
    1PA     H6R 6573   3.330   2.089   4.132 -0.2095  0.8446  0.3474
    1PA     H6S 6574   3.158   2.114   4.119 -0.7998 -1.1403 -1.3902
    1PA     C15 6575   3.251   2.008   3.948  0.0269 -0.5228 -0.5948
    1PA     H5R 6576   3.350   1.999   3.903 -0.4974 -0.1068 -1.8572
    1PA     H5S 6577   3.233   1.914   4.001  0.9196 -0.1037  0.4460
    1PA     C14 6578   3.153   2.022   3.834  0.1944 -0.0449  0.3964
    1PA     H4R 6579   3.051   2.010   3.872 -0.3170  1.2033 -0.5500
    1PA     H4S 6580   3.162   2.126   3.802  1.9874 -0.2082  0.3288
    1PA     C13 6581   3.187   1.923   3.718  0.0871 -0.4207 -0.2108
    1PA     H3R 6582   3.232   1.832   3.759  1.4408 -0.2387 -1.2616
    1PA     H3S 6583   3.094   1.886   3.674  0.9702  0.0814 -2.5839
    1PA     C12 6584   3.275   1.985   3.602 -0.2185  0.0306 -0.3230
    1PA     H2R 6585   3.372   2.009   3.646  0.3030 -0.2023 -1.3316
    1PA     H2S 6586   3.288   1.901   3.534  0.5806 -1.9614  2.2131
    1PC     C11 6587   3.197   2.102   3.533  0.0483  0.5414  0.6749
    1PC     O12 6588   3.082   2.135   3.562 -0.0272  0.3477  0.5971
    1PC     O11 6589   3.260   2.145   3.422  0.9293  0.0463  0.3303
    1PC      C1 6590   3.195   2.257   3.354  0.3509 -0.5202  0.3575
    1PC      HR 6591   3.233   2.257   3.252 -1.2157 -0.5427 -0.2452
    1PC      HS 6592   3.086   2.250   3.352  0.4635 -2.1556 -0.3924
    1PC      C2 6593   3.234   2.396   3.409  0.4420  0.0947 -0.1338
    1PC      HX 6594   3.190   2.477   3.350  2.0021  0.6407 -0.5536
    1PC      C3 6595   3.389   2.413   3.408 -0.3920  0.4507 -0.5708
    1PC      HA 6596   3.421   2.407   3.512 -0.2009  0.4720 -0.6297
    1PC      HB 6597   3.435   2.328   3.357 -1.4394  0.7693 -2.0813
    1PC     O31 6598   3.431   2.532   3.337 -0.0001  0.3983  0.5575
    1PC     P31 6599   3.561   2.544   3.249 -0.3101 -0.0214  0.3213
    1PC     O32 6600   3.678   2.528   3.352  0.6068 -0.3059  1.1682
    1PC     C31 6601   3.738   2.405   3.377  0.0723  0.5405 -0.2635
    1PC     H1A 6602   3.786   2.419   3.475 -1.0959  0.8559  0.2789
    1PC     H1B 6603   3.671   2.320   3.392 -1.5826  1.8821  0.0257
    1PC     C32 6604   3.840   2.366   3.262 -0.1433 -0.1176 -0.3995
    1PC     H2A 6605   3.889   2.270   3.279 -3.5682 -2.4991 -3.0919
    1PC     H2B 6606   3.785   2.343   3.170 -1.0057 -4.0352  1.0130
    1PC     N31 6607   3.948   2.457   3.220  0.0497  0.7360 -0.4542
    1PC     C33 6608   4.029   2.390   3.114  0.3263 -0.0243 -0.3611
    1PC     H3A 6609   3.961   2.340   3.044 -0.0117  0.2549 -0.2338
    1PC     H3B 6610   4.089   2.469   3.069  1.7460  0.0499  1.6078
    1PC     H3C 6611   4.087   2.312   3.163  0.4295  1.0338  1.2203
    1PC     C34 6612   3.895   2.577   3.167  0.7231  0.1354 -0.2854
    1PC     H4A 6613   3.825   2.573   3.083  1.9967  2.7487 -1.5372
    1PC     H4B 6614   3.865   2.649   3.243 -0.0392 -1.2338  0.7397
    1PC     H4C 6615   3.982   2.628   3.124  2.1163 -1.0671  1.0678
    1PC     C35 6616   4.030   2.492   3.337  0.5298  0.1069  0.0212
    1PC     H5A 6617   4.112   2.423   3.351  0.5818  0.4442  1.4236
    1PC     H5B 6618   3.967   2.499   3.426  1.1026 -1.2691  0.5443
    1PC     H5C 6619   4.074   2.590   3.316  0.5861  0.2593  0.8190
    1PC     O33 6620   3.567   2.437   3.149 -0.1488  0.1399 -1.3499
    1PC     O34 6621   3.579   2.679   3.193  0.0602  0.1688 -0.1878
    1PC     O21 6622   3.190   2.413   3.555 -0.5110 -0.0491  0.2064
    1PC     C21 6623   3.065   2.453   3.582  0.0338 -0.6732  0.5934
    1PC     O22 6624   2.981   2.484   3.498  0.2888 -0.1644 -0.2693
    1OL     C12 6625   3.047   2.461   3.731 -0.0196  0.5087 -0.3660
    1OL     H2R 6626   3.142   2.487   3.776 -1.4153  2.6116  1.4455
    1OL     H2S 6627   3.016   2.362   3.766 -0.1499  1.0603  1.1122
    1OL     C13 6628   2.936   2.563   3.769  0.0497  0.6573  0.0268
    1OL     H3R 6629   2.845   2.512   3.738  0.1250  0.3172  0.3609
    1OL     H3S 6630   2.949   2.657   3.716 -0.6359 -0.6838 -2.5953
    1OL     C14 6631   2.922   2.615   3.920 -0.2372  0.2696 -0.1454
    1OL     H4R 6632   2.899   2.528   3.982  0.1106 -0.5084 -1.0896
    1OL     H4S 6633   2.842   2.687   3.936  0.7385  1.0299  1.4077
    1OL     C15 6634   3.053   2.677   3.956 -0.1603  0.2515  0.2581
    1OL     H5R 6635   3.081   2.759   3.890 -0.9621 -0.6228 -1.2123
    1OL     H5S 6636   3.133   2.603   3.950  0.3839  0.7007  1.9038
    1OL     C16 6637   3.073   2.720   4.095 -0.2525 -0.4481 -0.1100
    1OL     H6R 6638   3.064   2.631   4.158 -0.9397 -0.3627 -0.0811
    1OL     H6S 6639   2.999   2.798   4.111 -0.7795 -0.5526 -1.9645
    1OL     C17 6640   3.210   2.767   4.105  0.0300 -0.0248 -0.3007
    1OL     H7R 6641   3.228   2.854   4.042  0.2699  1.9543  2.3722
    1OL     H7S 6642   3.277   2.686   4.075  0.3082  0.3484 -0.6851
    1OL     C18 6643   3.243   2.806   4.256 -0.1713 -0.3853  0.1510
    1OL     H8R 6644   3.200   2.732   4.324 -1.1308  1.3972  1.5362
    1OL     H8S 6645   3.194   2.901   4.281  1.1704  0.7905 -1.5772
    1OL     C19 6646   3.390   2.825   4.286  0.3671 -0.7877  0.2770
    1OL     H9R 6647   3.459   2.855   4.207  0.6059 -0.2955  0.6759
    1OL    C110 6648   3.448   2.803   4.405  0.3624  0.3781 -0.0071
    1OL    H10R 6649   3.557   2.801   4.408  0.3628  0.8092  0.2404
    1OL    C111 6650   3.403   2.753   4.539  0.2307 -0.6362  0.2570
    1OL    H11R 6651   3.468   2.667   4.556  1.2407 -0.1990 -1.2682
    1OL    H11S 6652   3.298   2.724   4.547 -0.0599  0.3415  0.0025
    1OL    C112 6653   3.433   2.861   4.645  0.1562  0.2715  0.1951
    1OL    H12R 6654   3.394   2.953   4.601 -1.6844 -1.4708 -1.9558
    1OL    H12S 6655   3.538   2.879   4.667 -0.0795  1.6631  0.2109
    1OL    C113 6656   3.361   2.825   4.774  0.0813  1.0817 -0.4659
    1OL    H13R 6657   3.403   2.728   4.800 -0.5472  0.5192 -1.4793
    1OL    H13S 6658   3.255   2.806   4.754 -0.0036  0.2312  0.7413
    1OL    C114 6659   3.377   2.924   4.889  0.3251  0.4114 -0.2129
    1OL    H14R 6660   3.322   3.017   4.873 -1.2372 -0.5224 -0.2904
    1OL    H14S 6661   3.484   2.945   4.894  0.2851  0.9450 -1.2809
    1OL    C115 6662   3.328   2.857   5.019  0.5476 -0.4219  0.1438
    1OL    H15R 6663   3.394   2.773   5.043  0.7041 -0.5868 -0.8572
    1OL    H15S 6664   3.229   2.811   5.007 -0.8503  2.2423  1.0837
    1OL    C116 6665   3.302   2.960   5.130  0.4717 -0.2169  0.1856
    1OL    H16R 6666   3.223   3.022   5.088  0.2167  0.0718  1.0957
    1OL    H16S 6667   3.389   3.020   5.160 -0.4252  0.6530  1.0649
    1OL    C117 6668   3.240   2.897   5.263 -0.4065 -0.0231 -0.1713
    1OL    H17R 6669   3.306   2.818   5.301  0.3772  0.8570  0.3030
    1OL    H17S 6670   3.148   2.843   5.239 -0.4819 -0.5509  1.2691
    1OL    C118 6671   3.201   3.000   5.373 -0.4291 -0.4875  0.1179
    1OL    H18R 6672   3.282   3.073   5.382  0.1647 -0.6607 -3.1717
    1OL    H18S 6673   3.182   2.946   5.466 -2.2486 -0.4731 -0.2278
    1OL    H18T 6674   3.111   3.059   5.356  0.6144  1.5280  1.3535
    1PA    C116 6675   2.311   2.659   4.932  0.7121  0.0582 -0.2426
    1PA    H16R 6676   2.348   2.701   5.025 -0.2350  2.1096 -0.7748
    1PA    H16S 6677   2.296   2.552   4.949  0.4428  0.0873 -0.2963
    1PA    H16T 6678   2.218   2.701   4.895  0.7214  0.5888  0.3384
    1PA    C115 6679   2.420   2.692   4.826 -0.4873  0.0321 -0.1586
    1PA    H15R 6680   2.445   2.797   4.842  0.6790  0.1892 -2.7867
    1PA    H15S 6681   2.503   2.632   4.861  0.1043  0.7373 -0.3313
    1PA    C114 6682   2.376   2.659   4.681 -0.1558 -0.0206 -0.6515
    1PA    H14R 6683   2.345   2.554   4.680  0.3644 -0.2783  2.6183
    1PA    H14S 6684   2.294   2.724   4.652 -0.0771  0.4007  0.0443
    1PA    C113 6685   2.481   2.684   4.578  0.2612 -0.3361  0.1991
    1PA    H13R 6686   2.497   2.792   4.579  1.7495 -0.5391 -1.1950
    1PA    H13S 6687   2.570   2.635   4.618 -0.7350 -2.8997 -0.6639
    1PA    C112 6688   2.444   2.638   4.434 -0.7795  0.2061  0.1666
    1PA    H12R 6689   2.402   2.538   4.437  1.2886 -0.6621  1.3974
    1PA    H12S 6690   2.363   2.702   4.398  0.3672  2.1521  0.9738
    1PA    C111 6691   2.572   2.649   4.350 -0.4743 -0.3042 -0.2997
    1PA    H11R 6692   2.622   2.743   4.373 -0.8951 -0.2345  0.3414
    1PA    H11S 6693   2.647   2.580   4.389 -0.8616 -0.6497 -0.1523
    1PA    C110 6694   2.556   2.616   4.202 -0.1866 -0.2635 -0.3183
    1PA    H10R 6695   2.655   2.619   4.155 -1.5318  0.8107 -3.1836
    1PA    H10S 6696   2.526   2.512   4.190  0.4645 -0.4379 -0.4611
    1PA     C19 6697   2.444   2.692   4.128 -0.7286  0.2123 -0.3461
    1PA     H9R 6698   2.431   2.644   4.031 -2.8411 -0.1941  0.1193
    1PA     H9S 6699   2.354   2.664   4.183 -0.1952 -2.0972 -0.6236
    1PA     C18 6700   2.466   2.848   4.124  0.6484 -0.2746  0.2049
    1PA     H8R 6701   2.365   2.890   4.131 -0.2942 -2.7059  1.8116
    1PA     H8S 6702   2.515   2.880   4.216 -0.3807 -0.8073  0.9504
    1PA     C17 6703   2.545   2.902   3.999 -0.2930 -0.1721  0.2635
    1PA     H7R 6704   2.546   2.823   3.924  1.8194  0.3658 -0.2876
    1PA     H7S 6705   2.488   2.984   3.956  1.3246  1.3169  0.9076
    1PA     C16 6706   2.682   2.960   4.016 -0.7684  0.2498 -0.2017
    1PA     H6R 6707   2.679   3.045   4.084  3.2523  2.5187 -2.6517
    1PA     H6S 6708   2.743   2.878   4.054 -1.6152 -1.7128 -2.9041
    1PA     C15 6709   2.742   3.010   3.880  0.6183  0.1755  0.3696
    1PA     H5R 6710   2.723   3.117   3.865  1.7805  0.1832 -1.1369
    1PA     H5S 6711   2.850   3.006   3.893  1.2642  2.7029 -3.2521
    1PA     C14 6712   2.709   2.933   3.744 -0.8127  0.8400 -0.5222
    1PA     H4R 6713   2.721   2.827   3.768  1.3803  0.6566 -2.2150
    1PA     H4S 6714   2.605   2.950   3.717 -1.2186 -1.9053 -0.8657
    1PA     C13 6715   2.809   2.972   3.632 -0.1114  0.5483  0.3572
    1PA     H3R 6716   2.905   2.971   3.683  0.0299 -0.0898  0.0830
    1PA     H3S 6717   2.807   2.914   3.540  0.8881  0.9546  0.0795
    1PA     C12 6718   2.796   3.110   3.568  0.1085  0.1981  0.1864
    1PA     H2R 6719   2.777   3.186   3.645  2.8519  1.1478 -0.0327
    1PA     H2S 6720   2.890   3.134   3.519 -0.4557 -0.3741 -1.1821
    1PC     C11 6721   2.678   3.111   3.467  0.5924 -1.1016  0.0813
    1PC     O12 6722   2.574   3.158   3.499 -0.1180 -0.5000  0.2661
    1PC     O11 6723   2.710   3.049   3.353 -0.4423 -0.2144 -0.1662
    1PC      C1 6724   2.605   3.038   3.250  0.3117  0.1763  0.4368
    1PC      HR 6725   2.572   3.141   3.233  1.6036  0.1881 -2.2948
    1PC      HS 6726   2.652   3.004   3.158  0.2859 -0.6940  0.7391
    1PC      C2 6727   2.487   2.931   3.278  0.0776 -0.0350 -0.6476
    1PC      HX 6728   2.525   2.829   3.272  1.1512  0.2613  0.8163
    1PC      C3 6729   2.375   2.923   3.171  0.6930 -0.6775  0.2132
    1PC      HA 6730   2.423   2.886   3.080 -0.0327  0.2540 -0.5452
    1PC      HB 6731   2.307   2.847   3.211 -0.3455  0.7376  1.1465
    1PC     O31 6732   2.309   3.047   3.147  0.2447 -0.7131  0.2067
    1PC     P31 6733   2.344   3.156   3.039  0.0711  0.0881 -0.1459
    1PC     O32 6734   2.395   3.270   3.131  0.4974 -0.2959 -0.9928
    1PC     C31 6735   2.318   3.347   3.227  0.5703 -0.1213  0.8454
    1PC     H1A 6736   2.333   3.455   3.227 -0.2824  0.0143 -1.1345
    1PC     H1B 6737   2.210   3.335   3.214  0.7114  1.6232 -2.3212
    1PC     C32 6738   2.339   3.279   3.367  1.3216 -0.5709 -0.2053
    1PC     H2A 6739   2.320   3.171   3.363  0.6547 -0.4316 -0.8333
    1PC     H2B 6740   2.443   3.303   3.389  0.5725  1.6876  0.9815
    1PC     N31 6741   2.251   3.333   3.482  0.1830  1.2981  0.2713
    1PC     C33 6742   2.253   3.481   3.483  0.4441  0.6309  0.3287
    1PC     H3A 6743   2.230   3.521   3.582  0.4843 -1.1562  1.0738
    1PC     H3B 6744   2.345   3.529   3.449 -0.8726  3.0378 -0.0101
    1PC     H3C 6745   2.169   3.519   3.425  2.2479  2.4001 -1.2139
    1PC     C34 6746   2.113   3.283   3.471  0.1983 -0.1596 -0.5408
    1PC     H4A 6747   2.048   3.317   3.551 -0.7006  0.4524 -1.5151
    1PC     H4B 6748   2.072   3.330   3.381  0.3031  0.6522 -0.1731
    1PC     H4C 6749   2.112   3.174   3.472 -0.2028 -0.1701  2.1566
    1PC     C35 6750   2.310   3.283   3.602  1.1000 -0.4267  0.4557
    1PC     H5A 6751   2.235   3.313   3.677  2.5213  0.9278  1.3737
    1PC     H5B 6752   2.409   3.328   3.609  1.4404 -1.2889  1.3714
    1PC     H5C 6753   2.312   3.174   3.594 -2.5261 -0.6696  1.7568
    1PC     O33 6754   2.450   3.109   2.949  0.0942 -0.5838 -0.0933
    1PC     O34 6755   2.212   3.215   2.988  0.1845 -0.0828 -0.2397
    1PC     O21 6756   2.420   2.959   3.405 -0.0284  0.3705 -0.6585
    1PC     C21 6757   2.442   2.868   3.499 -0.0779  0.2325 -0.0925
    1PC     O22 6758   2.538   2.796   3.507  0.1047 -0.0751 -0.1755
    1OL     C12 6759   2.320   2.842   3.583  0.4271 -0.0792  0.6056
    1OL     H2R 6760   2.270   2.751   3.550  1.1797  0.1144 -1.1363
    1OL     H2S 6761   2.258   2.932   3.578  0.6002 -0.0009 -0.3200
    1OL     C13 6762   2.360   2.821   3.725  0.3515 -0.3221 -0.9356
    1OL     H3R 6763   2.384   2.920   3.767 -1.4784  0.2300 -1.1552
    1OL     H3S 6764   2.448   2.757   3.737  0.1137 -0.2837  1.2216
    1OL     C14 6765   2.246   2.751   3.802  0.9055 -0.0334 -0.6096
    1OL     H4R 6766   2.273   2.717   3.902 -0.5013  1.5128  0.3300
    1OL     H4S 6767   2.205   2.666   3.747 -2.7629 -0.5469  2.6534
    1OL     C15 6768   2.126   2.851   3.816 -0.4470  0.0953 -0.3497
    1OL     H5R 6769   2.039   2.789   3.838  0.1979 -0.7563 -0.1733
    1OL     H5S 6770   2.116   2.894   3.716 -0.1634 -0.3143 -0.5543
    1OL     C16 6771   2.168   2.965   3.910 -0.7063  0.1267  0.5746
    1OL     H6R 6772   2.241   3.025   3.855 -0.9199  1.7207  1.9976
    1OL     H6S 6773   2.222   2.920   3.994  1.4467  0.2827 -0.6909
    1OL     C17 6774   2.046   3.049   3.954  0.1184 -0.0213  0.1696
    1OL     H7R 6775   1.961   2.981   3.965  1.7639 -1.8375  2.1963
    1OL     H7S 6776   2.027   3.117   3.871  1.2774 -0.8274 -0.7736
    1OL     C18 6777   2.080   3.136   4.071  0.1213  0.2981  0.0545
    1OL     H8R 6778   1.997   3.205   4.087  1.1112  2.1328 -2.4295
    1OL     H8S 6779   2.170   3.193   4.046  0.4174  0.5027  1.5729
    1OL     C19 6780   2.105   3.057   4.201  0.4992  0.1183 -0.2403
    1OL     H9R 6781   2.187   2.986   4.196  0.9396  0.5714  0.5842
    1OL    C110 6782   2.050   3.074   4.320  0.3919  0.5815  0.7230
    1OL    H10R 6783   2.077   3.015   4.407 -0.6040  0.6766  1.1015
    1OL    C111 6784   1.946   3.177   4.354 -0.3565 -0.1003 -1.4861
    1OL    H11R 6785   1.849   3.136   4.323 -0.0679 -1.7388 -0.2985
    1OL    H11S 6786   1.966   3.272   4.305  4.8035  0.2871  1.1120
    1OL    C112 6787   1.941   3.211   4.507 -0.6528  0.4080 -0.4582
    1OL    H12R 6788   2.043   3.241   4.532 -0.4137  1.1749 -2.2640
    1OL    H12S 6789   1.916   3.122   4.565  0.7215 -0.2363 -0.8317
    1OL    C113 6790   1.851   3.335   4.549  0.8122  0.1607  0.6170
    1OL    H13R 6791   1.750   3.299   4.531  0.9350  0.6946 -1.2706
    1OL    H13S 6792   1.872   3.426   4.492 -1.4315  0.4317  0.1949
    1OL    C114 6793   1.878   3.361   4.697  0.4288 -0.3512  0.1775
    1OL    H14R 6794   1.870   3.469   4.710 -2.7675 -0.7813  2.1482
    1OL    H14S 6795   1.984   3.347   4.716  0.1694  0.4869  2.2949
    1OL    C115 6796   1.788   3.276   4.795  0.5505  0.3230  0.2656
    1OL    H15R 6797   1.816   3.171   4.790 -0.1460  0.0608  1.5354
    1OL    H15S 6798   1.691   3.286   4.746 -0.8591  1.2703  3.1310
    1OL    C116 6799   1.780   3.315   4.944  0.2330  1.4511  0.5596
    1OL    H16R 6800   1.745   3.418   4.955  0.6034  1.7763 -1.1259
    1OL    H16S 6801   1.880   3.293   4.982  0.6188  2.3177  0.0781
    1OL    C117 6802   1.681   3.219   5.013 -0.5649 -0.3093  0.0394
    1OL    H17R 6803   1.725   3.121   5.029 -0.0711  0.0452  0.8989
    1OL    H17S 6804   1.592   3.208   4.951 -0.2144  1.7687 -0.8981
    1OL    C118 6805   1.657   3.273   5.157  0.0851  0.6359 -0.6694
    1OL    H18R 6806   1.597   3.207   5.220 -0.9768  2.4655  0.2788
    1OL    H18S 6807   1.612   3.371   5.169 -1.4038 -0.1633  0.4553
    1OL    H18T 6808   1.748   3.266   5.218  0.4751  0.3272 -1.2780
    1PA    C116 6809   2.232   0.829   5.016  0.0095  0.5412  0.8746
    1PA    H16R 6810   2.309   0.858   4.944  2.4795 -1.4533  2.6146
    1PA    H16S 6811   2.246   0.732   5.064 -1.8845  0.0364  0.4216
    1PA    H16T 6812   2.238   0.908   5.091  0.9139  0.4531  0.9065
    1PA    C115 6813   2.090   0.807   4.954  0.2158 -0.6897 -0.4463
    1PA    H15R 6814   2.021   0.790   5.037 -0.8154 -0.2298 -1.2075
    1PA    H15S 6815   2.050   0.897   4.909 -0.7815  0.0143  1.7654
    1PA    C114 6816   2.071   0.694   4.847 -0.0679  0.0116  0.6016
    1PA    H14R 6817   2.074   0.600   4.902  0.0498 -0.1238  0.3654
    1PA    H14S 6818   1.967   0.696   4.815 -0.0162  1.7212  0.5006
    1PA    C113 6819   2.175   0.700   4.726  0.3938 -0.7982 -0.7308
    1PA    H13R 6820   2.275   0.706   4.769  0.1983 -1.8051 -0.1212
    1PA    H13S 6821   2.170   0.605   4.672  0.5411 -0.4981 -1.2758
    1PA    C112 6822   2.151   0.815   4.630  0.4487  0.2465  0.7156
    1PA    H12R 6823   2.048   0.820   4.594  0.8088 -0.9221 -0.5253
    1PA    H12S 6824   2.165   0.908   4.685 -0.9402  1.5277 -1.0285
    1PA    C111 6825   2.237   0.811   4.500  0.7664 -0.1407 -0.5430
    1PA    H11R 6826   2.273   0.709   4.484  0.6869  0.0076 -1.7532
    1PA    H11S 6827   2.178   0.831   4.410  1.0231  0.0692 -0.6688
    1PA    C110 6828   2.357   0.911   4.504  0.4011 -0.0136 -0.4143
    1PA    H10R 6829   2.323   1.014   4.520 -2.0809 -0.7511 -0.7814
    1PA    H10S 6830   2.418   0.891   4.592  0.6445 -3.5851 -1.3498
    1PA     C19 6831   2.455   0.898   4.380 -0.1748  0.1111 -0.1066
    1PA     H9R 6832   2.507   0.994   4.379 -0.3509  0.2230 -2.5224
    1PA     H9S 6833   2.530   0.821   4.395 -0.1062  0.4702  1.4158
    1PA     C18 6834   2.386   0.880   4.243  0.0394  0.1674  0.1715
    1PA     H8R 6835   2.461   0.842   4.173 -1.4426 -0.3369 -1.1773
    1PA     H8S 6836   2.317   0.796   4.252  0.0376  0.0323 -0.9378
    1PA     C17 6837   2.330   1.012   4.181 -0.1482  0.9015  0.2840
    1PA     H7R 6838   2.258   1.065   4.244 -1.8893  1.9132 -2.4867
    1PA     H7S 6839   2.411   1.082   4.163  1.8883 -0.6445  3.1534
    1PA     C16 6840   2.278   0.977   4.037  0.2098 -0.4529  0.7408
    1PA     H6R 6841   2.345   0.908   3.984 -0.9937 -2.7356  2.0782
    1PA     H6S 6842   2.182   0.928   4.050 -2.6158  4.5356 -0.2327
    1PA     C15 6843   2.255   1.101   3.950 -0.6419  0.6889 -0.1353
    1PA     H5R 6844   2.166   1.150   3.991 -0.7005 -0.0945  0.6807
    1PA     H5S 6845   2.339   1.168   3.968  0.0267 -0.4176  0.8906
    1PA     C14 6846   2.236   1.082   3.795 -0.4565 -0.0458 -0.1398
    1PA     H4R 6847   2.237   1.181   3.749 -1.3125 -0.1647 -0.4280
    1PA     H4S 6848   2.319   1.025   3.752 -0.5829 -0.3775  0.0532
    1PA     C13 6849   2.101   1.011   3.749  0.5338 -0.3943 -0.4403
    1PA     H3R 6850   2.085   0.916   3.800  0.9733 -1.6387 -2.5415
    1PA     H3S 6851   2.024   1.081   3.782  1.4250  0.3994 -0.0388
    1PA     C12 6852   2.084   0.981   3.597 -0.1838 -0.0366 -0.1088
    1PA     H2R 6853   2.175   0.927   3.570 -0.7256 -0.7810 -0.4326
    1PA     H2S 6854   2.003   0.910   3.580 -0.1367 -0.1612  0.1780
    1PC     C11 6855   2.066   1.104   3.509 -0.1389  0.0666  0.2612
    1PC     O12 6856   1.956   1.148   3.476  0.8037 -0.9506 -0.2461
    1PC     O11 6857   2.182   1.159   3.472  0.0124  0.2151  0.5519
    1PC      C1 6858   2.183   1.280   3.387  0.5869  0.6914  0.4332
    1PC      HR 6859   2.137   1.363   3.442 -1.3467 -0.1746  0.1721
    1PC      HS 6860   2.287   1.304   3.368  0.1527  2.0443 -0.2611
    1PC      C2 6861   2.114   1.253   3.247  0.1270 -0.1064  0.0232
    1PC      HX 6862   2.008   1.231   3.259  0.0505 -0.2643 -0.9281
    1PC      C3 6863   2.183   1.143   3.167 -0.1369  0.1249 -0.0468
    1PC      HA 6864   2.281   1.175   3.131 -0.2403  0.5805  0.0726
    1PC      HB 6865   2.197   1.055   3.230 -3.4532  0.6268  1.4890
    1PC     O31 6866   2.109   1.107   3.047  0.2198  0.4090  0.3409
    1PC     P31 6867   2.134   0.967   2.978  0.2037  0.2982  0.1740
    1PC     O32 6868   2.269   0.979   2.899  0.3708 -0.4640 -0.1906
    1PC     C31 6869   2.277   1.012   2.761  0.8952  0.4717  0.1845
    1PC     H1A 6870   2.229   0.929   2.708  0.2366  1.4768 -0.8021
    1PC     H1B 6871   2.225   1.106   2.743 -0.3915 -0.3004 -0.1844
    1PC     C32 6872   2.424   1.017   2.716  0.5755 -0.6024  0.2650
    1PC     H2A 6873   2.475   0.929   2.757  2.1073  0.9937  1.8807
    1PC     H2B 6874   2.435   1.009   2.608 -0.0010  0.3719  0.1307
    1PC     N31 6875   2.504   1.132   2.762 -0.1245 -0.1202 -0.7718
    1PC     C33 6876   2.464   1.263   2.705  0.2935 -0.3176 -0.6858
    1PC     H3A 6877   2.503   1.330   2.782 -0.6111 -1.3812  0.7209
    1PC     H3B 6878   2.510   1.280   2.607 -0.4223  1.3529 -0.7411
    1PC     H3C 6879   2.357   1.281   2.699 -0.1188 -2.2860  0.5758
    1PC     C34 6880   2.514   1.133   2.912  0.2279 -0.2892  0.3210
    1PC     H4A 6881   2.415   1.165   2.942 -0.0603 -0.3197 -0.5835
    1PC     H4B 6882   2.542   1.036   2.954  0.3629 -1.1437 -1.6606
    1PC     H4C 6883   2.576   1.216   2.946 -1.0505  0.7993 -0.0038
    1PC     C35 6884   2.638   1.100   2.714  0.7520  0.1573 -0.1811
    1PC     H5A 6885   2.672   1.001   2.745  0.3863  0.6276  1.8324
    1PC     H5B 6886   2.711   1.175   2.746  2.1491 -1.1780 -0.2011
    1PC     H5C 6887   2.634   1.100   2.605 -1.7627 -0.5476 -0.1271
    1PC     O33 6888   2.151   0.857   3.077 -0.6083 -0.0583  0.2449
    1PC     O34 6889   2.026   0.951   2.882 -0.4634  0.3592 -0.0917
    1PC     O21 6890   2.122   1.379   3.172  0.4228  0.2683 -0.2661
    1PC     C21 6891   2.012   1.426   3.112  0.0476  0.3180 -0.5235
    1PC     O22 6892   1.908   1.371   3.112  0.1343 -0.5470  0.7459
    1OL     C12 6893   2.022   1.565   3.047 -0.4986 -0.1784  0.1658
    1OL     H2R 6894   1.921   1.595   3.020 -1.2830 -2.6781  0.2910
    1OL     H2S 6895   2.076   1.566   2.952 -1.1759 -2.2193 -0.2456
    1OL     C13 6896   2.090   1.684   3.121 -0.5130  0.0199  0.4042
    1OL     H3R 6897   2.105   1.760   3.044 -1.8740  1.8242  1.8552
    1OL     H3S 6898   2.189   1.663   3.162 -1.5329 -0.5281  2.7147
    1OL     C14 6899   2.001   1.747   3.233  0.1184  0.0351 -0.7034
    1OL     H4R 6900   1.963   1.670   3.300 -0.8114  1.2578  0.2046
    1OL     H4S 6901   1.916   1.802   3.192  0.2715  0.6670 -0.1831
    1OL     C15 6902   2.091   1.852   3.311  0.6320 -0.4704 -0.0897
    1OL     H5R 6903   2.031   1.901   3.387 -1.0709 -2.4058 -0.1223
    1OL     H5S 6904   2.120   1.933   3.245  0.1489  0.5281  0.9159
    1OL     C16 6905   2.222   1.797   3.386  0.7551  0.3500  0.4858
    1OL     H6R 6906   2.272   1.882   3.431  1.3910  1.3047 -1.9215
    1OL     H6S 6907   2.291   1.760   3.310 -1.2771  1.0471 -1.7738
    1OL     C17 6908   2.194   1.687   3.486  0.2187  0.2158  0.5505
    1OL     H7R 6909   2.294   1.667   3.524 -0.4121 -2.0047  1.0975
    1OL     H7S 6910   2.160   1.606   3.421 -0.6444  2.7186 -2.2371
    1OL     C18 6911   2.093   1.716   3.601 -0.6884 -0.6337 -0.2359
    1OL     H8R 6912   2.088   1.623   3.658 -0.7502 -0.5606 -0.1212
    1OL     H8S 6913   1.999   1.733   3.548  0.6789 -0.0764 -2.5616
    1OL     C19 6914   2.129   1.840   3.683 -0.0488  0.7868 -0.2016
    1OL     H9R 6915   2.116   1.934   3.631 -1.0605 -0.1345 -1.6639
    1OL    C110 6916   2.177   1.841   3.811 -0.1156  0.0986  0.2317
    1OL    H10R 6917   2.197   1.940   3.851  0.5395  0.6802 -1.4958
    1OL    C111 6918   2.213   1.714   3.884 -0.4877  0.0917 -0.3423
    1OL    H11R 6919   2.136   1.636   3.884  2.1853 -2.6711 -1.1452
    1OL    H11S 6920   2.222   1.746   3.988  1.2788  2.0106 -1.0533
    1OL    C112 6921   2.345   1.642   3.835 -0.1283 -0.2746 -0.2446
    1OL    H12R 6922   2.428   1.713   3.839  1.8650 -2.4220 -1.9853
    1OL    H12S 6923   2.335   1.613   3.730 -0.7488 -0.7196 -0.0620
    1OL    C113 6924   2.376   1.516   3.924  0.8172 -0.2084  0.3395
    1OL    H13R 6925   2.477   1.479   3.911  0.4813 -1.0746  0.1890
    1OL    H13S 6926   2.306   1.437   3.897 -0.2066  0.6405  0.4311
    1OL    C114 6927   2.367   1.532   4.078 -0.7522 -0.3734  0.0166
    1OL    H14R 6928   2.375   1.438   4.133  0.4750 -2.2428 -3.2159
    1OL    H14S 6929   2.267   1.569   4.101 -0.5450  0.5637 -0.5605
    1OL    C115 6930   2.481   1.625   4.136  0.5613 -0.1675  0.2822
    1OL    H15R 6931   2.455   1.644   4.240  2.0330  0.6906  0.5233
    1OL    H15S 6932   2.484   1.719   4.080 -1.2419 -0.2286  0.0632
    1OL    C116 6933   2.627   1.562   4.134  0.2354  0.4317 -0.1290
    1OL    H16R 6934   2.691   1.640   4.175 -0.5271  0.2667  1.3986
    1OL    H16S 6935   2.664   1.545   4.033 -0.9759  0.1059 -0.5300
    1OL    C117 6936   2.639   1.428   4.220 -0.0756  0.4127 -0.1287
    1OL    H17R 6937   2.746   1.410   4.237  0.3109  1.0443 -1.7647
    1OL    H17S 6938   2.595   1.345   4.166 -0.0463  0.1488  0.2517
    1OL    C118 6939   2.594   1.435   4.367  1.0731  0.1920  0.0559
    1OL    H18R 6940   2.627   1.337   4.402  1.1922 -0.5926 -2.1748
    1OL    H18S 6941   2.485   1.447   4.365  0.7957 -2.1675 -0.3975
    1OL    H18T 6942   2.640   1.514   4.426 -0.3914  0.2215  1.2204
    1PA    C116 6943   2.608   2.037   4.614 -0.0253 -0.5108  1.1061
    1PA    H16R 6944   2.605   1.963   4.533 -0.9735 -0.0187  0.6767
    1PA    H16S 6945   2.591   1.966   4.695  0.3812 -0.2476  1.4209
    1PA    H16T 6946   2.711   2.071   4.615  0.2264 -1.2746  1.0991
    1PA    C115 6947   2.519   2.157   4.612  0.0911 -0.5238 -0.7978
    1PA    H15R 6948   2.536   2.211   4.706  0.8346 -1.1092 -0.5954
    1PA    H15S 6949   2.547   2.221   4.528  0.5482 -0.7966 -0.8515
    1PA    C114 6950   2.368   2.117   4.604  0.4146 -0.1507  0.4164
    1PA    H14R 6951   2.357   2.035   4.534 -0.1455  0.1990  0.0940
    1PA    H14S 6952   2.328   2.072   4.695  0.8723 -1.9476 -0.2478
    1PA    C113 6953   2.278   2.235   4.558  0.0138  0.2900 -0.6214
    1PA    H13R 6954   2.300   2.332   4.603  0.7616 -0.0926 -0.1607
    1PA    H13S 6955   2.289   2.243   4.449 -0.9026  1.3491 -0.6382
    1PA    C112 6956   2.128   2.215   4.586 -0.1276  0.0826 -0.0115
    1PA    H12R 6957   2.090   2.125   4.538  1.7810 -1.1765  0.8089
    1PA    H12S 6958   2.105   2.202   4.692 -1.4721  2.7498  0.0698
    1PA    C111 6959   2.057   2.342   4.534 -0.3558 -0.0662 -1.0669
    1PA    H11R 6960   1.954   2.339   4.572  0.2235 -1.5711  0.4522
    1PA    H11S 6961   2.105   2.429   4.578  0.5062 -1.6258  1.1829
    1PA    C110 6962   2.053   2.341   4.379  0.4318 -0.5903  0.5051
    1PA    H10R 6963   2.156   2.325   4.344  0.8363  0.0386  1.3682
    1PA    H10S 6964   1.985   2.260   4.352 -1.9682  1.3939  0.4682
    1PA     C19 6965   1.987   2.468   4.319  0.2824 -0.6781 -0.1091
    1PA     H9R 6966   1.940   2.464   4.221  0.5592  1.7671 -0.3702
    1PA     H9S 6967   1.910   2.494   4.391 -0.4962 -0.3315 -1.0583
    1PA     C18 6968   2.093   2.582   4.311  0.1576  0.6042 -0.5496
    1PA     H8R 6969   2.123   2.600   4.414 -0.0024 -0.6459 -0.2821
    1PA     H8S 6970   2.180   2.552   4.253 -1.4604 -0.0903 -2.6848
    1PA     C17 6971   2.044   2.718   4.268 -0.1317  0.1607  0.0234
    1PA     H7R 6972   1.990   2.782   4.338 -1.3639  0.2302 -0.9661
    1PA     H7S 6973   2.143   2.762   4.256 -0.2333 -0.0368 -1.8080
    1PA     C16 6974   1.979   2.713   4.123  0.0560  0.2678 -0.0585
    1PA     H6R 6975   1.992   2.812   4.079  0.0739 -0.0520 -0.7805
    1PA     H6S 6976   2.037   2.643   4.064  0.7690 -0.0001  0.9427
    1PA     C15 6977   1.828   2.680   4.111 -0.4877  0.3989  0.8814
    1PA     H5R 6978   1.797   2.582   4.146 -1.4573  0.1202 -0.7417
    1PA     H5S 6979   1.775   2.753   4.172 -0.8131 -0.4707  1.6490
    1PA     C14 6980   1.769   2.687   3.966  0.0050  0.2200  0.5854
    1PA     H4R 6981   1.839   2.753   3.916  0.2288 -0.6444 -0.2614
    1PA     H4S 6982   1.775   2.590   3.915  0.2594  0.8680 -0.6390
    1PA     C13 6983   1.635   2.751   3.961 -0.3817  0.0491 -0.1460
    1PA     H3R 6984   1.571   2.704   4.036  0.3216  1.1810  1.1921
    1PA     H3S 6985   1.647   2.852   4.002  1.4136  0.0380 -0.5996
    1PA     C12 6986   1.562   2.750   3.825  0.1721 -0.4926  0.5348
    1PA     H2R 6987   1.565   2.648   3.787 -0.0678 -0.9666  1.7671
    1PA     H2S 6988   1.458   2.773   3.848  0.1724 -0.3211  0.3692
    1PC     C11 6989   1.622   2.838   3.720 -0.3657 -0.8503  0.1786
    1PC     O12 6990   1.667   2.946   3.737 -0.2600 -0.0465 -0.1596
    1PC     O11 6991   1.628   2.775   3.597  0.1820 -0.6713  0.1821
    1PC      C1 6992   1.686   2.846   3.485 -0.0528 -0.0898  0.1313
    1PC      HR 6993   1.675   2.953   3.504 -0.9314 -0.1102 -0.2318
    1PC      HS 6994   1.795   2.837   3.487 -0.0595 -0.1025  0.5444
    1PC      C2 6995   1.634   2.801   3.342 -0.7949  0.5203  0.0989
    1PC      HX 6996   1.695   2.834   3.258 -2.5696 -1.9863 -2.2171
    1PC      C3 6997   1.494   2.854   3.313 -0.0022  0.5621  0.0113
    1PC      HA 6998   1.425   2.808   3.385  0.9567 -0.0731  0.5341
    1PC      HB 6999   1.499   2.962   3.326 -0.2805  0.3997  1.5706
    1PC     O31 7000   1.458   2.823   3.179 -0.5883 -0.0925 -0.0564
    1PC     P31 7001   1.517   2.899   3.055 -0.4755 -0.1167  0.1883
    1PC     O32 7002   1.656   2.831   3.018  0.0653  0.4725  0.5896
    1PC     C31 7003   1.667   2.700   2.949  0.1205  0.2160 -0.6086
    1PC     H1A 7004   1.614   2.623   3.006 -1.1360 -1.3915 -3.7982
    1PC     H1B 7005   1.625   2.698   2.848  1.2601  1.2866 -1.1141
    1PC     C32 7006   1.817   2.664   2.939  0.2934  0.0815 -0.6486
    1PC     H2A 7007   1.849   2.641   3.041 -0.9948  0.0474 -0.2355
    1PC     H2B 7008   1.826   2.586   2.863 -0.9834 -0.7895  0.0686
    1PC     N31 7009   1.904   2.776   2.895  0.0743  0.0258  0.2362
    1PC     C33 7010   1.845   2.856   2.779  0.1033  0.4026 -0.7155
    1PC     H3A 7011   1.781   2.783   2.728 -2.6057  1.3831  1.1811
    1PC     H3B 7012   1.781   2.938   2.811 -0.8954 -0.0360 -1.5461
    1PC     H3C 7013   1.921   2.903   2.717 -1.7320  1.1849 -2.4418
    1PC     C34 7014   1.944   2.868   3.006 -0.0906  0.1458 -0.1389
    1PC     H4A 7015   1.981   2.812   3.091 -0.7988  0.0833  0.1313
    1PC     H4B 7016   2.015   2.943   2.972 -0.1002  0.8569  1.3780
    1PC     H4C 7017   1.856   2.927   3.033 -0.0471  0.4893 -0.7345
    1PC     C35 7018   2.030   2.706   2.843  0.1161 -0.7175 -0.1490
    1PC     H5A 7019   2.066   2.640   2.922  2.0233 -0.0478 -0.4297
    1PC     H5B 7020   2.096   2.782   2.802  0.6404 -1.1696 -0.1574
    1PC     H5C 7021   2.002   2.646   2.756 -0.0119 -1.2103  0.2300
    1PC     O33 7022   1.417   2.883   2.948  0.3698 -0.6134 -0.1913
    1PC     O34 7023   1.550   3.040   3.100  0.0184 -0.2258 -0.0193
    1PC     O21 7024   1.615   2.657   3.348 -0.2392  0.0227  0.5971
    1PC     C21 7025   1.700   2.575   3.293  0.6317 -0.6248 -0.3470
    1PC     O22 7026   1.810   2.605   3.253 -0.0028 -0.2751  0.3435
    1OL     C12 7027   1.649   2.431   3.288  0.1412 -0.0012  0.5853
    1OL     H2R 7028   1.683   2.399   3.189 -1.1429  0.1348  0.1002
    1OL     H2S 7029   1.541   2.446   3.293  0.3070  1.0067  1.2312
    1OL     C13 7030   1.697   2.338   3.403  0.1198  0.3747  0.4863
    1OL     H3R 7031   1.648   2.243   3.384  0.4868  0.4025 -0.6886
    1OL     H3S 7032   1.670   2.387   3.497 -1.1926  3.5379 -1.4337
    1OL     C14 7033   1.850   2.306   3.379  0.6085 -1.0584  0.3157
    1OL     H4R 7034   1.877   2.321   3.274 -2.3086  2.9478  0.0161
    1OL     H4S 7035   1.867   2.199   3.396  0.4091 -1.1772 -0.2338
    1OL     C15 7036   1.946   2.382   3.474  0.0475  0.0835  0.3215
    1OL     H5R 7037   1.946   2.333   3.572 -0.7638  1.3735  0.9923
    1OL     H5S 7038   1.928   2.490   3.479  3.4996  0.7477 -0.3341
    1OL     C16 7039   2.093   2.365   3.431 -0.1691 -0.1318  0.3557
    1OL     H6R 7040   2.117   2.401   3.331  0.6210 -0.5420  0.3923
    1OL     H6S 7041   2.115   2.258   3.424  0.7745  0.2520 -4.0967
    1OL     C17 7042   2.183   2.437   3.535 -0.4936 -1.0042  0.1465
    1OL     H7R 7043   2.161   2.392   3.632 -0.9537  1.8919  1.4486
    1OL     H7S 7044   2.156   2.541   3.556  2.2848  0.4879 -3.0879
    1OL     C18 7045   2.328   2.439   3.496 -0.0739 -0.0504  0.4070
    1OL     H8R 7046   2.337   2.503   3.408  1.3989 -2.1463 -0.9922
    1OL     H8S 7047   2.346   2.337   3.462  1.9500  0.2476  0.5662
    1OL     C19 7048   2.427   2.490   3.603  0.2143 -0.5980  0.1023
    1OL     H9R 7049   2.465   2.590   3.584 -1.4860  0.1510  0.5242
    1OL    C110 7050   2.467   2.435   3.711 -0.3708  0.0296 -0.2556
    1OL    H10R 7051   2.527   2.494   3.779 -1.1038  0.0893  0.3414
    1OL    C111 7052   2.420   2.300   3.753 -0.1871 -0.2234  0.1001
    1OL    H11R 7053   2.495   2.224   3.733  0.2736  0.5318 -1.0879
    1OL    H11S 7054   2.338   2.270   3.687 -0.9005  0.4250  0.6908
    1OL    C112 7055   2.380   2.304   3.902 -0.1802  0.4662 -0.0957
    1OL    H12R 7056   2.307   2.383   3.920  0.8627  1.1428  1.2560
    1OL    H12S 7057   2.468   2.324   3.964 -0.8212 -1.7104  1.5874
    1OL    C113 7058   2.316   2.169   3.933 -0.3053  0.1071 -0.4956
    1OL    H13R 7059   2.390   2.093   3.906 -0.4024  0.0895 -0.7135
    1OL    H13S 7060   2.223   2.159   3.876 -0.3264  2.0840 -0.8460
    1OL    C114 7061   2.288   2.161   4.078 -0.1439 -0.1692 -0.4600
    1OL    H14R 7062   2.222   2.239   4.116  0.8193  1.5950 -2.3204
    1OL    H14S 7063   2.378   2.156   4.140 -0.9355 -0.4482  0.6757
    1OL    C115 7064   2.215   2.019   4.091  0.7151 -0.2002  0.0269
    1OL    H15R 7065   2.288   1.946   4.056 -0.5807 -0.4024 -2.3026
    1OL    H15S 7066   2.131   2.019   4.022  1.5769 -2.5566 -1.0654
    1OL    C116 7067   2.159   1.999   4.225 -0.5448  0.2905 -0.2033
    1OL    H16R 7068   2.089   2.079   4.251 -0.6658  0.4843 -1.1169
    1OL    H16S 7069   2.243   2.020   4.293 -0.5327 -2.8262  0.8136
    1OL    C117 7070   2.102   1.860   4.258 -0.0391  0.3336 -0.0461
    1OL    H17R 7071   2.180   1.787   4.234  0.7234  2.1473 -3.3072
    1OL    H17S 7072   2.016   1.832   4.197 -0.1045  0.9212 -0.2233
    1OL    C118 7073   2.063   1.834   4.403  0.2877  0.4711  0.2732
    1OL    H18R 7074   2.149   1.839   4.471  0.1488  2.2841  0.3344
    1OL    H18S 7075   2.034   1.731   4.422  1.1796 -0.1383 -1.5592
    1OL    H18T 7076   1.989   1.905   4.440  1.1925  0.8549  1.4101
    1PA    C116 7077   2.423   2.941   5.276  0.2057 -0.5993 -0.3469
    1PA    H16R 7078   2.328   2.907   5.317 -0.4574 -1.5983 -2.6384
    1PA    H16S 7079   2.499   2.911   5.348  0.5285 -0.5215 -0.6577
    1PA    H16T 7080   2.437   2.888   5.182  1.4543  0.4377 -0.7571
    1PA    C115 7081   2.421   3.096   5.250  0.3786  0.1933  0.3701
    1PA    H15R 7082   2.395   3.144   5.344 -1.3217  0.9040 -0.4401
    1PA    H15S 7083   2.525   3.123   5.227  0.2860  0.9291  0.8424
    1PA    C114 7084   2.301   3.142   5.151 -0.9141 -0.2626  0.7278
    1PA    H14R 7085   2.200   3.133   5.192 -1.7768  2.1175 -0.8018
    1PA    H14S 7086   2.320   3.249   5.140 -1.1629 -0.1584  1.2923
    1PA    C113 7087   2.310   3.065   5.019 -0.2862 -0.4380 -0.0294
    1PA    H13R 7088   2.412   3.095   4.992 -0.2848 -1.5856 -1.3177
    1PA    H13S 7089   2.296   2.959   5.039 -0.4048 -0.2514  0.9224
    1PA    C112 7090   2.208   3.122   4.918 -0.3622  0.2110  0.3940
    1PA    H12R 7091   2.108   3.088   4.947  0.2552 -1.4644  0.6169
    1PA    H12S 7092   2.198   3.230   4.924  0.5426  0.2421  1.4291
    1PA    C111 7093   2.236   3.071   4.776  0.2665 -0.3870  0.4663
    1PA    H11R 7094   2.245   2.962   4.778 -1.7647 -0.5883 -0.1728
    1PA    H11S 7095   2.147   3.088   4.714 -0.0492  0.7986  1.2312
    1PA    C110 7096   2.358   3.136   4.700  0.0221  0.4195 -0.7382
    1PA    H10R 7097   2.386   3.235   4.736 -1.4374  0.9711 -1.0820
    1PA    H10S 7098   2.444   3.071   4.713 -0.1578  0.4658  0.8655
    1PA     C19 7099   2.334   3.155   4.550 -0.4740 -0.6140 -0.9062
    1PA     H9R 7100   2.319   3.054   4.511  0.5215 -1.1394  0.0330
    1PA     H9S 7101   2.245   3.216   4.532  1.1793  1.9388 -0.7182
    1PA     C18 7102   2.440   3.230   4.474  0.4035 -0.3758  0.8604
    1PA     H8R 7103   2.443   3.334   4.508  0.2238 -0.3879  0.9119
    1PA     H8S 7104   2.538   3.191   4.503 -1.1510 -1.7096  4.5830
    1PA     C17 7105   2.404   3.221   4.322  0.3029 -0.1397 -0.1074
    1PA     H7R 7106   2.418   3.118   4.288 -0.7442 -1.0072  2.0096
    1PA     H7S 7107   2.300   3.248   4.298 -0.1554 -1.5490  0.2400
    1PA     C16 7108   2.503   3.314   4.256 -0.0965 -0.1393  0.8583
    1PA     H6R 7109   2.493   3.420   4.280  0.0923  0.7048 -2.5442
    1PA     H6S 7110   2.605   3.282   4.279 -0.0924 -0.1998  0.7599
    1PA     C15 7111   2.496   3.300   4.101  0.6877  0.0087 -0.2395
    1PA     H5R 7112   2.528   3.197   4.084  0.9126 -0.0114  0.3115
    1PA     H5S 7113   2.392   3.310   4.070  0.8477  0.5260 -0.6244
    1PA     C14 7114   2.587   3.390   4.015  0.3939  0.2590 -0.4034
    1PA     H4R 7115   2.582   3.493   4.049  1.8646  0.2855 -0.2467
    1PA     H4S 7116   2.689   3.352   4.020 -0.1643 -1.3844 -1.0963
    1PA     C13 7117   2.539   3.406   3.870 -0.1724  0.3211 -0.0021
    1PA     H3R 7118   2.515   3.303   3.841  1.7925 -0.3686  0.7730
    1PA     H3S 7119   2.441   3.454   3.870  0.0811  0.8432  0.4049
    1PA     C12 7120   2.638   3.468   3.773  0.0228  0.5673  0.0396
    1PA     H2R 7121   2.738   3.427   3.792  0.1994  0.7222 -0.5569
    1PA     H2S 7122   2.615   3.429   3.674 -0.7653 -2.2735  1.2670
    1PC     C11 7123   2.641   3.621   3.773 -0.1266  0.2725 -0.3316
    1PC     O12 7124   2.649   3.687   3.872  0.1648 -0.1342  0.7270
    1PC     O11 7125   2.641   3.669   3.646 -0.5293 -0.3123 -0.2545
    1PC      C1 7126   2.667   3.807   3.630  0.2357 -0.0961 -0.5629
    1PC      HR 7127   2.609   3.837   3.542 -1.9856 -0.6407  0.6671
    1PC      HS 7128   2.636   3.863   3.718  2.3933 -0.4248  0.4346
    1PC      C2 7129   2.820   3.831   3.617  0.2300  0.3914 -0.4597
    1PC      HX 7130   2.834   3.938   3.598 -0.3144  1.3011  3.7387
    1PC      C3 7131   2.883   3.743   3.506 -0.2686  0.3922  0.2765
    1PC      HA 7132   2.986   3.717   3.533 -0.5173 -1.8035 -0.8246
    1PC      HB 7133   2.830   3.650   3.487  0.2277  0.6395 -2.6026
    1PC     O31 7134   2.902   3.824   3.380  0.4971 -0.6037 -0.0384
    1PC     P31 7135   2.790   3.835   3.263 -0.2576 -0.3058  0.5892
    1PC     O32 7136   2.754   3.678   3.241  0.4446  0.1138  0.3654
    1PC     C31 7137   2.841   3.591   3.178 -0.2854 -0.4565 -0.1973
    1PC     H1A 7138   2.945   3.623   3.181 -0.1939 -0.8644  1.7355
    1PC     H1B 7139   2.826   3.491   3.219  2.1975 -0.1283  1.5612
    1PC     C32 7140   2.790   3.586   3.029  0.2332  0.1075 -0.5249
    1PC     H2A 7141   2.782   3.688   2.992  2.1162  1.2289  1.9838
    1PC     H2B 7142   2.869   3.540   2.970 -0.0797 -0.0181 -0.8438
    1PC     N31 7143   2.661   3.517   2.994 -0.6225 -0.0421 -0.4939
    1PC     C33 7144   2.548   3.542   3.089  0.0066  0.2467  0.3878
    1PC     H3A 7145   2.576   3.502   3.186  0.7238  1.7458  0.8045
    1PC     H3B 7146   2.520   3.647   3.086 -0.9651  0.0170  1.3133
    1PC     H3C 7147   2.468   3.481   3.047 -0.0670  1.3003 -1.0376
    1PC     C34 7148   2.607   3.554   2.860  0.4086 -0.2556  0.3716
    1PC     H4A 7149   2.566   3.655   2.870  0.0275 -0.4871  1.1959
    1PC     H4B 7150   2.683   3.552   2.782 -0.3707 -1.1345 -0.3537
    1PC     H4C 7151   2.532   3.477   2.845  1.9312 -1.5602 -0.6345
    1PC     C35 7152   2.678   3.367   2.985 -0.0869  0.5389  0.1160
    1PC     H5A 7153   2.754   3.348   2.910  0.7287  3.6866  0.0731
    1PC     H5B 7154   2.584   3.317   2.959  0.1524 -0.8115  1.7613
    1PC     H5C 7155   2.718   3.325   3.078  1.3408  1.5056 -0.0447
    1PC     O33 7156   2.671   3.905   3.310 -0.1054  0.2102  0.0330
    1PC     O34 7157   2.866   3.891   3.147  0.6333 -0.2005  0.3097
    1PC     O21 7158   2.898   3.802   3.743 -0.7380  0.0054 -0.2197
    1PC     C21 7159   2.985   3.896   3.794 -0.6998  0.4461 -0.4884
    1PC     O22 7160   2.986   4.010   3.763 -0.0414 -0.6488  0.2904
    1OL     C12 7161   3.071   3.836   3.907  0.2149  0.3358  0.1921
    1OL     H2R 7162   3.152   3.770   3.873  1.3506  1.1962  1.1759
    1OL     H2S 7163   3.012   3.772   3.973 -0.6236  0.1059 -0.7645
    1OL     C13 7164   3.151   3.939   3.986 -0.6540 -0.8423  0.0926
    1OL     H3R 7165   3.081   4.018   4.015  1.3363  0.4416  1.4868
    1OL     H3S 7166   3.214   4.002   3.924 -1.1054 -1.5936 -1.1502
    1OL     C14 7167   3.230   3.880   4.107  0.5330 -0.6460  0.2265
    1OL     H4R 7168   3.300   3.960   4.132 -1.3320  1.2266 -0.3285
    1OL     H4S 7169   3.284   3.792   4.074  0.8961 -0.0437 -0.8071
    1OL     C15 7170   3.160   3.839   4.235  0.4718 -0.8017 -0.3462
    1OL     H5R 7171   3.233   3.833   4.316  1.1851  1.4001 -0.7918
    1OL     H5S 7172   3.134   3.733   4.223  3.2089 -1.8385  2.3635
    1OL     C16 7173   3.054   3.946   4.282  0.0061  0.7592 -0.5504
    1OL     H6R 7174   3.057   4.032   4.214 -0.5607 -0.3312 -1.9747
    1OL     H6S 7175   3.067   3.977   4.386  0.1467  0.4131 -0.4659
    1OL     C17 7176   2.907   3.891   4.286 -0.1881  0.6449 -0.0240
    1OL     H7R 7177   2.865   3.880   4.186 -0.2930  0.6552  0.0195
    1OL     H7S 7178   2.841   3.965   4.330 -0.7897  0.0991 -0.0076
    1OL     C18 7179   2.903   3.760   4.357 -0.2147  0.1456  0.5143
    1OL     H8R 7180   2.942   3.776   4.457  1.0031  0.7812 -0.0528
    1OL     H8S 7181   2.964   3.682   4.311 -1.7200 -0.6285 -0.2249
    1OL     C19 7182   2.756   3.714   4.349  0.5762 -0.1682  0.1433
    1OL     H9R 7183   2.697   3.728   4.258 -0.0123 -1.4105  0.3283
    1OL    C110 7184   2.682   3.682   4.452  0.4058 -0.8617  0.1038
    1OL    H10R 7185   2.580   3.646   4.442  1.0047 -2.2314 -1.2113
    1OL    C111 7186   2.722   3.690   4.599  0.4278  0.0804 -0.3851
    1OL    H11R 7187   2.635   3.666   4.660 -0.0022  2.5757  0.0306
    1OL    H11S 7188   2.774   3.777   4.639  2.0852 -2.6721  3.9274
    1OL    C112 7189   2.828   3.579   4.633  0.1238  0.3623 -0.2935
    1OL    H12R 7190   2.856   3.596   4.737 -0.3238  0.2518 -0.1561
    1OL    H12S 7191   2.918   3.588   4.572 -0.0194 -1.1519 -0.7458
    1OL    C113 7192   2.785   3.430   4.615  0.2806  0.7973  0.3638
    1OL    H13R 7193   2.868   3.360   4.617  1.2743  1.9261 -0.4654
    1OL    H13S 7194   2.744   3.419   4.515 -1.2143  2.0382  0.8118
    1OL    C114 7195   2.671   3.399   4.719  0.0664  0.0851  0.1939
    1OL    H14R 7196   2.661   3.290   4.716 -1.7595  0.2367 -0.1325
    1OL    H14S 7197   2.577   3.444   4.685  1.1888  2.1625 -0.2544
    1OL    C115 7198   2.689   3.428   4.864  0.8267 -0.5350  0.1958
    1OL    H15R 7199   2.679   3.534   4.885 -0.2064 -0.7706  0.9343
    1OL    H15S 7200   2.787   3.396   4.899  1.4919  1.0323 -0.1953
    1OL    C116 7201   2.586   3.353   4.955 -0.5212  0.5988 -0.7027
    1OL    H16R 7202   2.576   3.250   4.921 -1.8607  1.4762 -3.0577
    1OL    H16S 7203   2.491   3.404   4.942  0.0606  2.3011  1.4617
    1OL    C117 7204   2.624   3.366   5.111 -0.1703  0.5063  0.6878
    1OL    H17R 7205   2.694   3.290   5.146 -0.9863 -0.1597  0.8924
    1OL    H17S 7206   2.532   3.342   5.165  0.3243  1.2957  1.8923
    1OL    C118 7207   2.662   3.506   5.149  0.1780 -0.0759  0.1310
    1OL    H18R 7208   2.586   3.572   5.107  0.6831 -0.1915 -0.9631
    1OL    H18S 7209   2.760   3.526   5.104 -0.8581 -0.2605 -2.2348
    1OL    H18T 7210   2.671   3.519   5.258  2.2625  0.2472 -0.0607
    1PA    C116 7211   3.958   2.091   5.074  0.1828  0.4568  0.1087
    1PA    H16R 7212   3.909   2.122   5.167  1.1315 -1.2112  1.1883
    1PA    H16S 7213   4.051   2.041   5.103 -0.1226 -0.4785 -0.5075
    1PA    H16T 7214   3.891   2.019   5.027  0.6350 -1.2243  1.9950
    1PA    C115 7215   3.974   2.209   4.980  0.1734  0.6171  0.1345
    1PA    H15R 7216   3.878   2.259   4.964 -0.1500  0.1841  0.7280
    1PA    H15S 7217   4.042   2.283   5.026  4.1787 -2.5940 -0.3301
    1PA    C114 7218   4.021   2.169   4.838  0.0391  0.3382 -0.0929
    1PA    H14R 7219   4.120   2.123   4.842 -1.1415 -2.2314  0.5265
    1PA    H14S 7220   3.953   2.092   4.801 -0.2514 -0.3066  1.7392
    1PA    C113 7221   4.048   2.280   4.743  0.0975 -0.1806  0.0346
    1PA    H13R 7222   3.956   2.336   4.725 -2.1896 -2.8484  2.8590
    1PA    H13S 7223   4.127   2.346   4.779  0.9219 -1.5945  0.8381
    1PA    C112 7224   4.096   2.236   4.607 -0.1246 -0.4587  0.1886
    1PA    H12R 7225   4.037   2.154   4.565  0.3465 -0.8224  0.2320
    1PA    H12S 7226   4.077   2.314   4.533  1.1674  0.0065  0.3310
    1PA    C111 7227   4.239   2.186   4.602 -0.0539  0.4346  0.4951
    1PA    H11R 7228   4.299   2.257   4.659  0.5430  0.2147  0.1393
    1PA    H11S 7229   4.259   2.087   4.643 -1.7426 -0.3238 -0.4584
    1PA    C110 7230   4.300   2.170   4.456  0.0327  0.3206  0.0201
    1PA    H10R 7231   4.388   2.105   4.458  1.0937  1.7022 -0.4807
    1PA    H10S 7232   4.229   2.113   4.396  1.3373  1.2330 -2.5133
    1PA     C19 7233   4.334   2.305   4.383 -0.9802  0.5518 -0.6297
    1PA     H9R 7234   4.249   2.373   4.373 -0.4460  0.9202 -2.8910
    1PA     H9S 7235   4.415   2.355   4.437 -0.9055  1.4808 -1.6031
    1PA     C18 7236   4.368   2.269   4.238  0.1985 -0.0150 -0.3151
    1PA     H8R 7237   4.439   2.186   4.242 -1.0201 -1.0252  1.2289
    1PA     H8S 7238   4.273   2.243   4.192  0.1077  1.0312 -0.7438
    1PA     C17 7239   4.426   2.386   4.160  0.0185  0.0517  0.1795
    1PA     H7R 7240   4.526   2.422   4.186  0.3508 -2.1112  1.9993
    1PA     H7S 7241   4.433   2.358   4.054  0.0302  1.3167 -0.1646
    1PA     C16 7242   4.330   2.505   4.170 -0.2041  0.1951 -0.2056
    1PA     H6R 7243   4.228   2.468   4.175  0.4671 -1.6914  0.2964
    1PA     H6S 7244   4.347   2.547   4.270 -0.1774 -0.3346  0.0170
    1PA     C15 7245   4.331   2.614   4.065 -0.0739 -0.1075  0.5156
    1PA     H5R 7246   4.242   2.677   4.073 -0.1131 -0.0025 -0.6433
    1PA     H5S 7247   4.412   2.683   4.085  0.8636 -0.9083 -0.4384
    1PA     C14 7248   4.347   2.561   3.923 -0.0981  0.0826  0.4929
    1PA     H4R 7249   4.450   2.525   3.918 -0.1147  0.2349 -1.3886
    1PA     H4S 7250   4.276   2.478   3.918  1.6500 -1.3851 -1.0869
    1PA     C13 7251   4.323   2.675   3.817  0.6591 -0.3653  0.2130
    1PA     H3R 7252   4.320   2.619   3.723  1.6934 -1.5698  0.8867
    1PA     H3S 7253   4.223   2.713   3.841  1.3353 -0.0414  2.6905
    1PA     C12 7254   4.435   2.781   3.808  0.5796 -0.1135  0.1130
    1PA     H2R 7255   4.436   2.846   3.896  1.0047  0.3968 -0.2640
    1PA     H2S 7256   4.530   2.731   3.791  0.7916  0.8762 -1.7515
    1PC     C11 7257   4.410   2.879   3.698 -0.1064  0.0899 -0.6525
    1PC     O12 7258   4.485   2.910   3.608  0.0605  0.4705  0.6622
    1PC     O11 7259   4.284   2.934   3.691  0.3755 -0.0155  0.1609
    1PC      C1 7260   4.254   3.045   3.604  0.4222  0.6299  0.0750
    1PC      HR 7261   4.176   3.105   3.650 -0.7930 -0.3375 -0.6657
    1PC      HS 7262   4.343   3.101   3.576 -1.0345  1.6887 -2.7139
    1PC      C2 7263   4.185   2.982   3.483 -0.0311 -0.1163  0.4199
    1PC      HX 7264   4.256   2.916   3.433 -2.2425 -0.8978 -1.8191
    1PC      C3 7265   4.150   3.095   3.387  0.1729 -0.8019 -0.2491
    1PC      HA 7266   4.102   3.182   3.434  2.4174  0.9494 -1.0705
    1PC      HB 7267   4.238   3.135   3.336 -0.5242 -0.9741 -1.6144
    1PC     O31 7268   4.044   3.060   3.284 -0.5173 -0.8289  0.3545
    1PC     P31 7269   4.075   2.954   3.163 -0.2690 -0.1555 -0.0558
    1PC     O32 7270   4.154   3.046   3.060 -0.1291  0.0370  0.4954
    1PC     C31 7271   4.291   3.068   3.057  0.0064  0.3513  0.5456
    1PC     H1A 7272   4.317   3.158   3.000  1.3432 -0.2377  0.2166
    1PC     H1B 7273   4.327   3.096   3.156  0.9330  1.9658 -0.2342
    1PC     C32 7274   4.376   2.950   3.002  0.0300 -0.1353 -0.7849
    1PC     H2A 7275   4.480   2.983   3.015  0.0064 -0.2788 -0.2216
    1PC     H2B 7276   4.358   2.857   3.056  0.6352  0.1422 -0.0894
    1PC     N31 7277   4.352   2.911   2.855 -0.2351 -0.1077 -0.2637
    1PC     C33 7278   4.392   3.022   2.764 -0.0887  0.3244  0.5352
    1PC     H3A 7279   4.329   3.107   2.790 -1.8801  0.5204 -4.0476
    1PC     H3B 7280   4.498   3.044   2.779  0.4148  0.5568 -3.1053
    1PC     H3C 7281   4.378   2.982   2.664 -0.9924  0.7389  0.4962
    1PC     C34 7282   4.447   2.792   2.836 -0.3375  0.1184  0.2852
    1PC     H4A 7283   4.461   2.782   2.729 -0.6700  0.7661  0.1776
    1PC     H4B 7284   4.540   2.804   2.893  0.4563  2.1447 -1.3585
    1PC     H4C 7285   4.391   2.707   2.873 -0.7935  0.1625 -0.3114
    1PC     C35 7286   4.217   2.863   2.814 -0.5093 -0.1860  0.4996
    1PC     H5A 7287   4.198   2.769   2.867  0.6189 -0.8477 -0.2384
    1PC     H5B 7288   4.220   2.842   2.707  0.6017 -2.4039  0.9405
    1PC     H5C 7289   4.136   2.929   2.844 -1.2030 -1.5487  1.6934
    1PC     O33 7290   4.174   2.851   3.204  0.1114 -0.0666 -0.2150
    1PC     O34 7291   3.948   2.917   3.104  0.4853 -0.7533  0.2230
    1PC     O21 7292   4.067   2.914   3.532  0.0603  0.4590  0.0140
    1PC     C21 7293   4.076   2.780   3.552 -0.3839  0.4294  0.0720
    1PC     O22 7294   4.170   2.705   3.535 -0.2415 -0.1916 -0.6314
    1OL     C12 7295   3.936   2.744   3.601 -0.1662  0.2056 -0.1162
    1OL     H2R 7296   3.875   2.718   3.514  0.5700  0.7282 -0.7944
    1OL     H2S 7297   3.884   2.828   3.647  0.1543  0.8386 -0.8941
    1OL     C13 7298   3.933   2.613   3.689 -0.0890 -0.3365 -0.2721
    1OL     H3R 7299   4.025   2.560   3.663  0.5237  1.1011 -1.1328
    1OL     H3S 7300   3.847   2.548   3.672 -0.0451 -1.0470  2.1193
    1OL     C14 7301   3.946   2.649   3.835 -0.2071  0.4847  0.3319
    1OL     H4R 7302   4.025   2.724   3.844 -0.5159  0.9027 -0.3653
    1OL     H4S 7303   3.978   2.560   3.888  0.4524  0.1440 -0.6396
    1OL     C15 7304   3.819   2.691   3.905 -0.2250  0.0209 -0.0048
    1OL     H5R 7305   3.738   2.619   3.906 -1.2250  1.0929 -1.8654
    1OL     H5S 7306   3.784   2.780   3.852  3.2761  1.0883 -0.6649
    1OL     C16 7307   3.829   2.726   4.058 -0.5040  0.5831 -0.7261
    1OL     H6R 7308   3.729   2.750   4.094  0.3698  2.0909  0.7994
    1OL     H6S 7309   3.883   2.818   4.084 -0.1215 -0.1665  1.2014
    1OL     C17 7310   3.871   2.607   4.144 -0.4413  0.2029 -0.0738
    1OL     H7R 7311   3.973   2.576   4.118 -1.0110 -1.3734 -0.4728
    1OL     H7S 7312   3.802   2.529   4.112 -0.7232  0.1247  0.7295
    1OL     C18 7313   3.870   2.631   4.297  0.2573 -0.0241 -0.2297
    1OL     H8R 7314   3.894   2.534   4.340  1.1921 -0.0576 -0.8236
    1OL     H8S 7315   3.768   2.647   4.332  0.6919 -0.0655  1.0992
    1OL     C19 7316   3.961   2.745   4.327  0.7705 -0.3771 -1.1184
    1OL     H9R 7317   3.932   2.838   4.278 -0.0473 -0.2306 -0.3693
    1OL    C110 7318   4.066   2.749   4.406  0.4550 -0.2944  0.1899
    1OL    H10R 7319   4.110   2.848   4.413  0.5385 -0.1375 -2.0808
    1OL    C111 7320   4.130   2.638   4.488  0.2739  0.4110 -0.0802
    1OL    H11R 7321   4.233   2.623   4.456 -0.1686 -1.1453 -0.8205
    1OL    H11S 7322   4.086   2.539   4.478 -1.1004  1.0044 -0.0286
    1OL    C112 7323   4.137   2.663   4.638 -0.5459 -0.6140  0.0303
    1OL    H12R 7324   4.196   2.755   4.648  0.8343 -1.5070  0.2712
    1OL    H12S 7325   4.182   2.573   4.680  0.1427 -0.6240 -0.7023
    1OL    C113 7326   4.003   2.676   4.716  0.1345 -0.6200  0.0317
    1OL    H13R 7327   4.019   2.690   4.823  0.6210 -1.4862  0.0808
    1OL    H13S 7328   3.941   2.587   4.708 -0.1831 -0.4553  0.6722
    1OL    C114 7329   3.924   2.809   4.675  0.7943  0.3438 -0.1272
    1OL    H14R 7330   3.831   2.811   4.732  0.1655 -0.4298 -1.0989
    1OL    H14S 7331   3.891   2.799   4.571  2.6476 -1.2786 -0.5860
    1OL    C115 7332   4.000   2.944   4.686 -0.2609 -0.1081 -0.1771
    1OL    H15R 7333   3.923   3.020   4.674  1.8174  1.9550 -0.8115
    1OL    H15S 7334   4.071   2.962   4.605  0.8713  0.1497  0.8703
    1OL    C116 7335   4.075   2.979   4.824 -0.3283 -0.0915  0.5010
    1OL    H16R 7336   4.106   3.083   4.819  0.1606 -0.0999  2.8196
    1OL    H16S 7337   4.164   2.919   4.842  1.2351  2.0262 -0.0407
    1OL    C117 7338   3.983   2.983   4.941  0.1689  0.4712 -0.3340
    1OL    H17R 7339   3.906   2.906   4.932 -0.3342  0.7296  1.5541
    1OL    H17S 7340   3.934   3.080   4.936 -1.0963 -0.1881 -1.1277
    1OL    C118 7341   4.060   2.969   5.070  0.1698  0.0154 -0.5575
    1OL    H18R 7342   4.115   2.875   5.082 -4.7683 -2.6860  2.8746
    1OL    H18S 7343   3.987   2.975   5.152 -0.3043  0.2669 -0.9960
    1OL    H18T 7344   4.122   3.056   5.089 -2.1231  1.2169  1.8934
    1PA    C116 7345   3.583   3.271   4.851 -0.1674  0.7546  0.1849
    1PA    H16R 7346   3.644   3.292   4.940  0.4968 -1.4816  0.2883
    1PA    H16S 7347   3.507   3.199   4.881 -0.6992  0.7096 -1.2512
    1PA    H16T 7348   3.535   3.364   4.820 -0.0357  0.3149 -1.3764
    1PA    C115 7349   3.679   3.207   4.751  1.0043  0.7337 -0.3743
    1PA    H15R 7350   3.773   3.262   4.760  1.4226 -0.0632  0.0867
    1PA    H15S 7351   3.700   3.105   4.782 -1.2782  0.5825  0.7904
    1PA    C114 7352   3.628   3.210   4.604 -0.5212 -0.3992  0.7034
    1PA    H14R 7353   3.522   3.185   4.601 -0.2102 -1.7383  0.8324
    1PA    H14S 7354   3.634   3.315   4.575 -2.6702 -0.0615  1.4266
    1PA    C113 7355   3.718   3.128   4.513 -0.3746  0.3625 -0.3007
    1PA    H13R 7356   3.819   3.167   4.529  1.3425 -2.7100 -3.0216
    1PA    H13S 7357   3.720   3.022   4.540  0.0238  0.6669  0.9035
    1PA    C112 7358   3.676   3.145   4.368 -0.5287 -0.5187 -0.4698
    1PA    H12R 7359   3.577   3.099   4.358 -0.5486 -0.3374 -1.0785
    1PA    H12S 7360   3.666   3.252   4.351 -0.4458 -0.2350  1.1515
    1PA    C111 7361   3.766   3.086   4.262 -0.8485 -0.0568  0.1170
    1PA    H11R 7362   3.785   2.980   4.280 -1.8240  0.0065  1.6045
    1PA    H11S 7363   3.704   3.061   4.175  0.4483 -1.3471 -0.4671
    1PA    C110 7364   3.885   3.172   4.226  0.1779 -0.3361 -0.5011
    1PA    H10R 7365   3.851   3.261   4.173  0.7204  0.9800  1.3192
    1PA    H10S 7366   3.915   3.209   4.325 -0.2571 -0.9967 -0.1189
    1PA     C19 7367   4.004   3.113   4.144 -0.7782 -0.8024  0.0056
    1PA     H9R 7368   4.078   3.191   4.126 -1.9828  0.8065  1.8798
    1PA     H9S 7369   4.060   3.027   4.182  0.2947 -0.0882  0.0625
    1PA     C18 7370   3.957   3.079   4.002  0.6430 -0.7826  0.5082
    1PA     H8R 7371   4.016   2.995   3.965 -1.8565 -1.1104 -3.0094
    1PA     H8S 7372   3.856   3.036   4.002 -0.0922  0.8982 -0.3926
    1PA     C17 7373   3.980   3.188   3.901 -0.3706  0.0247  0.7398
    1PA     H7R 7374   3.923   3.273   3.938 -0.5141  0.1929  0.1354
    1PA     H7S 7375   4.083   3.223   3.902 -0.8020  1.3374  0.1342
    1PA     C16 7376   3.933   3.154   3.759 -0.5825 -0.2524 -0.3983
    1PA     H6R 7377   3.988   3.065   3.730 -1.6467 -2.2328  3.2152
    1PA     H6S 7378   3.829   3.126   3.742 -1.4073  3.3889 -1.9266
    1PA     C15 7379   3.964   3.268   3.661 -0.1382  0.2721 -0.5522
    1PA     H5R 7380   4.061   3.312   3.683  0.1304 -0.2188 -0.7588
    1PA     H5S 7381   3.948   3.238   3.558 -3.0596  1.0127 -0.3521
    1PA     C14 7382   3.869   3.387   3.683  0.3481 -0.1860  0.5066
    1PA     H4R 7383   3.875   3.439   3.779  0.4411 -1.1023  1.0060
    1PA     H4S 7384   3.899   3.455   3.603  2.6056 -2.4608 -0.6800
    1PA     C13 7385   3.720   3.356   3.640 -0.2550 -0.3036 -0.2944
    1PA     H3R 7386   3.708   3.309   3.543 -4.1987  0.2135 -0.1326
    1PA     H3S 7387   3.679   3.277   3.704  2.9851 -0.4089  1.7735
    1PA     C12 7388   3.627   3.472   3.645  0.3243 -0.2759 -0.1109
    1PA     H2R 7389   3.526   3.436   3.666  0.6527 -1.4471 -0.5077
    1PA     H2S 7390   3.647   3.549   3.720  0.9386  1.5536 -2.1042
    1PC     C11 7391   3.631   3.549   3.513  0.1983  0.0689 -0.2081
    1PC     O12 7392   3.708   3.638   3.483 -0.3158  0.1441  0.4071
    1PC     O11 7393   3.524   3.514   3.440  0.1037  0.3541  0.1055
    1PC      C1 7394   3.469   3.594   3.333  0.1532  0.1463  0.3497
    1PC      HR 7395   3.540   3.653   3.274 -1.5775  1.7014 -0.2318
    1PC      HS 7396   3.430   3.513   3.271  0.5184 -0.4807  0.9437
    1PC      C2 7397   3.356   3.687   3.374 -0.0116  0.0365  1.2450
    1PC      HX 7398   3.269   3.636   3.418 -2.1653  2.2788 -0.2889
    1PC      C3 7399   3.306   3.773   3.255 -0.1712 -0.3925 -0.9826
    1PC      HA 7400   3.289   3.716   3.163  1.0762 -0.1631 -1.3679
    1PC      HB 7401   3.210   3.822   3.277 -1.2193 -2.6522 -0.4223
    1PC     O31 7402   3.417   3.861   3.225 -0.0021 -0.2989 -0.0823
    1PC     P31 7403   3.416   4.025   3.249 -0.4225  0.2562 -0.0919
    1PC     O32 7404   3.492   4.043   3.384 -0.0810 -0.1886  0.4368
    1PC     C31 7405   3.631   4.077   3.393 -0.0745  0.8333 -0.2183
    1PC     H1A 7406   3.659   4.162   3.331  0.7462  1.4189  0.9195
    1PC     H1B 7407   3.659   4.102   3.496  1.7175  0.2499 -0.5512
    1PC     C32 7408   3.711   3.954   3.351 -0.0113  0.5552 -0.5136
    1PC     H2A 7409   3.723   3.888   3.437 -2.3713  2.0179  1.0038
    1PC     H2B 7410   3.658   3.907   3.269  0.4676 -0.0154 -0.4969
    1PC     N31 7411   3.855   3.963   3.295 -0.1067  0.1499  0.3605
    1PC     C33 7412   3.931   4.032   3.399  0.4342  0.6564  0.2003
    1PC     H3A 7413   3.962   3.974   3.486  0.8061  1.6882  0.7576
    1PC     H3B 7414   4.028   4.050   3.353  1.0489 -0.3220  1.0719
    1PC     H3C 7415   3.875   4.123   3.417 -1.8257 -0.2497 -1.8961
    1PC     C34 7416   3.910   3.830   3.272 -0.0802 -0.5572 -0.1697
    1PC     H4A 7417   3.885   3.769   3.359  2.1198 -1.1102  0.1118
    1PC     H4B 7418   3.865   3.791   3.181 -0.9807 -0.3624  0.1893
    1PC     H4C 7419   4.018   3.835   3.255 -0.3144 -0.0000 -1.5195
    1PC     C35 7420   3.868   4.038   3.167  0.0826 -0.3502 -0.6750
    1PC     H5A 7421   3.966   4.020   3.122  0.4667 -0.0135  0.0189
    1PC     H5B 7422   3.853   4.146   3.179 -0.4367 -0.6812  1.9066
    1PC     H5C 7423   3.801   3.978   3.105 -0.7292 -0.0331 -0.1032
    1PC     O33 7424   3.496   4.093   3.143 -0.1975  0.0264 -0.9007
    1PC     O34 7425   3.278   4.068   3.265 -0.4915  0.1958  0.0255
    1PC     O21 7426   3.409   3.777   3.477  0.2907  0.6563  0.0251
    1PC     C21 7427   3.348   3.797   3.597  0.1464 -0.5167  0.0080
    1PC     O22 7428   3.241   3.754   3.632 -0.2863 -0.3488  0.5697
    1OL     C12 7429   3.427   3.903   3.677  0.1555 -0.0352  0.6343
    1OL     H2R 7430   3.368   3.928   3.765  0.1196 -3.1298  1.5296
    1OL     H2S 7431   3.440   3.989   3.611  1.3553 -0.5448  0.1764
    1OL     C13 7432   3.560   3.860   3.726 -0.9865 -0.3484  0.4108
    1OL     H3R 7433   3.632   3.936   3.696 -2.4540  1.6871  1.9231
    1OL     H3S 7434   3.590   3.771   3.670  0.9295  0.4836  0.0994
    1OL     C14 7435   3.566   3.827   3.876 -0.1971 -0.2272 -0.3687
    1OL     H4R 7436   3.495   3.747   3.897 -1.1167 -0.2920 -3.4897
    1OL     H4S 7437   3.544   3.917   3.934  1.0452  0.9343 -1.6610
    1OL     C15 7438   3.705   3.770   3.914  0.4745 -0.6157 -0.1523
    1OL     H5R 7439   3.732   3.676   3.866 -1.6310 -0.0197 -2.5687
    1OL     H5S 7440   3.706   3.735   4.018  1.2272 -0.1476  0.0032
    1OL     C16 7441   3.823   3.865   3.886 -0.0042  0.3561 -0.1854
    1OL     H6R 7442   3.848   3.881   3.781 -1.1835 -0.2557 -0.5710
    1OL     H6S 7443   3.910   3.818   3.930  0.4650  1.0918 -0.3130
    1OL     C17 7444   3.824   4.006   3.952 -0.3363 -0.1483  0.4126
    1OL     H7R 7445   3.762   4.078   3.897 -0.1955 -1.4881 -1.5785
    1OL     H7S 7446   3.928   4.039   3.958 -0.3351  0.2520 -1.4745
    1OL     C18 7447   3.768   4.020   4.099 -1.0794  0.2997  0.3055
    1OL     H8R 7448   3.665   3.985   4.095 -1.5418  1.8000 -0.9091
    1OL     H8S 7449   3.746   4.123   4.127 -0.7321  0.9047 -1.6388
    1OL     C19 7450   3.863   3.956   4.214  0.6055 -0.0491  0.3463
    1OL     H9R 7451   3.970   3.952   4.197  0.8961 -0.5043  2.1317
    1OL    C110 7452   3.817   3.895   4.327  0.1860 -0.0858 -0.2754
    1OL    H10R 7453   3.891   3.858   4.398  0.5229  3.2883  1.2119
    1OL    C111 7454   3.668   3.881   4.356 -0.0400  0.5713 -0.3987
    1OL    H11R 7455   3.608   3.857   4.268  0.5172 -0.4938 -0.4977
    1OL    H11S 7456   3.632   3.974   4.399 -0.5222  0.8243 -1.3275
    1OL    C112 7457   3.641   3.768   4.459 -0.5402 -0.7465 -0.2667
    1OL    H12R 7458   3.703   3.679   4.452  1.6050  0.7265 -0.4583
    1OL    H12S 7459   3.533   3.750   4.457 -0.8245  0.6858  1.1413
    1OL    C113 7460   3.649   3.803   4.610  0.2388 -0.0748  0.0436
    1OL    H13R 7461   3.576   3.882   4.631  0.0398 -0.2080 -0.1398
    1OL    H13S 7462   3.746   3.843   4.638  0.1355 -0.0086  0.3086
    1OL    C114 7463   3.622   3.668   4.690 -0.7980 -0.3053  0.2662
    1OL    H14R 7464   3.703   3.597   4.671  1.4161  1.9492  0.8941
    1OL    H14S 7465   3.526   3.633   4.653 -0.5975 -0.5032 -0.0730
    1OL    C115 7466   3.604   3.678   4.842  0.0014 -0.7430 -0.6100
    1OL    H15R 7467   3.602   3.579   4.887  3.0499  0.2277  1.7733
    1OL    H15S 7468   3.508   3.719   4.874  0.4518  0.5726 -0.8823
    1OL    C116 7469   3.717   3.755   4.915  0.4234  0.3138 -0.2337
    1OL    H16R 7470   3.721   3.863   4.897 -0.0779  0.8011  2.4438
    1OL    H16S 7471   3.813   3.714   4.882  0.8813 -0.5269  2.0347
    1OL    C117 7472   3.707   3.734   5.067 -0.1982  0.3020  0.1460
    1OL    H17R 7473   3.693   3.629   5.095  0.5398 -0.2142 -1.3770
    1OL    H17S 7474   3.621   3.796   5.091  0.2266  0.8259  0.3180
    1OL    C118 7475   3.832   3.787   5.146 -0.5199  0.1210 -0.1258
    1OL    H18R 7476   3.833   3.896   5.145 -1.2925  0.1685  2.5304
    1OL    H18S 7477   3.924   3.749   5.100 -0.2415  0.8973 -0.2187
    1OL    H18T 7478   3.824   3.762   5.252  0.3175  4.5115  1.0713
    1PA    C116 7479   4.554   0.620   5.109  0.2434 -0.6389  0.1041
    1PA    H16R 7480   4.637   0.562   5.148  0.7879  1.5860  2.3081
    1PA    H16S 7481   4.568   0.725   5.135 -2.7960 -0.1454 -0.0075
    1PA    H16T 7482   4.571   0.608   5.001 -1.7828 -1.7747 -0.1175
    1PA    C115 7483   4.424   0.570   5.167 -0.1070 -0.2759  0.0304
    1PA    H15R 7484   4.415   0.469   5.126 -0.4271  0.7421 -2.5394
    1PA    H15S 7485   4.435   0.572   5.275  0.6380  3.3114 -0.0637
    1PA    C114 7486   4.296   0.648   5.133 -0.3901 -0.5851 -1.1785
    1PA    H14R 7487   4.220   0.587   5.183 -0.9887  0.6373 -0.5748
    1PA    H14S 7488   4.302   0.744   5.184  3.2981 -2.2157  1.6907
    1PA    C113 7489   4.276   0.679   4.987  0.6150 -0.4161 -0.2807
    1PA    H13R 7490   4.185   0.739   4.977  0.4228 -0.9433 -1.9017
    1PA    H13S 7491   4.358   0.741   4.952  1.1524 -1.6183 -1.1656
    1PA    C112 7492   4.272   0.558   4.898 -0.1358 -0.5097  0.1656
    1PA    H12R 7493   4.357   0.491   4.914  1.1522  0.9068 -0.5388
    1PA    H12S 7494   4.190   0.490   4.922  0.1505 -0.5239  1.1135
    1PA    C111 7495   4.273   0.602   4.748  0.3621 -1.0391 -0.3715
    1PA    H11R 7496   4.269   0.523   4.674 -0.1289  0.7814 -2.3232
    1PA    H11S 7497   4.188   0.668   4.732  2.4285  1.7858  0.0086
    1PA    C110 7498   4.411   0.673   4.707  0.7522 -0.2487 -0.0272
    1PA    H10R 7499   4.414   0.764   4.766  0.0234  0.0116 -0.3809
    1PA    H10S 7500   4.489   0.604   4.741  0.8742 -1.2241 -2.2047
    1PA     C19 7501   4.427   0.713   4.565  0.1862  0.5608 -0.3753
    1PA     H9R 7502   4.531   0.743   4.551  1.2449 -2.0083  1.5326
    1PA     H9S 7503   4.409   0.621   4.508 -2.1883  1.2969 -0.8542
    1PA     C18 7504   4.328   0.819   4.521  0.5814  0.0075  0.0228
    1PA     H8R 7505   4.221   0.803   4.541  0.7521  1.1267  1.9691
    1PA     H8S 7506   4.346   0.916   4.568  0.9191  0.3118 -0.7291
    1PA     C17 7507   4.351   0.850   4.371  0.5789  0.0695  0.4976
    1PA     H7R 7508   4.316   0.766   4.311  2.5096  1.0186 -2.0821
    1PA     H7S 7509   4.284   0.930   4.342  0.1703  0.0652  1.4082
    1PA     C16 7510   4.494   0.890   4.328 -0.1177 -0.2317 -0.1701
    1PA     H6R 7511   4.526   0.982   4.375  3.0275 -0.6992 -1.3196
    1PA     H6S 7512   4.563   0.810   4.355 -0.3181 -0.5456 -0.5770
    1PA     C15 7513   4.504   0.925   4.175  0.2092 -0.9245  0.4129
    1PA     H5R 7514   4.609   0.936   4.147 -0.1193 -0.8945 -0.8245
    1PA     H5S 7515   4.467   0.842   4.114  0.1663  0.9092 -2.1111
    1PA     C14 7516   4.428   1.055   4.144  0.1076 -0.5543  0.1494
    1PA     H4R 7517   4.325   1.050   4.180  0.6871 -1.4386  1.7683
    1PA     H4S 7518   4.470   1.139   4.200  0.2008  0.0120 -0.7679
    1PA     C13 7519   4.437   1.088   3.991 -0.3991  0.1950  0.7838
    1PA     H3R 7520   4.420   1.196   3.985  0.8638  0.3552 -0.1239
    1PA     H3S 7521   4.545   1.076   3.976 -0.2145  0.8388  1.5263
    1PA     C12 7522   4.341   1.014   3.892  0.2199 -0.0660  0.3137
    1PA     H2R 7523   4.356   0.907   3.905  2.5590  0.2345  0.2746
    1PA     H2S 7524   4.238   1.037   3.918  0.5040 -0.8496  2.2712
    1PC     C11 7525   4.366   1.055   3.755  0.7815 -0.0574  0.1777
    1PC     O12 7526   4.363   1.172   3.722  0.3312  0.0995 -0.3131
    1PC     O11 7527   4.404   0.956   3.674  0.5760 -0.2798  0.3242
    1PC      C1 7528   4.407   0.986   3.526  0.7893  0.3833 -0.0684
    1PC      HR 7529   4.450   1.086   3.516  0.0515  0.7070 -0.0262
    1PC      HS 7530   4.475   0.915   3.477 -0.3534 -0.2243 -0.7953
    1PC      C2 7531   4.264   0.974   3.461 -0.4409  0.0239  0.9006
    1PC      HX 7532   4.222   0.875   3.480  0.8311 -0.1925  2.7303
    1PC      C3 7533   4.265   1.002   3.310  0.9166  0.1352 -0.4032
    1PC      HA 7534   4.302   0.917   3.253  1.1272 -0.2767  0.3421
    1PC      HB 7535   4.167   1.044   3.285  0.2368  0.3102  2.3460
    1PC     O31 7536   4.365   1.111   3.281  0.1965 -0.6600 -0.3922
    1PC     P31 7537   4.376   1.183   3.145 -0.3510 -0.2224  0.2890
    1PC     O32 7538   4.282   1.316   3.154 -0.0198  0.0779 -0.0397
    1PC     C31 7539   4.149   1.308   3.097 -0.2995 -0.2498 -0.2728
    1PC     H1A 7540   4.160   1.290   2.990  0.1085  1.3092 -0.5010
    1PC     H1B 7541   4.092   1.222   3.134  1.7216 -1.6268 -0.2506
    1PC     C32 7542   4.070   1.440   3.119 -0.0590  0.3985  0.2674
    1PC     H2A 7543   3.967   1.421   3.091 -0.7520  2.2842  1.4038
    1PC     H2B 7544   4.064   1.457   3.227 -1.6862  0.4998  0.1730
    1PC     N31 7545   4.114   1.579   3.064  0.1030 -0.9886  0.3940
    1PC     C33 7546   4.244   1.620   3.120 -0.4038  0.3863 -0.4646
    1PC     H3A 7547   4.238   1.615   3.228 -0.7309 -1.3272 -0.5432
    1PC     H3B 7548   4.310   1.546   3.076 -0.5827  0.6626 -1.2085
    1PC     H3C 7549   4.277   1.713   3.074  1.2202  0.0146 -0.0846
    1PC     C34 7550   4.132   1.578   2.917  0.1489  0.2228  0.5222
    1PC     H4A 7551   4.041   1.556   2.860  0.3617  2.2192 -0.6500
    1PC     H4B 7552   4.180   1.671   2.886  1.5687 -0.0670  1.8311
    1PC     H4C 7553   4.203   1.497   2.902  1.0574  0.5482  2.9078
    1PC     C35 7554   4.011   1.682   3.110 -0.0157  0.3797  0.8805
    1PC     H5A 7555   3.981   1.643   3.207  1.9808 -0.4742  1.2000
    1PC     H5B 7556   3.934   1.672   3.033  1.8798  1.4999 -1.2383
    1PC     H5C 7557   4.058   1.780   3.105  0.8496 -0.1066 -1.2972
    1PC     O33 7558   4.515   1.230   3.143  0.5413  0.5665  0.2397
    1PC     O34 7559   4.336   1.098   3.034  0.7043  0.4190 -0.5837
    1PC     O21 7560   4.182   1.074   3.531  0.5347  0.1765  0.4373
    1PC     C21 7561   4.052   1.039   3.554  0.3522 -0.4824  0.2081
    1PC     O22 7562   3.997   0.939   3.521  0.0382 -0.0458  0.4391
    1OL     C12 7563   3.972   1.149   3.630 -0.1322  0.8114 -0.0628
    1OL     H2R 7564   3.869   1.153   3.594 -0.5619 -2.4316  0.6677
    1OL     H2S 7565   4.024   1.241   3.600 -0.2644  0.7982 -0.3407
    1OL     C13 7566   3.986   1.129   3.785 -0.2797  0.3257 -0.5493
    1OL     H3R 7567   4.093   1.118   3.805 -0.2006  1.9762 -0.0092
    1OL     H3S 7568   3.938   1.039   3.823 -0.0110 -0.1236 -1.2600
    1OL     C14 7569   3.930   1.255   3.853  0.7708 -0.2166  0.3061
    1OL     H4R 7570   3.823   1.260   3.831  0.4403 -0.0118  1.8776
    1OL     H4S 7571   3.969   1.346   3.806 -2.8096  1.4555  0.4298
    1OL     C15 7572   3.963   1.272   3.996  0.0065 -0.7771  0.1065
    1OL     H5R 7573   3.928   1.359   4.052  2.5180  1.4534 -1.6967
    1OL     H5S 7574   4.072   1.274   4.003  0.1772 -4.2550 -0.2849
    1OL     C16 7575   3.923   1.156   4.091 -0.1192  0.2759 -0.1899
    1OL     H6R 7576   4.008   1.089   4.104 -0.4648 -0.0334  0.4755
    1OL     H6S 7577   3.842   1.093   4.051 -1.0968  0.3247  1.6588
    1OL     C17 7578   3.865   1.193   4.225  0.1090 -0.1925  0.5260
    1OL     H7R 7579   3.822   1.102   4.268 -0.5494 -0.4092 -0.5608
    1OL     H7S 7580   3.778   1.253   4.196 -0.0376 -1.1241 -1.0353
    1OL     C18 7581   3.948   1.272   4.321  0.4290 -0.5267 -0.1628
    1OL     H8R 7582   3.882   1.301   4.403 -1.1912 -0.7033 -1.3961
    1OL     H8S 7583   3.978   1.367   4.275 -0.2710  0.3068  1.0619
    1OL     C19 7584   4.057   1.185   4.370  0.5951  0.5649 -0.2583
    1OL     H9R 7585   4.018   1.087   4.399  0.7546  0.0188 -1.8674
    1OL    C110 7586   4.184   1.218   4.396 -0.3659 -0.0411 -0.2438
    1OL    H10R 7587   4.253   1.145   4.436  0.6544  1.5124  0.9229
    1OL    C111 7588   4.253   1.356   4.384  0.4579 -0.2852  0.5413
    1OL    H11R 7589   4.179   1.437   4.390  0.2513 -0.4700  0.4807
    1OL    H11S 7590   4.306   1.357   4.289  1.9363 -4.3823  1.2320
    1OL    C112 7591   4.354   1.374   4.497 -0.0331  0.4257  0.4800
    1OL    H12R 7592   4.296   1.376   4.589 -3.1322 -3.7369 -1.2167
    1OL    H12S 7593   4.398   1.472   4.478  1.8540 -0.3488  0.6632
    1OL    C113 7594   4.485   1.288   4.490 -0.1138 -0.5238 -0.2738
    1OL    H13R 7595   4.530   1.307   4.392 -2.4896 -0.3517 -1.3672
    1OL    H13S 7596   4.460   1.182   4.497  0.9032 -0.7486  0.0015
    1OL    C114 7597   4.584   1.321   4.608  0.1651  0.1463  0.1966
    1OL    H14R 7598   4.629   1.419   4.594  0.4562 -0.2392 -1.6190
    1OL    H14S 7599   4.664   1.248   4.593  0.9924  0.4973  2.5748
    1OL    C115 7600   4.523   1.313   4.753  0.2941  0.2673 -0.4307
    1OL    H15R 7601   4.437   1.378   4.772 -1.4570 -2.2964  0.8088
    1OL    H15S 7602   4.590   1.350   4.831  0.3570 -1.1402  0.2169
    1OL    C116 7603   4.464   1.174   4.786 -0.2539  0.1643  0.1327
    1OL    H16R 7604   4.382   1.143   4.721 -1.1217 -0.4616  1.4833
    1OL    H16S 7605   4.419   1.185   4.885 -0.3927  2.4505 -0.1715
    1OL    C117 7606   4.572   1.057   4.795 -1.0263 -0.3807  0.2999
    1OL    H17R 7607   4.618   1.031   4.699 -2.6024  1.1740 -0.9122
    1OL    H17S 7608   4.510   0.970   4.820 -0.1911 -0.8219  0.8381
    1OL    C118 7609   4.672   1.077   4.909 -0.4235  0.0205  0.0007
    1OL    H18R 7610   4.712   1.178   4.909  1.9711 -0.8857 -0.2098
    1OL    H18S 7611   4.764   1.020   4.894  0.7213  2.0261 -0.7336
    1OL    H18T 7612   4.631   1.056   5.008 -0.3146  1.7274  0.4194
    1PA    C116 7613   0.650   2.918   4.312 -0.1199 -0.4844  0.6130
    1PA    H16R 7614   0.633   2.841   4.388  1.0501 -0.1543  1.2174
    1PA    H16S 7615   0.698   2.866   4.228  1.3616 -0.9793  1.7419
    1PA    H16T 7616   0.557   2.963   4.276  0.3341  0.2317  0.3190
    1PA    C115 7617   0.749   3.016   4.364  0.1558  0.9834  0.5803
    1PA    H15R 7618   0.687   3.073   4.435 -1.4186  1.2041 -0.9435
    1PA    H15S 7619   0.834   2.969   4.413  0.8691  0.8618 -0.7501
    1PA    C114 7620   0.790   3.113   4.256  0.4485 -0.0769 -0.5601
    1PA    H14R 7621   0.846   3.057   4.181 -0.7482 -0.2627 -1.3300
    1PA    H14S 7622   0.713   3.168   4.201 -1.2830 -1.9464 -0.0501
    1PA    C113 7623   0.890   3.217   4.309 -0.5288  0.1509 -0.3723
    1PA    H13R 7624   0.841   3.284   4.381 -0.6935 -1.0609  0.6680
    1PA    H13S 7625   0.958   3.161   4.374  0.1009  0.6394 -0.6085
    1PA    C112 7626   0.951   3.293   4.190  0.8002 -0.2119 -0.1081
    1PA    H12R 7627   1.028   3.362   4.225 -0.9390  0.4035  2.6900
    1PA    H12S 7628   0.982   3.221   4.114 -2.0294 -2.5038  0.8134
    1PA    C111 7629   0.848   3.396   4.134 -0.4360 -0.8135 -0.2229
    1PA    H11R 7630   0.753   3.350   4.107 -0.8851  0.3577 -0.6582
    1PA    H11S 7631   0.815   3.456   4.218 -1.4583  0.2499 -1.3602
    1PA    C110 7632   0.910   3.475   4.021  0.1957  0.0348 -0.3690
    1PA    H10R 7633   0.841   3.554   3.991 -0.0034 -0.4833 -1.2860
    1PA    H10S 7634   1.003   3.522   4.056  1.2993  0.4114 -3.6260
    1PA     C19 7635   0.945   3.392   3.895  0.1282 -0.1231  0.7502
    1PA     H9R 7636   0.998   3.299   3.917 -0.1093 -0.9860 -2.1497
    1PA     H9S 7637   0.852   3.360   3.847  0.8104 -0.5681 -0.2900
    1PA     C18 7638   1.018   3.466   3.783  0.4669 -0.5749  0.4825
    1PA     H8R 7639   1.013   3.411   3.689  0.1186  0.5643 -0.1702
    1PA     H8S 7640   0.964   3.560   3.767  1.0262 -0.1846  0.8328
    1PA     C17 7641   1.160   3.514   3.820 -0.2242 -0.1296 -0.3956
    1PA     H7R 7642   1.207   3.547   3.728 -0.9092  0.8124 -0.4199
    1PA     H7S 7643   1.154   3.611   3.871  0.8161 -0.0757 -0.3762
    1PA     C16 7644   1.246   3.407   3.896  0.2576 -0.0075 -0.4584
    1PA     H6R 7645   1.194   3.384   3.989  0.4671  2.2418  0.2482
    1PA     H6S 7646   1.254   3.318   3.834 -1.1082 -1.6260  1.6469
    1PA     C15 7647   1.388   3.473   3.919 -0.4875 -0.1391 -0.4072
    1PA     H5R 7648   1.436   3.477   3.821 -0.2140 -0.2420 -0.2794
    1PA     H5S 7649   1.393   3.564   3.979  0.2112 -0.6865  0.3936
    1PA     C14 7650   1.470   3.363   3.993 -0.4251  0.1807 -0.3754
    1PA     H4R 7651   1.419   3.340   4.086 -0.3619  0.3962 -0.2865
    1PA     H4S 7652   1.478   3.268   3.940  0.1040  0.0175 -0.0024
    1PA     C13 7653   1.613   3.402   4.026 -0.1145 -0.1462 -0.7517
    1PA     H3R 7654   1.615   3.479   4.103  0.8227 -0.8729 -0.0264
    1PA     H3S 7655   1.664   3.313   4.063 -1.2876 -0.2653  0.6176
    1PA     C12 7656   1.693   3.460   3.898  0.2069  0.4106  0.4937
    1PA     H2R 7657   1.650   3.556   3.868  1.1495  0.6474 -0.1074
    1PA     H2S 7658   1.793   3.487   3.933 -0.3731  0.9252  1.8012
    1PC     C11 7659   1.711   3.363   3.788 -0.7862  0.4213 -0.7784
    1PC     O12 7660   1.806   3.290   3.787 -0.5351  0.0987 -0.3979
    1PC     O11 7661   1.611   3.359   3.703 -0.1133  0.4705  0.5879
    1PC      C1 7662   1.599   3.260   3.598  0.3839  0.4208 -0.1425
    1PC      HR 7663   1.660   3.294   3.514  0.3740  1.9414  0.4390
    1PC      HS 7664   1.638   3.167   3.642  0.5837  0.7352  0.3587
    1PC      C2 7665   1.452   3.228   3.555 -0.5570 -0.1034 -0.2799
    1PC      HX 7666   1.463   3.155   3.475  3.7653 -0.0421  0.1140
    1PC      C3 7667   1.388   3.357   3.502  0.0669 -0.4125  0.1661
    1PC      HA 7668   1.374   3.422   3.589  0.8049  3.4961 -2.5092
    1PC      HB 7669   1.453   3.397   3.423  2.8755 -1.4206  1.8731
    1PC     O31 7670   1.253   3.334   3.442  0.5676  0.5239 -0.7067
    1PC     P31 7671   1.249   3.286   3.290 -0.4906  0.0230  0.0952
    1PC     O32 7672   1.284   3.129   3.285 -0.1027  0.1315  0.0460
    1PC     C31 7673   1.194   3.020   3.335 -0.4589 -0.3506 -0.1521
    1PC     H1A 7674   1.249   2.927   3.316 -1.6027 -0.7794 -1.4290
    1PC     H1B 7675   1.176   3.042   3.441  1.7028  1.5259 -0.1447
    1PC     C32 7676   1.061   3.006   3.255  0.0318 -0.6026  0.4402
    1PC     H2A 7677   0.983   2.954   3.310  0.2704 -1.9682 -0.4804
    1PC     H2B 7678   1.012   3.102   3.238 -0.8355 -1.1242  0.0059
    1PC     N31 7679   1.059   2.953   3.116 -0.4077 -1.0973 -0.0873
    1PC     C33 7680   0.917   2.954   3.064  0.1930 -0.1898  0.4280
    1PC     H3A 7681   0.883   3.058   3.062  1.0680  0.0898 -1.1375
    1PC     H3B 7682   0.905   2.904   2.967  0.1717 -0.7190  0.7031
    1PC     H3C 7683   0.862   2.907   3.145 -0.4198  1.0249  0.7252
    1PC     C34 7684   1.143   3.033   3.027 -0.2264  0.5214 -0.1997
    1PC     H4A 7685   1.127   3.000   2.924  2.8163  1.8288 -1.1543
    1PC     H4B 7686   1.106   3.136   3.030 -2.0039 -0.1241  1.2569
    1PC     H4C 7687   1.250   3.027   3.049 -0.1279  1.1888 -0.4769
    1PC     C35 7688   1.096   2.815   3.108 -0.2865 -0.9516  0.7914
    1PC     H5A 7689   1.196   2.809   3.151 -0.4015 -2.4019  0.8550
    1PC     H5B 7690   1.098   2.776   3.006  1.9851  0.2422  0.3517
    1PC     H5C 7691   1.029   2.756   3.170 -0.2039 -2.3333 -0.4145
    1PC     O33 7692   1.113   3.313   3.243 -0.0642  0.1868  0.1578
    1PC     O34 7693   1.352   3.359   3.221 -0.1525 -0.2476 -0.3634
    1PC     O21 7694   1.371   3.180   3.663  0.2615  0.2730 -0.1939
    1PC     C21 7695   1.338   3.054   3.664 -0.1619 -0.0553  0.2288
    1PC     O22 7696   1.372   2.970   3.584  0.2189 -0.4514  0.4917
    1OL     C12 7697   1.254   3.030   3.785 -0.0630 -0.4185  0.6656
    1OL     H2R 7698   1.272   3.098   3.869  0.7713  0.6991 -0.3998
    1OL     H2S 7699   1.283   2.934   3.829 -1.1760  0.2370  2.9294
    1OL     C13 7700   1.106   3.025   3.747 -0.1103  0.1353  0.3625
    1OL     H3R 7701   1.084   2.976   3.652 -1.4246 -0.0239  0.7406
    1OL     H3S 7702   1.051   3.119   3.733  0.1741  0.1718 -0.5449
    1OL     C14 7703   1.017   2.949   3.856 -0.2237  0.6208  0.8441
    1OL     H4R 7704   1.003   3.022   3.936  3.4940  2.7835 -0.3118
    1OL     H4S 7705   1.075   2.870   3.905 -1.8415  1.1412  3.7467
    1OL     C15 7706   0.877   2.894   3.815  0.3502  0.2205 -0.4721
    1OL     H5R 7707   0.914   2.818   3.745  1.0343  1.9966 -2.0890
    1OL     H5S 7708   0.835   2.977   3.759  2.1220  0.5330 -1.3803
    1OL     C16 7709   0.790   2.824   3.929 -0.8391 -0.1619  0.0360
    1OL     H6R 7710   0.706   2.767   3.889 -0.2859 -0.9137 -0.0655
    1OL     H6S 7711   0.751   2.899   3.998  0.1453  1.1758 -0.8435
    1OL     C17 7712   0.870   2.724   4.013  0.6732 -0.0097  0.0903
    1OL     H7R 7713   0.807   2.677   4.089  1.2888  0.7388  1.0753
    1OL     H7S 7714   0.941   2.774   4.079 -1.3776  3.1859 -0.0231
    1OL     C18 7715   0.939   2.610   3.932 -0.1574 -0.1757 -0.4272
    1OL     H8R 7716   1.017   2.645   3.865 -1.2342  3.0115 -0.1145
    1OL     H8S 7717   0.865   2.550   3.879  0.5889  0.7491 -2.5736
    1OL     C19 7718   1.010   2.520   4.026  0.1565  0.1423 -0.1789
    1OL     H9R 7719   0.944   2.449   4.077 -0.6716  2.5633  2.1985
    1OL    C110 7720   1.139   2.521   4.066  0.2419 -0.3138  0.6168
    1OL    H10R 7721   1.175   2.453   4.143  3.9320  1.5626  0.6553
    1OL    C111 7722   1.249   2.614   4.017  0.4794  0.0805 -0.0637
    1OL    H11R 7723   1.219   2.680   3.936 -0.3431 -0.6588 -0.3721
    1OL    H11S 7724   1.330   2.548   3.986  1.7006  1.2295  0.5899
    1OL    C112 7725   1.288   2.706   4.132 -1.1027 -0.2158  0.7657
    1OL    H12R 7726   1.373   2.762   4.094  0.0716 -2.0605  0.6174
    1OL    H12S 7727   1.332   2.641   4.209 -2.5630  0.3974  2.1444
    1OL    C113 7728   1.184   2.791   4.204  0.2515 -0.1298  0.3854
    1OL    H13R 7729   1.106   2.721   4.235 -1.5359  2.0610  0.9279
    1OL    H13S 7730   1.150   2.866   4.132  2.1814 -0.5327 -0.9920
    1OL    C114 7731   1.241   2.852   4.336 -0.4523 -0.9456  0.2238
    1OL    H14R 7732   1.267   2.766   4.397  4.3464  0.5491  0.5250
    1OL    H14S 7733   1.160   2.902   4.390 -0.1914  0.0898 -0.3141
    1OL    C115 7734   1.361   2.956   4.314  0.2931  0.0773  0.2371
    1OL    H15R 7735   1.347   3.039   4.384  0.4314  0.6264 -0.3879
    1OL    H15S 7736   1.347   2.985   4.210 -0.8622 -0.5419  0.2091
    1OL    C116 7737   1.497   2.907   4.338  0.0842 -0.0552  0.0415
    1OL    H16R 7738   1.517   2.818   4.278  1.9591  0.9996 -0.9663
    1OL    H16S 7739   1.509   2.867   4.439 -0.0225 -0.4761 -0.1121
    1OL    C117 7740   1.617   3.006   4.313  0.3601  0.6553  0.0844
    1OL    H17R 7741   1.714   2.956   4.312  0.8127  1.5444 -0.0611
    1OL    H17S 7742   1.623   3.071   4.400  1.7884 -1.3868  1.5686
    1OL    C118 7743   1.613   3.091   4.191  0.2184 -0.3937  0.2095
    1OL    H18R 7744   1.527   3.158   4.201 -0.2420 -1.1982  2.0148
    1OL    H18S 7745   1.595   3.029   4.103 -0.8505 -0.1914  0.2785
    1OL    H18T 7746   1.704   3.149   4.178 -0.7734  0.9240 -0.9982
    1PA    C116 7747   1.921   1.449   5.455 -0.5652  0.1832  0.1820
    1PA    H16R 7748   1.842   1.491   5.393 -1.4817 -0.2565  1.0417
    1PA    H16S 7749   1.997   1.526   5.441 -2.0000  1.3515 -1.3192
    1PA    H16T 7750   1.891   1.446   5.560 -0.7182 -0.6965  0.1172
    1PA    C115 7751   1.976   1.325   5.391 -1.0005  0.1911  0.9721
    1PA    H15R 7752   2.076   1.300   5.428 -0.4232 -2.1676 -2.0141
    1PA    H15S 7753   1.910   1.241   5.411  1.5872 -1.5720  2.4682
    1PA    C114 7754   1.975   1.348   5.231  0.0927  0.4983  0.0176
    1PA    H14R 7755   1.874   1.379   5.202  1.3481  2.5176 -2.4280
    1PA    H14S 7756   2.048   1.426   5.208  1.7808 -0.3667  2.2620
    1PA    C113 7757   1.997   1.214   5.150  0.4231 -0.5652  0.3401
    1PA    H13R 7758   2.083   1.161   5.190 -1.5719 -2.7975  1.8296
    1PA    H13S 7759   1.908   1.150   5.153  0.0805 -0.2274 -1.5885
    1PA    C112 7760   2.016   1.237   4.994 -0.3484  0.2270 -0.4370
    1PA    H12R 7761   2.106   1.296   4.978  0.7618 -1.7675 -1.7094
    1PA    H12S 7762   2.040   1.137   4.956  2.4043  0.5431  0.3600
    1PA    C111 7763   1.913   1.294   4.900 -0.2343  0.0423 -0.2897
    1PA    H11R 7764   1.833   1.219   4.905  1.2192 -1.4473  1.1395
    1PA    H11S 7765   1.884   1.395   4.932 -0.0234 -0.0950  0.3479
    1PA    C110 7766   1.951   1.305   4.748  0.6390 -0.1832 -0.4602
    1PA    H10R 7767   1.896   1.391   4.710 -0.0014 -1.6310 -2.9179
    1PA    H10S 7768   2.058   1.322   4.738  0.5036  1.0248  0.0600
    1PA     C19 7769   1.903   1.191   4.650  0.0364  0.4452  0.0508
    1PA     H9R 7770   1.956   1.102   4.684  1.4564  1.4149  0.4358
    1PA     H9S 7771   1.800   1.158   4.663  1.1786 -3.0720  0.9131
    1PA     C18 7772   1.944   1.224   4.507 -0.5999 -0.7137 -0.4321
    1PA     H8R 7773   2.043   1.268   4.497 -1.7209  2.4159  1.3556
    1PA     H8S 7774   1.963   1.129   4.457 -0.4776 -0.6379 -0.5305
    1PA     C17 7775   1.826   1.298   4.438  0.7657 -0.3272 -0.0034
    1PA     H7R 7776   1.747   1.223   4.439  0.9030 -0.5046 -1.3566
    1PA     H7S 7777   1.797   1.381   4.502 -2.1959 -1.8452  0.7252
    1PA     C16 7778   1.859   1.354   4.302  0.0769  1.5195  0.0263
    1PA     H6R 7779   1.773   1.414   4.271 -1.5099 -0.2480  0.9492
    1PA     H6S 7780   1.954   1.409   4.308  1.8756 -1.5205  0.3831
    1PA     C15 7781   1.884   1.250   4.192 -0.1659 -0.5289 -0.4188
    1PA     H5R 7782   1.965   1.190   4.234 -0.4091  0.3090  1.2915
    1PA     H5S 7783   1.790   1.194   4.187 -0.9795  0.5828  1.7843
    1PA     C14 7784   1.920   1.322   4.066 -0.3009  0.3781 -0.1725
    1PA     H4R 7785   2.008   1.384   4.080 -0.9631  1.5930 -1.2041
    1PA     H4S 7786   1.943   1.248   3.989  2.8851  2.7049 -1.5707
    1PA     C13 7787   1.813   1.413   4.010  0.1186 -0.0192 -0.2180
    1PA     H3R 7788   1.775   1.483   4.085 -0.4263 -0.2389 -0.2886
    1PA     H3S 7789   1.852   1.471   3.925  0.3654 -0.7844 -0.6338
    1PA     C12 7790   1.687   1.341   3.961 -0.9466  0.3394 -0.6405
    1PA     H2R 7791   1.698   1.253   3.897  3.2097 -1.0228  1.7239
    1PA     H2S 7792   1.626   1.300   4.042 -2.6768 -0.7362 -2.4733
    1PC     C11 7793   1.588   1.430   3.886 -0.3306 -0.0444 -0.2776
    1PC     O12 7794   1.600   1.554   3.867  0.3088  0.6596 -0.1424
    1PC     O11 7795   1.501   1.351   3.826  1.0085  0.5370 -0.1613
    1PC      C1 7796   1.389   1.409   3.754  0.4084 -0.1661  1.2889
    1PC      HR 7797   1.310   1.334   3.746  1.8467 -1.5985  0.1419
    1PC      HS 7798   1.345   1.487   3.817 -0.3655  0.9820 -0.5885
    1PC      C2 7799   1.427   1.459   3.612  1.2758 -0.5902  0.4816
    1PC      HX 7800   1.336   1.510   3.577  2.6476  2.6352  1.3755
    1PC      C3 7801   1.455   1.331   3.524  0.4163 -0.5367 -0.4418
    1PC      HA 7802   1.548   1.285   3.561  1.5755  2.0654 -0.0347
    1PC      HB 7803   1.381   1.255   3.551  0.2478 -0.3884 -0.4883
    1PC     O31 7804   1.474   1.352   3.386  0.2957 -0.3345  0.0395
    1PC     P31 7805   1.346   1.338   3.291  0.5103 -0.3440  0.3379
    1PC     O32 7806   1.258   1.459   3.331  0.1660  0.1827  0.0081
    1PC     C31 7807   1.285   1.597   3.294  0.3838  0.4379  0.0991
    1PC     H1A 7808   1.368   1.627   3.358  1.5206  3.1690 -2.5142
    1PC     H1B 7809   1.320   1.609   3.191  0.4304  1.5338  0.2346
    1PC     C32 7810   1.157   1.682   3.316 -0.1395 -0.0275 -0.0339
    1PC     H2A 7811   1.094   1.677   3.227 -2.0816 -1.0040  1.3761
    1PC     H2B 7812   1.108   1.661   3.411 -0.5755 -0.0174 -0.2600
    1PC     N31 7813   1.171   1.839   3.310  0.1939  0.2299 -0.7231
    1PC     C33 7814   1.258   1.886   3.200  0.1854  0.4137  0.1473
    1PC     H3A 7815   1.218   1.865   3.100 -2.8118 -0.1786  1.4180
    1PC     H3B 7816   1.272   1.992   3.219 -1.9558  1.0786 -1.7279
    1PC     H3C 7817   1.350   1.829   3.214  0.9017  1.4501 -0.2629
    1PC     C34 7818   1.027   1.892   3.301 -0.4188 -0.0437  0.0340
    1PC     H4A 7819   0.984   1.848   3.390 -0.7247 -0.6959 -0.4297
    1PC     H4B 7820   1.033   2.001   3.307 -0.9629 -0.0930  1.4078
    1PC     H4C 7821   0.984   1.845   3.213 -0.1621 -1.6110  0.7359
    1PC     C35 7822   1.229   1.903   3.433  0.1868  0.0093 -0.3138
    1PC     H5A 7823   1.332   1.865   3.434  0.4365  0.6645  1.8576
    1PC     H5B 7824   1.178   1.865   3.522 -1.7833  0.4986 -1.2151
    1PC     H5C 7825   1.224   2.012   3.440 -2.3634 -0.0819 -0.5948
    1PC     O33 7826   1.399   1.367   3.157 -0.6695 -0.2374  0.0243
    1PC     O34 7827   1.270   1.214   3.320  0.2344 -0.6515 -0.0387
    1PC     O21 7828   1.539   1.547   3.601  0.4050 -0.2052 -0.8877
    1PC     C21 7829   1.521   1.680   3.606  0.3908 -0.4910 -0.6714
    1PC     O22 7830   1.408   1.733   3.622 -0.2828  0.5318  0.0251
    1OL     C12 7831   1.651   1.749   3.608  0.1763 -0.7405 -0.6340
    1OL     H2R 7832   1.707   1.729   3.517  2.0952 -0.3963  0.4514
    1OL     H2S 7833   1.716   1.712   3.688 -1.5016 -1.8960  0.2424
    1OL     C13 7834   1.641   1.902   3.618 -0.2801  0.5934  0.3755
    1OL     H3R 7835   1.564   1.940   3.685  1.7192  2.2030  1.8570
    1OL     H3S 7836   1.625   1.931   3.514  0.4244 -1.8725 -0.4497
    1OL     C14 7837   1.786   1.966   3.646  1.0862 -0.3991  0.3584
    1OL     H4R 7838   1.777   2.071   3.618 -3.0032 -0.6688  0.2890
    1OL     H4S 7839   1.863   1.924   3.582  0.9327  1.8931 -1.3790
    1OL     C15 7840   1.834   1.966   3.794 -0.2851 -0.2366 -0.4569
    1OL     H5R 7841   1.933   2.013   3.792  0.3292 -1.4444  0.8686
    1OL     H5S 7842   1.850   1.865   3.832  2.5535  0.6572  0.8593
    1OL     C16 7843   1.744   2.038   3.893  0.3068  0.0621  0.3184
    1OL     H6R 7844   1.782   2.020   3.994  0.2651  1.2737  0.5624
    1OL     H6S 7845   1.647   1.987   3.889  0.7992 -0.8743  0.2460
    1OL     C17 7846   1.724   2.187   3.876  0.4676  0.1861  0.3418
    1OL     H7R 7847   1.669   2.193   3.782 -0.8403  1.7988  1.1822
    1OL     H7S 7848   1.820   2.240   3.867 -0.6970  2.2835 -0.0638
    1OL     C18 7849   1.646   2.263   3.979 -0.7256 -0.1861  0.3721
    1OL     H8R 7850   1.548   2.216   3.964  0.0692 -1.1780 -1.8739
    1OL     H8S 7851   1.642   2.369   3.954 -0.0515  0.0092  1.0752
    1OL     C19 7852   1.700   2.236   4.121 -0.4367  0.2378 -0.8218
    1OL     H9R 7853   1.798   2.191   4.135 -0.5857 -0.3861 -1.7525
    1OL    C110 7854   1.634   2.261   4.234 -1.2614  0.2368  0.0256
    1OL    H10R 7855   1.687   2.245   4.328 -2.0948  1.3401  0.6980
    1OL    C111 7856   1.499   2.325   4.254 -0.4810 -0.2192  0.7624
    1OL    H11R 7857   1.425   2.254   4.293  1.6883 -1.7643  2.1690
    1OL    H11S 7858   1.468   2.345   4.151  1.6182  3.5350  0.7734
    1OL    C112 7859   1.510   2.465   4.324  0.5299 -0.3812 -0.2918
    1OL    H12R 7860   1.412   2.499   4.357 -0.0393 -1.0092 -1.3137
    1OL    H12S 7861   1.553   2.540   4.257  2.5809 -0.9625  0.3495
    1OL    C113 7862   1.604   2.464   4.445  0.4779 -0.0760  0.2944
    1OL    H13R 7863   1.696   2.424   4.402 -0.1592  0.4484 -1.6176
    1OL    H13S 7864   1.566   2.398   4.523 -1.5531 -0.8535 -1.2841
    1OL    C114 7865   1.629   2.606   4.496 -0.2366  0.4841  0.2293
    1OL    H14R 7866   1.529   2.643   4.522 -0.3568  1.1926 -1.2024
    1OL    H14S 7867   1.660   2.662   4.408 -2.4048  0.9029 -0.3053
    1OL    C115 7868   1.742   2.620   4.599  0.3010 -0.1930  0.1502
    1OL    H15R 7869   1.834   2.613   4.540 -0.5437  0.0659 -1.2381
    1OL    H15S 7870   1.731   2.547   4.679 -3.7974  2.0344  1.7920
    1OL    C116 7871   1.750   2.764   4.656 -0.7228  0.7549 -0.2381
    1OL    H16R 7872   1.770   2.829   4.570  1.6578  1.3446  0.7337
    1OL    H16S 7873   1.840   2.764   4.717 -2.5679 -0.4176  2.6114
    1OL    C117 7874   1.621   2.811   4.730  0.6923  0.8759  0.4023
    1OL    H17R 7875   1.586   2.736   4.800  0.8242 -0.0918 -0.5494
    1OL    H17S 7876   1.541   2.826   4.657  0.2073  0.0436  0.7660
    1OL    C118 7877   1.632   2.940   4.809 -0.7892 -0.0902  0.0034
    1OL    H18R 7878   1.732   2.941   4.852 -0.8147  1.6324  0.0431
    1OL    H18S 7879   1.564   2.935   4.894  1.0800 -0.9315  1.4946
    1OL    H18T 7880   1.620   3.036   4.757 -1.1112 -0.2435 -0.2103
    1PA    C116 7881   2.527   0.515   4.698  0.0677 -0.6764 -0.3790
    1PA    H16R 7882   2.479   0.505   4.796  0.5924 -1.5957 -0.2125
    1PA    H16S 7883   2.495   0.610   4.656 -0.8173 -1.3122 -1.1760
    1PA    H16T 7884   2.635   0.507   4.705  0.0276 -0.9748 -0.0813
    1PA    C115 7885   2.460   0.398   4.613  0.5594  0.6011  0.2497
    1PA    H15R 7886   2.453   0.311   4.679  1.3204  1.2378  1.1974
    1PA    H15S 7887   2.358   0.422   4.582  0.6615  0.1048 -0.4779
    1PA    C114 7888   2.531   0.365   4.481 -0.2614 -1.0054  1.0596
    1PA    H14R 7889   2.629   0.320   4.498  0.5138 -0.2104 -1.1589
    1PA    H14S 7890   2.470   0.289   4.432 -2.4402  1.1491  0.3365
    1PA    C113 7891   2.543   0.482   4.385 -0.5821 -0.5371 -0.5199
    1PA    H13R 7892   2.440   0.510   4.361 -0.3766 -0.9135 -1.8418
    1PA    H13S 7893   2.601   0.562   4.433  0.0787 -1.3960  0.1258
    1PA    C112 7894   2.620   0.448   4.256 -0.0126 -0.2673 -0.0209
    1PA    H12R 7895   2.712   0.397   4.286 -0.0548 -0.6756 -0.5614
    1PA    H12S 7896   2.566   0.377   4.192  2.0359 -1.8936  0.0107
    1PA    C111 7897   2.669   0.566   4.173  0.0997 -0.1332  0.2824
    1PA    H11R 7898   2.585   0.603   4.113 -0.3168 -0.1565  0.8452
    1PA    H11S 7899   2.701   0.642   4.246 -0.0446 -0.3039  0.5257
    1PA    C110 7900   2.797   0.536   4.093 -0.6876  0.7985 -0.4207
    1PA    H10R 7901   2.889   0.545   4.150  0.0746  0.9818 -1.6561
    1PA    H10S 7902   2.788   0.434   4.054  0.6443  0.4577  0.1483
    1PA     C19 7903   2.808   0.640   3.977 -0.3489 -0.0694 -0.5061
    1PA     H9R 7904   2.712   0.642   3.926 -0.7251 -1.0153  0.1486
    1PA     H9S 7905   2.819   0.738   4.024 -0.4099  0.2612 -1.1755
    1PA     C18 7906   2.927   0.612   3.881 -0.1176 -1.5275 -0.1200
    1PA     H8R 7907   2.938   0.682   3.798 -1.7591  0.1339  1.0284
    1PA     H8S 7908   3.026   0.599   3.923  0.5593 -2.5938 -1.9659
    1PA     C17 7909   2.892   0.481   3.813 -0.1539  0.0662  0.3245
    1PA     H7R 7910   2.881   0.401   3.886 -0.7663 -2.3214 -2.2573
    1PA     H7S 7911   2.802   0.493   3.752  0.5190 -1.0072 -0.9034
    1PA     C16 7912   3.007   0.443   3.720 -0.7595 -0.0739 -0.6861
    1PA     H6R 7913   3.044   0.535   3.674  1.7757 -0.0807  1.2227
    1PA     H6S 7914   3.091   0.405   3.778 -0.4085  1.9375  0.1758
    1PA     C15 7915   2.976   0.332   3.617 -0.0906 -0.1513  0.5885
    1PA     H5R 7916   2.893   0.375   3.559  0.6743  3.2130  1.8625
    1PA     H5S 7917   3.059   0.307   3.550 -0.1493 -1.5510  1.0144
    1PA     C14 7918   2.921   0.207   3.693  0.8883 -0.2267  0.2845
    1PA     H4R 7919   2.965   0.204   3.793 -2.4889 -0.3738  1.8264
    1PA     H4S 7920   2.816   0.223   3.718  0.7913  1.1583 -0.8903
    1PA     C13 7921   2.936   0.086   3.599 -0.3386  0.2644 -0.1057
    1PA     H3R 7922   2.896   0.105   3.499 -2.9308 -1.7078  0.4969
    1PA     H3S 7923   3.041   0.062   3.578 -1.0166 -2.3398 -0.7484
    1PA     C12 7924   2.868  -0.042   3.651 -0.0999 -0.0202 -0.7840
    1PA     H2R 7925   2.906  -0.131   3.600  1.7719  0.4050 -0.1476
    1PA     H2S 7926   2.894  -0.052   3.756  3.5978  2.2126 -1.4156
    1PC     C11 7927   2.718  -0.046   3.640  0.1229  0.5930  0.7296
    1PC     O12 7928   2.649  -0.039   3.740  0.1308  0.3342 -0.4222
    1PC     O11 7929   2.676  -0.051   3.509 -0.2781 -0.4471  0.2443
    1PC      C1 7930   2.537  -0.035   3.494  0.3121 -0.4719  0.4739
    1PC      HR 7931   2.503  -0.068   3.395  0.5271 -0.5158  0.4146
    1PC      HS 7932   2.479  -0.096   3.563  1.1527  0.0007  1.6006
    1PC      C2 7933   2.491   0.110   3.508 -0.3740  1.1011  0.1002
    1PC      HX 7934   2.384   0.127   3.496 -0.6284  1.8739  3.2641
    1PC      C3 7935   2.551   0.198   3.397  0.3686 -0.5567  0.0527
    1PC      HA 7936   2.657   0.220   3.416 -0.1146  1.0073  1.0674
    1PC      HB 7937   2.542   0.144   3.303  3.6725  0.4965 -0.9462
    1PC     O31 7938   2.478   0.324   3.388  0.0303  0.2503  0.0241
    1PC     P31 7939   2.523   0.430   3.278  0.4864  0.1966  0.3872
    1PC     O32 7940   2.655   0.493   3.336 -0.1827  0.8833  0.2813
    1PC     C31 7941   2.656   0.557   3.462 -0.3561 -0.1564 -0.0021
    1PC     H1A 7942   2.563   0.612   3.473  0.8113  1.5995  1.3379
    1PC     H1B 7943   2.672   0.478   3.536  3.7676  1.2570  0.7444
    1PC     C32 7944   2.768   0.665   3.469  0.1525  0.0160  0.2182
    1PC     H2A 7945   2.765   0.715   3.566  1.4608 -0.0919  0.3328
    1PC     H2B 7946   2.864   0.615   3.456  0.0504 -0.1931  0.2757
    1PC     N31 7947   2.766   0.782   3.369  0.2899 -0.5968 -0.1292
    1PC     C33 7948   2.630   0.804   3.315 -0.0327  1.1449  0.2577
    1PC     H3A 7949   2.632   0.877   3.235 -2.1815 -1.4434 -2.2732
    1PC     H3B 7950   2.601   0.716   3.257 -0.7857  1.5793 -0.0411
    1PC     H3C 7951   2.550   0.824   3.388 -1.0436 -0.6407 -0.3174
    1PC     C34 7952   2.806   0.914   3.410 -0.1626 -0.1788  0.0727
    1PC     H4A 7953   2.762   0.932   3.508 -2.6216 -0.1773 -1.0096
    1PC     H4B 7954   2.915   0.917   3.422 -0.1037 -0.0101 -0.4891
    1PC     H4C 7955   2.784   0.990   3.334 -0.0283 -1.0682 -0.8628
    1PC     C35 7956   2.852   0.756   3.252 -0.3246  0.4143  1.1013
    1PC     H5A 7957   2.818   0.663   3.206  1.9990  0.6314 -1.1666
    1PC     H5B 7958   2.954   0.738   3.286  0.5955 -0.1183 -1.7595
    1PC     H5C 7959   2.852   0.848   3.193  1.2254 -1.0966 -1.3467
    1PC     O33 7960   2.552   0.359   3.156  0.4251  0.2834  0.3089
    1PC     O34 7961   2.426   0.535   3.278 -0.0162 -0.1558 -0.8544
    1PC     O21 7962   2.528   0.161   3.635  0.6988  0.2046  0.3176
    1PC     C21 7963   2.451   0.148   3.747  0.1209  0.2082  0.2122
    1PC     O22 7964   2.346   0.087   3.736  0.3760  0.0521 -0.5606
    1OL     C12 7965   2.503   0.233   3.859  0.3953 -0.0496 -0.3887
    1OL     H2R 7966   2.479   0.338   3.842  1.4584  0.4441  1.0271
    1OL     H2S 7967   2.611   0.222   3.849  0.3413 -0.2407 -0.7817
    1OL     C13 7968   2.460   0.184   3.994 -0.6025  0.1033  0.0301
    1OL     H3R 7969   2.353   0.162   3.992 -0.7622  0.6979  1.4889
    1OL     H3S 7970   2.477   0.256   4.075 -0.2441 -1.5322  1.4546
    1OL     C14 7971   2.539   0.059   4.044  0.4034  0.1901 -1.2006
    1OL     H4R 7972   2.520  -0.023   3.975 -1.0414 -1.5199  1.1770
    1OL     H4S 7973   2.491   0.029   4.137 -2.1706  0.4328 -2.4062
    1OL     C15 7974   2.692   0.071   4.060  0.1198 -1.0247 -0.8616
    1OL     H5R 7975   2.710   0.156   4.126 -0.8498 -1.1035 -0.4914
    1OL     H5S 7976   2.742   0.093   3.966 -0.8612  0.5479 -1.0296
    1OL     C16 7977   2.743  -0.066   4.111  0.0216 -0.4773 -0.0304
    1OL     H6R 7978   2.701  -0.152   4.059 -1.0285 -1.2153  1.9882
    1OL     H6S 7979   2.707  -0.078   4.213  0.3618 -1.5156 -0.0220
    1OL     C17 7980   2.894  -0.069   4.114  0.8394  0.6700 -0.1060
    1OL     H7R 7981   2.942  -0.067   4.016 -0.3274 -1.9638 -0.7847
    1OL     H7S 7982   2.925  -0.159   4.167  1.0958  0.7903 -0.0488
    1OL     C18 7983   2.955   0.052   4.190 -0.3229  0.1843  0.4670
    1OL     H8R 7984   2.907   0.056   4.288  1.1249  3.5608  1.1185
    1OL     H8S 7985   2.950   0.148   4.138  0.5108 -0.3717 -0.6659
    1OL     C19 7986   3.094   0.009   4.223  0.1894  0.4563 -0.1163
    1OL     H9R 7987   3.128  -0.081   4.174 -1.0093  0.8166 -1.6423
    1OL    C110 7988   3.167   0.072   4.311 -0.0378  0.2628 -0.1675
    1OL    H10R 7989   3.262   0.028   4.339 -1.7547 -2.2529  1.9668
    1OL    C111 7990   3.128   0.198   4.381 -0.2501  0.6067  0.3849
    1OL    H11R 7991   3.160   0.192   4.485  2.6804 -0.1768 -0.5105
    1OL    H11S 7992   3.021   0.219   4.376 -0.6426 -1.6237 -2.0582
    1OL    C112 7993   3.209   0.312   4.314  0.2357 -0.4463  0.5580
    1OL    H12R 7994   3.173   0.324   4.211  0.1567 -1.6506  0.4420
    1OL    H12S 7995   3.312   0.278   4.313 -0.2353 -1.9589  1.6369
    1OL    C113 7996   3.198   0.441   4.387  0.0615 -0.0265 -0.1147
    1OL    H13R 7997   3.212   0.419   4.493  1.2134  0.9969 -0.0384
    1OL    H13S 7998   3.093   0.472   4.381 -0.0003 -0.2713 -0.3057
    1OL    C114 7999   3.279   0.560   4.342  0.0669  0.0086 -0.7111
    1OL    H14R 8000   3.383   0.534   4.361  0.0961  1.8816  1.9731
    1OL    H14S 8001   3.265   0.647   4.407  3.5692 -0.7609  1.1917
    1OL    C115 8002   3.241   0.600   4.204 -0.4645 -0.5879 -0.3017
    1OL    H15R 8003   3.142   0.644   4.196  0.3132  0.9609 -1.8259
    1OL    H15S 8004   3.245   0.513   4.137 -1.8166  0.9904 -2.4855
    1OL    C116 8005   3.328   0.706   4.137  0.6583  0.6587 -0.5073
    1OL    H16R 8006   3.265   0.768   4.074 -0.3561 -1.0866 -1.2384
    1OL    H16S 8007   3.388   0.655   4.061 -1.3127 -1.7755 -0.4866
    1OL    C117 8008   3.427   0.788   4.228 -0.5536  0.0391  0.7479
    1OL    H17R 8009   3.489   0.851   4.163 -2.1023  0.7644 -0.0644
    1OL    H17S 8010   3.495   0.718   4.275  0.8799  0.7427 -0.2281
    1OL    C118 8011   3.362   0.886   4.331  0.0886  0.5987  0.8797
    1OL    H18R 8012   3.348   0.849   4.433  0.3687  0.5789  0.9105
    1OL    H18S 8013   3.259   0.905   4.299 -0.3466 -0.6214  1.5387
    1OL    H18T 8014   3.421   0.977   4.327  1.5363 -0.3577 -0.4490
    1PA    C116 8015   1.859   3.772   5.317 -0.1145  0.4865 -0.3617
    1PA    H16R 8016   1.964   3.770   5.347 -0.3153 -1.0035  0.2889
    1PA    H16S 8017   1.809   3.787   5.413  1.5463 -1.0922  0.7605
    1PA    H16T 8018   1.841   3.864   5.261 -0.8464 -0.0257 -0.9751
    1PA    C115 8019   1.813   3.639   5.257  0.2034  0.0513 -0.3390
    1PA    H15R 8020   1.796   3.570   5.339  1.2021 -0.5976 -0.6662
    1PA    H15S 8021   1.722   3.654   5.199  1.0928  0.6885 -1.5949
    1PA    C114 8022   1.934   3.569   5.187  1.4517 -0.2617 -0.1093
    1PA    H14R 8023   2.016   3.564   5.259  0.6419 -1.8238  0.7466
    1PA    H14S 8024   1.905   3.466   5.163 -0.2761  0.4174 -1.0175
    1PA    C113 8025   1.988   3.644   5.061 -0.0836 -0.4918  0.0521
    1PA    H13R 8026   1.913   3.639   4.982 -1.0652 -0.1960  0.9626
    1PA    H13S 8027   2.016   3.747   5.080  0.8825 -0.1434 -3.0178
    1PA    C112 8028   2.114   3.581   4.999  0.2297  0.3537 -0.0950
    1PA    H12R 8029   2.196   3.586   5.072 -0.3217 -1.1103  0.6566
    1PA    H12S 8030   2.088   3.477   4.979  0.8819  0.2212 -0.2754
    1PA    C111 8031   2.150   3.652   4.871 -0.0930  0.2276 -0.2842
    1PA    H11R 8032   2.067   3.636   4.801 -0.3687 -0.1086  0.1201
    1PA    H11S 8033   2.162   3.761   4.881 -2.6889  0.2914  2.7546
    1PA    C110 8034   2.269   3.591   4.801  0.3163 -0.2518  0.3361
    1PA    H10R 8035   2.359   3.624   4.854  0.9387 -1.0671 -0.1997
    1PA    H10S 8036   2.275   3.482   4.801  1.2705 -0.2085 -0.3279
    1PA     C19 8037   2.296   3.629   4.656 -0.0551 -1.0329  0.2079
    1PA     H9R 8038   2.284   3.737   4.652  0.0560 -0.9921  0.8900
    1PA     H9S 8039   2.400   3.602   4.638  0.6979  1.2581  0.9766
    1PA     C18 8040   2.195   3.579   4.553  0.0750 -0.6182 -0.5503
    1PA     H8R 8041   2.166   3.474   4.563 -0.4045 -0.5285 -0.9808
    1PA     H8S 8042   2.106   3.640   4.567  1.5219  1.4243 -0.1065
    1PA     C17 8043   2.256   3.596   4.408  0.1052  0.5001  0.2462
    1PA     H7R 8044   2.272   3.700   4.378  1.2901  0.8845  2.1553
    1PA     H7S 8045   2.358   3.558   4.415 -0.0229  0.4772  2.0441
    1PA     C16 8046   2.170   3.525   4.291  0.4853  0.1754 -0.4486
    1PA     H6R 8047   2.173   3.417   4.307  1.4394  0.0462 -1.4013
    1PA     H6S 8048   2.067   3.560   4.292  0.2895 -0.3738 -1.4950
    1PA     C15 8049   2.235   3.556   4.152 -0.2008 -0.1558 -0.2171
    1PA     H5R 8050   2.342   3.538   4.163 -0.0774  1.3559  1.3146
    1PA     H5S 8051   2.212   3.479   4.078  1.7743 -1.6648  0.6924
    1PA     C14 8052   2.220   3.698   4.100 -0.1246  0.4778 -0.1342
    1PA     H4R 8053   2.119   3.740   4.107  0.5323  1.9439  0.9161
    1PA     H4S 8054   2.278   3.771   4.157  1.1923  0.4192 -1.3937
    1PA     C13 8055   2.266   3.701   3.949 -0.3194  0.3920 -0.6904
    1PA     H3R 8056   2.374   3.693   3.943 -0.2860  0.1765  0.1126
    1PA     H3S 8057   2.232   3.609   3.902  0.6221  0.8425 -2.2676
    1PA     C12 8058   2.218   3.826   3.869  0.0537 -0.5531 -0.1873
    1PA     H2R 8059   2.110   3.818   3.859  0.1495 -0.8273 -1.0293
    1PA     H2S 8060   2.249   3.919   3.918  1.2574 -0.8468 -0.3734
    1PC     C11 8061   2.260   3.813   3.720  0.3435 -0.3241 -0.3497
    1PC     O12 8062   2.298   3.709   3.669  0.4131  0.1831 -0.0502
    1PC     O11 8063   2.251   3.929   3.653 -0.1262  0.1019 -0.3360
    1PC      C1 8064   2.262   3.931   3.509 -0.5166  0.4677 -0.5528
    1PC      HR 8065   2.230   4.028   3.472 -0.4012  0.5289 -0.4960
    1PC      HS 8066   2.362   3.896   3.482 -0.4211  0.0707  0.2708
    1PC      C2 8067   2.153   3.846   3.453  0.6493  0.2490 -0.0897
    1PC      HX 8068   2.138   3.751   3.506  0.3424  0.1351 -0.3786
    1PC      C3 8069   2.158   3.811   3.306  0.0534 -0.3157 -0.0998
    1PC      HA 8070   2.148   3.897   3.241  1.8102  0.6296  0.8471
    1PC      HB 8071   2.258   3.771   3.288 -0.1333 -0.4015 -0.9625
    1PC     O31 8072   2.063   3.706   3.286  0.0963 -0.4470  0.2458
    1PC     P31 8073   2.055   3.611   3.161  0.0666  0.4096 -0.2748
    1PC     O32 8074   1.954   3.679   3.056 -0.7327 -0.1905 -0.2600
    1PC     C31 8075   1.987   3.805   2.992  0.7558  0.1666  0.1746
    1PC     H1A 8076   2.008   3.877   3.072 -0.9765 -1.3225  2.0210
    1PC     H1B 8077   2.074   3.802   2.925 -0.8175  1.4429 -1.9839
    1PC     C32 8078   1.866   3.851   2.917 -0.7197 -0.4313  0.9881
    1PC     H2A 8079   1.890   3.931   2.847 -1.7126 -1.4838 -0.5930
    1PC     H2B 8080   1.833   3.772   2.850 -0.2447 -0.9751  1.3921
    1PC     N31 8081   1.739   3.883   2.988  0.7909  0.5624  0.2728
    1PC     C33 8082   1.642   3.957   2.901  0.2914 -0.9652  0.1250
    1PC     H3A 8083   1.689   4.042   2.850  1.8769 -0.6948  1.9938
    1PC     H3B 8084   1.602   3.885   2.829  0.9948  0.3180 -1.6076
    1PC     H3C 8085   1.558   3.994   2.960  0.4583  1.0368 -0.8340
    1PC     C34 8086   1.670   3.757   3.042 -0.2819 -1.0714  0.1774
    1PC     H4A 8087   1.652   3.690   2.958 -1.0467  2.1180 -2.3096
    1PC     H4B 8088   1.739   3.715   3.116 -0.8520  3.3696  3.4152
    1PC     H4C 8089   1.570   3.779   3.081 -0.2105 -1.6362  0.6865
    1PC     C35 8090   1.761   3.969   3.108  0.0400  0.2245  0.2626
    1PC     H5A 8091   1.667   4.004   3.151  1.1696  0.6849  2.4180
    1PC     H5B 8092   1.816   4.055   3.068  1.5594 -0.7030  0.3125
    1PC     H5C 8093   1.820   3.907   3.176 -0.1122 -0.4188 -0.1876
    1PC     O33 8094   2.189   3.600   3.096  0.3804  0.6552  0.3982
    1PC     O34 8095   1.979   3.487   3.193 -0.2654 -0.0945  0.1605
    1PC     O21 8096   2.031   3.928   3.466 -0.5580 -0.4214 -0.6778
    1PC     C21 8097   1.956   3.911   3.577  0.3310 -0.4658  0.7998
    1PC     O22 8098   1.967   3.824   3.658 -0.4072  0.0843 -0.2899
    1OL     C12 8099   1.842   4.014   3.602  0.1727 -0.6420 -0.0293
    1OL     H2R 8100   1.863   4.099   3.536 -0.3798 -1.8370 -1.7668
    1OL     H2S 8101   1.844   4.051   3.704  0.7607  0.2572 -0.3546
    1OL     C13 8102   1.704   3.954   3.564 -0.0745 -0.1297 -0.4413
    1OL     H3R 8103   1.704   3.925   3.459  1.0131 -1.4434 -0.0901
    1OL     H3S 8104   1.624   4.027   3.580  0.3251  0.7079 -2.1199
    1OL     C14 8105   1.657   3.825   3.637  0.1198  0.3064 -0.1993
    1OL     H4R 8106   1.721   3.738   3.620  1.5475  1.1531  0.7109
    1OL     H4S 8107   1.561   3.788   3.600 -0.7223  0.3077  1.8931
    1OL     C15 8108   1.630   3.847   3.792 -0.0604  0.2029  0.0688
    1OL     H5R 8109   1.569   3.762   3.826  0.3140  0.5257  1.6162
    1OL     H5S 8110   1.564   3.934   3.797 -0.0731  0.1674  0.5776
    1OL     C16 8111   1.744   3.870   3.896 -0.5022  0.1888  0.2662
    1OL     H6R 8112   1.776   3.973   3.882  4.1014 -0.9607  1.3096
    1OL     H6S 8113   1.838   3.816   3.878  0.3161  1.5257  0.4476
    1OL     C17 8114   1.696   3.834   4.031  0.6289 -0.2888 -0.4202
    1OL     H7R 8115   1.625   3.751   4.028  0.5065 -0.3106  1.9600
    1OL     H7S 8116   1.634   3.915   4.072  1.3690 -0.2915  0.7442
    1OL     C18 8117   1.803   3.797   4.135  0.5408 -0.3297  1.0547
    1OL     H8R 8118   1.865   3.728   4.077  0.0657 -0.1240  0.3027
    1OL     H8S 8119   1.757   3.743   4.218  1.2708  0.4305  1.9706
    1OL     C19 8120   1.887   3.916   4.169  0.0297 -0.3791 -0.4708
    1OL     H9R 8121   1.924   3.978   4.088  2.0837  0.7480  1.2760
    1OL    C110 8122   1.915   3.956   4.293 -0.5025  0.1827  0.0656
    1OL    H10R 8123   1.990   4.032   4.310 -1.1408  0.5107  1.4864
    1OL    C111 8124   1.868   3.892   4.417 -0.2496  0.8069  0.0225
    1OL    H11R 8125   1.935   3.811   4.447 -0.3227  1.0381  0.8301
    1OL    H11S 8126   1.770   3.847   4.400  1.0424 -1.8090 -0.7421
    1OL    C112 8127   1.860   3.980   4.541  0.2994  0.1134 -0.0196
    1OL    H12R 8128   1.774   4.045   4.526  1.3027  1.6496  0.7696
    1OL    H12S 8129   1.953   4.038   4.538  1.3302 -1.5062 -0.0641
    1OL    C113 8130   1.834   3.892   4.668  0.7825 -0.8459  0.3391
    1OL    H13R 8131   1.804   3.949   4.757 -0.4994 -2.7100  1.1175
    1OL    H13S 8132   1.925   3.843   4.705  2.6765  1.7531 -0.7142
    1OL    C114 8133   1.726   3.784   4.648 -0.1265 -0.0414  0.0112
    1OL    H14R 8134   1.761   3.690   4.603  0.7450  0.3166 -0.0693
    1OL    H14S 8135   1.654   3.821   4.574  0.1258  1.5970  0.5777
    1OL    C115 8136   1.647   3.750   4.779 -0.2950 -0.2618 -0.0632
    1OL    H15R 8137   1.599   3.841   4.814 -0.4345 -1.1113  2.0524
    1OL    H15S 8138   1.713   3.715   4.859  0.5604 -1.0986 -1.1086
    1OL    C116 8139   1.533   3.646   4.746 -0.9388 -0.2030  0.3094
    1OL    H16R 8140   1.568   3.551   4.705 -0.6265 -0.2530  0.6867
    1OL    H16S 8141   1.466   3.694   4.675  0.3871  0.3212 -0.6046
    1OL    C117 8142   1.455   3.627   4.877  0.1743  0.3250  0.1450
    1OL    H17R 8143   1.412   3.720   4.914  0.3479  0.6436 -0.4484
    1OL    H17S 8144   1.523   3.606   4.960  0.1826  2.1717  0.6216
    1OL    C118 8145   1.343   3.527   4.859 -0.0867 -0.2242 -0.1557
    1OL    H18R 8146   1.285   3.553   4.769 -0.4541  0.7895  0.3678
    1OL    H18S 8147   1.276   3.528   4.945 -0.1051  0.0053 -0.1708
    1OL    H18T 8148   1.385   3.427   4.845 -1.0380 -0.4954 -1.2042
    1PA    C116 8149   4.456   2.032   5.057  0.1444  0.2284  0.6332
    1PA    H16R 8150   4.546   2.094   5.053  0.8435 -0.8027  0.1556
    1PA    H16S 8151   4.477   1.950   5.126  0.0733  1.2416  1.8769
    1PA    H16T 8152   4.373   2.084   5.104 -0.7826  0.0985 -0.8132
    1PA    C115 8153   4.409   1.985   4.913 -0.0324 -0.7442 -0.1910
    1PA    H15R 8154   4.303   1.958   4.916 -0.5893  1.4035  0.4780
    1PA    H15S 8155   4.424   2.074   4.851  1.8578  0.8156  2.4083
    1PA    C114 8156   4.486   1.870   4.842 -0.1151 -0.5221  0.8832
    1PA    H14R 8157   4.593   1.888   4.858  0.7349 -2.9275 -1.6197
    1PA    H14S 8158   4.472   1.771   4.885 -0.1106 -1.0868 -0.3789
    1PA    C113 8159   4.459   1.876   4.689  0.4225 -0.0471  0.5592
    1PA    H13R 8160   4.351   1.862   4.678  0.5403 -1.5007  1.1130
    1PA    H13S 8161   4.490   1.969   4.643 -0.1283  0.7492  1.7792
    1PA    C112 8162   4.539   1.756   4.628 -0.3609  0.1553  0.9063
    1PA    H12R 8163   4.645   1.770   4.649 -0.1465 -0.2159  0.0986
    1PA    H12S 8164   4.508   1.668   4.684  1.6180  0.0428  1.8732
    1PA    C111 8165   4.512   1.717   4.482 -0.2727 -0.5164 -0.3258
    1PA    H11R 8166   4.551   1.618   4.457  1.1129 -0.1616  0.3997
    1PA    H11S 8167   4.407   1.709   4.456 -0.4598  1.2439 -0.1651
    1PA    C110 8168   4.577   1.817   4.389 -0.8036 -0.2011 -0.2925
    1PA    H10R 8169   4.563   1.916   4.433 -0.8713  1.5838 -4.0705
    1PA    H10S 8170   4.684   1.806   4.366 -1.2394 -1.2495 -1.9256
    1PA     C19 8171   4.520   1.814   4.241 -0.4099 -0.3091 -0.0135
    1PA     H9R 8172   4.543   1.720   4.191  1.2903 -0.3682  0.8675
    1PA     H9S 8173   4.412   1.833   4.242  0.0132  2.2486  0.9306
    1PA     C18 8174   4.574   1.929   4.149 -0.4859  0.4086 -0.2005
    1PA     H8R 8175   4.546   2.028   4.186 -0.2112  1.5105 -2.7843
    1PA     H8S 8176   4.683   1.920   4.147 -0.5580 -1.5193  2.4163
    1PA     C17 8177   4.510   1.929   4.008  0.2363 -0.1605 -1.1277
    1PA     H7R 8178   4.501   1.823   3.983 -1.5396 -0.4781  0.7319
    1PA     H7S 8179   4.410   1.973   4.020 -0.2575 -1.5097 -0.1751
    1PA     C16 8180   4.588   1.999   3.904  0.7540  0.1371 -0.6789
    1PA     H6R 8181   4.615   2.090   3.958 -0.8574  0.3302 -0.1857
    1PA     H6S 8182   4.677   1.941   3.879  2.5150  3.1389 -1.6733
    1PA     C15 8183   4.515   2.046   3.784 -0.2046 -0.9198 -0.5487
    1PA     H5R 8184   4.452   2.133   3.804  0.5620 -0.3215 -0.7350
    1PA     H5S 8185   4.585   2.088   3.711  0.3461 -1.1059 -0.1335
    1PA     C14 8186   4.420   1.942   3.717  0.1251  0.3067 -0.2335
    1PA     H4R 8187   4.346   1.910   3.791  0.0958  0.1109 -0.3436
    1PA     H4S 8188   4.374   1.986   3.628  1.6112  0.3381 -0.9987
    1PA     C13 8189   4.490   1.818   3.658 -0.2164  1.1273 -0.4250
    1PA     H3R 8190   4.561   1.861   3.587 -2.0331  2.2507 -1.6038
    1PA     H3S 8191   4.547   1.764   3.734  1.2103  2.2527 -0.6580
    1PA     C12 8192   4.397   1.716   3.589 -0.0414 -0.0277 -0.0567
    1PA     H2R 8193   4.456   1.637   3.543  1.7315  0.8642  0.6305
    1PA     H2S 8194   4.323   1.670   3.656 -2.1711  0.7558 -1.8086
    1PC     C11 8195   4.325   1.782   3.477 -0.0426 -0.2516 -0.4447
    1PC     O12 8196   4.374   1.801   3.370 -0.0909  0.2197 -0.0981
    1PC     O11 8197   4.204   1.816   3.514  0.0406 -0.6351 -0.2943
    1PC      C1 8198   4.119   1.884   3.413  0.2893 -0.4390 -0.0486
    1PC      HR 8199   4.125   1.841   3.313 -1.8593 -0.0990 -0.3514
    1PC      HS 8200   4.015   1.872   3.446  0.8680 -1.9844  1.2688
    1PC      C2 8201   4.154   2.041   3.416  0.2491  0.5167  0.1630
    1PC      HX 8202   4.067   2.094   3.376  1.7956  3.8177  1.0368
    1PC      C3 8203   4.277   2.080   3.344 -0.2175  0.7412  0.6441
    1PC      HA 8204   4.367   2.064   3.404  0.9465  0.0027 -1.2588
    1PC      HB 8205   4.297   2.021   3.255 -3.8127 -1.3297  1.1455
    1PC     O31 8206   4.267   2.228   3.303 -0.0504 -0.1932 -0.1033
    1PC     P31 8207   4.390   2.313   3.255  0.4376 -0.0731  0.0030
    1PC     O32 8208   4.443   2.390   3.380  0.1797  0.5051 -0.3973
    1PC     C31 8209   4.390   2.516   3.429 -0.7889 -0.9599 -0.1137
    1PC     H1A 8210   4.318   2.555   3.357  0.3959 -0.1354 -0.8721
    1PC     H1B 8211   4.339   2.489   3.522 -0.9968 -1.8282 -0.4691
    1PC     C32 8212   4.508   2.613   3.456  0.3463 -0.8137  0.3467
    1PC     H2A 8213   4.476   2.700   3.514 -0.4555  0.4095 -1.8675
    1PC     H2B 8214   4.573   2.541   3.506  0.5169 -0.0412  1.2508
    1PC     N31 8215   4.580   2.685   3.338  0.0195  0.2714 -0.1233
    1PC     C33 8216   4.606   2.592   3.220  0.9657 -0.5665  0.0565
    1PC     H3A 8217   4.700   2.539   3.236  1.2883 -0.5892 -1.7893
    1PC     H3B 8218   4.521   2.530   3.191  0.6333 -0.3317  0.5095
    1PC     H3C 8219   4.630   2.656   3.135  0.0748 -1.5885 -0.9842
    1PC     C34 8220   4.495   2.796   3.286  0.2992  0.6270 -0.0980
    1PC     H4A 8221   4.406   2.766   3.231  0.1378  0.5955  0.1808
    1PC     H4B 8222   4.467   2.852   3.375  0.9066  0.2259  0.3461
    1PC     H4C 8223   4.552   2.864   3.222  1.1885 -0.0978 -0.0871
    1PC     C35 8224   4.704   2.757   3.387  0.5072 -0.4822  0.1363
    1PC     H5A 8225   4.768   2.681   3.433  1.9694  0.3576 -0.4629
    1PC     H5B 8226   4.676   2.831   3.462  3.2963  1.5006 -0.6959
    1PC     H5C 8227   4.756   2.805   3.304  0.7557 -2.8814 -1.1540
    1PC     O33 8228   4.503   2.222   3.214  0.3944  0.0343 -0.1954
    1PC     O34 8229   4.350   2.418   3.155 -0.0302 -0.1364  0.2911
    1PC     O21 8230   4.177   2.095   3.549 -0.3400  0.4446  0.1681
    1PC     C21 8231   4.140   2.221   3.579 -0.6311  0.4814 -0.4290
    1PC     O22 8232   4.065   2.282   3.506  0.1765 -0.7023 -0.9085
    1OL     C12 8233   4.174   2.264   3.720  0.0288 -0.1649 -0.1230
    1OL     H2R 8234   4.201   2.370   3.723 -1.2785  0.1645  0.4128
    1OL     H2S 8235   4.271   2.215   3.722  0.4195  0.6485  1.0707
    1OL     C13 8236   4.066   2.225   3.824 -0.1049 -0.0339 -0.5070
    1OL     H3R 8237   4.055   2.117   3.827  0.8483 -0.1060  0.4100
    1OL     H3S 8238   3.972   2.262   3.781  0.2098  1.2356 -0.1182
    1OL     C14 8239   4.094   2.287   3.963 -0.1804 -0.9098 -1.4221
    1OL     H4R 8240   4.075   2.395   3.960 -0.7830 -1.0193 -1.7341
    1OL     H4S 8241   4.200   2.276   3.983  0.5747  1.5910 -3.6595
    1OL     C15 8242   4.004   2.235   4.083  0.0996  0.0653  0.8178
    1OL     H5R 8243   3.906   2.227   4.037  0.6745 -1.6629 -0.1406
    1OL     H5S 8244   3.991   2.300   4.170 -0.4902 -1.8547  2.1949
    1OL     C16 8245   4.051   2.090   4.134  0.3851 -0.6286  0.6685
    1OL     H6R 8246   4.158   2.087   4.157  0.4823  0.1140  0.3535
    1OL     H6S 8247   4.032   2.020   4.052  0.5328 -2.4157  2.1289
    1OL     C17 8248   3.969   2.063   4.264  0.2561  0.2972 -0.2176
    1OL     H7R 8249   3.864   2.080   4.239  1.2457  2.4179 -3.2954
    1OL     H7S 8250   3.987   2.144   4.336 -1.6192 -0.4898  1.1935
    1OL     C18 8251   3.984   1.924   4.318 -0.2867  0.0673 -0.5356
    1OL     H8R 8252   4.084   1.888   4.341 -0.8998 -1.5477 -0.3300
    1OL     H8S 8253   3.955   1.867   4.229  1.7488  0.6076 -1.5710
    1OL     C19 8254   3.886   1.880   4.429 -0.2535  0.3409 -1.1103
    1OL     H9R 8255   3.784   1.915   4.415 -1.1329 -0.3416  2.8668
    1OL    C110 8256   3.914   1.813   4.542  0.5693 -0.2681 -0.9445
    1OL    H10R 8257   3.835   1.784   4.610  1.4044 -0.3590  0.0048
    1OL    C111 8258   4.059   1.769   4.578  0.3983  0.7711  0.0917
    1OL    H11R 8259   4.112   1.856   4.617 -0.2359  1.1047  0.2253
    1OL    H11S 8260   4.126   1.745   4.496 -0.6374 -3.5221  0.3695
    1OL    C112 8261   4.059   1.637   4.664  0.0803 -0.0137  0.0048
    1OL    H12R 8262   4.161   1.602   4.682  0.3023 -0.6994 -2.3719
    1OL    H12S 8263   4.012   1.564   4.598 -0.5767 -1.5074  2.0902
    1OL    C113 8264   3.983   1.652   4.799  0.3631  0.6713 -0.0539
    1OL    H13R 8265   3.874   1.655   4.785 -0.1257 -1.9663  2.6916
    1OL    H13S 8266   4.004   1.746   4.850  0.8000  1.2252 -1.2244
    1OL    C114 8267   3.993   1.545   4.911  0.1904 -0.0105  0.0905
    1OL    H14R 8268   3.924   1.578   4.989 -0.3706 -1.7188  0.3511
    1OL    H14S 8269   4.094   1.556   4.951  1.6880 -2.6241 -2.7333
    1OL    C115 8270   3.972   1.400   4.863 -0.1445 -0.0382  0.7893
    1OL    H15R 8271   4.048   1.380   4.787 -1.0940 -1.8828  0.3019
    1OL    H15S 8272   3.879   1.405   4.805 -0.1997  1.1476  0.9589
    1OL    C116 8273   3.987   1.280   4.963 -0.4854  0.2316 -0.3801
    1OL    H16R 8274   4.056   1.309   5.042 -0.9090 -1.3886  0.6209
    1OL    H16S 8275   4.040   1.206   4.903  1.8466  2.7630 -1.5305
    1OL    C117 8276   3.859   1.223   5.012 -0.2032  0.0432 -0.1705
    1OL    H17R 8277   3.799   1.312   5.032 -0.6514 -0.1282 -0.7308
    1OL    H17S 8278   3.863   1.169   5.106 -0.1824  0.6413  0.1722
    1OL    C118 8279   3.794   1.136   4.902  0.2691 -0.5138 -0.3726
    1OL    H18R 8280   3.784   1.178   4.802  0.9898  1.7843  0.5049
    1OL    H18S 8281   3.692   1.117   4.936 -0.4363  0.6319 -1.8324
    1OL    H18T 8282   3.850   1.042   4.903  0.3981 -0.4352  0.8342
    1PA    C116 8283   2.833   0.223   4.974  0.3315 -0.4872  0.5589
    1PA    H16R 8284   2.830   0.329   4.946 -0.2052 -0.8274 -0.6991
    1PA    H16S 8285   2.918   0.212   5.042  1.8238  3.4394 -0.5097
    1PA    H16T 8286   2.740   0.196   5.025  1.4481 -2.8951  1.4064
    1PA    C115 8287   2.850   0.153   4.835  0.8753  0.0261  0.0129
    1PA    H15R 8288   2.832   0.048   4.862 -3.9058  1.5009  3.2419
    1PA    H15S 8289   2.773   0.186   4.765  2.1448  3.2972  0.0906
    1PA    C114 8290   2.986   0.183   4.771  0.3805 -0.5935  0.6647
    1PA    H14R 8291   2.990   0.156   4.666  0.0765 -1.7829  0.9529
    1PA    H14S 8292   2.993   0.291   4.787  1.8557 -0.5782  0.0079
    1PA    C113 8293   3.104   0.124   4.852  0.3410  0.1786 -0.1235
    1PA    H13R 8294   3.125   0.180   4.943 -0.9462  0.1980  0.1597
    1PA    H13S 8295   3.071   0.023   4.877 -1.5986  0.5910 -0.9417
    1PA    C112 8296   3.229   0.119   4.764 -0.3995  0.3147 -0.2529
    1PA    H12R 8297   3.287   0.037   4.805  0.0134  2.0825  2.8972
    1PA    H12S 8298   3.201   0.097   4.661 -0.5136 -1.2349  0.0989
    1PA    C111 8299   3.317   0.248   4.766 -0.5453 -0.4358  0.6877
    1PA    H11R 8300   3.265   0.331   4.718 -1.1268 -0.8564  0.5894
    1PA    H11S 8301   3.327   0.261   4.874  1.3412  0.5610  0.4119
    1PA    C110 8302   3.454   0.222   4.699 -0.3801 -0.8262 -0.1408
    1PA    H10R 8303   3.519   0.307   4.722  0.7400 -1.1154 -2.0993
    1PA    H10S 8304   3.495   0.136   4.753  0.5958 -0.8692 -0.9439
    1PA     C19 8305   3.459   0.190   4.555 -1.0687  0.2878 -0.5096
    1PA     H9R 8306   3.394   0.105   4.531  0.5872 -0.8016 -1.2490
    1PA     H9S 8307   3.419   0.277   4.502 -0.3752  0.4616 -0.7440
    1PA     C18 8308   3.603   0.160   4.499  0.3564 -0.2103 -0.7380
    1PA     H8R 8309   3.682   0.220   4.544  1.1818 -0.8797 -1.2849
    1PA     H8S 8310   3.622   0.053   4.512  1.0779 -0.2789 -2.3202
    1PA     C17 8311   3.601   0.190   4.346 -0.2991  0.1860 -0.2401
    1PA     H7R 8312   3.543   0.277   4.315 -0.4312 -1.0574 -3.6626
    1PA     H7S 8313   3.702   0.201   4.307 -0.3147 -0.3218 -0.4297
    1PA     C16 8314   3.550   0.065   4.276 -0.1980 -0.0405  0.1639
    1PA     H6R 8315   3.616  -0.022   4.278  1.4902  1.2084 -0.0617
    1PA     H6S 8316   3.459   0.021   4.319 -0.6931  0.2930 -0.5281
    1PA     C15 8317   3.543   0.078   4.122  0.2577 -0.1919 -0.1434
    1PA     H5R 8318   3.640   0.117   4.091 -0.0513  1.1661  0.5681
    1PA     H5S 8319   3.528  -0.016   4.068 -2.0324  0.2664 -0.3367
    1PA     C14 8320   3.430   0.169   4.071  0.4833  0.2943  0.0405
    1PA     H4R 8321   3.329   0.145   4.103  0.9332  0.0198  1.2463
    1PA     H4S 8322   3.445   0.268   4.115 -0.9547  0.9393 -0.8909
    1PA     C13 8323   3.435   0.172   3.915  0.0062 -0.0141 -0.3443
    1PA     H3R 8324   3.529   0.225   3.900 -2.0584  3.9541 -0.0761
    1PA     H3S 8325   3.446   0.077   3.863 -0.9780 -0.5116  0.3305
    1PA     C12 8326   3.309   0.243   3.856 -0.2140 -0.0844  0.1171
    1PA     H2R 8327   3.225   0.175   3.846 -1.0422  0.7987  1.0107
    1PA     H2S 8328   3.282   0.327   3.920 -1.2815 -0.4150  0.1070
    1PC     C11 8329   3.328   0.292   3.719 -0.2836 -0.3253  0.1804
    1PC     O12 8330   3.315   0.216   3.620 -0.5277  0.1773 -0.1356
    1PC     O11 8331   3.345   0.425   3.718 -0.3057  0.0268  0.9488
    1PC      C1 8332   3.343   0.490   3.592  0.2244 -0.0057 -0.3986
    1PC      HR 8333   3.429   0.462   3.531  0.3038 -0.8546  0.0919
    1PC      HS 8334   3.255   0.460   3.534 -0.6196  0.6342  0.5405
    1PC      C2 8335   3.336   0.643   3.626 -0.0710  0.3865 -0.0936
    1PC      HX 8336   3.268   0.655   3.710 -0.8839 -2.1143 -0.3477
    1PC      C3 8337   3.293   0.730   3.504 -0.1525  0.6511 -0.0218
    1PC      HA 8338   3.192   0.692   3.489  0.4490 -0.6605 -0.8489
    1PC      HB 8339   3.291   0.837   3.528 -1.4535  1.7537 -4.5991
    1PC     O31 8340   3.384   0.707   3.387  0.2803  0.3435 -0.2219
    1PC     P31 8341   3.326   0.648   3.245 -0.3454  0.1312 -0.0297
    1PC     O32 8342   3.338   0.493   3.261 -0.3617  0.5486 -0.6891
    1PC     C31 8343   3.461   0.414   3.254  0.4848  0.1439 -0.3975
    1PC     H1A 8344   3.545   0.475   3.290  0.3919 -0.8051  1.4457
    1PC     H1B 8345   3.457   0.321   3.310 -0.6802 -0.4483 -1.4370
    1PC     C32 8346   3.488   0.384   3.107  0.7601  0.5912 -0.3555
    1PC     H2A 8347   3.476   0.481   3.058  1.6037  0.9035  0.0494
    1PC     H2B 8348   3.591   0.347   3.101  0.3410 -0.5730 -0.4299
    1PC     N31 8349   3.406   0.286   3.040  0.3727 -0.0183  1.0136
    1PC     C33 8350   3.416   0.152   3.099  0.1167 -0.2132  0.0207
    1PC     H3A 8351   3.352   0.095   3.032 -0.9655  3.7920 -2.4870
    1PC     H3B 8352   3.522   0.125   3.106  0.4232  0.9023 -0.2321
    1PC     H3C 8353   3.380   0.156   3.202 -0.7528 -1.5792 -0.2200
    1PC     C34 8354   3.258   0.329   3.051  0.5523  0.8219 -0.6638
    1PC     H4A 8355   3.201   0.262   2.985  1.7906 -0.2350 -0.6736
    1PC     H4B 8356   3.230   0.325   3.156  0.7876  0.7865 -0.6032
    1PC     H4C 8357   3.255   0.430   3.011 -0.9413  0.9167 -0.3558
    1PC     C35 8358   3.464   0.285   2.902  0.7374  1.0633  0.3325
    1PC     H5A 8359   3.488   0.387   2.871 -0.3251  1.7122  1.6211
    1PC     H5B 8360   3.403   0.240   2.823  0.4467  1.6540  0.2214
    1PC     H5C 8361   3.556   0.226   2.910  0.0288  0.0243  0.9580
    1PC     O33 8362   3.182   0.684   3.227  1.0084  0.5080  0.2959
    1PC     O34 8363   3.414   0.689   3.135  0.0748 -0.4841 -0.0790
    1PC     O21 8364   3.469   0.693   3.662 -0.5533 -0.6559 -0.1850
    1PC     C21 8365   3.478   0.805   3.740 -0.3732 -0.1317  0.4158
    1PC     O22 8366   3.390   0.844   3.814 -0.1027 -0.3382  0.1240
    1OL     C12 8367   3.609   0.870   3.735 -0.6619 -0.3870 -0.3825
    1OL     H2R 8368   3.594   0.978   3.733  0.8253 -0.0782  2.7239
    1OL     H2S 8369   3.669   0.843   3.648  0.2564  1.1502 -0.2450
    1OL     C13 8370   3.682   0.838   3.870  0.0444  0.3621 -0.1576
    1OL     H3R 8371   3.597   0.814   3.933  0.4133  0.4925  0.3915
    1OL     H3S 8372   3.739   0.925   3.905  0.5968 -0.0975  0.1010
    1OL     C14 8373   3.776   0.717   3.852  0.0623  0.1750 -0.3722
    1OL     H4R 8374   3.712   0.630   3.834 -1.9179  1.8433 -1.5888
    1OL     H4S 8375   3.822   0.689   3.947  1.9160  1.3232 -0.9126
    1OL     C15 8376   3.893   0.722   3.749 -0.1181 -0.1842  0.3077
    1OL     H5R 8377   3.944   0.819   3.751 -0.3311 -0.0010 -1.9981
    1OL     H5S 8378   3.851   0.711   3.649  1.3859 -2.3793 -0.1161
    1OL     C16 8379   4.010   0.625   3.783  0.4651 -0.1910  0.1541
    1OL     H6R 8380   3.962   0.536   3.824  0.8821  0.8370  2.9816
    1OL     H6S 8381   4.070   0.665   3.865 -1.1878 -0.8426  1.7024
    1OL     C17 8382   4.110   0.588   3.662 -0.3102  0.1749 -0.2975
    1OL     H7R 8383   4.137   0.673   3.599  1.1725 -0.2190 -0.2107
    1OL     H7S 8384   4.061   0.521   3.591 -2.0515  0.6830  0.3844
    1OL     C18 8385   4.237   0.514   3.717 -0.3728 -0.3461  0.2487
    1OL     H8R 8386   4.290   0.593   3.771 -1.3841 -0.1920  1.0381
    1OL     H8S 8387   4.296   0.493   3.628 -1.1096 -1.4848  0.0041
    1OL     C19 8388   4.206   0.384   3.786 -0.7222  0.1150 -0.0711
    1OL     H9R 8389   4.175   0.296   3.730  1.0720 -0.8005  0.3549
    1OL    C110 8390   4.230   0.363   3.919  0.1126 -0.3454  0.1431
    1OL    H10R 8391   4.201   0.271   3.968 -1.7331  0.9328  1.5115
    1OL    C111 8392   4.297   0.469   4.014 -0.0758  0.1050 -0.2331
    1OL    H11R 8393   4.305   0.566   3.965 -0.0509 -0.8713 -2.2543
    1OL    H11S 8394   4.395   0.424   4.028 -0.1220 -0.5079 -1.7527
    1OL    C112 8395   4.234   0.476   4.151 -0.0144 -0.6514 -0.8826
    1OL    H12R 8396   4.306   0.516   4.223  0.6839 -0.1235 -1.8647
    1OL    H12S 8397   4.209   0.378   4.190  2.5941 -0.9938  0.0699
    1OL    C113 8398   4.113   0.568   4.144  1.2140  0.0646 -0.1177
    1OL    H13R 8399   4.037   0.533   4.075  0.2395 -0.4951  1.2178
    1OL    H13S 8400   4.139   0.667   4.106 -2.1128  1.3838  0.9162
    1OL    C114 8401   4.044   0.579   4.289  0.8129  0.2657  0.6913
    1OL    H14R 8402   4.115   0.637   4.348 -0.9388  2.8585  0.3434
    1OL    H14S 8403   4.039   0.480   4.335  2.9892  0.2761  0.9796
    1OL    C115 8404   3.905   0.640   4.298 -0.6561 -0.5800  0.2599
    1OL    H15R 8405   3.848   0.610   4.210 -0.0441 -2.0591  0.3623
    1OL    H15S 8406   3.915   0.748   4.283 -1.0981 -0.4757  0.7070
    1OL    C116 8407   3.830   0.625   4.432 -0.3888  0.3049  1.1656
    1OL    H16R 8408   3.811   0.522   4.461  3.6867 -0.2565  2.1588
    1OL    H16S 8409   3.735   0.678   4.418  0.6737  1.4485 -2.1164
    1OL    C117 8410   3.908   0.693   4.549  0.7425  0.5845  0.3245
    1OL    H17R 8411   4.013   0.666   4.532  0.1691 -1.4633 -0.1313
    1OL    H17S 8412   3.880   0.641   4.641 -0.2754  0.9849  0.2387
    1OL    C118 8413   3.882   0.843   4.564 -0.3536 -0.2852 -0.2268
    1OL    H18R 8414   3.777   0.861   4.588 -0.2476 -0.1419  0.1399
    1OL    H18S 8415   3.902   0.889   4.467 -0.2062 -1.3480 -0.7064
    1OL    H18T 8416   3.941   0.883   4.647 -3.5964  1.8528  1.1411
    1PA    C116 8417   3.967   3.408   4.896  0.2102 -0.0398 -0.5288
    1PA    H16R 8418   3.895   3.446   4.823  1.1912  2.3718 -0.2871
    1PA    H16S 8419   3.912   3.348   4.969 -1.1942 -0.5602 -1.9873
    1PA    H16T 8420   4.041   3.343   4.850  1.0020  0.1758  0.4243
    1PA    C115 8421   4.038   3.511   4.975 -0.5029  0.5593  0.0398
    1PA    H15R 8422   3.968   3.585   5.012 -1.0107 -0.5171  1.2568
    1PA    H15S 8423   4.104   3.474   5.054  1.6968  1.2630 -1.4130
    1PA    C114 8424   4.143   3.578   4.888  0.1190  0.0200  0.1485
    1PA    H14R 8425   4.201   3.648   4.947  4.4573 -3.1491 -0.1285
    1PA    H14S 8426   4.219   3.509   4.851  1.1234  2.0999 -1.7515
    1PA    C113 8427   4.076   3.651   4.776  0.0567  0.0306  0.5820
    1PA    H13R 8428   4.037   3.581   4.701 -2.7512  0.5555  1.4690
    1PA    H13S 8429   3.985   3.706   4.803  0.8836  2.0146 -0.6106
    1PA    C112 8430   4.175   3.746   4.711  0.0464 -0.0956  0.9121
    1PA    H12R 8431   4.204   3.831   4.773  0.4463  1.0985 -0.8827
    1PA    H12S 8432   4.272   3.697   4.694 -0.1188 -0.8922  2.1959
    1PA    C111 8433   4.128   3.809   4.582 -0.2963  0.1131 -0.2104
    1PA    H11R 8434   4.088   3.731   4.515 -0.9072  0.0530  0.2211
    1PA    H11S 8435   4.051   3.884   4.601  1.0248  1.7498 -1.2068
    1PA    C110 8436   4.241   3.870   4.505 -0.4386 -0.1499 -0.4136
    1PA    H10R 8437   4.326   3.908   4.562 -1.0649  1.8247 -0.7547
    1PA    H10S 8438   4.285   3.800   4.433 -0.4363  0.3785 -0.9367
    1PA     C19 8439   4.191   3.984   4.418  0.1836 -1.0734 -0.0368
    1PA     H9R 8440   4.123   3.945   4.342 -1.8855 -1.3115  1.8884
    1PA     H9S 8441   4.131   4.050   4.480  1.5594  0.2600 -0.0856
    1PA     C18 8442   4.305   4.062   4.351  0.0748 -0.5389  0.2514
    1PA     H8R 8443   4.257   4.148   4.303 -0.0793 -1.1939 -0.7726
    1PA     H8S 8444   4.363   4.113   4.428 -0.2849 -0.2523  0.3372
    1PA     C17 8445   4.393   3.981   4.251 -0.5141 -0.1550 -0.4127
    1PA     H7R 8446   4.465   4.046   4.200 -0.4780 -1.2846 -1.8249
    1PA     H7S 8447   4.464   3.914   4.300  1.1179  1.5039 -0.4664
    1PA     C16 8448   4.309   3.923   4.132  0.0100 -0.2036  0.5238
    1PA     H6R 8449   4.383   3.897   4.056 -0.9201 -0.0547 -0.4338
    1PA     H6S 8450   4.256   3.832   4.162  1.0526 -0.7823  0.6801
    1PA     C15 8451   4.213   4.021   4.065 -0.2476 -0.5210  0.0469
    1PA     H5R 8452   4.110   4.012   4.100 -0.8855  1.6183 -1.1660
    1PA     H5S 8453   4.234   4.125   4.091  1.4893 -1.0158  0.6725
    1PA     C14 8454   4.237   4.014   3.912  0.4680 -0.1945 -0.3002
    1PA     H4R 8455   4.169   4.090   3.873  1.4814 -0.0266 -1.8016
    1PA     H4S 8456   4.338   4.051   3.893  0.2934  1.1420  1.2608
    1PA     C13 8457   4.201   3.872   3.857 -0.4565  0.4787 -0.4112
    1PA     H3R 8458   4.281   3.808   3.896 -0.1679  1.3148  0.3759
    1PA     H3S 8459   4.113   3.830   3.906  0.9572 -1.1135  0.8192
    1PA     C12 8460   4.194   3.883   3.704  0.1207 -0.1340  0.8614
    1PA     H2R 8461   4.212   3.784   3.660 -1.0532  0.1481 -0.3057
    1PA     H2S 8462   4.095   3.920   3.677  1.4972  3.3189  0.3340
    1PC     C11 8463   4.296   3.972   3.641  0.7006 -0.5424 -0.5363
    1PC     O12 8464   4.277   4.094   3.621 -0.1293  0.2169 -0.0216
    1PC     O11 8465   4.413   3.913   3.621  0.1078  0.3256  0.2565
    1PC      C1 8466   4.521   4.005   3.581  0.4913 -0.6745 -0.7038
    1PC      HR 8467   4.493   4.069   3.497 -2.6155 -1.6586 -0.4883
    1PC      HS 8468   4.534   4.065   3.671 -4.2443  2.4704 -1.9385
    1PC      C2 8469   4.648   3.923   3.553  0.1427  0.4908 -0.5818
    1PC      HX 8470   4.737   3.984   3.538 -0.4619  1.0796 -1.9126
    1PC      C3 8471   4.629   3.831   3.429  0.4803  1.0783  0.1441
    1PC      HA 8472   4.556   3.757   3.465 -0.8123  2.7639  1.0720
    1PC      HB 8473   4.575   3.890   3.355  0.0760  1.3529  0.6533
    1PC     O31 8474   4.751   3.762   3.385 -0.4234 -0.2719  0.1844
    1PC     P31 8475   4.841   3.814   3.266  0.3747 -0.0749  0.0209
    1PC     O32 8476   4.765   3.773   3.133 -0.9166  0.0515  0.1390
    1PC     C31 8477   4.758   3.635   3.097  0.3060  0.1127 -0.1719
    1PC     H1A 8478   4.737   3.573   3.185  1.3347 -1.4198 -0.9729
    1PC     H1B 8479   4.669   3.618   3.036  0.9619 -0.0076 -1.1059
    1PC     C32 8480   4.882   3.583   3.009 -0.1901  0.7212 -1.1437
    1PC     H2A 8481   4.979   3.585   3.057 -0.1203  3.0079 -1.3245
    1PC     H2B 8482   4.857   3.478   2.993 -1.1693  0.4511  1.8938
    1PC     N31 8483   4.902   3.650   2.878  0.8783  0.4230 -0.1246
    1PC     C33 8484   4.940   3.789   2.891 -0.1308 -0.4875  0.0411
    1PC     H3A 8485   4.857   3.852   2.923  0.4542  0.2403  0.1399
    1PC     H3B 8486   5.025   3.799   2.959 -0.0262  1.1473 -0.3125
    1PC     H3C 8487   4.978   3.822   2.795  0.8547  0.0562  0.6105
    1PC     C34 8488   4.997   3.568   2.796 -0.4136 -0.1603 -0.0015
    1PC     H4A 8489   5.086   3.539   2.853 -0.0913  0.0367 -0.3993
    1PC     H4B 8490   4.956   3.467   2.791  1.8602 -1.0923 -0.3363
    1PC     H4C 8491   5.018   3.602   2.694  0.5230 -0.8153 -0.0285
    1PC     C35 8492   4.779   3.637   2.797  0.1610 -0.3640  0.3567
    1PC     H5A 8493   4.766   3.534   2.763  0.3997 -0.1547 -0.3730
    1PC     H5B 8494   4.801   3.696   2.708 -0.9457 -1.6393 -0.7873
    1PC     H5C 8495   4.698   3.691   2.848  0.4845  1.3063 -0.8539
    1PC     O33 8496   4.834   3.962   3.271 -0.1004 -0.8891  0.2463
    1PC     O34 8497   4.976   3.751   3.271  0.0893 -0.7347  0.1720
    1PC     O21 8498   4.677   3.840   3.665  0.4304 -0.3327  0.5592
    1PC     C21 8499   4.737   3.898   3.771 -0.2566 -0.4093 -0.3190
    1PC     O22 8500   4.749   4.019   3.772 -0.3884  0.6013 -0.5098
    1OL     C12 8501   4.801   3.799   3.867 -0.3618  0.0472  0.5633
    1OL     H2R 8502   4.904   3.834   3.872 -0.9717  2.0308 -0.2339
    1OL     H2S 8503   4.787   3.700   3.823  1.2411  0.7023 -1.5452
    1OL     C13 8504   4.742   3.801   4.007  0.1753 -0.6894 -0.5062
    1OL     H3R 8505   4.635   3.782   3.998 -0.4879  2.4435  0.2162
    1OL     H3S 8506   4.742   3.901   4.051  1.2068  0.1881 -2.4410
    1OL     C14 8507   4.819   3.710   4.101  0.1364 -0.0088 -0.3382
    1OL     H4R 8508   4.920   3.752   4.093 -0.3392  1.0411 -1.0513
    1OL     H4S 8509   4.813   3.608   4.064  3.0908  1.0239 -4.0125
    1OL     C15 8510   4.774   3.712   4.249 -0.4441 -0.4977 -0.2194
    1OL     H5R 8511   4.767   3.816   4.283 -0.5359 -0.8541  0.8557
    1OL     H5S 8512   4.852   3.672   4.314 -0.7963 -0.3045  0.3207
    1OL     C16 8513   4.639   3.648   4.288 -0.3044 -0.5808  0.0135
    1OL     H6R 8514   4.646   3.542   4.263 -0.5680 -0.2355 -1.6480
    1OL     H6S 8515   4.558   3.689   4.227 -0.9211  1.4784  2.1655
    1OL     C17 8516   4.614   3.659   4.441 -0.6332 -0.6392 -0.3251
    1OL     H7R 8517   4.511   3.632   4.463 -0.4916 -0.4954  0.5337
    1OL     H7S 8518   4.629   3.758   4.485  0.6304 -1.4604  1.1467
    1OL     C18 8519   4.686   3.566   4.538  0.1584  0.2218  0.7347
    1OL     H8R 8520   4.796   3.567   4.535  0.2371 -4.1917 -1.1815
    1OL     H8S 8521   4.662   3.467   4.500  1.1554  0.1345  0.2939
    1OL     C19 8522   4.631   3.579   4.679  0.0254 -0.0377  0.3645
    1OL     H9R 8523   4.661   3.668   4.734  3.9551 -1.9714  1.5780
    1OL    C110 8524   4.558   3.487   4.747  0.2370  0.1303  0.5177
    1OL    H10R 8525   4.520   3.506   4.847 -0.4188  1.4681  0.0263
    1OL    C111 8526   4.520   3.350   4.680 -0.0579  0.1130  0.0207
    1OL    H11R 8527   4.505   3.274   4.757  4.0866 -0.6862  0.1545
    1OL    H11S 8528   4.593   3.312   4.608 -2.0985 -0.9474 -1.5404
    1OL    C112 8529   4.380   3.377   4.614  0.1591  0.6168 -0.0909
    1OL    H12R 8530   4.366   3.469   4.557 -1.2289  1.4234  1.4890
    1OL    H12S 8531   4.312   3.376   4.700  1.4146  2.9739  0.9831
    1OL    C113 8532   4.336   3.268   4.518  0.2710  0.8695  0.1688
    1OL    H13R 8533   4.373   3.173   4.558  2.0234  2.0094  1.3442
    1OL    H13S 8534   4.384   3.284   4.421 -2.2512  1.1428 -1.0755
    1OL    C114 8535   4.175   3.270   4.496 -0.3014  0.1795  0.3779
    1OL    H14R 8536   4.129   3.242   4.591 -0.7984  2.9655  1.0003
    1OL    H14S 8537   4.145   3.201   4.417  1.2424 -1.1925  0.9611
    1OL    C115 8538   4.122   3.410   4.447  0.5783  0.0577 -0.2481
    1OL    H15R 8539   4.149   3.492   4.514 -1.0849  1.3846 -1.1414
    1OL    H15S 8540   4.013   3.419   4.450  0.8173  3.4142  0.8300
    1OL    C116 8541   4.174   3.445   4.308  0.4066  0.0092 -0.0890
    1OL    H16R 8542   4.163   3.357   4.244 -0.5870 -1.3176  1.8611
    1OL    H16S 8543   4.279   3.470   4.321  0.1560  0.2663  1.4482
    1OL    C117 8544   4.114   3.568   4.244 -0.0660  0.1872 -0.7379
    1OL    H17R 8545   4.177   3.603   4.162 -0.0044 -0.9263 -1.1644
    1OL    H17S 8546   4.132   3.652   4.312  2.2106  1.0007 -2.2960
    1OL    C118 8547   3.964   3.560   4.196 -0.9022 -0.2248  0.0740
    1OL    H18R 8548   3.896   3.598   4.273  1.4861  0.0862  2.0966
    1OL    H18S 8549   3.938   3.458   4.167 -2.4305  0.0318  0.4491
    1OL    H18T 8550   3.948   3.626   4.111  0.0330  0.3529  0.3439
    1PA    C116 8551   3.333   4.599   5.410  0.6505 -0.1737  0.1796
    1PA    H16R 8552   3.409   4.666   5.451  1.3173 -0.2038 -0.9844
    1PA    H16S 8553   3.326   4.513   5.477  1.4460  0.1374  0.6707
    1PA    H16T 8554   3.234   4.646   5.410  0.7155 -0.0374 -0.7186
    1PA    C115 8555   3.368   4.541   5.267 -0.3366 -0.0265  0.7365
    1PA    H15R 8556   3.458   4.479   5.263  0.7166  1.5773 -1.7504
    1PA    H15S 8557   3.288   4.469   5.246 -1.6795  2.0649 -1.5983
    1PA    C114 8558   3.363   4.650   5.154  0.0653 -0.3039  0.8436
    1PA    H14R 8559   3.257   4.676   5.143  0.4586 -0.0138 -3.1003
    1PA    H14S 8560   3.411   4.741   5.191  0.4921  0.2240 -0.9521
    1PA    C113 8561   3.411   4.603   5.019 -0.5036 -0.2311 -0.0058
    1PA    H13R 8562   3.515   4.577   5.037 -0.9519 -0.7426  1.9397
    1PA    H13S 8563   3.355   4.514   4.987 -0.4671 -1.0624  2.1735
    1PA    C112 8564   3.401   4.710   4.909  0.8134 -0.9597  0.0208
    1PA    H12R 8565   3.299   4.729   4.874  1.4718  2.2924 -0.3102
    1PA    H12S 8566   3.441   4.805   4.946 -0.0824 -0.8663  0.7603
    1PA    C111 8567   3.482   4.690   4.781  0.3019  0.6392 -0.3627
    1PA    H11R 8568   3.587   4.702   4.808 -0.3342  0.3759  2.3758
    1PA    H11S 8569   3.470   4.588   4.744  1.7140  0.5274 -0.5405
    1PA    C110 8570   3.438   4.787   4.669 -0.0175 -0.0256 -0.0162
    1PA    H10R 8571   3.335   4.752   4.654  0.6953 -1.4825 -1.7363
    1PA    H10S 8572   3.428   4.891   4.699  1.0713  0.7414 -2.2112
    1PA     C19 8573   3.503   4.760   4.537 -0.1323  0.1443  0.0890
    1PA     H9R 8574   3.568   4.673   4.547 -2.6143 -1.6044  1.4770
    1PA     H9S 8575   3.429   4.739   4.460 -2.1024 -0.8776  2.2044
    1PA     C18 8576   3.592   4.874   4.474 -0.4237 -0.2227  0.1215
    1PA     H8R 8577   3.526   4.960   4.486  0.5751  0.5997 -0.2003
    1PA     H8S 8578   3.683   4.889   4.533 -0.1025  0.4704 -0.5378
    1PA     C17 8579   3.632   4.837   4.332  0.3822 -1.4657  0.8382
    1PA     H7R 8580   3.670   4.735   4.326 -0.1039 -1.7333  2.2502
    1PA     H7S 8581   3.539   4.840   4.274  1.3584 -0.4578 -0.7439
    1PA     C16 8582   3.732   4.934   4.266 -0.3590 -0.5590 -0.0799
    1PA     H6R 8583   3.696   5.037   4.270  1.6173  0.2242 -1.3494
    1PA     H6S 8584   3.818   4.929   4.332 -0.7569 -0.9617  0.4113
    1PA     C15 8585   3.766   4.900   4.118 -0.2317 -0.2671  0.2416
    1PA     H5R 8586   3.831   4.978   4.079 -1.9528  1.3857  0.6482
    1PA     H5S 8587   3.823   4.807   4.118  0.4315  0.1293 -0.8263
    1PA     C14 8588   3.656   4.887   4.010  0.3629  0.2509  0.0136
    1PA     H4R 8589   3.572   4.824   4.040  0.4864  0.2495  0.3621
    1PA     H4S 8590   3.611   4.986   4.003 -1.4783 -0.5212  0.5011
    1PA     C13 8591   3.704   4.842   3.875  0.4475  0.3496 -0.9216
    1PA     H3R 8592   3.765   4.920   3.829  0.8426 -0.2768 -1.4677
    1PA     H3S 8593   3.774   4.759   3.880  1.1324  0.9072 -1.1574
    1PA     C12 8594   3.599   4.799   3.778  0.4908 -0.1934 -0.2456
    1PA     H2R 8595   3.516   4.748   3.828 -1.0967 -1.2926 -3.8433
    1PA     H2S 8596   3.545   4.883   3.734 -0.7442 -1.0380 -0.3702
    1PC     C11 8597   3.651   4.714   3.665 -0.3554 -0.5505  0.2955
    1PC     O12 8598   3.755   4.739   3.605 -0.2101 -0.5048 -0.2246
    1PC     O11 8599   3.562   4.626   3.616  0.0932  0.1490 -0.3877
    1PC      C1 8600   3.606   4.529   3.516  1.2644  0.2783  0.3312
    1PC      HR 8601   3.629   4.585   3.425 -0.4380 -1.0737 -0.9675
    1PC      HS 8602   3.699   4.478   3.541  1.5533  1.1431  1.0597
    1PC      C2 8603   3.496   4.434   3.474  0.8991 -0.2494  0.3676
    1PC      HX 8604   3.543   4.362   3.406  0.5907  0.3627 -0.4980
    1PC      C3 8605   3.381   4.519   3.415 -0.0273  0.3554 -0.0260
    1PC      HA 8606   3.306   4.551   3.488  0.1461 -0.9784  0.7455
    1PC      HB 8607   3.423   4.613   3.378  0.1655  0.2469 -0.0826
    1PC     O31 8608   3.321   4.446   3.302 -0.2648  0.0335  0.2833
    1PC     P31 8609   3.218   4.524   3.210 -0.1479 -0.7228  0.0868
    1PC     O32 8610   3.073   4.504   3.293 -0.0396  0.4429  0.4081
    1PC     C31 8611   2.983   4.398   3.255 -0.8886 -0.1887 -0.2661
    1PC     H1A 8612   2.894   4.432   3.308 -1.3785 -0.5651 -0.8386
    1PC     H1B 8613   2.968   4.399   3.146  0.4564  0.4406 -0.4577
    1PC     C32 8614   3.021   4.264   3.304  0.0283  0.3245  0.1750
    1PC     H2A 8615   2.932   4.210   3.271  1.0971 -1.2001 -0.3082
    1PC     H2B 8616   3.113   4.235   3.254  1.0607  1.8364  1.1876
    1PC     N31 8617   3.021   4.236   3.458 -0.5209  0.6107  0.6357
    1PC     C33 8618   2.887   4.251   3.515 -0.4277  0.6320 -0.4330
    1PC     H3A 8619   2.859   4.356   3.506 -0.5368  0.5604 -0.9562
    1PC     H3B 8620   2.826   4.179   3.461 -0.8320  0.0265  0.8061
    1PC     H3C 8621   2.903   4.226   3.620  2.0525  1.0611 -0.6877
    1PC     C34 8622   3.061   4.090   3.468 -0.0557 -0.0173 -0.6925
    1PC     H4A 8623   3.159   4.087   3.420 -1.0522  1.4845 -2.8752
    1PC     H4B 8624   3.073   4.068   3.575  1.3993 -0.5040 -0.9371
    1PC     H4C 8625   2.991   4.026   3.414  0.0467  1.8405 -3.1040
    1PC     C35 8626   3.116   4.328   3.528 -0.1669 -0.0360  0.9438
    1PC     H5A 8627   3.086   4.429   3.500  1.7660  0.6801  1.3512
    1PC     H5B 8628   3.215   4.309   3.486 -0.2921  1.4838 -0.0597
    1PC     H5C 8629   3.130   4.310   3.635 -0.9618  0.2533  1.0975
    1PC     O33 8630   3.247   4.672   3.217 -0.1428  0.9509  0.4591
    1PC     O34 8631   3.210   4.456   3.083  0.4341 -0.5213  0.2497
    1PC     O21 8632   3.429   4.363   3.581  0.3876 -0.4850  0.0025
    1PC     C21 8633   3.502   4.295   3.674  0.1738 -0.5033  1.2713
    1PC     O22 8634   3.629   4.295   3.681 -0.5639 -0.1276  0.1036
    1OL     C12 8635   3.415   4.224   3.778  0.6698 -0.0721  0.1488
    1OL     H2R 8636   3.476   4.146   3.823  0.5629 -0.9106 -1.1259
    1OL     H2S 8637   3.336   4.172   3.724  1.2202 -0.9284  0.1692
    1OL     C13 8638   3.364   4.317   3.890 -0.7126 -0.1555 -0.5448
    1OL     H3R 8639   3.315   4.246   3.957 -1.6104  1.9017  1.0428
    1OL     H3S 8640   3.288   4.381   3.846  1.0770  0.3094 -3.0606
    1OL     C14 8641   3.475   4.394   3.966  0.4801 -0.1572 -0.1832
    1OL     H4R 8642   3.526   4.466   3.902 -0.3629  0.3491 -0.2873
    1OL     H4S 8643   3.546   4.327   4.015  0.2763  1.8676  3.0614
    1OL     C15 8644   3.419   4.468   4.084 -0.3443  0.7812 -0.0840
    1OL     H5R 8645   3.322   4.507   4.053  0.1148  0.6824 -1.7031
    1OL     H5S 8646   3.484   4.551   4.112  0.7398 -0.6224  1.6871
    1OL     C16 8647   3.387   4.384   4.215 -0.0454 -0.5054  1.0471
    1OL     H6R 8648   3.479   4.332   4.240  1.1085  0.4163 -1.1383
    1OL     H6S 8649   3.315   4.305   4.194 -0.7320  0.0030  1.4376
    1OL     C17 8650   3.352   4.462   4.344 -0.5011 -0.3554 -0.2280
    1OL     H7R 8651   3.428   4.539   4.360 -0.2902 -0.9809  1.9647
    1OL     H7S 8652   3.355   4.396   4.430  2.7180 -0.4803 -0.3780
    1OL     C18 8653   3.216   4.528   4.330  0.0269  0.0007  0.5146
    1OL     H8R 8654   3.208   4.594   4.244  1.5203  0.3341  0.6266
    1OL     H8S 8655   3.184   4.596   4.409 -0.8247  1.4175 -1.0008
    1OL     C19 8656   3.118   4.426   4.323 -0.3291 -0.5382  0.0998
    1OL     H9R 8657   3.106   4.394   4.220  0.6648  0.9910 -0.5034
    1OL    C110 8658   3.045   4.369   4.417  0.8368  0.3042  0.2634
    1OL    H10R 8659   2.973   4.292   4.392  3.0361 -1.2381 -1.4710
    1OL    C111 8660   3.056   4.403   4.564 -0.7673  0.4374 -0.0161
    1OL    H11R 8661   2.965   4.458   4.590 -0.2883  1.8387 -1.2638
    1OL    H11S 8662   3.147   4.461   4.581 -0.5582 -0.3477  1.7185
    1OL    C112 8663   3.060   4.283   4.656 -0.4467  0.8115  0.1247
    1OL    H12R 8664   3.130   4.209   4.619 -0.1382  1.0735  0.1851
    1OL    H12S 8665   2.959   4.242   4.663 -0.4591  1.0124  1.1547
    1OL    C113 8666   3.105   4.318   4.795  0.1286  0.6190 -0.3085
    1OL    H13R 8667   3.202   4.368   4.794  0.4222  0.1212  1.4661
    1OL    H13S 8668   3.120   4.226   4.851 -0.6824  1.0801  0.7128
    1OL    C114 8669   3.009   4.412   4.871 -0.7176 -0.1621  0.6489
    1OL    H14R 8670   2.955   4.467   4.793  1.8268 -1.1270 -1.8661
    1OL    H14S 8671   3.060   4.485   4.934 -0.2277 -0.3761  0.5010
    1OL    C115 8672   2.906   4.330   4.950  0.1946  0.3770 -0.6395
    1OL    H15R 8673   2.955   4.252   5.008  0.9417  0.9672 -0.4601
    1OL    H15S 8674   2.841   4.273   4.884 -0.1493 -0.4734  0.4132
    1OL    C116 8675   2.819   4.421   5.042 -0.2254 -0.1164 -1.6288
    1OL    H16R 8676   2.783   4.507   4.986  0.6333  1.0790 -0.3902
    1OL    H16S 8677   2.881   4.458   5.124 -0.0180  0.0379 -1.8526
    1OL    C117 8678   2.706   4.341   5.104 -0.0194  0.3176  0.2550
    1OL    H17R 8679   2.747   4.253   5.153  1.7966  0.7389 -0.4426
    1OL    H17S 8680   2.637   4.315   5.023  0.2860  1.5814 -0.4272
    1OL    C118 8681   2.627   4.429   5.200  0.8354 -0.3278 -0.9267
    1OL    H18R 8682   2.559   4.373   5.264 -0.5842  1.7359 -0.5960
    1OL    H18S 8683   2.560   4.493   5.143 -0.2483 -1.0271 -0.4440
    1OL    H18T 8684   2.693   4.481   5.270 -0.1444 -2.3527  1.6056
    1PA    C116 8685   1.107   2.450   4.435  0.3966 -0.1016  1.0525
    1PA    H16R 8686   1.204   2.459   4.483  0.8801  0.2319  0.0309
    1PA    H16S 8687   1.049   2.542   4.450  1.5949  1.0180 -0.9048
    1PA    H16T 8688   1.133   2.445   4.329 -0.7247  1.5828  0.6656
    1PA    C115 8689   1.024   2.324   4.462  0.6570  0.3926 -0.2574
    1PA    H15R 8690   1.092   2.244   4.490 -1.2585 -0.9801  0.6348
    1PA    H15S 8691   0.968   2.361   4.549  2.1921 -2.0079  1.8204
    1PA    C114 8692   0.944   2.277   4.350 -0.3532  0.4628  0.1532
    1PA    H14R 8693   0.878   2.354   4.309 -0.0312 -0.4735 -2.1897
    1PA    H14S 8694   1.017   2.250   4.273  0.1074 -1.2646  1.1687
    1PA    C113 8695   0.865   2.142   4.379 -0.1928 -0.5511 -0.0530
    1PA    H13R 8696   0.798   2.162   4.463  1.7708 -0.4024  1.5330
    1PA    H13S 8697   0.801   2.126   4.292 -1.4473  3.8914 -0.0922
    1PA    C112 8698   0.944   2.019   4.432  0.0373 -0.1690  0.2084
    1PA    H12R 8699   0.981   2.053   4.529  0.5768  0.0691 -0.0794
    1PA    H12S 8700   0.877   1.934   4.450  0.1483 -0.1976  0.4987
    1PA    C111 8701   1.074   1.982   4.351 -0.2733 -0.0605 -1.1615
    1PA    H11R 8702   1.143   2.066   4.361 -1.2393  0.5197  0.8870
    1PA    H11S 8703   1.131   1.912   4.412 -0.0363  2.2501  1.3594
    1PA    C110 8704   1.060   1.938   4.204  0.9475 -0.2428 -0.6481
    1PA    H10R 8705   1.113   1.845   4.188  2.3748  0.6441 -1.1581
    1PA    H10S 8706   0.954   1.912   4.193  0.0889  1.2896  3.1540
    1PA     C19 8707   1.110   2.056   4.113 -0.0207 -0.6607  0.4530
    1PA     H9R 8708   1.034   2.132   4.094  2.0218  0.8350 -2.1867
    1PA     H9S 8709   1.200   2.097   4.159  2.1040 -1.7065 -2.6469
    1PA     C18 8710   1.149   2.008   3.972 -0.2146 -0.6535  0.0164
    1PA     H8R 8711   1.232   1.938   3.984  0.1011 -0.2029  0.5176
    1PA     H8S 8712   1.066   1.961   3.919 -0.3103 -1.0298  0.5002
    1PA     C17 8713   1.215   2.127   3.899 -0.7802 -0.8694 -0.2906
    1PA     H7R 8714   1.152   2.216   3.896  1.2878  0.6898  1.2510
    1PA     H7S 8715   1.305   2.155   3.954  1.4141 -3.3786 -2.4239
    1PA     C16 8716   1.261   2.097   3.753 -0.6072 -0.0474  0.5370
    1PA     H6R 8717   1.318   2.004   3.744 -0.6498  0.1294 -1.9536
    1PA     H6S 8718   1.176   2.088   3.685 -2.1114 -1.5296  2.5808
    1PA     C15 8719   1.340   2.214   3.696  0.3224 -1.0645  0.8955
    1PA     H5R 8720   1.431   2.227   3.755  0.3790 -2.1434  1.0641
    1PA     H5S 8721   1.365   2.194   3.591 -0.8342 -0.7591  0.5553
    1PA     C14 8722   1.272   2.352   3.690  0.1947 -0.8549 -0.1871
    1PA     H4R 8723   1.177   2.351   3.637 -0.0079 -2.4911  0.1663
    1PA     H4S 8724   1.258   2.377   3.795  0.9271 -0.6422 -0.1378
    1PA     C13 8725   1.366   2.458   3.635  0.6930 -0.9868  0.4630
    1PA     H3R 8726   1.456   2.461   3.697  0.0427  2.3049  1.3404
    1PA     H3S 8727   1.394   2.441   3.531  0.4825 -2.1354  0.5827
    1PA     C12 8728   1.310   2.599   3.642  0.0659 -0.5551 -0.3958
    1PA     H2R 8729   1.277   2.615   3.745  1.1209 -1.3462  0.0814
    1PA     H2S 8730   1.386   2.675   3.628 -0.5772 -0.0735 -1.2840
    1PC     C11 8731   1.196   2.626   3.553  0.4132  0.1363 -0.5695
    1PC     O12 8732   1.203   2.657   3.434  0.1882 -0.1953  0.0898
    1PC     O11 8733   1.083   2.613   3.626  0.6762  0.1454 -0.3166
    1PC      C1 8734   0.955   2.631   3.564 -0.2518 -0.9225  0.0374
    1PC      HR 8735   0.868   2.649   3.627 -0.3614 -1.3507  0.0092
    1PC      HS 8736   0.968   2.710   3.489  1.0556 -1.1135  0.0414
    1PC      C2 8737   0.909   2.504   3.492  0.0176  0.3541 -0.0487
    1PC      HX 8738   0.987   2.462   3.429 -0.3855 -2.5339  1.3006
    1PC      C3 8739   0.773   2.526   3.406 -0.0460  0.1771 -0.0252
    1PC      HA 8740   0.733   2.426   3.385  1.4347 -0.0295 -1.9830
    1PC      HB 8741   0.706   2.582   3.470  1.0689  0.4903  0.8865
    1PC     O31 8742   0.801   2.594   3.282  0.3178  0.2760  0.3270
    1PC     P31 8743   0.828   2.518   3.146 -0.3115  0.2041 -0.1289
    1PC     O32 8744   0.705   2.418   3.134  0.1394  0.2039 -0.3685
    1PC     C31 8745   0.572   2.471   3.101 -0.1711  0.1692  0.3070
    1PC     H1A 8746   0.546   2.556   3.165  1.2086 -1.9602  3.8008
    1PC     H1B 8747   0.575   2.503   2.996 -0.0727  1.5411  0.7181
    1PC     C32 8748   0.474   2.362   3.124  0.3297  0.4029 -0.3208
    1PC     H2A 8749   0.376   2.385   3.083  0.6537  0.8204 -0.8632
    1PC     H2B 8750   0.497   2.274   3.065  2.1653  0.3604  0.4154
    1PC     N31 8751   0.451   2.306   3.264  0.3853 -0.0073  0.5607
    1PC     C33 8752   0.566   2.233   3.321  0.1145 -0.8859  0.3904
    1PC     H3A 8753   0.666   2.260   3.286 -0.2469 -0.4580 -0.3094
    1PC     H3B 8754   0.550   2.242   3.428 -0.3617  1.5745  0.1238
    1PC     H3C 8755   0.548   2.128   3.296 -0.6179 -0.6786  0.0487
    1PC     C34 8756   0.423   2.422   3.349 -0.3007 -0.2167  0.1897
    1PC     H4A 8757   0.518   2.469   3.375 -0.1968 -0.1212 -0.3717
    1PC     H4B 8758   0.359   2.490   3.292  0.6771  1.2993  0.8844
    1PC     H4C 8759   0.381   2.399   3.447 -0.6234 -2.1879 -0.3827
    1PC     C35 8760   0.337   2.211   3.264  0.2506 -0.0306 -0.0474
    1PC     H5A 8761   0.353   2.116   3.213 -0.5067 -0.6777  0.8941
    1PC     H5B 8762   0.247   2.255   3.221  0.0322 -0.3426  0.0816
    1PC     H5C 8763   0.313   2.193   3.370  1.1434 -1.3354 -0.0510
    1PC     O33 8764   0.825   2.619   3.037  0.0671 -0.4250  0.3761
    1PC     O34 8765   0.953   2.448   3.164 -0.5393 -0.3369 -0.6050
    1PC     O21 8766   0.878   2.408   3.597 -0.3055  0.0406  0.2640
    1PC     C21 8767   0.873   2.278   3.568  0.5091  0.6880  0.1534
    1PC     O22 8768   0.872   2.230   3.456  0.3247 -0.1340  0.2180
    1OL     C12 8769   0.875   2.202   3.701 -0.0265 -0.7244 -0.0831
    1OL     H2R 8770   0.924   2.266   3.775 -0.6434 -1.4146  0.9404
    1OL     H2S 8771   0.944   2.118   3.694  1.5470  0.5106  0.4500
    1OL     C13 8772   0.733   2.169   3.737 -0.2385  0.2728 -0.1883
    1OL     H3R 8773   0.696   2.106   3.655  1.0576 -0.8643  0.0651
    1OL     H3S 8774   0.660   2.250   3.734  1.2785  1.6390 -0.8553
    1OL     C14 8775   0.707   2.116   3.878 -0.3080 -0.8075  0.0870
    1OL     H4R 8776   0.752   2.190   3.945 -2.8433  1.6037 -0.7810
    1OL     H4S 8777   0.758   2.020   3.892 -1.4604 -1.5193 -0.4814
    1OL     C15 8778   0.554   2.093   3.909 -0.1555  0.4511 -0.2156
    1OL     H5R 8779   0.525   1.998   3.863  0.7160 -0.5719  1.3106
    1OL     H5S 8780   0.492   2.170   3.862 -1.5170 -0.4926 -0.0118
    1OL     C16 8781   0.517   2.063   4.058 -0.3352 -0.4163  0.2978
    1OL     H6R 8782   0.408   2.063   4.071 -0.1345 -1.5699  2.1876
    1OL     H6S 8783   0.565   2.150   4.102 -2.1370 -0.0644  1.6364
    1OL     C17 8784   0.576   1.927   4.112  0.4261 -0.1707  0.3968
    1OL     H7R 8785   0.684   1.936   4.126  0.2797  1.0182  0.7804
    1OL     H7S 8786   0.559   1.851   4.035  0.8080  1.0499 -0.9058
    1OL     C18 8787   0.514   1.881   4.250  0.4723  0.4619 -0.0098
    1OL     H8R 8788   0.541   1.776   4.267  1.9058  0.6478 -0.9978
    1OL     H8S 8789   0.408   1.904   4.243  0.7417  1.8322  0.3341
    1OL     C19 8790   0.575   1.966   4.365  0.5441  0.2470 -0.0525
    1OL     H9R 8791   0.608   2.067   4.341  1.3798  0.3882  1.6147
    1OL    C110 8792   0.591   1.919   4.487 -0.0272 -0.1375 -0.6403
    1OL    H10R 8793   0.624   1.998   4.554  1.6062 -0.1294 -1.4177
    1OL    C111 8794   0.557   1.782   4.535  0.1146 -0.0624  0.1167
    1OL    H11R 8795   0.473   1.740   4.479 -0.3852 -0.4557  1.1582
    1OL    H11S 8796   0.523   1.787   4.638 -2.1137 -1.0298 -0.5407
    1OL    C112 8797   0.665   1.677   4.530  0.2192  0.3124 -0.3747
    1OL    H12R 8798   0.693   1.680   4.424  0.8060  0.4892 -0.2173
    1OL    H12S 8799   0.622   1.580   4.556  2.8023 -0.1190  2.6554
    1OL    C113 8800   0.783   1.699   4.615  0.4056 -0.1094  0.4783
    1OL    H13R 8801   0.752   1.689   4.719  0.4483 -0.2526  0.4761
    1OL    H13S 8802   0.825   1.798   4.596  0.1840  0.0327  0.7239
    1OL    C114 8803   0.889   1.592   4.588 -1.3665 -0.3853 -0.2676
    1OL    H14R 8804   0.883   1.563   4.482  0.7242 -2.1682  0.0628
    1OL    H14S 8805   0.882   1.511   4.660 -0.1331 -1.3054 -1.1549
    1OL    C115 8806   1.024   1.651   4.612 -0.2853 -0.0835  0.0127
    1OL    H15R 8807   1.017   1.715   4.700 -1.0177  0.5152 -0.4763
    1OL    H15S 8808   1.040   1.726   4.535  1.9339 -0.4564  0.0552
    1OL    C116 8809   1.142   1.543   4.611  0.8373  0.5918 -0.1140
    1OL    H16R 8810   1.149   1.494   4.514 -0.8345 -0.2539  0.1739
    1OL    H16S 8811   1.118   1.461   4.679  0.5004 -1.3872 -2.5507
    1OL    C117 8812   1.275   1.603   4.654  0.0030  1.2378  0.3284
    1OL    H17R 8813   1.262   1.659   4.747  0.6999  1.0046  0.5675
    1OL    H17S 8814   1.307   1.678   4.581 -0.6748 -0.4293 -1.7597
    1OL    C118 8815   1.390   1.499   4.671  0.3021  0.3612  0.2002
    1OL    H18R 8816   1.488   1.539   4.696 -0.1630  1.3879  0.3803
    1OL    H18S 8817   1.408   1.436   4.584 -0.1990 -1.1401  1.1591
    1OL    H18T 8818   1.358   1.425   4.744 -2.8662  1.3888 -0.0580
    1PA    C116 8819   4.565   3.142   5.062 -0.7394 -0.5035 -0.1848
    1PA    H16R 8820   4.669   3.149   5.029 -0.1920  0.1657  1.5922
    1PA    H16S 8821   4.558   3.179   5.165  0.4882  2.0816 -0.9671
    1PA    H16T 8822   4.507   3.202   4.991 -0.8389  0.4160  0.6636
    1PA    C115 8823   4.521   2.996   5.055 -0.5361 -0.0538  0.2223
    1PA    H15R 8824   4.591   2.938   5.116 -0.1383  0.9658  0.7387
    1PA    H15S 8825   4.417   2.996   5.088 -0.5711 -0.1156  0.1106
    1PA    C114 8826   4.518   2.931   4.917  0.2128  0.0865 -0.0384
    1PA    H14R 8827   4.481   2.829   4.933 -2.2251  0.8598 -0.5036
    1PA    H14S 8828   4.444   2.980   4.854 -1.2492 -2.0576 -0.0560
    1PA    C113 8829   4.656   2.935   4.845 -0.2055  0.6639 -0.6519
    1PA    H13R 8830   4.686   3.036   4.815 -0.0598  0.5089 -1.0282
    1PA    H13S 8831   4.732   2.907   4.918 -1.0581 -0.5178 -0.2073
    1PA    C112 8832   4.661   2.842   4.716 -0.0455 -0.5338  0.6900
    1PA    H12R 8833   4.766   2.820   4.695  0.5854  1.1709  1.9577
    1PA    H12S 8834   4.609   2.748   4.735 -1.1419  0.1880  1.3218
    1PA    C111 8835   4.597   2.914   4.599 -0.3358 -0.2803 -0.6041
    1PA    H11R 8836   4.528   2.986   4.642  0.9790  0.2864  0.5921
    1PA    H11S 8837   4.676   2.972   4.549 -0.4803  1.4982  1.1984
    1PA    C110 8838   4.528   2.816   4.508  0.8571  0.1402  0.4259
    1PA    H10R 8839   4.611   2.764   4.459  0.3710  0.0896 -0.3576
    1PA    H10S 8840   4.476   2.741   4.567  0.1198 -0.2704 -0.7234
    1PA     C19 8841   4.432   2.865   4.395  0.6394 -0.3036  0.0913
    1PA     H9R 8842   4.398   2.775   4.344 -0.6970 -0.8098  1.8218
    1PA     H9S 8843   4.343   2.915   4.435 -0.0444 -0.3642 -1.3194
    1PA     C18 8844   4.505   2.955   4.295  0.2181 -0.3060  0.1446
    1PA     H8R 8845   4.527   3.041   4.359  1.5239 -0.5416  0.0193
    1PA     H8S 8846   4.596   2.903   4.266  1.6652  1.4208  1.5108
    1PA     C17 8847   4.416   3.013   4.180  0.5033 -0.3109  0.0220
    1PA     H7R 8848   4.399   2.924   4.120 -1.9042 -0.4094  0.8181
    1PA     H7S 8849   4.322   3.048   4.223  0.2828 -0.1621 -0.5671
    1PA     C16 8850   4.480   3.125   4.093 -0.2516 -0.2565  0.3057
    1PA     H6R 8851   4.545   3.183   4.159  2.3884 -2.2081 -0.5175
    1PA     H6S 8852   4.543   3.070   4.023  2.2520  1.8688  0.8073
    1PA     C15 8853   4.379   3.210   4.021  0.8537 -0.0570 -0.0076
    1PA     H5R 8854   4.309   3.133   3.989 -0.4813  0.2677  2.0111
    1PA     H5S 8855   4.324   3.261   4.102  0.5231 -0.5231  0.0640
    1PA     C14 8856   4.427   3.290   3.899  0.3940  0.0236  0.4277
    1PA     H4R 8857   4.495   3.225   3.843  0.5435 -0.2947  0.9771
    1PA     H4S 8858   4.344   3.326   3.838  1.9293 -2.8155 -3.5405
    1PA     C13 8859   4.514   3.412   3.924  0.2983 -0.6108 -0.0221
    1PA     H3R 8860   4.486   3.453   4.020  0.5805 -1.5426  0.4717
    1PA     H3S 8861   4.617   3.380   3.942  0.2439  0.2627  1.8690
    1PA     C12 8862   4.509   3.533   3.822 -0.5306 -0.7281  0.7485
    1PA     H2R 8863   4.407   3.571   3.832 -0.9348 -1.6386  0.1357
    1PA     H2S 8864   4.580   3.606   3.860 -0.0824 -0.2627 -0.9430
    1PC     C11 8865   4.537   3.490   3.680  0.0625 -0.2081 -0.5235
    1PC     O12 8866   4.453   3.471   3.593 -0.4454 -0.0592 -0.7558
    1PC     O11 8867   4.671   3.483   3.656  0.4744  0.3115  0.7296
    1PC      C1 8868   4.718   3.436   3.520 -0.0908 -0.0946 -0.4736
    1PC      HR 8869   4.651   3.353   3.499  0.9162 -0.9364 -0.3937
    1PC      HS 8870   4.704   3.517   3.449 -1.1424  0.5778  0.4874
    1PC      C2 8871   4.868   3.399   3.524 -0.0540 -0.2275  0.4784
    1PC      HX 8872   4.911   3.498   3.542 -2.2149  1.3811 -2.6096
    1PC      C3 8873   4.926   3.329   3.400  0.1374  0.1860  0.0493
    1PC      HA 8874   4.934   3.408   3.326 -1.5678  0.5334  0.2104
    1PC      HB 8875   5.023   3.284   3.423  0.1610  0.4600  0.5023
    1PC     O31 8876   4.839   3.221   3.370 -0.0512  0.3676  0.2030
    1PC     P31 8877   4.855   3.159   3.224 -0.3335  0.0058 -0.1636
    1PC     O32 8878   5.004   3.099   3.228  0.3472 -0.0563  0.4912
    1PC     C31 8879   5.032   2.969   3.285  0.2121 -0.3821  0.5712
    1PC     H1A 8880   5.136   2.964   3.320  0.2824  0.0191  0.4243
    1PC     H1B 8881   4.965   2.944   3.368  1.2727 -1.4723  1.1246
    1PC     C32 8882   5.032   2.854   3.166  0.3876 -0.5965 -0.3720
    1PC     H2A 8883   5.066   2.760   3.209 -1.4648 -1.0197  0.2258
    1PC     H2B 8884   4.927   2.835   3.141  0.2420 -0.8107  0.3912
    1PC     N31 8885   5.117   2.878   3.046 -0.0276  0.4009 -0.5489
    1PC     C33 8886   5.251   2.930   3.078 -0.2230  0.5573 -0.0401
    1PC     H3A 8887   5.302   2.947   2.983 -0.6464  2.2474  0.0239
    1PC     H3B 8888   5.250   3.015   3.147 -0.0659  1.3823 -1.0320
    1PC     H3C 8889   5.306   2.852   3.130  1.5371  0.1823 -2.3790
    1PC     C34 8890   5.140   2.754   2.967  0.0989 -0.3978 -0.3559
    1PC     H4A 8891   5.043   2.713   2.939 -0.7619 -0.7225  2.8442
    1PC     H4B 8892   5.190   2.771   2.871 -0.4238 -3.3714 -1.2113
    1PC     H4C 8893   5.194   2.678   3.024 -1.3030 -0.4610  0.9146
    1PC     C35 8894   5.044   2.974   2.960  0.1288 -1.1957  0.1536
    1PC     H5A 8895   5.087   2.967   2.860  1.3152  2.6580  0.3073
    1PC     H5B 8896   5.065   3.075   2.996 -0.6736 -0.5569 -1.1140
    1PC     H5C 8897   4.937   2.957   2.971 -0.3542  0.3620 -1.6720
    1PC     O33 8898   4.766   3.037   3.230 -0.2351 -0.6573 -0.0869
    1PC     O34 8899   4.851   3.250   3.114 -0.1829 -0.0061 -0.3799
    1PC     O21 8900   4.893   3.306   3.638 -0.0321  0.1982  0.2521
    1PC     C21 8901   4.933   3.357   3.758 -0.0776 -0.4047 -0.0434
    1PC     O22 8902   4.965   3.475   3.776  0.5513  0.2345  0.2339
    1OL     C12 8903   4.921   3.257   3.868  0.6237 -0.1218 -0.3396
    1OL     H2R 8904   5.000   3.182   3.869 -0.0970 -0.9215 -1.4283
    1OL     H2S 8905   4.832   3.197   3.848 -0.8489  1.2673  1.8230
    1OL     C13 8906   4.917   3.321   4.012  1.0158 -0.1027  0.0840
    1OL     H3R 8907   4.834   3.390   4.028  0.3326 -0.8445 -0.2380
    1OL     H3S 8908   5.003   3.388   4.020 -2.2219  4.2167  0.6455
    1OL     C14 8909   4.898   3.216   4.123  0.1379 -0.1609 -0.2566
    1OL     H4R 8910   4.991   3.159   4.132 -0.8048 -1.3417  2.3515
    1OL     H4S 8911   4.826   3.144   4.083 -0.3214 -0.4515  1.0806
    1OL     C15 8912   4.867   3.278   4.260  0.0883 -0.1060  0.0380
    1OL     H5R 8913   4.777   3.339   4.251  0.9816  1.6491  2.6305
    1OL     H5S 8914   4.944   3.354   4.272  0.4136 -0.7292  1.9625
    1OL     C16 8915   4.857   3.175   4.371  0.5696  0.2337  0.1287
    1OL     H6R 8916   4.932   3.098   4.352 -0.3040 -1.1899  2.1644
    1OL     H6S 8917   4.763   3.122   4.388  1.0152  0.3749  3.3958
    1OL     C17 8918   4.896   3.254   4.500  0.6477 -0.1197 -0.0408
    1OL     H7R 8919   4.828   3.335   4.523 -0.5404 -0.7868 -1.1566
    1OL     H7S 8920   4.999   3.290   4.509  0.5475 -0.2590  2.0737
    1OL     C18 8921   4.877   3.165   4.624 -0.1459 -0.4179 -0.2224
    1OL     H8R 8922   4.948   3.082   4.619  0.3996 -0.0930  1.7107
    1OL     H8S 8923   4.778   3.118   4.622  0.1990 -1.1157 -2.6159
    1OL     C19 8924   4.882   3.246   4.750  0.3559 -0.0295 -0.3494
    1OL     H9R 8925   4.820   3.336   4.743 -2.3270 -1.7773  0.2687
    1OL    C110 8926   4.952   3.208   4.854 -0.1149 -0.1603 -0.6374
    1OL    H10R 8927   4.949   3.271   4.943 -1.3434 -0.4818 -0.4426
    1OL    C111 8928   5.036   3.076   4.876  0.5160 -0.2916 -0.9771
    1OL    H11R 8929   5.137   3.116   4.859  0.9909 -1.7134 -1.6044
    1OL    H11S 8930   5.014   2.994   4.808 -1.6949 -0.5513  0.0260
    1OL    C112 8931   5.023   3.035   5.025  0.0523 -0.1289 -0.2903
    1OL    H12R 8932   4.921   3.003   5.047  0.6913 -0.8882  1.6375
    1OL    H12S 8933   5.048   3.116   5.094 -1.3371 -0.7996  1.0311
    1OL    C113 8934   5.122   2.916   5.051  0.4197  0.1108  0.7236
    1OL    H13R 8935   5.213   2.956   5.006 -1.1638  1.9400 -0.9564
    1OL    H13S 8936   5.088   2.831   4.992  0.1135 -1.1145  2.6261
    1OL    C114 8937   5.148   2.877   5.202 -0.3275 -0.0687 -0.5623
    1OL    H14R 8938   5.056   2.850   5.255 -0.9723  0.7778 -1.2294
    1OL    H14S 8939   5.194   2.952   5.266  0.0005 -1.1364  0.4747
    1OL    C115 8940   5.248   2.764   5.211 -0.7680  0.0097 -0.3531
    1OL    H15R 8941   5.334   2.776   5.144 -0.9316  2.2586 -0.2164
    1OL    H15S 8942   5.196   2.674   5.179 -1.6657  0.3623  0.0993
    1OL    C116 8943   5.317   2.738   5.345  0.0931  0.2535  0.4762
    1OL    H16R 8944   5.378   2.648   5.331 -0.6437 -0.0774 -0.6435
    1OL    H16S 8945   5.238   2.712   5.415  0.1718  0.3639  0.6056
    1OL    C117 8946   5.390   2.854   5.415 -0.1070 -0.5053  0.0732
    1OL    H17R 8947   5.393   2.843   5.524 -0.4071 -0.7064  0.0625
    1OL    H17S 8948   5.334   2.948   5.402  1.7959  0.6769  0.2684
    1OL    C118 8949   5.533   2.861   5.374 -0.1160 -0.3198 -0.5206
    1OL    H18R 8950   5.574   2.937   5.441 -0.8397 -0.2067 -0.1969
    1OL    H18S 8951   5.541   2.891   5.269 -0.6839 -0.5628 -0.6401
    1OL    H18T 8952   5.567   2.759   5.391 -0.0269 -0.6613 -2.6540
    1PA    C116 8953   2.971   4.755   4.829  0.1699  0.3905 -0.2154
    1PA    H16R 8954   2.897   4.712   4.761  1.4282 -0.4577 -1.0749
    1PA    H16S 8955   2.933   4.730   4.929  0.9742 -2.1886 -0.5092
    1PA    H16T 8956   3.070   4.712   4.811  0.0159  0.2543 -0.7453
    1PA    C115 8957   2.983   4.913   4.827 -0.3899  0.5730  0.3532
    1PA    H15R 8958   3.066   4.940   4.893 -0.3693  1.5070 -0.0493
    1PA    H15S 8959   3.018   4.951   4.731 -0.4643  1.2281  0.5848
    1PA    C114 8960   2.844   4.974   4.859  0.8826 -0.1027  0.1426
    1PA    H14R 8961   2.802   4.906   4.933  1.6091 -0.8919 -0.1627
    1PA    H14S 8962   2.847   5.073   4.904 -1.3471  0.1231 -0.1274
    1PA    C113 8963   2.753   4.984   4.731 -0.2233  0.0964 -0.0837
    1PA    H13R 8964   2.796   5.057   4.662 -1.5227  1.2372  0.2791
    1PA    H13S 8965   2.748   4.893   4.671 -1.3297  0.6381 -0.8472
    1PA    C112 8966   2.614   5.038   4.770  0.2506 -0.3387 -0.2640
    1PA    H12R 8967   2.582   4.972   4.851  0.6626 -1.2415 -0.8324
    1PA    H12S 8968   2.614   5.144   4.794  0.5919 -1.2624  4.2533
    1PA    C111 8969   2.507   5.008   4.655  0.1589  0.2090 -0.2549
    1PA    H11R 8970   2.500   4.902   4.632 -0.0333  0.4031 -1.1239
    1PA    H11S 8971   2.405   5.038   4.681 -0.5443 -2.0251 -0.3814
    1PA    C110 8972   2.542   5.064   4.515  0.9112 -0.1506  0.1161
    1PA    H10R 8973   2.548   5.172   4.505  1.7285 -0.3916 -2.4579
    1PA    H10S 8974   2.639   5.018   4.495  0.5274  0.1671 -2.6819
    1PA     C19 8975   2.455   5.018   4.399 -1.3188 -0.1259 -0.0083
    1PA     H9R 8976   2.467   4.910   4.395  0.7569  0.0986 -0.5197
    1PA     H9S 8977   2.349   5.030   4.422 -1.7883 -0.0913 -2.0973
    1PA     C18 8978   2.507   5.075   4.263  0.6765  0.0333  0.9820
    1PA     H8R 8979   2.481   5.180   4.254 -4.4092 -1.2159 -0.6916
    1PA     H8S 8980   2.615   5.060   4.268  1.1265  2.7784  0.2043
    1PA     C17 8981   2.440   5.022   4.131  0.0207  0.3666 -0.3230
    1PA     H7R 8982   2.493   5.059   4.043  2.2121 -2.2316 -0.1612
    1PA     H7S 8983   2.334   5.048   4.139 -0.0400 -0.5353  2.1883
    1PA     C16 8984   2.461   4.863   4.119 -0.3564 -0.4044 -0.0506
    1PA     H6R 8985   2.564   4.843   4.148 -0.5847  0.0803  1.1108
    1PA     H6S 8986   2.405   4.819   4.202 -2.3559 -2.6559 -2.5178
    1PA     C15 8987   2.425   4.801   3.984 -0.4365  0.5924 -0.1168
    1PA     H5R 8988   2.498   4.832   3.908 -1.8693  2.0423 -0.9285
    1PA     H5S 8989   2.453   4.695   3.990  0.3370  0.7883 -0.1782
    1PA     C14 8990   2.291   4.835   3.927  0.1374  0.4701 -0.3798
    1PA     H4R 8991   2.216   4.770   3.974 -0.0045  1.3497  0.6111
    1PA     H4S 8992   2.258   4.936   3.953 -0.9433  0.5289 -1.8868
    1PA     C13 8993   2.273   4.817   3.774  0.3917 -0.0753 -0.3106
    1PA     H3R 8994   2.170   4.838   3.742  0.3555  1.5665  0.8196
    1PA     H3S 8995   2.343   4.882   3.722  0.7491  0.4116  0.7747
    1PA     C12 8996   2.299   4.671   3.742  0.3448  0.7294 -0.0056
    1PA     H2R 8997   2.405   4.649   3.740  0.1876  0.0871 -2.1087
    1PA     H2S 8998   2.243   4.612   3.814 -2.0223  0.5849 -1.8943
    1PC     C11 8999   2.243   4.638   3.605 -0.2935  0.2787 -0.1827
    1PC     O12 9000   2.276   4.694   3.501 -0.1323 -0.7349 -0.1968
    1PC     O11 9001   2.152   4.547   3.620 -0.2144 -0.0212 -0.5678
    1PC      C1 9002   2.095   4.474   3.509  0.2750 -0.8236  0.4122
    1PC      HR 9003   1.996   4.437   3.540 -0.9018  2.5943  0.9032
    1PC      HS 9004   2.072   4.541   3.426 -2.1678 -0.1496  1.5845
    1PC      C2 9005   2.189   4.356   3.469  0.1132  0.6001  0.5718
    1PC      HX 9006   2.269   4.401   3.409  0.3404  0.9946  1.1618
    1PC      C3 9007   2.112   4.267   3.375  0.0579  0.2229 -0.6967
    1PC      HA 9008   2.161   4.174   3.344 -1.6763 -0.2104 -2.2559
    1PC      HB 9009   2.018   4.239   3.423 -0.3840  1.0746 -1.0484
    1PC     O31 9010   2.067   4.342   3.262 -0.3695 -0.1819  0.3310
    1PC     P31 9011   2.161   4.370   3.129  0.0689 -0.1358  0.1043
    1PC     O32 9012   2.220   4.509   3.157  0.0484 -0.0556 -0.1020
    1PC     C31 9013   2.145   4.631   3.142  0.6032 -0.1379 -0.0958
    1PC     H1A 9014   2.111   4.639   3.038  0.4821  0.0978 -0.0371
    1PC     H1B 9015   2.051   4.630   3.197  0.0751 -0.4148 -0.9835
    1PC     C32 9016   2.237   4.751   3.176 -1.0391  0.2110 -0.2720
    1PC     H2A 9017   2.180   4.843   3.165  0.7708  1.9413  3.7519
    1PC     H2B 9018   2.270   4.747   3.280  0.4157  0.6553 -0.6911
    1PC     N31 9019   2.365   4.766   3.094 -0.1616 -0.3193 -0.1759
    1PC     C33 9020   2.352   4.726   2.950  0.1038  0.4257  0.0086
    1PC     H3A 9021   2.449   4.744   2.903 -0.0440 -0.2521 -0.5616
    1PC     H3B 9022   2.327   4.621   2.964  1.5022 -0.1691 -1.6970
    1PC     H3C 9023   2.283   4.801   2.910  1.0855  0.8906 -0.8338
    1PC     C34 9024   2.401   4.913   3.095 -0.5498 -0.2239 -0.4079
    1PC     H4A 9025   2.355   4.969   3.013  0.8487  0.8416 -0.4860
    1PC     H4B 9026   2.370   4.965   3.186  1.1272  0.3665 -0.1528
    1PC     H4C 9027   2.510   4.918   3.098 -0.5125 -1.3943  0.2485
    1PC     C35 9028   2.477   4.688   3.149 -0.1979 -0.5446 -0.0892
    1PC     H5A 9029   2.565   4.726   3.096 -0.2450  0.9553  0.8813
    1PC     H5B 9030   2.474   4.581   3.132  0.8315 -0.4413 -0.9712
    1PC     H5C 9031   2.485   4.695   3.257  2.2572 -1.4038 -0.1883
    1PC     O33 9032   2.280   4.277   3.122  0.7783 -0.0536 -0.9181
    1PC     O34 9033   2.072   4.382   3.012 -0.0460  0.5917  0.6172
    1PC     O21 9034   2.226   4.275   3.585 -0.0262 -0.2885  0.0951
    1PC     C21 9035   2.346   4.307   3.649 -0.4875  0.2020  0.0464
    1PC     O22 9036   2.421   4.397   3.612  0.8686  0.0392  0.1018
    1OL     C12 9037   2.372   4.214   3.764  0.0709 -0.4534  0.5122
    1OL     H2R 9038   2.411   4.117   3.732  2.8005  1.7904 -3.2624
    1OL     H2S 9039   2.276   4.199   3.815 -0.6316 -3.6046 -1.5525
    1OL     C13 9040   2.472   4.282   3.864  0.7004  0.5275 -0.2662
    1OL     H3R 9041   2.453   4.250   3.966 -1.1207  0.7847 -0.5038
    1OL     H3S 9042   2.436   4.385   3.865 -1.0953 -0.0681 -0.9630
    1OL     C14 9043   2.624   4.274   3.825  0.1805  0.4714  0.1433
    1OL     H4R 9044   2.663   4.321   3.916 -0.7755 -1.9415  1.8437
    1OL     H4S 9045   2.656   4.326   3.734  1.4984 -1.1222 -0.3201
    1OL     C15 9046   2.688   4.132   3.831 -0.5000 -0.5048  0.2319
    1OL     H5R 9047   2.791   4.155   3.861 -0.5008 -1.1842  0.7584
    1OL     H5S 9048   2.692   4.084   3.733 -0.1201 -2.5322  1.2181
    1OL     C16 9049   2.631   4.036   3.931  0.2155  0.1473 -0.0921
    1OL     H6R 9050   2.668   3.937   3.906 -0.4494  0.5955 -3.0200
    1OL     H6S 9051   2.525   4.034   3.904 -0.8392 -0.9137  3.7380
    1OL     C17 9052   2.644   4.082   4.079 -0.5223 -0.6684  0.5553
    1OL     H7R 9053   2.627   4.190   4.084  1.8222 -0.1975 -0.7673
    1OL     H7S 9054   2.746   4.068   4.115  0.6194  1.7992 -1.5722
    1OL     C18 9055   2.551   4.011   4.181  0.1795  0.0597  0.0969
    1OL     H8R 9056   2.589   3.909   4.187  0.8275  0.3172  0.5213
    1OL     H8S 9057   2.447   4.030   4.153  0.7003 -0.0937 -2.0409
    1OL     C19 9058   2.572   4.076   4.315 -0.7019  0.3674 -0.1493
    1OL     H9R 9059   2.665   4.128   4.338  0.3807 -2.9310  3.5126
    1OL    C110 9060   2.482   4.056   4.412  0.7216 -1.0457 -0.7711
    1OL    H10R 9061   2.500   4.101   4.509  1.8521  1.6116 -2.1680
    1OL    C111 9062   2.363   3.969   4.403  0.3230 -0.9169  1.3586
    1OL    H11R 9063   2.362   3.877   4.461  1.2381 -2.5908 -1.1907
    1OL    H11S 9064   2.338   3.949   4.298  0.3041 -1.1581  1.4101
    1OL    C112 9065   2.241   4.049   4.455 -0.2057 -0.0854  0.6728
    1OL    H12R 9066   2.156   3.980   4.463  0.8481 -1.7067 -1.5613
    1OL    H12S 9067   2.220   4.121   4.377  2.0843  0.2169  0.3089
    1OL    C113 9068   2.251   4.122   4.594 -0.3588 -0.1577 -0.3042
    1OL    H13R 9069   2.159   4.176   4.616 -1.0938 -1.5468  0.0309
    1OL    H13S 9070   2.323   4.204   4.600  1.0738 -1.3637 -0.6342
    1OL    C114 9071   2.304   4.030   4.701  0.2111  0.0278  0.0577
    1OL    H14R 9072   2.411   4.020   4.681 -0.1824 -2.4448 -0.9436
    1OL    H14S 9073   2.257   3.932   4.689 -0.3112  0.2933 -0.0749
    1OL    C115 9074   2.282   4.087   4.843 -0.2680 -0.0244  0.0423
    1OL    H15R 9075   2.181   4.067   4.876 -0.9280 -1.0622 -2.4585
    1OL    H15S 9076   2.278   4.196   4.832  1.8598  0.2063  1.3564
    1OL    C116 9077   2.392   4.053   4.942 -0.9140 -0.0877 -0.1732
    1OL    H16R 9078   2.357   4.089   5.039 -1.5592 -0.7285 -0.1592
    1OL    H16S 9079   2.469   4.124   4.909  0.0148 -0.4951  1.0778
    1OL    C117 9080   2.419   3.910   4.964 -0.0093  0.4889  0.2559
    1OL    H17R 9081   2.431   3.874   4.862  1.0778  0.6962  0.3111
    1OL    H17S 9082   2.329   3.862   5.003  0.8376 -1.5267 -0.2183
    1OL    C118 9083   2.551   3.890   5.043 -0.0043 -0.6117 -0.3852
    1OL    H18R 9084   2.638   3.923   4.986 -0.7742 -1.2913 -1.9839
    1OL    H18S 9085   2.567   3.786   5.074 -1.2106 -0.8114 -0.3952
    1OL    H18T 9086   2.549   3.934   5.144  1.8458 -1.5616  0.0853
    1PA    C116 9087   1.731   0.004   4.924 -0.0310  0.0005 -0.6822
    1PA    H16R 9088   1.750  -0.093   4.878 -0.5725  0.9985 -3.0849
    1PA    H16S 9089   1.708  -0.008   5.030  0.7665 -2.0616 -0.7210
    1PA    H16T 9090   1.827   0.055   4.931  0.3848 -0.3212 -3.4472
    1PA    C115 9091   1.622   0.081   4.847 -0.2379  0.5844 -0.7895
    1PA    H15R 9092   1.526   0.031   4.833  0.4528 -1.6017  1.7710
    1PA    H15S 9093   1.597   0.162   4.916  1.5189  1.5565 -1.2793
    1PA    C114 9094   1.671   0.126   4.711 -0.3401  0.1021 -0.8884
    1PA    H14R 9095   1.715   0.038   4.664  3.3265  0.4324  1.7320
    1PA    H14S 9096   1.585   0.157   4.650 -2.0211  0.8804  1.7654
    1PA    C113 9097   1.777   0.238   4.709 -0.1108  0.9295  0.2724
    1PA    H13R 9098   1.738   0.328   4.755  1.5097  1.8989 -0.2108
    1PA    H13S 9099   1.850   0.209   4.785  0.5624 -0.8345 -1.0049
    1PA    C112 9100   1.847   0.258   4.573  0.0281 -0.0869  0.6634
    1PA    H12R 9101   1.863   0.170   4.511 -0.9392 -1.2645  2.0613
    1PA    H12S 9102   1.788   0.325   4.509  1.0126  0.9912  0.8539
    1PA    C111 9103   1.986   0.324   4.592  0.5794 -0.0331 -0.2681
    1PA    H11R 9104   1.968   0.406   4.662  0.3529 -2.4964  2.6548
    1PA    H11S 9105   2.055   0.253   4.638  1.3900  0.6426 -0.4342
    1PA    C110 9106   2.048   0.375   4.459 -0.1188 -0.6280 -0.2657
    1PA    H10R 9107   1.991   0.454   4.411 -0.1609 -2.1351 -2.7585
    1PA    H10S 9108   2.143   0.425   4.483 -0.7566  0.1453  0.6865
    1PA     C19 9109   2.061   0.275   4.346  0.0617  0.0747  0.2809
    1PA     H9R 9110   2.097   0.182   4.390  3.2164 -0.0275 -2.3078
    1PA     H9S 9111   1.963   0.260   4.301  0.6847 -1.5632 -0.5964
    1PA     C18 9112   2.155   0.310   4.230  0.2620  0.0217  0.0377
    1PA     H8R 9113   2.256   0.299   4.268  0.5203  1.6922 -0.0992
    1PA     H8S 9114   2.147   0.238   4.148  0.4267  0.3020 -0.2275
    1PA     C17 9115   2.132   0.459   4.191 -0.1441  0.2218  0.2101
    1PA     H7R 9116   2.025   0.478   4.201 -0.2101 -0.2333  0.3650
    1PA     H7S 9117   2.175   0.530   4.262  0.6588  1.4823 -1.5176
    1PA     C16 9118   2.190   0.495   4.048 -0.6653 -0.0439 -0.3239
    1PA     H6R 9119   2.184   0.603   4.032  1.4424 -0.4342 -4.2697
    1PA     H6S 9120   2.293   0.460   4.044 -1.0593 -1.1787 -1.1212
    1PA     C15 9121   2.116   0.432   3.929  0.3379 -0.0142  0.3615
    1PA     H5R 9122   2.134   0.325   3.929 -0.9544 -0.3588 -4.1835
    1PA     H5S 9123   2.010   0.458   3.929  0.8940  2.5048 -1.8418
    1PA     C14 9124   2.172   0.464   3.789 -0.7782  0.1096 -0.8351
    1PA     H4R 9125   2.165   0.570   3.763  0.3939  0.2811 -0.4688
    1PA     H4S 9126   2.277   0.435   3.786 -0.1363  1.7576  2.4569
    1PA     C13 9127   2.104   0.399   3.669  0.0477  0.0934  0.3260
    1PA     H3R 9128   2.164   0.413   3.579 -1.1469  2.9460 -0.0667
    1PA     H3S 9129   2.086   0.293   3.688 -0.0136  0.0819  0.2053
    1PA     C12 9130   1.975   0.463   3.632 -0.5434  0.4363  0.2523
    1PA     H2R 9131   1.909   0.452   3.718 -1.5976 -2.5962 -0.9061
    1PA     H2S 9132   1.990   0.571   3.617 -1.4514  0.6573  0.8776
    1PC     C11 9133   1.894   0.397   3.529 -0.7564 -0.0788  0.0570
    1PC     O12 9134   1.949   0.329   3.449  0.1125 -0.2683 -0.1985
    1PC     O11 9135   1.759   0.413   3.535 -0.0186  0.4828 -0.0469
    1PC      C1 9136   1.674   0.328   3.453  0.2312 -0.2733  0.2462
    1PC      HR 9137   1.690   0.362   3.351  1.0472  0.1857  0.5160
    1PC      HS 9138   1.708   0.225   3.470  0.9725 -0.0978 -0.1686
    1PC      C2 9139   1.523   0.352   3.503  0.0216  0.2583 -0.0452
    1PC      HX 9140   1.453   0.314   3.429  0.7862 -0.6238 -0.3256
    1PC      C3 9141   1.490   0.504   3.512 -0.5245 -0.4910 -0.0894
    1PC      HA 9142   1.430   0.523   3.602 -1.6403 -0.4539 -0.8365
    1PC      HB 9143   1.579   0.567   3.518 -2.1846  1.9856 -0.9077
    1PC     O31 9144   1.420   0.556   3.388 -0.7041 -0.3576  0.2468
    1PC     P31 9145   1.502   0.622   3.264 -0.3242 -0.0253 -0.3199
    1PC     O32 9146   1.484   0.774   3.294  0.1203  0.4630 -0.1914
    1PC     C31 9147   1.554   0.848   3.401  0.1339  0.3165  0.4824
    1PC     H1A 9148   1.495   0.851   3.492  0.5886  0.5601  0.7713
    1PC     H1B 9149   1.652   0.801   3.416  1.1002  2.2197  0.3883
    1PC     C32 9150   1.563   0.998   3.350 -0.4171 -0.3374  0.3750
    1PC     H2A 9151   1.463   1.022   3.313 -0.5245 -1.1511  0.1167
    1PC     H2B 9152   1.588   1.053   3.441 -2.5097 -0.8766  1.3129
    1PC     N31 9153   1.655   1.029   3.238  0.4898  0.1079  0.4329
    1PC     C33 9154   1.593   0.966   3.118 -0.6638  0.2944 -0.7481
    1PC     H3A 9155   1.624   0.862   3.105 -0.3986  0.3498 -0.5760
    1PC     H3B 9156   1.484   0.966   3.127 -0.5867  2.7654  0.6922
    1PC     H3C 9157   1.619   1.017   3.025 -0.7503  1.2594 -0.2432
    1PC     C34 9158   1.662   1.178   3.225  0.0470  0.6525 -0.0043
    1PC     H4A 9159   1.711   1.212   3.317 -3.2709  1.4438  1.5139
    1PC     H4B 9160   1.727   1.206   3.142 -0.2764  0.7574 -0.2185
    1PC     H4C 9161   1.563   1.220   3.208 -0.2594  0.2103  0.6707
    1PC     C35 9162   1.793   0.970   3.231  0.4187 -0.2477  0.4334
    1PC     H5A 9163   1.831   1.011   3.324 -0.5317  2.0317 -0.1510
    1PC     H5B 9164   1.851   1.019   3.153  0.3394 -0.6310  0.1324
    1PC     H5C 9165   1.796   0.861   3.222 -1.5380 -0.1800 -1.5919
    1PC     O33 9166   1.647   0.591   3.281 -0.5465  0.8460  0.0566
    1PC     O34 9167   1.432   0.593   3.137  0.2858  0.3528  0.1299
    1PC     O21 9168   1.502   0.294   3.630 -0.3803  0.2793 -0.4188
    1PC     C21 9169   1.381   0.249   3.655 -0.3894  0.1840  0.4605
    1PC     O22 9170   1.286   0.267   3.583  0.5136  0.1966 -0.1605
    1OL     C12 9171   1.377   0.168   3.790  0.2174  0.4624  0.0863
    1OL     H2R 9172   1.458   0.198   3.857 -0.3145 -2.1246  1.9450
    1OL     H2S 9173   1.392   0.071   3.744 -0.3992  1.0515 -1.3832
    1OL     C13 9174   1.232   0.172   3.852  0.0136 -0.1194 -0.2666
    1OL     H3R 9175   1.241   0.103   3.937  2.2714  0.2571 -0.1581
    1OL     H3S 9176   1.162   0.129   3.780 -0.3061 -0.7951  0.4371
    1OL     C14 9177   1.185   0.320   3.877  0.3398 -0.1959 -0.0648
    1OL     H4R 9178   1.087   0.317   3.926  0.5951  0.3512  0.4885
    1OL     H4S 9179   1.174   0.372   3.781  2.5353 -0.7628 -0.6382
    1OL     C15 9180   1.279   0.404   3.961  0.2181 -0.2988 -0.2599
    1OL     H5R 9181   1.381   0.399   3.923  0.8013  1.0701  1.0672
    1OL     H5S 9182   1.288   0.369   4.064  1.2993  1.1842  0.1746
    1OL     C16 9183   1.230   0.553   3.955 -0.2578  0.4162 -0.6109
    1OL     H6R 9184   1.131   0.550   4.001  0.4880  0.4088  1.0240
    1OL     H6S 9185   1.214   0.587   3.852  1.5621  1.3141 -0.6097
    1OL     C17 9186   1.331   0.652   4.029 -0.3854  0.1499  0.4078
    1OL     H7R 9187   1.344   0.603   4.126 -1.2131 -0.7258  0.0876
    1OL     H7S 9188   1.281   0.745   4.054 -0.1651  0.5692 -0.7016
    1OL     C18 9189   1.478   0.669   3.988  0.0860 -0.3561 -0.2283
    1OL     H8R 9190   1.497   0.575   3.936 -3.3615 -0.4209 -1.5190
    1OL     H8S 9191   1.544   0.698   4.069  0.9177 -1.0653 -0.6422
    1OL     C19 9192   1.481   0.779   3.880  0.2189 -0.3156  0.1765
    1OL     H9R 9193   1.393   0.842   3.879 -1.8605 -3.0926  0.2693
    1OL    C110 9194   1.579   0.790   3.793  0.0305 -0.0136  0.2829
    1OL    H10R 9195   1.572   0.873   3.723 -0.2921 -0.7939 -0.6330
    1OL    C111 9196   1.693   0.694   3.782  0.1623  0.6211  0.7708
    1OL    H11R 9197   1.711   0.671   3.677 -0.5575  0.2372  0.7214
    1OL    H11S 9198   1.668   0.594   3.819 -2.1925  0.2773 -1.5668
    1OL    C112 9199   1.831   0.744   3.829  0.4252 -0.4070 -0.0012
    1OL    H12R 9200   1.840   0.822   3.754 -0.4155  0.0456  0.3611
    1OL    H12S 9201   1.910   0.669   3.827  2.0336  1.2701 -1.1060
    1OL    C113 9202   1.837   0.807   3.971 -0.2859 -0.1975 -0.7984
    1OL    H13R 9203   1.757   0.881   3.980  0.2165  0.3276 -0.5884
    1OL    H13S 9204   1.933   0.859   3.983 -1.9327  2.2001  3.2048
    1OL    C114 9205   1.822   0.701   4.087  0.2252 -0.4197 -0.4577
    1OL    H14R 9206   1.912   0.638   4.093  1.2515  1.2640  3.6650
    1OL    H14S 9207   1.736   0.634   4.077  0.6333 -0.9549 -0.3930
    1OL    C115 9208   1.820   0.762   4.228  0.2098  0.0019  0.0126
    1OL    H15R 9209   1.769   0.858   4.222  0.6130  0.3003  1.3829
    1OL    H15S 9210   1.924   0.784   4.255 -0.3362  0.2741  1.8998
    1OL    C116 9211   1.763   0.674   4.331  0.1305  0.1298  0.7010
    1OL    H16R 9212   1.821   0.582   4.327  0.6122  0.4968 -1.2988
    1OL    H16S 9213   1.659   0.652   4.307  0.0619 -0.2078  1.2858
    1OL    C117 9214   1.753   0.740   4.473 -1.0711 -0.1418  0.2142
    1OL    H17R 9215   1.664   0.805   4.474 -1.0608 -0.1282  0.4556
    1OL    H17S 9216   1.839   0.807   4.474 -1.1116  0.0519 -3.6228
    1OL    C118 9217   1.754   0.646   4.595  0.4269 -0.5616  0.1925
    1OL    H18R 9218   1.821   0.562   4.578  3.2843  1.7545 -0.4274
    1OL    H18S 9219   1.654   0.603   4.603 -0.7040  1.9563  0.0501
    1OL    H18T 9220   1.780   0.705   4.683 -2.2002  1.5931 -0.3860
    1PA    C116 9221   4.827   4.880   5.216  0.1029 -0.1728  0.7177
    1PA    H16R 9222   4.768   4.966   5.183  0.5860 -0.0093  0.2707
    1PA    H16S 9223   4.899   4.862   5.136  0.2258  0.9884  0.5641
    1PA    H16T 9224   4.877   4.910   5.308 -1.1017 -0.6811  1.5424
    1PA    C115 9225   4.740   4.761   5.242 -0.3852  0.1731 -0.1808
    1PA    H15R 9226   4.797   4.693   5.306 -0.3277  1.3008  0.9951
    1PA    H15S 9227   4.663   4.785   5.315  1.5601  2.5480  1.1916
    1PA    C114 9228   4.675   4.686   5.126 -0.7363 -0.0100 -0.0280
    1PA    H14R 9229   4.748   4.657   5.050 -2.4565 -0.8661 -1.3972
    1PA    H14S 9230   4.652   4.587   5.167  0.1733  0.3924  1.5005
    1PA    C113 9231   4.567   4.762   5.048  0.6519  0.7367  0.0969
    1PA    H13R 9232   4.598   4.863   5.019  0.7982  0.7153  0.1775
    1PA    H13S 9233   4.553   4.708   4.955  1.6883 -0.2770  0.5199
    1PA    C112 9234   4.429   4.777   5.118  0.7026 -0.4078  0.6336
    1PA    H12R 9235   4.386   4.681   5.149 -1.2625  0.9959  2.4104
    1PA    H12S 9236   4.442   4.834   5.210 -0.7230  1.4351 -0.2934
    1PA    C111 9237   4.331   4.851   5.026  0.2173 -0.1828 -0.6222
    1PA    H11R 9238   4.235   4.860   5.076 -0.7084  0.2596 -2.4459
    1PA    H11S 9239   4.369   4.954   5.026 -1.3751  0.4136  0.5790
    1PA    C110 9240   4.311   4.788   4.886  0.6359 -0.0737 -0.4232
    1PA    H10R 9241   4.405   4.770   4.832 -0.2914 -1.2136 -1.6975
    1PA    H10S 9242   4.257   4.695   4.904  0.5423 -0.0499 -0.5788
    1PA     C19 9243   4.228   4.874   4.792 -0.1465 -0.5660  0.7892
    1PA     H9R 9244   4.127   4.865   4.831 -1.2846  0.1128 -1.8623
    1PA     H9S 9245   4.250   4.980   4.809  1.3431 -1.1555  2.7798
    1PA     C18 9246   4.226   4.827   4.642  0.6082 -0.3509  0.1609
    1PA     H8R 9247   4.325   4.802   4.602 -0.3545 -2.9440 -0.7075
    1PA     H8S 9248   4.176   4.730   4.638  0.2271 -0.1808  0.8423
    1PA     C17 9249   4.146   4.927   4.556 -0.4499  0.0166  0.1919
    1PA     H7R 9250   4.062   4.948   4.623 -1.1272 -1.9680 -0.0033
    1PA     H7S 9251   4.196   5.023   4.539 -0.7606  0.1081 -0.2248
    1PA     C16 9252   4.096   4.891   4.413  0.0388 -0.2864  0.5115
    1PA     H6R 9253   4.026   4.807   4.418 -1.2104  0.7328  0.6122
    1PA     H6S 9254   4.042   4.976   4.371  0.9671  0.3483  0.6062
    1PA     C15 9255   4.201   4.840   4.314 -0.6395 -0.2271 -0.4284
    1PA     H5R 9256   4.280   4.915   4.308 -0.5852 -0.3126 -0.7661
    1PA     H5S 9257   4.237   4.746   4.356 -1.6806 -1.2652 -1.7783
    1PA     C14 9258   4.138   4.833   4.173  0.6958 -0.1298 -1.3012
    1PA     H4R 9259   4.068   4.750   4.176  0.4318  0.1372  0.4767
    1PA     H4S 9260   4.080   4.920   4.144  2.2941  1.6400  0.5519
    1PA     C13 9261   4.244   4.806   4.065 -0.1399  0.3962  0.1424
    1PA     H3R 9262   4.325   4.874   4.088  0.4273 -0.6382  1.2530
    1PA     H3S 9263   4.283   4.705   4.079 -0.0701  0.4362  0.2295
    1PA     C12 9264   4.183   4.831   3.930  0.0474  0.7012 -0.2238
    1PA     H2R 9265   4.125   4.923   3.920 -1.3434  0.0701  1.7009
    1PA     H2S 9266   4.263   4.834   3.856  0.8108  0.4379  0.5883
    1PC     C11 9267   4.101   4.709   3.891  0.6199 -0.6756 -0.3423
    1PC     O12 9268   4.014   4.661   3.960 -0.2640  0.2801  0.2179
    1PC     O11 9269   4.129   4.651   3.769  0.1839  0.5427  0.4934
    1PC      C1 9270   4.032   4.557   3.716  0.1713 -0.3624  0.2956
    1PC      HR 9271   4.011   4.475   3.785 -0.9707  1.3842  2.0937
    1PC      HS 9272   3.934   4.602   3.701  1.9302  4.2967  1.7301
    1PC      C2 9273   4.083   4.506   3.585  0.0354 -0.4505  0.1756
    1PC      HX 9274   4.072   4.586   3.512  0.2407 -0.6184 -0.0381
    1PC      C3 9275   3.992   4.388   3.536 -0.7369 -0.6362  0.4902
    1PC      HA 9276   4.007   4.298   3.595  2.1484  1.0533  2.4362
    1PC      HB 9277   3.886   4.412   3.548 -0.3002  0.0788  3.0793
    1PC     O31 9278   4.023   4.368   3.396  0.7446 -0.1615  0.1447
    1PC     P31 9279   3.920   4.416   3.277 -0.3172  0.6641 -0.6389
    1PC     O32 9280   3.922   4.576   3.287 -0.6329 -0.7999 -0.2458
    1PC     C31 9281   4.024   4.658   3.233  0.5177 -0.2725 -0.1785
    1PC     H1A 9282   4.063   4.713   3.319 -0.4240  0.7991 -0.4225
    1PC     H1B 9283   4.097   4.588   3.192 -0.9997 -2.0629  0.1158
    1PC     C32 9284   3.964   4.756   3.130  0.0514 -0.8933  0.7765
    1PC     H2A 9285   4.051   4.801   3.083  0.4000 -0.4166  1.8695
    1PC     H2B 9286   3.903   4.695   3.064  2.1743  0.0764 -2.1626
    1PC     N31 9287   3.877   4.867   3.184  0.1571 -0.3284 -0.0746
    1PC     C33 9288   3.759   4.818   3.252 -0.3146  0.7241 -0.5908
    1PC     H3A 9289   3.693   4.771   3.179  0.7500 -1.0386 -0.4396
    1PC     H3B 9290   3.779   4.740   3.325  2.2500  1.5602 -0.3489
    1PC     H3C 9291   3.724   4.909   3.300 -0.9854  0.5361 -0.7136
    1PC     C34 9292   3.955   4.953   3.275  0.2005  0.3229 -0.3523
    1PC     H4A 9293   3.976   4.899   3.367 -1.3879 -1.8916 -1.2161
    1PC     H4B 9294   4.044   4.984   3.221 -0.1060  3.5565  0.9111
    1PC     H4C 9295   3.902   5.043   3.307 -0.0015  0.1576 -0.2164
    1PC     C35 9296   3.840   4.959   3.080 -0.0755  0.2144 -0.0496
    1PC     H5A 9297   3.789   5.043   3.127  0.8106  0.7627 -0.0633
    1PC     H5B 9298   3.770   4.917   3.008 -0.2918 -1.1937  0.9539
    1PC     H5C 9299   3.926   5.001   3.028 -0.5904  1.5179  0.1325
    1PC     O33 9300   3.981   4.378   3.151 -0.4181  0.0208 -0.3027
    1PC     O34 9301   3.780   4.370   3.303 -1.1719  0.4154  0.1043
    1PC     O21 9302   4.216   4.453   3.598  0.0708  0.3589  0.4129
    1PC     C21 9303   4.303   4.467   3.501  0.7600  0.4097 -0.2028
    1PC     O22 9304   4.303   4.555   3.415 -0.2003 -0.4352 -0.2874
    1OL     C12 9305   4.416   4.369   3.504  0.2744  0.8810  0.6829
    1OL     H2R 9306   4.421   4.318   3.408  0.2843 -0.7286  1.5162
    1OL     H2S 9307   4.397   4.298   3.585  2.9363 -1.2949 -0.5239
    1OL     C13 9308   4.551   4.424   3.531  0.0006  0.0847  0.1040
    1OL     H3R 9309   4.581   4.497   3.456  3.0167  1.2567  2.3490
    1OL     H3S 9310   4.623   4.343   3.522 -1.0565 -0.8283 -0.3514
    1OL     C14 9311   4.564   4.492   3.671 -0.3098 -0.7578  0.1275
    1OL     H4R 9312   4.496   4.577   3.662  0.6751  0.0988  0.7388
    1OL     H4S 9313   4.656   4.547   3.688 -1.2635  0.4475  1.5099
    1OL     C15 9314   4.532   4.398   3.792 -0.1270  0.9306  0.2465
    1OL     H5R 9315   4.599   4.311   3.795 -1.2155  0.0966  1.0594
    1OL     H5S 9316   4.432   4.356   3.774 -0.5091  3.0458 -2.9662
    1OL     C16 9317   4.540   4.474   3.921  0.8545  0.2653 -0.2281
    1OL     H6R 9318   4.458   4.545   3.934 -1.3045 -2.2165  0.0314
    1OL     H6S 9319   4.632   4.533   3.922  1.2356 -0.3264  0.8690
    1OL     C17 9320   4.542   4.374   4.042 -0.2918 -0.1775  0.0903
    1OL     H7R 9321   4.571   4.427   4.133 -2.4765  0.6615  0.3167
    1OL     H7S 9322   4.608   4.290   4.018 -0.5826 -0.9767  2.0119
    1OL     C18 9323   4.402   4.309   4.067 -0.0380 -0.6858 -0.3600
    1OL     H8R 9324   4.412   4.231   4.143  0.2755 -0.3790 -0.0905
    1OL     H8S 9325   4.359   4.252   3.984 -1.7164  0.1615 -0.1079
    1OL     C19 9326   4.304   4.414   4.104 -0.0904  0.4464 -0.6061
    1OL     H9R 9327   4.254   4.458   4.018  2.1250  2.0417 -1.1071
    1OL    C110 9328   4.280   4.455   4.229  0.9927  0.0917  0.2911
    1OL    H10R 9329   4.214   4.540   4.233  0.6502 -0.2621  2.5361
    1OL    C111 9330   4.351   4.411   4.354 -0.1838 -0.8981 -0.4999
    1OL    H11R 9331   4.449   4.458   4.355 -1.7227  2.4450  1.9485
    1OL    H11S 9332   4.376   4.305   4.360  1.3963 -0.5947 -1.5655
    1OL    C112 9333   4.281   4.457   4.485 -0.6785  0.5388  0.5120
    1OL    H12R 9334   4.264   4.564   4.482  0.8927  0.7651 -2.5060
    1OL    H12S 9335   4.352   4.432   4.564 -0.3154 -0.6139 -0.1626
    1OL    C113 9336   4.159   4.365   4.504 -0.0597 -0.3217 -0.5959
    1OL    H13R 9337   4.200   4.267   4.530  1.1125  0.2799 -0.1212
    1OL    H13S 9338   4.091   4.350   4.420 -0.6929 -1.4742  0.1037
    1OL    C114 9339   4.070   4.406   4.625  0.0223  0.1228 -0.4672
    1OL    H14R 9340   4.015   4.497   4.599  1.9290  1.1632 -0.9743
    1OL    H14S 9341   4.131   4.422   4.714 -0.0056 -0.2682 -0.3757
    1OL    C115 9342   3.966   4.295   4.641  0.2529 -0.1633  0.8245
    1OL    H15R 9343   4.017   4.216   4.695 -0.0844 -0.2890  0.9607
    1OL    H15S 9344   3.932   4.267   4.541 -0.8646 -0.7800  1.3730
    1OL    C116 9345   3.837   4.343   4.718 -0.5987 -0.5320 -0.0504
    1OL    H16R 9346   3.805   4.429   4.659 -0.5963 -0.7587 -0.3841
    1OL    H16S 9347   3.877   4.373   4.815  0.2912 -1.7925 -0.0139
    1OL    C117 9348   3.737   4.226   4.753  0.1312 -0.3868 -0.1929
    1OL    H17R 9349   3.796   4.153   4.809  0.4016 -0.0069  0.0236
    1OL    H17S 9350   3.688   4.186   4.664  0.2839 -0.1429 -0.3861
    1OL    C118 9351   3.604   4.258   4.838 -0.6277  0.4216  0.0179
    1OL    H18R 9352   3.572   4.177   4.904  0.8455 -0.9419 -0.8967
    1OL    H18S 9353   3.519   4.284   4.774 -1.4462 -0.5621  0.6858
    1OL    H18T 9354   3.622   4.348   4.898 -0.7487 -0.9494  2.1909
    1PA    C116 9355   0.212   2.325   4.506 -0.0890 -0.4399  0.0488
    1PA    H16R 9356   0.118   2.273   4.526 -1.2003  0.9181 -1.4727
    1PA    H16S 9357   0.193   2.425   4.464 -0.4714 -1.2289 -1.7185
    1PA    H16T 9358   0.262   2.354   4.599 -0.4477  2.5152 -0.6118
    1PA    C115 9359   0.308   2.229   4.427  0.1886  0.3596  0.2085
    1PA    H15R 9360   0.376   2.296   4.374 -0.2530 -0.4678 -1.4311
    1PA    H15S 9361   0.367   2.167   4.495  0.0452 -0.0018  0.0091
    1PA    C114 9362   0.236   2.150   4.320  0.4208  0.1205 -0.4195
    1PA    H14R 9363   0.183   2.212   4.247 -1.0978 -0.0343  0.5523
    1PA    H14S 9364   0.321   2.101   4.272  0.0802  0.6450 -1.5921
    1PA    C113 9365   0.155   2.035   4.377 -0.0457  0.3254 -0.2489
    1PA    H13R 9366   0.222   1.985   4.447 -0.4744  0.5292  0.3183
    1PA    H13S 9367   0.068   2.064   4.438 -1.4652 -0.5186 -1.8281
    1PA    C112 9368   0.107   1.931   4.269  0.0428  0.4109  0.4532
    1PA    H12R 9369   0.020   1.980   4.225  1.3727  2.0231 -0.4153
    1PA    H12S 9370   0.174   1.919   4.184 -2.7353 -0.9246 -1.6295
    1PA    C111 9371   0.060   1.796   4.327  0.0812 -0.4755  0.1068
    1PA    H11R 9372   0.151   1.742   4.353 -0.4905 -1.4036  0.2191
    1PA    H11S 9373   0.007   1.819   4.420  0.7073 -1.4073  0.6977
    1PA    C110 9374  -0.038   1.718   4.237  0.0161 -0.2678 -0.8365
    1PA    H10R 9375  -0.003   1.698   4.136 -1.0721  1.0152 -1.4864
    1PA    H10S 9376  -0.044   1.614   4.269  1.8385 -0.2276 -0.3588
    1PA     C19 9377  -0.186   1.772   4.223 -0.5415  0.1179 -0.0318
    1PA     H9R 9378  -0.226   1.781   4.324 -0.9868  0.5597 -0.2461
    1PA     H9S 9379  -0.182   1.871   4.178 -0.2977 -0.5073 -1.3956
    1PA     C18 9380  -0.269   1.684   4.133 -0.4986  0.0849  0.4057
    1PA     H8R 9381  -0.225   1.672   4.034 -1.3758 -0.2526  0.0499
    1PA     H8S 9382  -0.273   1.583   4.174  0.1689 -0.7216 -1.4607
    1PA     C17 9383  -0.413   1.730   4.102 -0.1487 -0.4168 -0.0878
    1PA     H7R 9384  -0.465   1.768   4.190 -2.0446  0.0474 -1.3791
    1PA     H7S 9385  -0.411   1.812   4.030 -2.1667 -0.5129 -0.2902
    1PA     C16 9386  -0.489   1.606   4.050  0.1426 -0.3769 -0.0364
    1PA     H6R 9387  -0.448   1.570   3.955  1.0196 -0.7060  0.4598
    1PA     H6S 9388  -0.477   1.529   4.127  2.0266 -0.8769 -0.7961
    1PA     C15 9389  -0.642   1.637   4.022  0.2526  0.1406  0.4960
    1PA     H5R 9390  -0.692   1.681   4.109  2.2353 -2.2371  2.9508
    1PA     H5S 9391  -0.633   1.718   3.950  0.0859  0.4732  0.8497
    1PA     C14 9392  -0.724   1.511   3.979  0.2899 -0.2358 -0.3973
    1PA     H4R 9393  -0.648   1.455   3.924  1.0616  1.1565 -0.7781
    1PA     H4S 9394  -0.751   1.456   4.069  0.8671  1.4587  0.8363
    1PA     C13 9395  -0.848   1.540   3.890  0.1454 -0.4981  0.2991
    1PA     H3R 9396  -0.920   1.602   3.943 -0.7868 -2.0600  0.9016
    1PA     H3S 9397  -0.828   1.593   3.797 -0.5411 -0.2391  0.2998
    1PA     C12 9398  -0.909   1.407   3.848 -0.3051  0.1528  0.1231
    1PA     H2R 9399  -0.905   1.337   3.932  1.7792  1.1518  0.9004
    1PA     H2S 9400  -1.007   1.433   3.807 -0.5722  0.1198  0.7314
    1PC     C11 9401  -0.830   1.338   3.739 -0.1797  0.4204  0.0524
    1PC     O12 9402  -0.758   1.389   3.656  0.4957  0.0101 -0.1923
    1PC     O11 9403  -0.859   1.215   3.748  0.1147 -0.9666  0.0145
    1PC      C1 9404  -0.811   1.124   3.653 -0.2230 -0.3679 -0.2128
    1PC      HR 9405  -0.868   1.031   3.653  0.3548 -0.7551 -2.2345
    1PC      HS 9406  -0.814   1.163   3.551  2.6735  0.5196 -0.0108
    1PC      C2 9407  -0.670   1.082   3.685  0.1068  0.4653 -0.0476
    1PC      HX 9408  -0.602   1.163   3.658  0.4396  0.2127  0.0418
    1PC      C3 9409  -0.629   0.962   3.602  0.4072  0.3306 -0.8347
    1PC      HA 9410  -0.521   0.951   3.609  0.5760  0.6141 -2.8692
    1PC      HB 9411  -0.671   0.868   3.639  0.4250 -1.0050 -4.0910
    1PC     O31 9412  -0.653   0.964   3.458 -0.9280  0.5679 -0.0033
    1PC     P31 9413  -0.548   1.040   3.356  0.1536  0.1634 -0.2671
    1PC     O32 9414  -0.580   1.190   3.369 -0.5484 -0.4631 -0.6873
    1PC     C31 9415  -0.685   1.249   3.289  0.2283 -0.1828  0.2519
    1PC     H1A 9416  -0.763   1.174   3.274  0.4182  0.0090 -1.8442
    1PC     H1B 9417  -0.732   1.333   3.341  0.5526 -0.4604  0.9896
    1PC     C32 9418  -0.622   1.295   3.149  0.3064  0.0679 -0.2164
    1PC     H2A 9419  -0.583   1.213   3.088  0.9631  0.1309  0.1169
    1PC     H2B 9420  -0.701   1.344   3.092 -0.1845 -0.0973  0.3171
    1PC     N31 9421  -0.507   1.401   3.155 -0.4273  0.2389 -0.0059
    1PC     C33 9422  -0.553   1.546   3.204 -0.8488  0.0323 -0.7954
    1PC     H3A 9423  -0.586   1.541   3.308  1.9602  2.8043  0.2983
    1PC     H3B 9424  -0.470   1.615   3.219 -2.1098  2.1058 -3.0449
    1PC     H3C 9425  -0.635   1.595   3.152 -1.1541 -3.1173 -3.4273
    1PC     C34 9426  -0.393   1.370   3.233 -0.2050  0.0508  0.7232
    1PC     H4A 9427  -0.416   1.346   3.337  2.1848 -0.8187  1.0696
    1PC     H4B 9428  -0.347   1.284   3.185 -1.3593 -1.1142  1.6763
    1PC     H4C 9429  -0.330   1.459   3.232 -2.0440  1.3899 -1.3877
    1PC     C35 9430  -0.471   1.426   3.010  0.3396  1.0620  0.2793
    1PC     H5A 9431  -0.410   1.343   2.973  0.8386  0.9078  1.4172
    1PC     H5B 9432  -0.406   1.513   3.024  0.8768  0.3270  2.7393
    1PC     H5C 9433  -0.555   1.452   2.946  0.7316 -1.0055 -1.1212
    1PC     O33 9434  -0.411   1.027   3.410 -0.0007 -0.4182 -0.1526
    1PC     O34 9435  -0.569   0.994   3.218 -0.2933 -0.5272 -0.0410
    1PC     O21 9436  -0.651   1.052   3.825  0.3969 -0.1021  0.1260
    1PC     C21 9437  -0.549   1.106   3.888 -0.1375 -0.6905 -0.1747
    1PC     O22 9438  -0.481   1.196   3.850 -0.2055  0.1552  0.1095
    1OL     C12 9439  -0.522   1.046   4.026 -0.3879 -0.6368  0.5242
    1OL     H2R 9440  -0.414   1.032   4.032  0.1820  2.9146 -0.4681
    1OL     H2S 9441  -0.585   0.959   4.049 -2.5836  0.7476 -0.1099
    1OL     C13 9442  -0.560   1.156   4.132 -0.0266  0.5283  0.5477
    1OL     H3R 9443  -0.661   1.193   4.111 -0.0389 -0.0942 -0.5161
    1OL     H3S 9444  -0.495   1.243   4.125  1.3001 -0.2887  2.3800
    1OL     C14 9445  -0.559   1.101   4.278 -0.2377  0.3615 -0.2774
    1OL     H4R 9446  -0.457   1.107   4.318 -0.2206  2.8924 -0.6644
    1OL     H4S 9447  -0.588   0.995   4.276 -1.7224  0.7723 -3.2368
    1OL     C15 9448  -0.647   1.176   4.377  0.4758 -0.4256 -0.2161
    1OL     H5R 9449  -0.647   1.127   4.474 -0.2071 -0.8609 -0.4287
    1OL     H5S 9450  -0.748   1.159   4.339  0.6995  1.2185 -1.6431
    1OL     C16 9451  -0.621   1.327   4.393  0.0151  0.1106  0.5226
    1OL     H6R 9452  -0.692   1.366   4.466  1.5745  0.5945  1.8198
    1OL     H6S 9453  -0.637   1.374   4.296  1.9985 -0.3946 -0.0923
    1OL     C17 9454  -0.486   1.360   4.445  0.0597  0.6909  0.4591
    1OL     H7R 9455  -0.404   1.326   4.381 -0.2763 -2.3396  1.5383
    1OL     H7S 9456  -0.467   1.305   4.538 -0.3646 -2.5967 -1.3224
    1OL     C18 9457  -0.468   1.503   4.473  0.1554  0.2377 -0.0650
    1OL     H8R 9458  -0.532   1.527   4.558 -1.0240 -2.7561 -0.0498
    1OL     H8S 9459  -0.504   1.557   4.385 -1.5880  0.1748  0.5956
    1OL     C19 9460  -0.322   1.543   4.496  0.0266  0.6909 -0.3297
    1OL     H9R 9461  -0.250   1.514   4.420  1.6713  1.8165  0.7309
    1OL    C110 9462  -0.271   1.606   4.596 -0.9531  0.1766 -0.0750
    1OL    H10R 9463  -0.164   1.617   4.610 -0.6612 -3.2341  0.6673
    1OL    C111 9464  -0.356   1.662   4.708  0.6129 -0.0420 -0.3649
    1OL    H11R 9465  -0.310   1.627   4.801  2.4773  0.0616 -1.2175
    1OL    H11S 9466  -0.460   1.629   4.705  0.6972 -0.6496  2.0681
    1OL    C112 9467  -0.339   1.815   4.717 -0.2152 -0.2723  0.3817
    1OL    H12R 9468  -0.233   1.841   4.724  0.5910 -2.5126 -2.4043
    1OL    H12S 9469  -0.389   1.844   4.809 -0.6624 -0.3601  0.1667
    1OL    C113 9470  -0.403   1.884   4.599  0.3219 -0.2141  0.9125
    1OL    H13R 9471  -0.511   1.863   4.598  0.5615 -1.4565  0.7987
    1OL    H13S 9472  -0.350   1.843   4.513  0.6156  0.7104  0.6407
    1OL    C114 9473  -0.391   2.039   4.593  0.1111  0.1711  0.2133
    1OL    H14R 9474  -0.283   2.055   4.587  0.4444 -1.6286  0.8214
    1OL    H14S 9475  -0.431   2.083   4.685 -1.2120 -4.5032  2.0577
    1OL    C115 9476  -0.470   2.098   4.470  0.3873  0.0683  0.5619
    1OL    H15R 9477  -0.574   2.068   4.461  0.5663 -0.6305  0.8090
    1OL    H15S 9478  -0.429   2.060   4.376  1.2819 -2.3037  1.8719
    1OL    C116 9479  -0.453   2.249   4.454 -0.0753  0.7446 -0.5438
    1OL    H16R 9480  -0.426   2.289   4.553 -0.5997  0.7352 -0.3951
    1OL    H16S 9481  -0.558   2.277   4.442 -0.7320 -2.0676 -1.7527
    1OL    C117 9482  -0.361   2.301   4.341  0.3477 -0.2001  0.3737
    1OL    H17R 9483  -0.370   2.410   4.343  1.9860 -0.0633  1.1867
    1OL    H17S 9484  -0.396   2.273   4.242 -3.5810  2.6148  0.8676
    1OL    C118 9485  -0.220   2.242   4.368 -0.5260  0.0812  0.0145
    1OL    H18R 9486  -0.234   2.134   4.376 -0.2324 -0.0599 -1.2833
    1OL    H18S 9487  -0.179   2.288   4.459 -0.5957 -0.0247  0.0980
    1OL    H18T 9488  -0.157   2.278   4.287 -0.9870 -0.2507 -0.4939
    1PA    C116 9489   4.778   0.996   5.358 -0.3011 -0.0046  0.2613
    1PA    H16R 9490   4.792   1.101   5.331  1.8984  0.0457  1.4500
    1PA    H16S 9491   4.865   0.986   5.423  0.2979  0.1423 -0.5099
    1PA    H16T 9492   4.689   0.989   5.421 -1.0417 -1.4767 -0.9314
    1PA    C115 9493   4.777   0.887   5.242  0.0666 -0.5465  0.0590
    1PA    H15R 9494   4.765   0.790   5.292  1.9091 -0.4046  0.8177
    1PA    H15S 9495   4.691   0.916   5.182  1.8085  1.7348 -1.4189
    1PA    C114 9496   4.895   0.883   5.154  0.2098 -0.0827  0.1182
    1PA    H14R 9497   4.908   0.980   5.106  1.4369  0.5344  1.6338
    1PA    H14S 9498   4.989   0.877   5.210  0.7777 -0.9177 -0.9069
    1PA    C113 9499   4.901   0.782   5.040  0.4954  0.5108 -0.3641
    1PA    H13R 9500   4.888   0.680   5.078 -4.2769  0.2866 -2.2425
    1PA    H13S 9501   4.822   0.802   4.968  1.3294 -0.0190 -1.4420
    1PA    C112 9502   5.025   0.776   4.944  0.2210  0.8484  0.6194
    1PA    H12R 9503   5.058   0.878   4.924  0.1155  0.9697  1.0595
    1PA    H12S 9504   5.108   0.723   4.991 -0.0333  0.2707  0.4223
    1PA    C111 9505   5.006   0.703   4.806  0.1392 -0.6288  0.2755
    1PA    H11R 9506   5.106   0.713   4.763  0.7763 -3.0582  1.0915
    1PA    H11S 9507   4.991   0.597   4.827  1.5419 -0.7662  0.6239
    1PA    C110 9508   4.901   0.773   4.716  0.5424  0.2906  0.4201
    1PA    H10R 9509   4.802   0.747   4.756  1.6469 -1.3970  2.1718
    1PA    H10S 9510   4.921   0.881   4.720  2.0473  0.1474 -2.5173
    1PA     C19 9511   4.916   0.718   4.574 -0.4996  0.5346  0.2714
    1PA     H9R 9512   4.843   0.766   4.508 -1.3156 -2.6344 -1.1948
    1PA     H9S 9513   5.011   0.760   4.540 -2.1792  2.8676 -1.7685
    1PA     C18 9514   4.919   0.569   4.558 -0.6967 -0.1752  0.8357
    1PA     H8R 9515   5.004   0.517   4.604  0.6947  0.0566 -1.4237
    1PA     H8S 9516   4.825   0.532   4.600 -1.5727  1.8010  0.6403
    1PA     C17 9517   4.910   0.529   4.406 -0.4462 -0.3228 -0.0737
    1PA     H7R 9518   4.875   0.425   4.409 -0.2479 -0.3479  2.3331
    1PA     H7S 9519   4.830   0.585   4.357  0.0386  0.8696  0.4914
    1PA     C16 9520   5.036   0.533   4.324 -0.2137 -0.3722  0.5528
    1PA     H6R 9521   5.051   0.641   4.312  0.5370 -0.4646  0.6405
    1PA     H6S 9522   5.113   0.489   4.387 -0.7758  0.5559  1.9048
    1PA     C15 9523   5.043   0.467   4.185 -0.5849  0.2100 -0.0886
    1PA     H5R 9524   5.142   0.491   4.146  0.2789  0.0050  1.9407
    1PA     H5S 9525   5.032   0.359   4.194 -1.1585  0.3312  0.7679
    1PA     C14 9526   4.940   0.520   4.087 -0.8060  0.1089  0.4912
    1PA     H4R 9527   4.972   0.485   3.989  0.0512 -1.0938  1.1878
    1PA     H4S 9528   4.848   0.468   4.116 -2.8471  3.2031 -0.1810
    1PA     C13 9529   4.911   0.670   4.094  0.3998 -0.2538 -0.0026
    1PA     H3R 9530   4.853   0.694   4.183  1.7235  1.1985  0.4930
    1PA     H3S 9531   4.999   0.734   4.103 -1.2575  2.0581  0.3077
    1PA     C12 9532   4.830   0.701   3.965 -0.0534  0.3795  0.0804
    1PA     H2R 9533   4.738   0.642   3.964 -0.0853  0.4391 -0.9771
    1PA     H2S 9534   4.803   0.806   3.975  0.3088  0.2065  3.4656
    1PC     C11 9535   4.900   0.670   3.831 -0.3018 -0.2045 -0.1417
    1PC     O12 9536   5.012   0.711   3.800  0.5558 -0.4663 -0.3403
    1PC     O11 9537   4.816   0.610   3.749 -0.2474  0.1876  0.5193
    1PC      C1 9538   4.862   0.584   3.616  0.1177  0.5015 -0.1526
    1PC      HR 9539   4.918   0.666   3.571 -3.4732  3.2184  0.0264
    1PC      HS 9540   4.917   0.490   3.626  0.8201  1.0553  1.3212
    1PC      C2 9541   4.748   0.547   3.518 -0.0147 -0.4925 -0.8708
    1PC      HX 9542   4.804   0.538   3.424  0.9326 -0.4852 -0.3161
    1PC      C3 9543   4.653   0.673   3.503 -0.1266  0.4076  0.4204
    1PC      HA 9544   4.612   0.706   3.598 -0.1322 -1.9908  1.2599
    1PC      HB 9545   4.716   0.750   3.455 -1.1824  1.5041  0.7639
    1PC     O31 9546   4.546   0.646   3.417  0.0240  0.2206  0.4189
    1PC     P31 9547   4.553   0.658   3.262  0.2803  0.2518  0.1361
    1PC     O32 9548   4.539   0.815   3.231 -0.3174  0.2844  0.4196
    1PC     C31 9549   4.642   0.882   3.159  0.1331  0.3965  0.3305
    1PC     H1A 9550   4.613   0.987   3.153 -2.2865 -0.2880 -0.3848
    1PC     H1B 9551   4.737   0.877   3.213  0.6935  1.9194 -0.4544
    1PC     C32 9552   4.641   0.818   3.021 -0.7160 -0.0039 -0.1059
    1PC     H2A 9553   4.697   0.724   3.024 -0.1011  0.3418 -0.5231
    1PC     H2B 9554   4.540   0.802   2.985 -1.1320  3.2896 -0.5641
    1PC     N31 9555   4.709   0.901   2.904  0.0353  0.2512  0.2364
    1PC     C33 9556   4.727   0.804   2.800  0.1226 -0.6358  0.9472
    1PC     H3A 9557   4.631   0.761   2.772 -0.2407  0.3097  0.7263
    1PC     H3B 9558   4.780   0.856   2.720 -2.3451 -0.9966 -0.9802
    1PC     H3C 9559   4.778   0.721   2.850  0.5885 -1.8956 -1.5080
    1PC     C34 9560   4.624   1.021   2.873 -0.1359 -0.6804 -0.2941
    1PC     H4A 9561   4.602   1.076   2.965  0.6279  1.3011 -1.2657
    1PC     H4B 9562   4.684   1.075   2.799 -0.5614 -0.5834 -0.5690
    1PC     H4C 9563   4.534   0.986   2.823 -0.2448 -0.2471 -0.4102
    1PC     C35 9564   4.842   0.954   2.948  0.1527  0.1223  0.1436
    1PC     H5A 9565   4.895   0.882   3.011  2.0690  2.8452  1.7239
    1PC     H5B 9566   4.835   1.042   3.011  3.6396  0.4205  0.2007
    1PC     H5C 9567   4.892   0.978   2.854 -2.0072 -0.9543 -1.3328
    1PC     O33 9568   4.690   0.609   3.214  0.9052  0.0231  0.2268
    1PC     O34 9569   4.435   0.585   3.207 -0.1606 -0.1818 -0.0799
    1PC     O21 9570   4.674   0.430   3.565  0.0845  0.3090  0.7916
    1PC     C21 9571   4.703   0.305   3.512 -0.5588  0.4216 -0.2473
    1PC     O22 9572   4.785   0.279   3.424 -0.1235  0.0254  0.2284
    1OL     C12 9573   4.621   0.186   3.564  0.5527  0.0753 -0.0208
    1OL     H2R 9574   4.622   0.113   3.483  1.6456  1.2639 -1.0985
    1OL     H2S 9575   4.519   0.225   3.577  0.9565  1.3094 -0.4493
    1OL     C13 9576   4.670   0.125   3.688 -0.2584 -0.0672 -0.0580
    1OL     H3R 9577   4.689   0.212   3.752  0.3438 -0.1357 -0.1363
    1OL     H3S 9578   4.769   0.082   3.672  0.0363  0.5694  0.0198
    1OL     C14 9579   4.574   0.022   3.749  0.4870  0.1676 -0.3448
    1OL     H4R 9580   4.641  -0.048   3.799  1.3402  1.1334 -0.1177
    1OL     H4S 9581   4.525  -0.038   3.672  1.5483  0.5847 -1.3595
    1OL     C15 9582   4.456   0.074   3.839 -0.2698 -0.1245 -0.2859
    1OL     H5R 9583   4.398  -0.011   3.874 -1.3673  0.4686 -0.6299
    1OL     H5S 9584   4.393   0.141   3.779 -0.2299 -1.2894 -1.6728
    1OL     C16 9585   4.512   0.154   3.964  0.3097 -0.5862  0.1582
    1OL     H6R 9586   4.425   0.183   4.024  2.7193  0.5585  3.2441
    1OL     H6S 9587   4.560   0.249   3.939 -2.5088  1.1014  0.8867
    1OL     C17 9588   4.602   0.079   4.060 -0.4428 -0.1811  0.4176
    1OL     H7R 9589   4.704   0.076   4.019 -0.5517 -0.0339  0.1315
    1OL     H7S 9590   4.576  -0.027   4.055  0.5786 -0.4551  0.7927
    1OL     C18 9591   4.599   0.123   4.212 -0.4906 -0.0221  0.2749
    1OL     H8R 9592   4.663   0.053   4.266 -0.1719 -0.4789 -0.6726
    1OL     H8S 9593   4.498   0.119   4.253  0.1735 -0.1318  1.9331
    1OL     C19 9594   4.633   0.270   4.220  0.2134 -0.2717  0.0866
    1OL     H9R 9595   4.678   0.316   4.132 -1.3951  1.1314 -0.0291
    1OL    C110 9596   4.594   0.343   4.332 -0.2074  0.3820 -0.7139
    1OL    H10R 9597   4.605   0.451   4.342  2.1337 -0.0378  2.0777
    1OL    C111 9598   4.523   0.271   4.443 -0.2151  0.2822 -0.3767
    1OL    H11R 9599   4.555   0.325   4.533 -1.5445  0.5821 -0.0684
    1OL    H11S 9600   4.550   0.166   4.453 -0.7142  0.1870 -0.0127
    1OL    C112 9601   4.367   0.281   4.430  0.5517 -0.3393  0.4186
    1OL    H12R 9602   4.326   0.218   4.351 -2.3544 -0.2164  1.7650
    1OL    H12S 9603   4.331   0.380   4.404  1.1302  0.0896  1.2231
    1OL    C113 9604   4.296   0.246   4.560  0.1814  0.3133 -0.0982
    1OL    H13R 9605   4.319   0.320   4.638 -0.5482 -0.3173  0.7190
    1OL    H13S 9606   4.339   0.151   4.592 -0.3781  0.0799 -0.0410
    1OL    C114 9607   4.143   0.245   4.554  0.5466  0.0593 -0.1279
    1OL    H14R 9608   4.099   0.173   4.484 -1.3266  1.2472 -0.2026
    1OL    H14S 9609   4.099   0.339   4.521 -2.6343 -0.9186  1.0435
    1OL    C115 9610   4.078   0.224   4.691 -0.2384  0.7900  0.7096
    1OL    H15R 9611   4.105   0.309   4.754 -1.1989  0.5238  1.5045
    1OL    H15S 9612   4.105   0.124   4.723  1.7528  0.5032 -1.6713
    1OL    C116 9613   3.925   0.229   4.683 -0.6622 -0.0111 -0.5165
    1OL    H16R 9614   3.891   0.144   4.623 -1.8467  0.1086 -0.0279
    1OL    H16S 9615   3.901   0.311   4.615  0.0840 -0.0907 -0.8836
    1OL    C117 9616   3.831   0.226   4.806 -0.9168 -0.1671 -0.0407
    1OL    H17R 9617   3.848   0.148   4.881  1.6669 -0.9995 -1.4188
    1OL    H17S 9618   3.727   0.215   4.775 -1.2511  2.2102  0.1479
    1OL    C118 9619   3.844   0.360   4.881 -0.3814 -0.8012  0.1825
    1OL    H18R 9620   3.781   0.435   4.833  1.2524 -0.3273 -1.2798
    1OL    H18S 9621   3.944   0.403   4.874 -0.2498 -1.3461 -1.6225
    1OL    H18T 9622   3.813   0.351   4.985 -0.0450  0.2761  0.3781
    1PA    C116 9623   1.326   3.112   4.687  0.5924 -0.9955 -0.1818
    1PA    H16R 9624   1.374   3.039   4.622  1.2648  1.3645 -2.4166
    1PA    H16S 9625   1.228   3.068   4.709 -0.4214  0.1766 -2.1566
    1PA    H16T 9626   1.378   3.137   4.779  0.5558  1.2227 -0.7331
    1PA    C115 9627   1.289   3.244   4.609 -0.4948 -0.4085  0.4686
    1PA    H15R 9628   1.214   3.207   4.540  1.0239 -2.7831  0.0145
    1PA    H15S 9629   1.233   3.318   4.665  0.2160  0.9840 -0.6301
    1PA    C114 9630   1.420   3.301   4.532 -0.2700 -0.4859  0.1049
    1PA    H14R 9631   1.486   3.343   4.608  0.7137 -0.7704 -0.5912
    1PA    H14S 9632   1.473   3.229   4.470 -0.8058 -1.6848  1.0140
    1PA    C113 9633   1.376   3.418   4.445 -0.5851  0.2151  0.3364
    1PA    H13R 9634   1.313   3.382   4.363 -0.6984 -0.9525  0.9291
    1PA    H13S 9635   1.310   3.486   4.498 -1.8372  0.6922 -1.7492
    1PA    C112 9636   1.494   3.498   4.377 -0.0935 -0.5228 -0.0462
    1PA    H12R 9637   1.549   3.537   4.462  2.6729  0.8288 -2.3923
    1PA    H12S 9638   1.555   3.432   4.315 -0.0557 -0.3006 -0.2440
    1PA    C111 9639   1.440   3.616   4.298 -0.0651 -0.7599  0.1302
    1PA    H11R 9640   1.526   3.665   4.252  1.5198 -1.2123  2.5661
    1PA    H11S 9641   1.364   3.581   4.227  2.0560 -1.3685 -1.9197
    1PA    C110 9642   1.355   3.715   4.379  0.1897  0.2684 -0.4035
    1PA    H10R 9643   1.257   3.665   4.385  0.5365 -0.4394 -0.5605
    1PA    H10S 9644   1.398   3.720   4.479 -0.0558  0.3315 -0.2995
    1PA     C19 9645   1.355   3.847   4.311 -0.2415 -0.0274 -0.3863
    1PA     H9R 9646   1.307   3.920   4.376  1.2980  0.1065  0.6296
    1PA     H9S 9647   1.460   3.874   4.292 -0.5183  1.4095  0.0483
    1PA     C18 9648   1.285   3.846   4.175 -0.7777 -0.0226 -0.2446
    1PA     H8R 9649   1.338   3.780   4.106  0.7421  1.8576 -0.9178
    1PA     H8S 9650   1.181   3.811   4.182 -0.6741 -0.9148 -2.4975
    1PA     C17 9651   1.278   3.984   4.117  0.2308  0.6077  0.0861
    1PA     H7R 9652   1.212   4.047   4.176 -2.2483 -1.3827 -0.4748
    1PA     H7S 9653   1.375   4.030   4.138  1.7310 -2.6743  0.6006
    1PA     C16 9654   1.259   3.988   3.960  0.5257  0.1095  0.5146
    1PA     H6R 9655   1.274   4.093   3.934  1.1016  0.1480  0.9905
    1PA     H6S 9656   1.338   3.935   3.906  0.4278  0.3246  0.1617
    1PA     C15 9657   1.116   3.944   3.912  0.3734 -0.2651  0.4646
    1PA     H5R 9658   1.117   3.984   3.810  4.5592  1.3195  1.0389
    1PA     H5S 9659   1.111   3.835   3.905  1.0191 -0.1981 -1.5241
    1PA     C14 9660   1.001   4.011   3.993 -0.2239  0.3710 -0.1001
    1PA     H4R 9661   1.004   3.968   4.093  0.7623  0.7829  0.0503
    1PA     H4S 9662   1.017   4.117   4.010 -2.4415  0.6535  0.4065
    1PA     C13 9663   0.867   3.977   3.921 -0.8018 -0.6321  0.0314
    1PA     H3R 9664   0.776   4.021   3.963 -0.9667  0.0283 -0.9933
    1PA     H3S 9665   0.879   4.013   3.819 -1.0061  0.4240  0.3771
    1PA     C12 9666   0.849   3.817   3.907 -0.0310  0.1771 -0.0313
    1PA     H2R 9667   0.916   3.775   3.832  1.0064  0.1087  0.9123
    1PA     H2S 9668   0.882   3.775   4.002  0.2319 -0.0451 -0.2186
    1PC     C11 9669   0.724   3.771   3.850  0.3789 -0.4256 -0.2072
    1PC     O12 9670   0.620   3.834   3.844 -0.6320  1.0022 -0.2650
    1PC     O11 9671   0.735   3.662   3.768 -0.2852 -0.8255 -0.3419
    1PC      C1 9672   0.632   3.615   3.678  0.4848 -0.6705  0.0629
    1PC      HR 9673   0.632   3.506   3.674  0.2317 -0.6982  0.7543
    1PC      HS 9674   0.532   3.656   3.697 -0.5641 -1.3085 -3.6449
    1PC      C2 9675   0.669   3.665   3.538  0.2765  0.1681 -0.4112
    1PC      HX 9676   0.593   3.637   3.465  2.0860 -1.1545 -1.8285
    1PC      C3 9677   0.803   3.604   3.491  0.3236 -0.2592 -0.0663
    1PC      HA 9678   0.889   3.651   3.539 -0.1099 -1.1888  1.6576
    1PC      HB 9679   0.806   3.495   3.505 -0.0578  0.0948  3.0168
    1PC     O31 9680   0.832   3.640   3.353 -0.1930  0.3231 -0.5204
    1PC     P31 9681   0.745   3.579   3.230 -0.0310  0.1848 -0.0552
    1PC     O32 9682   0.626   3.685   3.222 -0.1554 -0.4320 -0.2757
    1PC     C31 9683   0.665   3.825   3.199  0.2809  0.0063 -0.0982
    1PC     H1A 9684   0.663   3.871   3.299  0.5690 -0.4039  0.0972
    1PC     H1B 9685   0.767   3.824   3.160  0.7800  0.8477  1.1391
    1PC     C32 9686   0.562   3.895   3.105 -0.8163 -0.3202 -0.2484
    1PC     H2A 9687   0.460   3.878   3.140 -0.5885  1.6801  1.4517
    1PC     H2B 9688   0.580   4.002   3.112 -0.3714 -0.4005 -0.1594
    1PC     N31 9689   0.573   3.859   2.958 -0.2338  0.5589 -0.0752
    1PC     C33 9690   0.710   3.866   2.908  0.0590 -0.9797 -0.2256
    1PC     H3A 9691   0.778   3.788   2.941  2.1921  0.6974 -0.5448
    1PC     H3B 9692   0.696   3.863   2.799 -1.1208 -0.4371 -0.1011
    1PC     H3C 9693   0.749   3.966   2.928 -3.5135  0.7004 -1.1851
    1PC     C34 9694   0.526   3.718   2.940  0.1192 -0.0968  0.0637
    1PC     H4A 9695   0.518   3.693   2.834  0.2520 -2.0451  0.4979
    1PC     H4B 9696   0.594   3.644   2.982 -0.3620 -0.2396  0.5969
    1PC     H4C 9697   0.433   3.705   2.995  1.4371 -0.4931  2.2772
    1PC     C35 9698   0.476   3.951   2.888 -0.0736  0.6195  0.3788
    1PC     H5A 9699   0.488   3.963   2.780 -0.5596  0.5797  0.3182
    1PC     H5B 9700   0.492   4.049   2.932 -0.2532  0.4494  0.8308
    1PC     H5C 9701   0.375   3.929   2.924  0.8201 -2.2646  1.2562
    1PC     O33 9702   0.817   3.591   3.102  0.7644 -0.3366 -0.4558
    1PC     O34 9703   0.692   3.442   3.270  0.0366 -0.1924  0.2234
    1PC     O21 9704   0.686   3.810   3.541  0.6215 -0.2289  0.4211
    1PC     C21 9705   0.575   3.893   3.559  1.2913  0.0756 -0.8152
    1PC     O22 9706   0.458   3.852   3.552  0.3957  0.3051 -0.0223
    1OL     C12 9707   0.618   4.038   3.587 -0.0558 -0.2540  0.6626
    1OL     H2R 9708   0.686   4.068   3.506  2.6526 -2.2125  2.1207
    1OL     H2S 9709   0.687   4.044   3.672  0.6511 -1.4041  0.1799
    1OL     C13 9710   0.506   4.145   3.602  0.1855  0.0160  0.1950
    1OL     H3R 9711   0.443   4.144   3.514  0.2963  0.2618  0.1121
    1OL     H3S 9712   0.553   4.244   3.601  0.9756 -0.3645 -0.3710
    1OL     C14 9713   0.435   4.128   3.742  0.5195 -0.0219  0.1680
    1OL     H4R 9714   0.511   4.098   3.815 -1.0865 -0.3455  1.7547
    1OL     H4S 9715   0.371   4.041   3.728  0.9412 -0.0419 -1.7190
    1OL     C15 9716   0.367   4.250   3.812  0.3055 -0.4024 -0.4389
    1OL     H5R 9717   0.321   4.218   3.906 -1.0676 -0.4995 -1.1261
    1OL     H5S 9718   0.283   4.295   3.759  0.4038  0.4892  0.1523
    1OL     C16 9719   0.469   4.360   3.841 -0.0704  0.4537  1.4024
    1OL     H6R 9720   0.424   4.444   3.895  0.6757  2.2610 -0.7313
    1OL     H6S 9721   0.498   4.399   3.743 -1.9146  1.5381  1.2568
    1OL     C17 9722   0.588   4.321   3.930  0.0507  0.0518  0.5793
    1OL     H7R 9723   0.648   4.413   3.929 -0.2292  0.2289 -0.4494
    1OL     H7S 9724   0.638   4.231   3.893 -0.2841 -0.3544  1.1182
    1OL     C18 9725   0.553   4.315   4.084  0.4504 -0.1505  0.2930
    1OL     H8R 9726   0.483   4.233   4.097 -0.5284  0.8297  1.2777
    1OL     H8S 9727   0.503   4.410   4.101  0.6357 -0.4383  2.5348
    1OL     C19 9728   0.680   4.299   4.159 -0.1288  0.3302 -0.1627
    1OL     H9R 9729   0.754   4.374   4.135 -0.7619  0.8713 -0.4521
    1OL    C110 9730   0.704   4.221   4.262  0.0367  0.5210 -0.6156
    1OL    H10R 9731   0.789   4.227   4.329  0.0093  0.4987 -0.5790
    1OL    C111 9732   0.594   4.128   4.322  0.3571  0.4575 -0.3011
    1OL    H11R 9733   0.505   4.190   4.326  1.0562  1.5918 -1.6994
    1OL    H11S 9734   0.607   4.110   4.429 -1.4437  2.6362  0.3189
    1OL    C112 9735   0.578   3.986   4.264  0.5679  0.0036 -0.2773
    1OL    H12R 9736   0.531   3.990   4.166  0.1141  0.5590 -0.0420
    1OL    H12S 9737   0.498   3.942   4.325  0.9395  0.4916  0.5720
    1OL    C113 9738   0.702   3.897   4.246 -0.3206 -0.2274  0.0250
    1OL    H13R 9739   0.773   3.925   4.168  1.4131 -1.1403  1.2381
    1OL    H13S 9740   0.661   3.798   4.226  0.0664 -0.0609 -1.6669
    1OL    C114 9741   0.782   3.886   4.376  0.2105 -0.2086 -0.4423
    1OL    H14R 9742   0.698   3.873   4.445  0.5456 -0.1889 -0.0326
    1OL    H14S 9743   0.830   3.984   4.383  0.4902 -0.1496 -2.5787
    1OL    C115 9744   0.885   3.778   4.389 -0.7335 -0.0841 -0.1391
    1OL    H15R 9745   0.980   3.809   4.346 -0.4073 -1.5837 -0.5230
    1OL    H15S 9746   0.845   3.701   4.322  0.5229 -1.2693  0.4586
    1OL    C116 9747   0.906   3.719   4.528 -0.4350  0.0636  0.0839
    1OL    H16R 9748   0.961   3.624   4.520 -1.4084 -0.3054 -2.9497
    1OL    H16S 9749   0.813   3.675   4.566 -0.0813 -0.7272  0.0618
    1OL    C117 9750   0.965   3.823   4.628 -0.2114 -0.6595  0.3011
    1OL    H17R 9751   0.919   3.811   4.727 -0.5692  2.6581  0.6131
    1OL    H17S 9752   0.932   3.922   4.596  0.5205 -0.1923  0.9392
    1OL    C118 9753   1.118   3.852   4.627  0.1882  0.2053 -0.1033
    1OL    H18R 9754   1.161   3.844   4.527  0.9058 -1.5195  0.3316
    1OL    H18S 9755   1.166   3.768   4.677 -1.9506 -1.8261 -1.3317
    1OL    H18T 9756   1.141   3.951   4.667 -0.2526  0.3954 -0.3102
    1PA    C116 9757   0.933   0.824   5.113 -0.0419  0.0733 -0.2873
    1PA    H16R 9758   0.880   0.807   5.019  0.4134 -0.9342 -0.3744
    1PA    H16S 9759   0.883   0.764   5.190 -1.4227  1.4190 -0.1134
    1PA    H16T 9760   1.030   0.774   5.102 -0.4005 -0.8358  0.5458
    1PA    C115 9761   0.946   0.974   5.169  0.2528 -0.0936  0.4019
    1PA    H15R 9762   1.023   0.966   5.246 -0.9715 -2.8380  1.4228
    1PA    H15S 9763   0.990   1.033   5.088 -0.6013  1.6666  1.2044
    1PA    C114 9764   0.820   1.036   5.234  0.3279  0.1641 -0.2763
    1PA    H14R 9765   0.797   0.995   5.332 -1.4359  2.0725  0.1471
    1PA    H14S 9766   0.837   1.142   5.253 -1.7759  0.3462  0.7206
    1PA    C113 9767   0.689   1.038   5.147  0.1218 -0.5440 -0.6179
    1PA    H13R 9768   0.664   0.935   5.120  0.9959 -1.1206  0.6970
    1PA    H13S 9769   0.603   1.061   5.212  0.3354 -1.2642 -0.0749
    1PA    C112 9770   0.700   1.134   5.028 -0.3913 -0.3858  0.1599
    1PA    H12R 9771   0.745   1.227   5.062  0.8589 -1.1768  0.6768
    1PA    H12S 9772   0.769   1.089   4.957  0.6510  1.1880  0.1466
    1PA    C111 9773   0.566   1.150   4.951 -0.5757  0.0628  0.8039
    1PA    H11R 9774   0.530   1.053   4.917  0.7112 -0.6713  1.5086
    1PA    H11S 9775   0.493   1.191   5.021 -1.9482 -0.8610 -0.0776
    1PA    C110 9776   0.576   1.251   4.836  1.0322 -0.0096 -0.0361
    1PA    H10R 9777   0.479   1.301   4.822  2.1655  2.2495 -0.0647
    1PA    H10S 9778   0.639   1.334   4.867  1.1137  0.6079 -1.8270
    1PA     C19 9779   0.624   1.191   4.711 -0.4585  0.5786  0.5916
    1PA     H9R 9780   0.727   1.160   4.731 -0.7111  0.8661  2.4018
    1PA     H9S 9781   0.565   1.105   4.682 -3.0525  2.4937  0.0134
    1PA     C18 9782   0.622   1.292   4.587 -0.0796  0.0212  0.3418
    1PA     H8R 9783   0.518   1.322   4.575 -0.5467 -1.7587 -0.2181
    1PA     H8S 9784   0.682   1.378   4.618  0.4475 -0.0222 -0.5445
    1PA     C17 9785   0.689   1.241   4.454  0.1756 -0.2136 -0.2152
    1PA     H7R 9786   0.786   1.290   4.463  0.6666 -1.2398  0.1475
    1PA     H7S 9787   0.706   1.134   4.466 -2.7276 -0.5733  1.3325
    1PA     C16 9788   0.627   1.285   4.322  0.4874 -0.3765  0.2605
    1PA     H6R 9789   0.617   1.393   4.317  1.1311 -0.2233  1.9281
    1PA     H6S 9790   0.696   1.244   4.248 -1.6046 -2.4808 -0.6013
    1PA     C15 9791   0.502   1.223   4.273 -0.2707  0.0299  0.1168
    1PA     H5R 9792   0.503   1.115   4.290  0.0025 -0.0869 -0.6476
    1PA     H5S 9793   0.419   1.255   4.337 -1.3512  0.0931 -1.2965
    1PA     C14 9794   0.471   1.233   4.124  0.2563 -0.7083  0.6421
    1PA     H4R 9795   0.558   1.188   4.076  0.5774  1.4093 -0.8023
    1PA     H4S 9796   0.380   1.175   4.102 -0.5298  1.2791 -1.4843
    1PA     C13 9797   0.458   1.374   4.062  0.4826  0.1964 -0.5774
    1PA     H3R 9798   0.423   1.446   4.136  1.2410  0.6977 -0.6945
    1PA     H3S 9799   0.563   1.403   4.047  0.5293 -0.5248 -1.7442
    1PA     C12 9800   0.370   1.377   3.930 -1.0414 -0.0410 -0.1908
    1PA     H2R 9801   0.389   1.285   3.874 -0.4320 -0.7852  1.2123
    1PA     H2S 9802   0.263   1.382   3.950 -1.5794  0.8949 -3.0932
    1PC     C11 9803   0.409   1.494   3.852 -0.2396 -0.6876 -0.1727
    1PC     O12 9804   0.422   1.606   3.896 -0.2092  0.2044 -0.0300
    1PC     O11 9805   0.426   1.460   3.722  0.0679  0.4056 -0.5890
    1PC      C1 9806   0.492   1.551   3.628 -0.6163  0.0175 -0.0690
    1PC      HR 9807   0.467   1.521   3.526  1.6434  0.4093 -0.7600
    1PC      HS 9808   0.456   1.651   3.655  1.5499  0.6221  0.6566
    1PC      C2 9809   0.649   1.544   3.632  0.6132  0.1282 -0.4331
    1PC      HX 9810   0.682   1.634   3.581  0.2418  0.4373 -0.1313
    1PC      C3 9811   0.700   1.422   3.556  0.5366 -0.4078  0.1595
    1PC      HA 9812   0.796   1.394   3.599  0.0563 -1.5274  0.5397
    1PC      HB 9813   0.624   1.344   3.567 -1.5919  1.5311 -0.3400
    1PC     O31 9814   0.718   1.453   3.415 -0.0644 -0.4844 -0.0839
    1PC     P31 9815   0.840   1.541   3.365 -0.0601  0.5753 -0.0541
    1PC     O32 9816   0.938   1.427   3.323 -0.1150  0.2606 -0.3711
    1PC     C31 9817   0.962   1.406   3.183 -0.5523  0.0664  0.3959
    1PC     H1A 9818   0.872   1.426   3.125  0.6807  2.5786 -0.7570
    1PC     H1B 9819   1.031   1.482   3.146 -0.5108 -1.2045 -2.3174
    1PC     C32 9820   1.005   1.256   3.164  0.4338  0.4881  0.1663
    1PC     H2A 9821   1.046   1.235   3.065 -2.2392 -0.1306 -0.8757
    1PC     H2B 9822   1.081   1.232   3.238 -0.8895  0.4561  1.5380
    1PC     N31 9823   0.893   1.146   3.185 -0.1788  0.0895  1.0689
    1PC     C33 9824   0.866   1.115   3.325  0.8800  0.0477  0.0426
    1PC     H3A 9825   0.955   1.068   3.368  0.8177  1.2769  1.5662
    1PC     H3B 9826   0.848   1.206   3.382 -2.9209  0.9738 -2.4441
    1PC     H3C 9827   0.772   1.061   3.329 -1.0181  3.4365  3.7789
    1PC     C34 9828   0.761   1.193   3.124 -0.3522 -0.1186  0.1800
    1PC     H4A 9829   0.727   1.281   3.178  0.5974 -0.3323  1.1315
    1PC     H4B 9830   0.773   1.210   3.017  0.2623  1.9357  0.5634
    1PC     H4C 9831   0.692   1.111   3.145 -0.1413  0.0041  1.4097
    1PC     C35 9832   0.941   1.017   3.119 -0.2513  0.3569  0.0263
    1PC     H5A 9833   0.923   1.040   3.014  0.6207  0.0603 -0.1834
    1PC     H5B 9834   0.877   0.932   3.143 -1.8682  1.1780 -1.2738
    1PC     H5C 9835   1.045   0.994   3.140 -0.1501 -0.0415 -0.8893
    1PC     O33 9836   0.806   1.633   3.253  0.0034  0.1923 -0.0355
    1PC     O34 9837   0.903   1.609   3.484 -0.6437 -0.4300 -0.0791
    1PC     O21 9838   0.701   1.532   3.774  0.4493  0.2864  0.4718
    1PC     C21 9839   0.730   1.654   3.834 -0.0065 -0.5922 -0.2859
    1PC     O22 9840   0.716   1.766   3.784 -0.0815  0.2940 -0.3055
    1OL     C12 9841   0.767   1.641   3.979 -0.5531 -0.4315  0.9883
    1OL     H2R 9842   0.678   1.616   4.037 -1.9947 -1.3133 -1.5328
    1OL     H2S 9843   0.809   1.737   4.009  1.4342 -0.5205 -1.3580
    1OL     C13 9844   0.868   1.527   3.995 -0.3072  0.7462 -0.5018
    1OL     H3R 9845   0.951   1.544   3.927 -1.3232  1.3714 -1.5987
    1OL     H3S 9846   0.815   1.437   3.962 -0.9982  0.7798  0.4980
    1OL     C14 9847   0.912   1.525   4.147  0.0227 -0.1495 -0.7072
    1OL     H4R 9848   0.825   1.522   4.213  1.4127  1.6541  1.2584
    1OL     H4S 9849   0.965   1.619   4.166  0.5252  0.0194 -2.8129
    1OL     C15 9850   1.014   1.413   4.180 -0.7955 -0.1579  0.1021
    1OL     H5R 9851   0.963   1.317   4.173 -0.8180 -0.1621  0.3351
    1OL     H5S 9852   1.034   1.431   4.286 -0.2946  1.5565 -0.2714
    1OL     C16 9853   1.151   1.417   4.106  0.7376  0.3831  0.2179
    1OL     H6R 9854   1.124   1.395   4.002 -0.3268 -1.0894  0.7888
    1OL     H6S 9855   1.216   1.336   4.141 -1.3939 -1.3063  0.4240
    1OL     C17 9856   1.226   1.553   4.092 -0.4369 -0.3217  0.0298
    1OL     H7R 9857   1.164   1.632   4.048  2.3779  0.9748 -1.7839
    1OL     H7S 9858   1.301   1.526   4.018 -0.0511  1.3186 -0.2043
    1OL     C18 9859   1.278   1.607   4.227  0.0807  0.4878  0.8364
    1OL     H8R 9860   1.196   1.608   4.299 -1.5809  0.4383 -1.0125
    1OL     H8S 9861   1.308   1.711   4.216  0.7658  0.4226  2.0420
    1OL     C19 9862   1.385   1.524   4.292 -0.6390  0.0957 -0.4231
    1OL     H9R 9863   1.347   1.442   4.352 -0.7950 -0.1867 -0.9085
    1OL    C110 9864   1.514   1.543   4.291  0.4511  0.4083 -0.1084
    1OL    H10R 9865   1.577   1.478   4.351 -1.3780  0.4083  1.8614
    1OL    C111 9866   1.583   1.658   4.219 -0.3963 -0.0060  0.7591
    1OL    H11R 9867   1.512   1.740   4.202  2.1801  2.3057  0.7181
    1OL    H11S 9868   1.608   1.618   4.121  1.1073  1.6480  0.4396
    1OL    C112 9869   1.717   1.712   4.291 -0.2452 -0.0885 -0.7296
    1OL    H12R 9870   1.771   1.779   4.223 -0.6402  0.2312 -0.7257
    1OL    H12S 9871   1.782   1.624   4.299 -0.7688 -0.4286 -0.2475
    1OL    C113 9872   1.687   1.781   4.428 -0.8607  0.4704  0.3303
    1OL    H13R 9873   1.783   1.801   4.476 -0.4439  0.7250 -0.6035
    1OL    H13S 9874   1.629   1.710   4.487 -0.4253  1.6868  2.2735
    1OL    C114 9875   1.604   1.912   4.416 -0.2780 -0.4595  0.6022
    1OL    H14R 9876   1.521   1.896   4.346 -0.9455  0.2948  1.2177
    1OL    H14S 9877   1.658   1.999   4.379 -1.5962  0.7720  1.5056
    1OL    C115 9878   1.548   1.949   4.552 -0.1522  0.2760  0.0955
    1OL    H15R 9879   1.633   1.971   4.617 -1.0503  2.1380  0.6873
    1OL    H15S 9880   1.496   1.861   4.592 -1.9186  0.4613 -1.7435
    1OL    C116 9881   1.459   2.074   4.546  0.5838  0.1589 -0.7455
    1OL    H16R 9882   1.374   2.045   4.484  0.2682  1.3922 -0.9147
    1OL    H16S 9883   1.508   2.160   4.498  1.1913  0.5383  0.5395
    1OL    C117 9884   1.402   2.113   4.682 -0.1011  0.0882 -0.0649
    1OL    H17R 9885   1.484   2.117   4.753 -0.8720 -0.6080  0.8793
    1OL    H17S 9886   1.339   2.034   4.723 -2.2779  1.6008 -0.3794
    1OL    C118 9887   1.333   2.249   4.672 -0.0534  0.3694 -0.0982
    1OL    H18R 9888   1.262   2.262   4.754  0.2808  1.0045  0.0981
    1OL    H18S 9889   1.283   2.262   4.576  1.8284  1.1662 -1.0014
    1OL    H18T 9890   1.404   2.331   4.685 -0.4843  0.6481  0.5455
    1PA    C116 9891   0.109   2.120   4.836 -0.4620 -0.2015 -0.9792
    1PA    H16R 9892   0.129   2.109   4.729 -1.2152 -0.3437 -1.1105
    1PA    H16S 9893   0.002   2.132   4.851 -0.1977  2.2663 -0.8469
    1PA    H16T 9894   0.144   2.032   4.891  1.7930 -0.3945 -2.6665
    1PA    C115 9895   0.171   2.249   4.873  0.3908 -0.4125  0.2009
    1PA    H15R 9896   0.135   2.317   4.795  1.0762  0.3890  0.5633
    1PA    H15S 9897   0.135   2.282   4.971  1.2380 -0.6869  0.6063
    1PA    C114 9898   0.328   2.249   4.866  0.2930 -0.3401  0.2234
    1PA    H14R 9899   0.355   2.188   4.953 -1.2963 -1.5101 -0.0901
    1PA    H14S 9900   0.362   2.191   4.780 -2.2249  0.0095 -1.0475
    1PA    C113 9901   0.396   2.381   4.863 -0.0898 -0.6064  0.2114
    1PA    H13R 9902   0.335   2.454   4.808  1.9197  1.1113  0.1917
    1PA    H13S 9903   0.401   2.414   4.967 -2.2767 -1.9730  0.7881
    1PA    C112 9904   0.536   2.374   4.798 -0.1732  0.0577  0.1060
    1PA    H12R 9905   0.606   2.311   4.853 -0.3273 -0.4528 -0.2764
    1PA    H12S 9906   0.531   2.325   4.700 -0.4524  3.0817 -1.4334
    1PA    C111 9907   0.602   2.515   4.799  0.1879 -0.5667  0.1938
    1PA    H11R 9908   0.531   2.590   4.764  0.0389 -0.2352  1.1968
    1PA    H11S 9909   0.625   2.541   4.902  0.0526  1.3739 -0.2467
    1PA    C110 9910   0.729   2.535   4.711  0.6056  0.7603  0.3753
    1PA    H10R 9911   0.765   2.638   4.717  0.6688  0.8812 -1.6537
    1PA    H10S 9912   0.809   2.465   4.738  2.2272  2.0749 -0.9234
    1PA     C19 9913   0.704   2.509   4.558  0.3915  0.2404  0.0710
    1PA     H9R 9914   0.792   2.521   4.495 -0.3563  1.8081 -0.7184
    1PA     H9S 9915   0.687   2.402   4.541 -2.4904  0.7182 -0.3360
    1PA     C18 9916   0.582   2.583   4.503 -0.2392  0.6171  0.9262
    1PA     H8R 9917   0.496   2.565   4.568 -1.8536  0.7384 -1.1040
    1PA     H8S 9918   0.601   2.690   4.497  0.5024  0.3640 -2.3109
    1PA     C17 9919   0.558   2.548   4.356  0.0926 -0.0126  0.9458
    1PA     H7R 9920   0.643   2.590   4.302 -0.4486  0.0109  0.1136
    1PA     H7S 9921   0.548   2.440   4.339  1.4514 -0.4480  2.6736
    1PA     C16 9922   0.432   2.617   4.310 -0.1995  0.5058  0.0445
    1PA     H6R 9923   0.348   2.583   4.371 -0.1908  0.5389  0.0748
    1PA     H6S 9924   0.431   2.724   4.334  2.2225  0.5165  0.1804
    1PA     C15 9925   0.408   2.601   4.158 -0.0305 -0.3102 -0.4643
    1PA     H5R 9926   0.311   2.644   4.132  1.4083  3.5065  0.1800
    1PA     H5S 9927   0.480   2.663   4.104  0.2573  0.6466  0.9943
    1PA     C14 9928   0.423   2.452   4.105 -0.3735 -0.0982 -0.2941
    1PA     H4R 9929   0.517   2.407   4.134 -0.7263 -1.2917 -0.9655
    1PA     H4S 9930   0.340   2.395   4.148  0.9103 -3.2441 -1.8041
    1PA     C13 9931   0.408   2.438   3.952 -0.2195  0.2414 -0.9109
    1PA     H3R 9932   0.378   2.334   3.934 -0.6270  0.0387  0.8392
    1PA     H3S 9933   0.326   2.503   3.920  0.5892  0.8865 -1.7146
    1PA     C12 9934   0.535   2.478   3.882  0.6473  0.0472 -0.2983
    1PA     H2R 9935   0.589   2.561   3.928 -0.7228  0.5113  0.4928
    1PA     H2S 9936   0.590   2.384   3.894 -0.8097 -0.8444 -0.4301
    1PC     C11 9937   0.512   2.532   3.738  0.0270 -0.3493 -0.3530
    1PC     O12 9938   0.504   2.457   3.642  0.2486 -0.1640  0.4264
    1PC     O11 9939   0.504   2.667   3.726  0.8370 -0.0318  0.0178
    1PC      C1 9940   0.475   2.739   3.602 -0.4724 -0.2968 -0.0092
    1PC      HR 9941   0.567   2.784   3.564  0.0700  0.4510  2.0999
    1PC      HS 9942   0.438   2.671   3.525 -1.2426  0.2114 -0.0853
    1PC      C2 9943   0.369   2.844   3.627  0.3059  0.3507 -0.0088
    1PC      HX 9944   0.272   2.797   3.648 -0.0111  2.4643  3.6137
    1PC      C3 9945   0.373   2.938   3.509  0.4745  0.4103  0.6403
    1PC      HA 9946   0.299   3.013   3.539  1.9016  1.1558  2.4010
    1PC      HB 9947   0.469   2.987   3.493  0.4680  0.1187 -0.2870
    1PC     O31 9948   0.317   2.871   3.398 -0.5854  0.1788 -0.2632
    1PC     P31 9949   0.398   2.854   3.274 -0.1109  0.1416  0.1895
    1PC     O32 9950   0.429   3.001   3.229 -0.1423 -0.0884  0.1040
    1PC     C31 9951   0.322   3.084   3.180  0.4912 -0.1701  0.4014
    1PC     H1A 9952   0.277   3.037   3.091 -0.6596  2.5919 -0.5217
    1PC     H1B 9953   0.252   3.089   3.264  1.6083  2.2592  1.2178
    1PC     C32 9954   0.388   3.219   3.133 -0.0909 -0.2456  0.4706
    1PC     H2A 9955   0.314   3.283   3.084  1.2617  0.0123 -1.2916
    1PC     H2B 9956   0.424   3.286   3.211 -0.0437  1.5581 -1.0504
    1PC     N31 9957   0.506   3.216   3.040  0.2148 -0.3419 -0.3824
    1PC     C33 9958   0.483   3.118   2.933 -0.0512 -0.0296 -0.4910
    1PC     H3A 9959   0.388   3.142   2.886 -0.8641 -2.4408 -0.1570
    1PC     H3B 9960   0.567   3.119   2.863 -0.1011 -1.2630 -0.5826
    1PC     H3C 9961   0.474   3.022   2.984 -1.5096  0.6338  0.5368
    1PC     C34 9962   0.542   3.341   2.987  0.3523 -0.4901  0.2155
    1PC     H4A 9963   0.644   3.345   2.947 -0.7246 -0.4026 -2.5925
    1PC     H4B 9964   0.473   3.355   2.905 -1.8884  0.4465  2.2031
    1PC     H4C 9965   0.519   3.416   3.063  0.5018 -2.8311  2.6563
    1PC     C35 9966   0.634   3.180   3.113  0.4206  0.1810 -0.0186
    1PC     H5A 9967   0.713   3.181   3.038 -2.4500 -0.1226 -3.1625
    1PC     H5B 9968   0.630   3.083   3.161 -0.2913  0.9356  1.4975
    1PC     H5C 9969   0.663   3.250   3.192  0.8446 -0.5911  0.5099
    1PC     O33 9970   0.523   2.783   3.302 -0.3898 -0.6916  0.0946
    1PC     O34 9971   0.303   2.793   3.180  0.4617  0.4056  0.3155
    1PC     O21 9972   0.406   2.932   3.743  0.1267  0.2056 -0.7303
    1PC     C21 9973   0.351   2.900   3.864 -0.2581 -0.5134  0.3868
    1PC     O22 9974   0.285   2.801   3.878  0.0031 -0.2830 -0.3924
    1OL     C12 9975   0.380   3.004   3.969 -1.0409  0.1040  0.5999
    1OL     H2R 9976   0.334   3.097   3.934 -1.4228 -0.1295  0.4735
    1OL     H2S 9977   0.488   3.019   3.970 -1.1235  0.8891 -0.3250
    1OL     C13 9978   0.317   2.957   4.102 -0.3245 -0.3473  0.0063
    1OL     H3R 9979   0.382   2.884   4.150  1.0024  0.9616  0.2404
    1OL     H3S 9980   0.216   2.915   4.095 -0.2199 -0.3374 -1.7311
    1OL     C14 9981   0.308   3.086   4.192 -0.5569 -1.0204 -0.6373
    1OL     H4R 9982   0.252   3.163   4.138  0.2932  1.5042  2.0066
    1OL     H4S 9983   0.407   3.131   4.199  0.2294 -2.9151  0.9747
    1OL     C15 9984   0.242   3.077   4.328  0.2333  0.8488  0.7027
    1OL     H5R 9985   0.140   3.040   4.315  0.9578 -0.5785 -1.1180
    1OL     H5S 9986   0.247   3.177   4.374 -3.2571  0.7894  1.3567
    1OL     C16 9987   0.309   2.976   4.417  0.5308 -0.0098  0.3219
    1OL     H6R 9988   0.416   2.985   4.431  0.3175  2.8627  0.4704
    1OL     H6S 9989   0.291   2.880   4.369 -1.7395  1.2115 -1.4103
    1OL     C17 9990   0.242   2.962   4.555 -0.3807 -0.5808 -0.0945
    1OL     H7R 9991   0.230   3.057   4.608  0.5904  0.3076 -1.4383
    1OL     H7S 9992   0.297   2.891   4.616  0.1082  0.9203  1.2567
    1OL     C18 9993   0.100   2.902   4.555 -0.4410 -0.0564  0.8413
    1OL     H8R 9994   0.049   2.975   4.492 -0.9598 -0.0084  1.3101
    1OL     H8S 9995   0.053   2.901   4.654 -1.1788  1.0672  0.5038
    1OL     C19 9996   0.104   2.772   4.481  0.0379 -0.5689  0.1905
    1OL     H9R 9997   0.144   2.773   4.380 -0.7263  3.4344 -0.1670
    1OL    C110 9998   0.070   2.660   4.537  0.2495  0.3761 -0.1978
    1OL    H10R 9999   0.092   2.571   4.479  1.0939  0.3548  0.1353
    1OL    C11110000   0.021   2.642   4.679 -0.1560 -0.0141 -0.2193
    1OL    H11R10001   0.049   2.724   4.746  2.0729  0.4530 -1.6450
    1OL    H11S10002   0.058   2.542   4.705 -2.8225 -1.8445 -3.0397
    1OL    C11210003  -0.128   2.621   4.676  0.3969  0.2720  0.6131
    1OL    H12R10004  -0.142   2.554   4.591  0.9163 -0.7914  1.3644
    1OL    H12S10005  -0.181   2.711   4.642 -0.2874 -0.4981 -0.3913
    1OL    C11310006  -0.198   2.573   4.804 -0.0688 -0.7210  0.2916
    1OL    H13R10007  -0.295   2.622   4.814  0.1733 -0.1602 -0.0840
    1OL    H13S10008  -0.129   2.601   4.884  2.3452 -1.2214 -1.5484
    1OL    C11410009  -0.213   2.422   4.822 -0.3055  0.2515 -0.1971
    1OL    H14R10010  -0.119   2.373   4.795 -0.5247 -0.5449  0.4592
    1OL    H14S10011  -0.289   2.395   4.749 -0.5487 -0.3510  0.2753
    1OL    C11510012  -0.263   2.394   4.965 -0.0912  0.8167  0.6383
    1OL    H15R10013  -0.357   2.444   4.986 -1.2831 -1.3540  0.6642
    1OL    H15S10014  -0.185   2.430   5.032  2.2890 -3.1645  0.2005
    1OL    C11610015  -0.280   2.238   4.996 -0.1097 -0.1961  0.4066
    1OL    H16R10016  -0.178   2.197   4.990 -0.5317 -1.4672  1.4742
    1OL    H16S10017  -0.349   2.196   4.923  2.3093 -2.4589 -0.6586
    1OL    C11710018  -0.348   2.225   5.134  0.6757  0.6728  0.7795
    1OL    H17R10019  -0.361   2.119   5.159 -0.6153  1.2460  2.6586
    1OL    H17S10020  -0.442   2.278   5.119 -0.3406 -0.9709  1.1068
    1OL    C11810021  -0.270   2.293   5.252 -0.3062  0.5360 -0.5130
    1OL    H18R10022  -0.287   2.400   5.240 -2.0970  0.3248 -0.0863
    1OL    H18S10023  -0.163   2.273   5.247 -0.3841 -0.5997  1.7129
    1OL    H18T10024  -0.297   2.258   5.352  2.8129  0.9751  0.5405
    1PA    C11610025   2.115   4.856   4.412  0.0880  0.1022  0.3169
    1PA    H16R10026   2.079   4.788   4.335  0.6023  0.5210 -0.3033
    1PA    H16S10027   2.172   4.938   4.367 -1.4007  3.0147  3.4486
    1PA    H16T10028   2.028   4.902   4.461  0.6289  1.6602 -0.1403
    1PA    C11510029   2.191   4.792   4.530 -0.6725 -1.0114  0.0939
    1PA    H15R10030   2.295   4.811   4.503 -0.5194 -1.2470  0.5161
    1PA    H15S10031   2.160   4.855   4.613  1.8291  1.1453 -0.5169
    1PA    C11410032   2.173   4.644   4.555 -0.3326 -0.1716 -0.5955
    1PA    H14R10033   2.256   4.600   4.611  1.3212 -0.0171 -2.8495
    1PA    H14S10034   2.077   4.637   4.607 -0.9693  1.6974 -1.4477
    1PA    C11310035   2.149   4.546   4.440  0.4568 -0.4195  0.5558
    1PA    H13R10036   2.142   4.442   4.472 -2.2662 -0.2049  0.7760
    1PA    H13S10037   2.058   4.583   4.392  1.4896  1.7829  0.2351
    1PA    C11210038   2.267   4.558   4.341 -0.9118  0.0805 -0.3906
    1PA    H12R10039   2.277   4.660   4.305  1.4790  1.0232  2.7369
    1PA    H12S10040   2.352   4.544   4.408  1.0902  0.0048 -2.8713
    1PA    C11110041   2.275   4.450   4.231  0.7191  0.4996 -0.7276
    1PA    H11R10042   2.364   4.470   4.172  0.0404  0.9219 -1.6141
    1PA    H11S10043   2.286   4.352   4.277 -0.4395 -0.6066 -2.7580
    1PA    C11010044   2.146   4.438   4.151 -1.2980  0.1623  0.0507
    1PA    H10R10045   2.059   4.408   4.210 -1.5963  2.9022  1.0786
    1PA    H10S10046   2.136   4.540   4.113 -1.9858  0.0487 -0.0685
    1PA     C1910047   2.169   4.340   4.040 -0.2651  0.4396  0.6522
    1PA     H9R10048   2.221   4.383   3.954 -3.7637  1.5119 -1.0110
    1PA     H9S10049   2.226   4.256   4.081 -1.0930 -0.0928  0.7129
    1PA     C1810050   2.040   4.286   3.977  0.3173  0.2769  0.4801
    1PA     H8R10051   2.073   4.197   3.922 -2.9620 -0.6140 -0.1226
    1PA     H8S10052   1.974   4.255   4.058  0.3386 -1.2240 -0.0640
    1PA     C1710053   1.970   4.391   3.885 -0.3546  0.4833 -0.4527
    1PA     H7R10054   1.967   4.480   3.949 -0.5736  0.6483 -0.6915
    1PA     H7S10055   2.032   4.424   3.801  1.4177 -1.1939  0.1708
    1PA     C1610056   1.825   4.348   3.836  0.0862 -0.4512  0.3010
    1PA     H6R10057   1.831   4.266   3.764 -0.2832  0.6144 -0.9582
    1PA     H6S10058   1.767   4.299   3.914 -0.3850 -1.5710 -0.7333
    1PA     C1510059   1.748   4.468   3.773 -0.2245  0.7466 -0.8072
    1PA     H5R10060   1.770   4.559   3.828 -1.4333  1.0217 -0.7831
    1PA     H5S10061   1.787   4.471   3.670  0.9344 -3.7666 -0.5991
    1PA     C1410062   1.600   4.440   3.762  1.2716  0.4505 -0.1649
    1PA     H4R10063   1.585   4.341   3.720 -1.1903  0.2011  1.1802
    1PA     H4S10064   1.552   4.434   3.860 -1.2135  3.2242 -1.1279
    1PA     C1310065   1.530   4.543   3.683 -0.7563 -0.5656  0.0996
    1PA     H3R10066   1.541   4.645   3.719  0.7239 -0.3829 -0.8042
    1PA     H3S10067   1.581   4.547   3.586  0.7248 -3.1129  0.7472
    1PA     C1210068   1.383   4.511   3.660 -1.0366  0.1615 -0.0618
    1PA     H2R10069   1.331   4.503   3.756  1.3042 -1.9590  1.0794
    1PA     H2S10070   1.333   4.588   3.602  1.0880  1.5629 -0.0818
    1PC     C1110071   1.363   4.383   3.586 -0.1139 -0.5876  0.2766
    1PC     O1210072   1.433   4.335   3.501  0.3634  1.0377  0.5123
    1PC     O1110073   1.246   4.334   3.624 -0.1620 -0.0954 -0.1815
    1PC      C110074   1.211   4.206   3.564 -0.5684 -0.4757  0.6012
    1PC      HR10075   1.292   4.147   3.522 -0.7810 -1.1783  1.1620
    1PC      HS10076   1.162   4.141   3.638 -0.9325 -0.2570  0.5540
    1PC      C210077   1.095   4.230   3.448  0.0942  0.7845 -0.5125
    1PC      HX10078   1.027   4.145   3.449 -0.7993  1.4923  1.2467
    1PC      C310079   1.149   4.251   3.299  0.1907  0.8537 -0.0125
    1PC      HA10080   1.214   4.168   3.270  1.0609  0.5901  2.5827
    1PC      HB10081   1.066   4.249   3.228 -0.3808 -1.3842  0.6693
    1PC     O3110082   1.222   4.377   3.283 -0.0378  0.6015 -0.1045
    1PC     P3110083   1.263   4.428   3.144 -0.5496 -0.0619  0.2228
    1PC     O3210084   1.135   4.400   3.054  0.1847  0.1451  0.7446
    1PC     C3110085   1.022   4.491   3.030  0.1195 -0.1894  0.5912
    1PC     H1A10086   1.059   4.584   2.987  1.2923 -0.4120  1.0743
    1PC     H1B10087   0.953   4.442   2.961  3.9962 -1.7006 -2.4123
    1PC     C3210088   0.940   4.514   3.161 -0.1754  0.3511  0.4595
    1PC     H2A10089   0.897   4.423   3.205  1.2587  0.1273  1.4137
    1PC     H2B10090   1.014   4.554   3.230 -0.2791 -0.7563  1.2310
    1PC     N3110091   0.825   4.616   3.159 -0.1331 -0.5899  0.1610
    1PC     C3310092   0.870   4.751   3.114  0.6126  0.1638 -0.1768
    1PC     H3A10093   0.787   4.822   3.118  0.7925  0.2517  2.7264
    1PC     H3B10094   0.945   4.792   3.182 -0.4572  0.2353  0.9711
    1PC     H3C10095   0.912   4.745   3.013  0.1799 -1.1211 -0.2798
    1PC     C3410096   0.723   4.579   3.056 -0.2412 -0.6518  0.1098
    1PC     H4A10097   0.684   4.482   3.085  1.2575 -1.7994 -1.6023
    1PC     H4B10098   0.642   4.653   3.054 -1.0168 -1.4983 -0.0225
    1PC     H4C10099   0.768   4.579   2.956 -0.8309 -0.4568 -0.1566
    1PC     C3510100   0.760   4.627   3.289 -0.3241  0.2313 -1.4920
    1PC     H5A10101   0.832   4.667   3.361  0.6979  0.3440 -2.5632
    1PC     H5B10102   0.724   4.531   3.327  0.4678  0.8241  0.8354
    1PC     H5C10103   0.672   4.689   3.272 -0.3006  0.4194 -0.9370
    1PC     O3310104   1.284   4.572   3.148 -0.1781  0.2543  0.4612
    1PC     O3410105   1.366   4.327   3.098  0.2107 -0.8782 -0.0351
    1PC     O2110106   1.011   4.341   3.481  0.4345  0.1462  0.0684
    1PC     C2110107   0.926   4.320   3.582 -0.0340 -0.2222  0.5380
    1PC     O2210108   0.887   4.213   3.633 -0.1665  0.6166  0.5653
    1OL     C1210109   0.867   4.454   3.627  0.1639  0.2860 -0.2240
    1OL     H2R10110   0.758   4.442   3.637  0.1291 -0.1437 -1.1151
    1OL     H2S10111   0.894   4.522   3.547  1.0845  0.9702  0.6564
    1OL     C1310112   0.908   4.493   3.765 -0.1800  0.1417  0.2720
    1OL     H3R10113   0.876   4.421   3.841 -2.9578  1.5443  0.4942
    1OL     H3S10114   0.852   4.581   3.797 -2.0174 -0.7646 -0.3523
    1OL     C1410115   1.058   4.526   3.782 -0.2004  0.5615 -0.1834
    1OL     H4R10116   1.098   4.550   3.683 -1.4392  1.5165 -0.4640
    1OL     H4S10117   1.106   4.437   3.823 -1.1513 -0.7137 -1.7659
    1OL     C1510118   1.097   4.645   3.872  0.4432  0.1583 -0.4013
    1OL     H5R10119   1.064   4.743   3.835 -0.0436  0.0044 -0.3846
    1OL     H5S10120   1.205   4.648   3.880  0.3806  0.5857  0.3356
    1OL     C1610121   1.050   4.631   4.016  0.5135  0.0100 -0.2884
    1OL     H6R10122   0.941   4.632   4.022  0.4133 -3.3252 -0.5854
    1OL     H6S10123   1.085   4.725   4.060 -1.7784  1.0000 -0.5396
    1OL     C1710124   1.114   4.516   4.086  0.0914  0.4128  1.0224
    1OL     H7R10125   1.221   4.525   4.062  0.2477 -0.4726  1.3731
    1OL     H7S10126   1.083   4.417   4.053 -0.9565  1.3299 -0.8187
    1OL     C1810127   1.089   4.523   4.242  0.4634  0.3448  0.7725
    1OL     H8R10128   0.981   4.522   4.259  0.2767 -0.9389 -0.4125
    1OL     H8S10129   1.123   4.616   4.289  0.2281  0.0260  1.5832
    1OL     C1910130   1.149   4.410   4.317  0.0165  0.3524  0.2946
    1OL     H9R10131   1.245   4.388   4.272  0.3953  1.7705  0.3811
    1OL    C11010132   1.101   4.352   4.427 -0.2055  0.0727 -0.1832
    1OL    H10R10133   1.156   4.267   4.467 -0.0661 -0.0290 -0.5905
    1OL    C11110134   0.971   4.388   4.497 -0.3509  0.1829  0.1235
    1OL    H11R10135   0.899   4.419   4.421 -0.5744 -0.3390  0.1197
    1OL    H11S10136   0.987   4.472   4.565  1.1524  0.1350 -0.1682
    1OL    C11210137   0.917   4.265   4.578 -0.1743 -0.5430  0.4757
    1OL    H12R10138   0.998   4.232   4.644 -0.3740 -0.1091  0.9433
    1OL    H12S10139   0.905   4.184   4.506  1.3369 -0.5835  0.2405
    1OL    C11310140   0.786   4.275   4.656  0.5000  0.1893  0.8823
    1OL    H13R10141   0.704   4.292   4.585  0.0415 -2.1693  0.7832
    1OL    H13S10142   0.790   4.371   4.708  1.0273  1.2190 -0.9904
    1OL    C11410143   0.747   4.148   4.738  0.5479  0.3112  0.3558
    1OL    H14R10144   0.742   4.068   4.663 -0.0643 -1.3680  2.1518
    1OL    H14S10145   0.645   4.158   4.776  0.8207  0.2488  1.1062
    1OL    C11510146   0.856   4.118   4.850 -0.3552 -0.6028 -0.2101
    1OL    H15R10147   0.959   4.099   4.817 -0.3995 -0.5499 -0.3790
    1OL    H15S10148   0.823   4.028   4.903 -0.6917 -0.3784 -0.0409
    1OL    C11610149   0.869   4.230   4.962  0.5320 -0.4209  0.2951
    1OL    H16R10150   0.769   4.275   4.969  0.5832  0.0628 -1.7350
    1OL    H16S10151   0.931   4.314   4.930  0.5439  0.6287  2.9743
    1OL    C11710152   0.910   4.182   5.101  0.5338 -0.3316 -0.2149
    1OL    H17R10153   0.832   4.131   5.157  0.0684 -0.1055 -0.6499
    1OL    H17S10154   0.944   4.270   5.155 -0.8219 -1.3368  2.3800
    1OL    C11810155   1.021   4.076   5.086 -0.4358  0.4495  0.2511
    1OL    H18R10156   1.081   4.098   4.997 -0.0273 -3.7097 -0.5917
    1OL    H18S10157   0.981   3.975   5.083  1.8211 -0.5227  1.5734
    1OL    H18T10158   1.080   4.083   5.178 -0.4261  1.7770  0.1573
    1PA    C11610159   0.193   4.153   5.229  0.3618 -0.6136 -0.2143
    1PA    H16R10160   0.286   4.099   5.248  0.5084  0.1275  1.2631
    1PA    H16S10161   0.115   4.106   5.289 -0.4580  0.8194 -0.1372
    1PA    H16T10162   0.217   4.254   5.262  1.0130  1.3617 -6.0935
    1PA    C11510163   0.150   4.166   5.080 -0.3145  0.1439  0.0128
    1PA    H15R10164   0.132   4.065   5.043  1.3801  0.0858 -0.6914
    1PA    H15S10165   0.059   4.224   5.070 -1.0670 -1.2267 -1.3528
    1PA    C11410166   0.253   4.241   4.992  0.2340  0.5453  0.8818
    1PA    H14R10167   0.274   4.343   5.027 -0.8827  1.2529 -0.4428
    1PA    H14S10168   0.350   4.193   4.990  0.7692  1.6280 -0.5324
    1PA    C11310169   0.206   4.246   4.842  0.2550 -0.0744  0.5450
    1PA    H13R10170   0.161   4.153   4.807  0.0079  1.0787 -2.4026
    1PA    H13S10171   0.120   4.314   4.833 -0.3868 -1.0886 -1.3431
    1PA    C11210172   0.317   4.298   4.743 -0.2211  0.1495 -0.1078
    1PA    H12R10173   0.350   4.397   4.776 -2.3185 -0.0367  2.7078
    1PA    H12S10174   0.399   4.226   4.742  0.6125  1.0859 -1.2353
    1PA    C11110175   0.278   4.307   4.597  0.5033  0.2044 -0.9159
    1PA    H11R10176   0.369   4.340   4.546  0.5811  1.0597 -0.2534
    1PA    H11S10177   0.252   4.207   4.565 -2.5103 -0.0866  2.1294
    1PA    C11010178   0.158   4.403   4.571 -0.5631  0.0708  0.1382
    1PA    H10R10179   0.065   4.353   4.597 -0.5793  0.8111  1.5342
    1PA    H10S10180   0.168   4.487   4.639 -2.7886 -0.3998  1.0981
    1PA     C1910181   0.136   4.452   4.423 -0.1012 -0.1794 -0.2345
    1PA     H9R10182   0.071   4.539   4.416 -1.7918 -1.4850 -0.9719
    1PA     H9S10183   0.232   4.484   4.381 -0.7704 -0.1807 -1.7973
    1PA     C1810184   0.088   4.345   4.329  0.5714  0.2398 -0.2368
    1PA     H8R10185   0.159   4.262   4.336  0.1324 -0.0796  0.6196
    1PA     H8S10186  -0.011   4.313   4.362  0.2494  0.9830 -0.4948
    1PA     C1710187   0.088   4.401   4.185  0.2542  0.4127 -0.2344
    1PA     H7R10188   0.039   4.498   4.191  0.3278  0.5248 -1.2875
    1PA     H7S10189   0.191   4.414   4.151 -0.0705 -1.3218 -1.9921
    1PA     C1610190   0.021   4.319   4.082  0.0327 -0.7472 -0.1774
    1PA     H6R10191  -0.088   4.320   4.084  0.0645  1.7504  1.8259
    1PA     H6S10192   0.033   4.362   3.982  0.1360  2.8108  1.2930
    1PA     C1510193   0.069   4.177   4.087 -0.0948 -0.2051  0.4158
    1PA     H5R10194   0.177   4.180   4.097  0.1787 -2.9082 -1.2268
    1PA     H5S10195   0.032   4.129   4.178 -2.3996  1.4796  0.4082
    1PA     C1410196   0.022   4.107   3.952  0.4268  0.0859  0.8822
    1PA     H4R10197   0.044   4.182   3.875 -0.8716 -1.9120 -1.5090
    1PA     H4S10198   0.081   4.017   3.936  0.7496  0.4280  0.1188
    1PA     C1310199  -0.124   4.064   3.940 -0.1041 -0.0923  0.2494
    1PA     H3R10200  -0.137   3.998   4.025  0.1928  0.1782  0.5045
    1PA     H3S10201  -0.193   4.149   3.946  1.8536  1.5279  0.3420
    1PA     C1210202  -0.147   3.992   3.803 -0.1307 -0.1479  0.4718
    1PA     H2R10203  -0.108   4.053   3.722  3.0514  0.5574  2.4588
    1PA     H2S10204  -0.090   3.899   3.800 -2.1351 -1.3516 -2.3446
    1PC     C1110205  -0.293   3.959   3.784  0.3847  0.2676  0.2536
    1PC     O1210206  -0.382   3.992   3.850  0.5453  0.0408  0.4193
    1PC     O1110207  -0.305   3.887   3.665 -0.4882  0.0163 -0.7006
    1PC      C110208  -0.434   3.876   3.597 -0.3117  0.3032 -0.7502
    1PC      HR10209  -0.438   3.785   3.536 -2.6722 -0.7345  0.8665
    1PC      HS10210  -0.513   3.852   3.670 -0.6381 -0.5448 -1.3799
    1PC      C210211  -0.474   3.996   3.509 -0.9477 -0.3306 -0.0394
    1PC      HX10212  -0.571   3.964   3.472 -1.4775 -1.2892  2.0914
    1PC      C310213  -0.370   4.011   3.393 -0.3275  0.0353  0.9295
    1PC      HA10214  -0.338   3.914   3.355  1.6451  1.3033 -0.7729
    1PC      HB10215  -0.431   4.054   3.312  2.1767  2.8345  0.4330
    1PC     O3110216  -0.261   4.105   3.425  0.4845  0.1991 -0.3991
    1PC     P3110217  -0.210   4.222   3.330  0.2659 -0.0771 -0.2862
    1PC     O3210218  -0.307   4.343   3.350  0.3589  0.2620  0.0663
    1PC     C3110219  -0.262   4.469   3.325  0.5055 -0.1463  0.0837
    1PC     H1A10220  -0.188   4.502   3.398  1.6175  0.5298 -1.3091
    1PC     H1B10221  -0.218   4.464   3.225  0.0774 -0.7697 -0.0771
    1PC     C3210222  -0.383   4.567   3.333  0.5997 -0.2823 -0.1599
    1PC     H2A10223  -0.429   4.564   3.432  1.9110  0.9014  0.5139
    1PC     H2B10224  -0.340   4.667   3.324  0.3118 -0.3215 -2.3409
    1PC     N3110225  -0.495   4.565   3.228  0.4546  0.3659  0.8227
    1PC     C3310226  -0.443   4.582   3.092 -0.4076  0.7895  0.7337
    1PC     H3A10227  -0.386   4.492   3.068 -1.6569  0.4236 -1.0165
    1PC     H3B10228  -0.523   4.600   3.019 -0.3545 -2.1520 -0.1319
    1PC     H3C10229  -0.378   4.669   3.089  1.4952 -0.6357 -2.7227
    1PC     C3410230  -0.583   4.441   3.231  0.5407 -0.2383 -0.6962
    1PC     H4A10231  -0.534   4.349   3.201  1.1459 -0.0085 -0.4282
    1PC     H4B10232  -0.619   4.425   3.333  0.5744  2.3466 -0.2382
    1PC     H4C10233  -0.666   4.462   3.163  0.2057 -2.0021 -0.8448
    1PC     C3510234  -0.586   4.679   3.257  0.5684 -0.0181 -0.3885
    1PC     H5A10235  -0.521   4.762   3.231  0.4926  0.0623 -0.3164
    1PC     H5B10236  -0.598   4.665   3.364  1.9410 -1.8198 -0.4345
    1PC     H5C10237  -0.675   4.673   3.193  0.4077 -0.4237 -0.1291
    1PC     O3310238  -0.074   4.265   3.369 -0.0600  0.2524  0.2896
    1PC     O3410239  -0.231   4.186   3.187 -0.1360 -0.0623  0.1582
    1PC     O2110240  -0.484   4.117   3.598  0.1212  0.6790  0.1405
    1PC     C2110241  -0.581   4.212   3.566 -0.7649  0.3755 -0.9196
    1PC     O2210242  -0.665   4.199   3.486 -0.6129 -0.0254  0.0201
    1OL     C1210243  -0.557   4.334   3.650  0.4528  0.3524 -0.4922
    1OL     H2R10244  -0.595   4.425   3.602  0.3195  1.5208  1.7577
    1OL     H2S10245  -0.448   4.338   3.654  0.4654 -1.2780  1.3803
    1OL     C1310246  -0.617   4.328   3.794 -0.0253 -0.4134 -0.0455
    1OL     H3R10247  -0.585   4.231   3.831  0.5307 -0.6376 -1.0743
    1OL     H3S10248  -0.725   4.340   3.807 -0.0425 -0.0695 -0.4772
    1OL     C1410249  -0.549   4.431   3.882  0.1460  0.4894 -0.1658
    1OL     H4R10250  -0.566   4.534   3.850  1.3787  1.3324  1.7904
    1OL     H4S10251  -0.446   4.400   3.900 -0.2118 -0.3259  0.5505
    1OL     C1510252  -0.617   4.417   4.019  0.5589  0.0442 -0.6328
    1OL     H5R10253  -0.717   4.458   4.011  0.3532 -0.2840  0.1932
    1OL     H5S10254  -0.569   4.481   4.093  0.5949  0.2882 -0.8663
    1OL     C1610255  -0.619   4.280   4.084  0.5085  0.0689 -0.2385
    1OL     H6R10256  -0.681   4.214   4.023 -0.6410  2.0040 -1.2113
    1OL     H6S10257  -0.686   4.274   4.171 -0.0818  1.7632 -0.5606
    1OL     C1710258  -0.488   4.202   4.104  0.7859 -0.0168  1.0084
    1OL     H7R10259  -0.407   4.267   4.138  0.7970  1.4161 -1.5936
    1OL     H7S10260  -0.459   4.170   4.004  2.1525  2.6305  0.5077
    1OL     C1810261  -0.496   4.078   4.189  0.1343 -0.6424  0.6900
    1OL     H8R10262  -0.404   4.023   4.172 -0.0893 -0.7625 -0.1784
    1OL     H8S10263  -0.574   4.010   4.155  1.6481 -1.9927 -0.1404
    1OL     C1910264  -0.505   4.114   4.336  0.3437  0.2325 -1.3814
    1OL     H9R10265  -0.582   4.182   4.368 -0.4380 -1.6542  0.8599
    1OL    C11010266  -0.437   4.076   4.444  0.1465  0.0844  0.5006
    1OL    H10R10267  -0.465   4.115   4.541 -0.6950 -1.2609  0.8109
    1OL    C11110268  -0.314   3.977   4.432  0.3260  0.6139 -0.1787
    1OL    H11R10269  -0.317   3.919   4.340  0.9749  0.0449  0.1585
    1OL    H11S10270  -0.323   3.901   4.510 -1.3531  2.0193  1.0400
    1OL    C11210271  -0.176   4.035   4.457  0.3333 -0.5106  0.2772
    1OL    H12R10272  -0.149   4.090   4.367 -0.1719 -0.0275  0.4223
    1OL    H12S10273  -0.108   3.950   4.468  0.5113 -0.9754 -3.8481
    1OL    C11310274  -0.156   4.124   4.584 -0.2168  0.7257  0.5691
    1OL    H13R10275  -0.216   4.213   4.565 -3.7477 -1.7411 -0.3815
    1OL    H13S10276  -0.052   4.157   4.583  0.7574 -2.1520  1.9402
    1OL    C11410277  -0.196   4.060   4.724  0.3494 -0.9090  0.1356
    1OL    H14R10278  -0.302   4.034   4.722  0.0985 -0.0994  1.7064
    1OL    H14S10279  -0.178   4.136   4.800  1.6726 -0.7988 -0.2685
    1OL    C11510280  -0.113   3.939   4.742  0.2997  0.3235  0.0869
    1OL    H15R10281  -0.006   3.961   4.739  0.2672  0.7368  1.4907
    1OL    H15S10282  -0.157   3.867   4.673 -0.5175 -0.2594  1.2010
    1OL    C11610283  -0.145   3.879   4.881 -0.2423  0.4711 -0.5944
    1OL    H16R10284  -0.247   3.839   4.886 -0.3357  0.5986 -1.4757
    1OL    H16S10285  -0.132   3.958   4.955  1.4620 -0.6967  0.3768
    1OL    C11710286  -0.053   3.761   4.919 -0.1679 -0.5065 -0.7496
    1OL    H17R10287  -0.082   3.729   5.019 -3.3141  0.6032 -1.2452
    1OL    H17S10288   0.050   3.795   4.929 -0.9582  2.4260 -2.2224
    1OL    C11810289  -0.054   3.648   4.814 -0.1727  0.3748 -0.0219
    1OL    H18R10290   0.028   3.576   4.824 -0.4846 -0.3862 -2.5921
    1OL    H18S10291  -0.045   3.690   4.714  0.6684  1.9653  0.7113
    1OL    H18T10292  -0.153   3.602   4.823  0.0748  0.0885  1.4559
    1PA    C11610293   2.652   4.583   4.396 -0.1325  0.2554 -0.0372
    1PA    H16R10294   2.690   4.582   4.498  1.2111 -1.5587 -0.5324
    1PA    H16S10295   2.586   4.497   4.398  1.3881 -0.9637 -1.0477
    1PA    H16T10296   2.591   4.674   4.391 -0.6522 -0.0985 -0.1410
    1PA    C11510297   2.769   4.551   4.294  0.5651 -0.1227  0.6139
    1PA    H15R10298   2.838   4.633   4.311 -0.2889  0.2507  2.4417
    1PA    H15S10299   2.818   4.456   4.317  0.2331 -0.4190  0.1132
    1PA    C11410300   2.727   4.551   4.142  0.4662 -0.6805  0.0377
    1PA    H14R10301   2.679   4.454   4.127  0.5463 -1.1356  2.5258
    1PA    H14S10302   2.655   4.632   4.125  0.0596 -1.1499 -0.4837
    1PA    C11310303   2.850   4.578   4.051 -0.4760 -0.4512  0.1454
    1PA    H13R10304   2.899   4.663   4.100  0.5203 -1.4728  0.9205
    1PA    H13S10305   2.910   4.487   4.050 -0.7714 -0.7052  2.9481
    1PA    C11210306   2.813   4.623   3.911 -0.1782  0.2901 -0.2177
    1PA    H12R10307   2.781   4.538   3.850 -2.5135 -0.6828  2.2621
    1PA    H12S10308   2.726   4.688   3.903  1.9576  3.3263  0.2708
    1PA    C11110309   2.923   4.686   3.832 -0.9228 -0.4859 -0.1474
    1PA    H11R10310   2.896   4.685   3.726 -0.8562 -0.9168 -0.1618
    1PA    H11S10311   2.951   4.784   3.871  0.6534 -1.5913  1.5701
    1PA    C11010312   3.056   4.608   3.821 -0.1423  0.0297  0.1646
    1PA    H10R10313   3.103   4.605   3.919 -0.3761  1.5908  0.3427
    1PA    H10S10314   3.034   4.511   3.777 -0.6885  1.4114 -2.7880
    1PA     C1910315   3.163   4.658   3.724 -0.4626 -0.9858 -0.4423
    1PA     H9R10316   3.249   4.591   3.737  2.2765  2.5502  0.4725
    1PA     H9S10317   3.130   4.640   3.622  2.9176 -0.7928 -1.6066
    1PA     C1810318   3.198   4.804   3.746  0.1423 -0.2109  0.2269
    1PA     H8R10319   3.277   4.815   3.672  1.0860 -1.0619  1.0970
    1PA     H8S10320   3.110   4.863   3.718 -0.0291 -1.4928 -2.1376
    1PA     C1710321   3.241   4.848   3.883  0.2715  0.1448 -0.0545
    1PA     H7R10322   3.166   4.843   3.962  0.4861 -0.5803  0.1036
    1PA     H7S10323   3.326   4.790   3.918 -0.9549 -2.3785 -1.1698
    1PA     C1610324   3.296   4.992   3.883  0.4217  0.2864 -0.0896
    1PA     H6R10325   3.358   5.004   3.972  0.1857  1.0518 -0.0253
    1PA     H6S10326   3.365   5.011   3.800 -0.4659 -1.9721 -1.3940
    1PA     C1510327   3.191   5.099   3.887  0.8534 -0.5967  0.7920
    1PA     H5R10328   3.113   5.088   3.812 -0.7011  0.7368  2.1560
    1PA     H5S10329   3.141   5.084   3.983 -0.9024  0.3324  0.0580
    1PA     C1410330   3.240   5.246   3.889  0.9110  0.3989  0.7426
    1PA     H4R10331   3.166   5.317   3.925 -0.3475 -0.9151  0.8125
    1PA     H4S10332   3.311   5.243   3.972  0.9889 -1.2072  0.6475
    1PA     C1310333   3.308   5.297   3.767  0.0358  0.1838  0.4668
    1PA     H3R10334   3.350   5.395   3.788  2.0606 -0.5491 -0.0274
    1PA     H3S10335   3.390   5.226   3.752 -1.5926 -2.6422  4.1604
    1PA     C1210336   3.213   5.309   3.647  0.2537 -0.3410  0.4711
    1PA     H2R10337   3.118   5.342   3.687 -0.8872 -1.0196 -1.5883
    1PA     H2S10338   3.248   5.386   3.578  0.6743 -1.3908 -0.5029
    1PC     C1110339   3.188   5.184   3.575  0.3065  0.4485 -0.7502
    1PC     O1210340   3.275   5.105   3.536 -0.5512 -0.1929  0.5954
    1PC     O1110341   3.057   5.172   3.543 -0.6290 -0.3497  0.3019
    1PC      C110342   3.017   5.077   3.446  0.0940  0.3348 -0.6286
    1PC      HR10343   3.089   5.081   3.363  2.9344  0.8949  1.7803
    1PC      HS10344   3.021   4.975   3.487  1.0449 -0.4699 -2.6182
    1PC      C210345   2.872   5.109   3.400  0.1919  0.4073  0.1551
    1PC      HX10346   2.835   5.024   3.342 -0.5272 -0.8380  2.3683
    1PC      C310347   2.862   5.227   3.305  0.3128 -0.1032 -0.0933
    1PC      HA10348   2.867   5.196   3.200  0.5980  1.8084 -0.6694
    1PC      HB10349   2.761   5.262   3.328  1.1377  1.8625  0.6323
    1PC     O3110350   2.947   5.339   3.331  0.3286  1.1122 -0.6296
    1PC     P3110351   3.069   5.369   3.243  0.1404 -0.3132  0.1121
    1PC     O3210352   3.000   5.449   3.126  0.1953  0.3154 -0.0189
    1PC     C3110353   2.979   5.592   3.138  0.1698  0.1740  0.1070
    1PC     H1A10354   2.935   5.611   3.236  1.2319  1.0446  0.4266
    1PC     H1B10355   3.080   5.632   3.150  0.5934 -1.1531  1.0397
    1PC     C3210356   2.897   5.644   3.022  0.6000  0.0673  0.4865
    1PC     H2A10357   2.855   5.743   3.043  0.7004  0.1170  0.4539
    1PC     H2B10358   2.958   5.653   2.932  0.6069 -1.5233  0.3252
    1PC     N3110359   2.766   5.577   2.975 -0.1589  0.0455  0.4215
    1PC     C3310360   2.784   5.441   2.916  0.5121  0.9042 -0.0298
    1PC     H3A10361   2.702   5.405   2.853  2.3539 -0.3660 -1.7874
    1PC     H3B10362   2.875   5.442   2.855  0.5629 -0.8633  0.0009
    1PC     H3C10363   2.799   5.369   2.996 -0.8064  2.1374  1.3372
    1PC     C3410364   2.668   5.564   3.093 -0.3040  0.6137  0.1974
    1PC     H4A10365   2.663   5.659   3.147 -3.5546  0.4537  0.3070
    1PC     H4B10366   2.568   5.535   3.061  0.2183  0.9910 -1.8791
    1PC     H4C10367   2.712   5.491   3.161  0.2267  1.2664  0.5657
    1PC     C3510368   2.693   5.656   2.871  0.3052 -0.5753  0.6082
    1PC     H5A10369   2.652   5.750   2.907 -2.3448 -0.4416 -2.5305
    1PC     H5B10370   2.610   5.587   2.853  0.5089 -0.5566 -0.4129
    1PC     H5C10371   2.753   5.660   2.780 -1.2711 -1.6097 -0.5209
    1PC     O3310372   3.165   5.455   3.319  0.2376  0.5665 -0.0589
    1PC     O3410373   3.115   5.248   3.186 -0.3892  0.0425  0.0296
    1PC     O2110374   2.784   5.128   3.519  0.5361  0.0229  0.4104
    1PC     C2110375   2.761   5.031   3.612  0.5387  0.2795  0.0022
    1PC     O2210376   2.819   4.925   3.622  0.1973 -0.5991 -0.0242
    1OL     C1210377   2.651   5.071   3.705  0.0651 -0.6882 -0.4146
    1OL     H2R10378   2.591   4.983   3.729 -0.2982 -0.5854 -0.9273
    1OL     H2S10379   2.586   5.144   3.656 -0.6009 -1.7902 -1.1904
    1OL     C1310380   2.710   5.134   3.834 -0.2554  0.3386  0.3009
    1OL     H3R10381   2.625   5.168   3.893 -1.5139  0.2540 -1.4211
    1OL     H3S10382   2.779   5.213   3.804 -0.8078  0.9147  0.5420
    1OL     C1410383   2.786   5.024   3.911 -0.5343 -0.0702  0.8705
    1OL     H4R10384   2.868   4.987   3.849 -0.4581  1.7585 -0.1642
    1OL     H4S10385   2.730   4.930   3.915  0.7616 -0.9037 -0.1392
    1OL     C1510386   2.835   5.083   4.047  0.3146  0.2439 -0.0647
    1OL     H5R10387   2.746   5.111   4.104  0.0385 -0.5819 -0.0775
    1OL     H5S10388   2.901   5.168   4.030 -1.1316  1.7478  1.7215
    1OL     C1610389   2.903   4.976   4.126  0.4366 -0.4402  0.6683
    1OL     H6R10390   2.984   4.941   4.061  0.8648 -0.7180  1.3465
    1OL     H6S10391   2.840   4.888   4.139 -1.8210  0.6894 -2.1766
    1OL     C1710392   2.963   5.023   4.260  0.2880 -0.2823 -0.0677
    1OL     H7R10393   2.879   5.042   4.327  0.5236 -0.6986  0.3462
    1OL     H7S10394   3.008   5.122   4.249 -1.9946  0.6553 -1.4251
    1OL     C1810395   3.054   4.919   4.320 -0.6040  0.9916 -0.2835
    1OL     H8R10396   3.007   4.821   4.332 -0.0467  0.9523  1.7542
    1OL     H8S10397   3.075   4.947   4.423 -0.0105 -0.8604  0.1132
    1OL     C1910398   3.179   4.904   4.242  0.1179  0.0175 -0.1802
    1OL     H9R10399   3.183   4.817   4.177 -3.5204 -0.5682  0.3010
    1OL    C11010400   3.293   4.977   4.252 -0.1043  0.0359  0.7946
    1OL    H10R10401   3.385   4.947   4.203 -0.8109 -1.0237  0.0955
    1OL    C11110402   3.305   5.077   4.358  0.2458 -0.7150 -0.0170
    1OL    H11R10403   3.332   5.027   4.452 -1.4840 -0.1497  0.8081
    1OL    H11S10404   3.214   5.133   4.378  0.3176 -1.1799  1.7476
    1OL    C11210405   3.412   5.184   4.335 -0.4685 -0.2055 -0.2867
    1OL    H12R10406   3.370   5.247   4.257 -2.4276  0.9138  1.6297
    1OL    H12S10407   3.505   5.133   4.309  0.5701  1.3244  0.3590
    1OL    C11310408   3.430   5.266   4.468  0.2318 -0.2737 -0.5226
    1OL    H13R10409   3.496   5.345   4.435 -0.1019  0.1744 -0.1318
    1OL    H13S10410   3.487   5.207   4.541  0.9732 -0.1070 -0.9692
    1OL    C11410411   3.302   5.320   4.541 -0.5785  0.5523  0.4645
    1OL    H14R10412   3.227   5.360   4.472 -1.6952 -0.7594  0.8961
    1OL    H14S10413   3.326   5.406   4.604 -2.9367  0.7673  1.1312
    1OL    C11510414   3.219   5.223   4.629 -0.4458 -0.4288 -0.0345
    1OL    H15R10415   3.282   5.199   4.715 -0.7505 -2.0017 -0.2206
    1OL    H15S10416   3.190   5.132   4.576  1.3582 -0.5930 -0.7900
    1OL    C11610417   3.085   5.277   4.680  0.0229  0.2100  0.5106
    1OL    H16R10418   3.108   5.381   4.707  1.5845  0.3701 -1.3418
    1OL    H16S10419   3.070   5.237   4.781 -1.2287 -0.3905  0.0885
    1OL    C11710420   2.958   5.265   4.586 -0.1369  0.2571 -0.9930
    1OL    H17R10421   2.871   5.291   4.646  0.0956  1.7727 -1.3151
    1OL    H17S10422   2.941   5.165   4.543  3.7227 -0.0111 -2.0325
    1OL    C11810423   2.966   5.366   4.474  0.0718 -0.4208  0.0935
    1OL    H18R10424   3.040   5.342   4.398  0.7073 -0.8018  0.8209
    1OL    H18S10425   2.996   5.462   4.516 -0.0469  0.1801 -1.1672
    1OL    H18T10426   2.867   5.390   4.435  0.3527 -0.2034 -0.4835
    1PA    C11610427   4.703   5.290   4.853 -0.6567  0.0126 -0.1569
    1PA    H16R10428   4.680   5.224   4.936 -2.7684  0.0585 -0.6825
    1PA    H16S10429   4.764   5.371   4.891  0.6865 -2.0218  2.1336
    1PA    H16T10430   4.761   5.223   4.788  0.9605  0.6445  0.6176
    1PA    C11510431   4.583   5.348   4.774  0.3790 -0.2479  0.0002
    1PA    H15R10432   4.534   5.429   4.829  2.2841 -0.8533  2.6654
    1PA    H15S10433   4.621   5.401   4.686  0.2227 -1.0200 -0.5394
    1PA    C11410434   4.479   5.241   4.745 -0.5101 -0.5935 -0.1482
    1PA    H14R10435   4.532   5.154   4.707 -0.0876  0.4856 -2.0555
    1PA    H14S10436   4.430   5.202   4.836 -0.3449 -1.9660 -0.6320
    1PA    C11310437   4.363   5.294   4.649 -0.2915  0.3523  0.0763
    1PA    H13R10438   4.292   5.212   4.630  1.4516 -1.2644  0.3821
    1PA    H13S10439   4.309   5.374   4.700 -2.6870  1.1990 -3.5381
    1PA    C11210440   4.410   5.339   4.509  0.1650  0.1329 -0.2085
    1PA    H12R10441   4.339   5.414   4.475 -1.3478 -0.9601  0.4571
    1PA    H12S10442   4.507   5.389   4.514 -0.6161  1.5167  1.3930
    1PA    C11110443   4.404   5.225   4.403  0.0090 -0.2086 -0.7064
    1PA    H11R10444   4.464   5.143   4.443 -0.4230 -0.9364 -1.5558
    1PA    H11S10445   4.302   5.189   4.392 -0.3034  0.7220 -0.8962
    1PA    C11010446   4.460   5.274   4.264 -0.0736  0.6148  0.3965
    1PA    H10R10447   4.413   5.370   4.241 -0.7241  0.7591  2.2359
    1PA    H10S10448   4.565   5.297   4.280  0.4644 -0.1134 -2.0244
    1PA     C1910449   4.441   5.181   4.146 -0.2033 -0.3296 -1.1014
    1PA     H9R10450   4.512   5.210   4.068 -0.7377 -0.6933 -1.7206
    1PA     H9S10451   4.468   5.082   4.183 -0.8942  0.6087  2.0680
    1PA     C1810452   4.304   5.174   4.073 -0.3203 -0.6813  0.2179
    1PA     H8R10453   4.314   5.095   3.999 -0.7404 -0.7020  0.1815
    1PA     H8S10454   4.226   5.146   4.144  0.3133 -0.6682  0.9275
    1PA     C1710455   4.266   5.302   3.998  0.2576 -0.5278  0.1371
    1PA     H7R10456   4.267   5.391   4.061 -1.0575  0.8542 -1.7457
    1PA     H7S10457   4.333   5.320   3.914  0.4319 -1.2308  0.1223
    1PA     C1610458   4.120   5.284   3.939  0.6985 -0.1288  0.0455
    1PA     H6R10459   4.063   5.240   4.021  0.2427 -1.0524 -0.7493
    1PA     H6S10460   4.068   5.376   3.912 -0.0962 -0.6415 -0.1736
    1PA     C1510461   4.109   5.205   3.804  0.1131  0.1626 -0.0703
    1PA     H5R10462   4.145   5.269   3.724  2.4152 -0.0746  0.7525
    1PA     H5S10463   4.173   5.117   3.808  0.1108  0.0932 -1.5216
    1PA     C1410464   3.958   5.159   3.782  0.0742  0.2526  0.5943
    1PA     H4R10465   3.962   5.100   3.690  1.1101  2.2140 -0.6542
    1PA     H4S10466   3.922   5.093   3.861  0.5840 -1.0897 -0.2706
    1PA     C1310467   3.873   5.289   3.760  0.4027 -0.1758  0.0041
    1PA     H3R10468   3.870   5.347   3.852  0.5757 -0.9129  0.4788
    1PA     H3S10469   3.917   5.353   3.683  1.0130  0.5265  0.9331
    1PA     C1210470   3.723   5.247   3.730  0.4972 -0.9122 -0.2471
    1PA     H2R10471   3.705   5.185   3.642  0.8392 -0.8138 -0.3885
    1PA     H2S10472   3.685   5.182   3.809  1.0358 -0.1930  0.6140
    1PC     C1110473   3.644   5.370   3.706 -0.4907 -0.4435  0.0297
    1PC     O1210474   3.605   5.432   3.803 -0.1241 -0.2760  0.5037
    1PC     O1110475   3.606   5.390   3.575  0.1510 -0.0907 -0.7212
    1PC      C110476   3.526   5.506   3.539  0.0253 -0.0213  0.0008
    1PC      HR10477   3.467   5.476   3.452 -1.1500  3.5921 -0.5366
    1PC      HS10478   3.453   5.542   3.612 -0.4455  2.1307 -1.4957
    1PC      C210479   3.614   5.628   3.506  0.2480  0.3641 -0.4993
    1PC      HX10480   3.553   5.718   3.497 -0.8379 -0.0497  2.4714
    1PC      C310481   3.690   5.607   3.375  0.2627 -0.2567 -0.0679
    1PC      HA10482   3.783   5.549   3.382  0.3336 -0.1337  0.0033
    1PC      HB10483   3.626   5.566   3.297 -0.1335  0.1674  0.0318
    1PC     O3110484   3.737   5.742   3.324 -0.5823 -0.4929  0.1750
    1PC     P3110485   3.809   5.753   3.183 -0.2617 -0.0845 -0.3609
    1PC     O3210486   3.954   5.678   3.195 -0.1403  0.0490  0.0955
    1PC     C3110487   4.071   5.742   3.248 -0.8191  0.2042 -0.3077
    1PC     H1A10488   4.060   5.851   3.256 -4.0975 -0.2471  2.6156
    1PC     H1B10489   4.086   5.700   3.347  1.7219 -0.0201 -0.7580
    1PC     C3210490   4.187   5.713   3.149 -0.1708 -0.3495 -0.1510
    1PC     H2A10491   4.288   5.727   3.188 -0.3349 -2.8350  1.3176
    1PC     H2B10492   4.183   5.606   3.129 -0.8409 -0.1295 -1.2748
    1PC     N3110493   4.191   5.788   3.011 -0.4552  0.0964 -0.0054
    1PC     C3310494   4.219   5.930   3.021  0.1621  0.4022 -0.0163
    1PC     H3A10495   4.241   5.980   2.926 -3.1643  0.8042 -0.6254
    1PC     H3B10496   4.145   5.986   3.078  0.0655 -0.7179  0.9745
    1PC     H3C10497   4.313   5.933   3.077 -0.4884  3.3205  0.9669
    1PC     C3410498   4.306   5.716   2.938 -0.2691 -0.0407 -0.5159
    1PC     H4A10499   4.292   5.609   2.957  0.4751 -0.3960 -1.8820
    1PC     H4B10500   4.300   5.736   2.831 -0.7828  0.4699 -0.3922
    1PC     H4C10501   4.398   5.752   2.984 -0.7831 -0.1315  0.5975
    1PC     C3510502   4.062   5.780   2.937 -0.2080  0.9965 -0.1342
    1PC     H5A10503   4.027   5.680   2.914 -0.4779  1.0154  0.1878
    1PC     H5B10504   4.059   5.832   2.840  0.2606 -0.3309 -0.8698
    1PC     H5C10505   3.982   5.821   2.998 -1.5563 -1.2479 -0.3403
    1PC     O3310506   3.729   5.682   3.086 -0.9818  0.8230 -0.4117
    1PC     O3410507   3.829   5.901   3.165 -0.3706  0.0685 -0.4761
    1PC     O2110508   3.717   5.641   3.609 -0.4818  0.5117  0.1412
    1PC     C2110509   3.732   5.757   3.669 -0.4032  0.1442  0.1221
    1PC     O2210510   3.658   5.855   3.660 -0.2289 -0.0378  0.2165
    1OL     C1210511   3.865   5.756   3.744 -0.4074 -0.0926  0.2106
    1OL     H2R10512   3.867   5.852   3.796  2.5698 -1.2314  2.2905
    1OL     H2S10513   3.951   5.754   3.678 -0.2688 -1.6996  0.4280
    1OL     C1310514   3.871   5.639   3.846  0.3529  0.5823  0.1946
    1OL     H3R10515   3.905   5.550   3.792 -0.3118  0.0846  0.5884
    1OL     H3S10516   3.767   5.615   3.868  0.0624 -1.2499 -2.9674
    1OL     C1410517   3.959   5.671   3.967  0.1796  0.1255  0.1257
    1OL     H4R10518   3.932   5.768   4.010 -0.6550 -0.7332  1.5418
    1OL     H4S10519   4.061   5.685   3.929 -0.3114 -1.0445 -1.7100
    1OL     C1510520   3.948   5.566   4.080 -0.3287  0.3922 -0.3399
    1OL     H5R10521   3.924   5.466   4.043  0.6608 -0.5578  1.4859
    1OL     H5S10522   3.855   5.597   4.128 -0.8830 -2.8543  0.7986
    1OL     C1610523   4.060   5.558   4.196  0.6132 -0.4976  0.0153
    1OL     H6R10524   4.079   5.650   4.253 -0.9192 -0.9599  1.3380
    1OL     H6S10525   4.149   5.545   4.134  0.0506  0.2320 -0.9655
    1OL     C1710526   4.051   5.439   4.292  0.4322  0.7598 -0.2474
    1OL     H7R10527   4.124   5.439   4.373 -0.1111 -3.2210  0.3165
    1OL     H7S10528   4.068   5.344   4.242 -0.4820  0.0117  0.8387
    1OL     C1810529   3.919   5.417   4.370 -0.5323 -0.1084 -0.2860
    1OL     H8R10530   3.838   5.441   4.300 -1.4503 -0.2983  0.7023
    1OL     H8S10531   3.921   5.496   4.445  0.9029 -0.4721  0.0826
    1OL     C1910532   3.904   5.274   4.426 -0.0663  0.3023  0.1379
    1OL     H9R10533   3.903   5.197   4.350  0.8634 -0.3442  0.7717
    1OL    C11010534   3.903   5.235   4.556  0.1441 -0.4353  0.3189
    1OL    H10R10535   3.900   5.130   4.584 -0.3775 -1.3071 -2.7784
    1OL    C11110536   3.926   5.331   4.670 -0.4704 -0.3996  0.2055
    1OL    H11R10537   3.971   5.427   4.643 -0.8486 -0.3727 -0.3307
    1OL    H11S10538   4.001   5.284   4.735 -0.1158 -2.5208 -1.6710
    1OL    C11210539   3.798   5.358   4.756 -0.0126 -0.4997 -0.3015
    1OL    H12R10540   3.723   5.423   4.710 -1.4362 -3.2388 -1.9636
    1OL    H12S10541   3.835   5.404   4.848  0.3645 -2.3648  0.5022
    1OL    C11310542   3.701   5.242   4.786  0.5550  0.1093 -1.0285
    1OL    H13R10543   3.757   5.159   4.829 -1.4238 -0.6660  0.0950
    1OL    H13S10544   3.664   5.213   4.687 -2.9162 -0.7052  0.4459
    1OL    C11410545   3.589   5.292   4.892 -0.1293 -0.6049 -0.3091
    1OL    H14R10546   3.509   5.347   4.841  1.3415  4.3079  2.3711
    1OL    H14S10547   3.651   5.356   4.956  1.1839 -2.4617  0.3127
    1OL    C11510548   3.536   5.167   4.971 -0.2298 -0.5281  0.7135
    1OL    H15R10549   3.614   5.102   5.011 -1.2695 -1.8791  0.5656
    1OL    H15S10550   3.481   5.101   4.904 -0.1560 -0.0357  0.1588
    1OL    C11610551   3.433   5.202   5.079 -0.8399  0.0944  0.7262
    1OL    H16R10552   3.485   5.269   5.148  1.1031 -1.0498  0.4032
    1OL    H16S10553   3.412   5.106   5.129 -0.9251 -0.2555  0.0228
    1OL    C11710554   3.293   5.258   5.032 -0.2542 -0.4955 -0.9742
    1OL    H17R10555   3.248   5.194   4.955 -0.1096 -2.3342  0.4621
    1OL    H17S10556   3.312   5.359   4.994  0.1605 -0.8493 -1.7102
    1OL    C11810557   3.198   5.260   5.151  0.1336 -0.4092  0.6325
    1OL    H18R10558   3.240   5.293   5.246  1.3034 -1.5206  0.5110
    1OL    H18S10559   3.167   5.160   5.184  1.4285 -1.1900 -0.4337
    1OL    H18T10560   3.105   5.314   5.130  1.2807  1.0437 -0.8467
    1PA    C11610561   4.932   2.071   3.818 -0.1624 -0.7098 -0.5464
    1PA    H16R10562   4.927   2.142   3.735  2.0604 -1.0885 -1.0324
    1PA    H16S10563   4.845   2.080   3.883  0.4827 -1.7645  0.4720
    1PA    H16T10564   4.937   1.970   3.776  1.5207 -0.0130 -2.0723
    1PA    C11510565   5.056   2.116   3.896  0.2066  0.5405 -0.2758
    1PA    H15R10566   5.050   2.086   4.001  4.0969 -1.6224 -0.5889
    1PA    H15S10567   5.151   2.083   3.852 -1.1392 -1.0621 -2.0481
    1PA    C11410568   5.064   2.265   3.905 -0.4272 -0.3009  0.1531
    1PA    H14R10569   5.155   2.297   3.956  0.9474 -0.0036 -2.3629
    1PA    H14S10570   5.081   2.298   3.802 -0.2812  0.0426  0.2855
    1PA    C11310571   4.940   2.332   3.957  0.3337 -0.4318 -0.1559
    1PA    H13R10572   4.850   2.312   3.897  1.8752  0.0620 -2.7001
    1PA    H13S10573   4.919   2.290   4.055  3.2576  1.7130  1.4685
    1PA    C11210574   4.940   2.483   3.984  0.4315 -0.2325  0.5010
    1PA    H12R10575   5.025   2.502   4.050 -0.1925 -2.5794  2.0601
    1PA    H12S10576   4.977   2.532   3.894  0.0365  0.5350  0.7458
    1PA    C11110577   4.821   2.553   4.040 -0.1743  0.2557  0.4824
    1PA    H11R10578   4.740   2.545   3.966  0.6076 -1.3046 -0.2331
    1PA    H11S10579   4.786   2.498   4.128 -1.4325  1.2968  0.6519
    1PA    C11010580   4.854   2.695   4.085  0.2331  0.7130 -0.1042
    1PA    H10R10581   4.826   2.708   4.190 -0.7498 -0.9532 -0.1425
    1PA    H10S10582   4.963   2.703   4.088  0.3846 -1.2308  0.2749
    1PA     C1910583   4.788   2.816   4.014 -0.3164 -0.2133 -0.0499
    1PA     H9R10584   4.682   2.791   4.021 -0.5004 -0.1822 -2.2352
    1PA     H9S10585   4.811   2.902   4.077 -1.8251  0.1095  0.0970
    1PA     C1810586   4.814   2.829   3.871  0.1101  0.7983  0.4714
    1PA     H8R10587   4.787   2.738   3.816 -0.6503  1.8428 -0.9154
    1PA     H8S10588   4.743   2.902   3.832  1.7536  0.9998 -2.2595
    1PA     C1710589   4.959   2.874   3.851 -0.4113  0.0456 -0.2395
    1PA     H7R10590   4.971   2.963   3.913  1.7691 -0.4446  0.0804
    1PA     H7S10591   5.021   2.793   3.890  0.7792  1.4216  0.7923
    1PA     C1610592   4.981   2.908   3.701 -0.0549  0.4864  0.3527
    1PA     H6R10593   4.977   2.821   3.636  0.3677 -0.7471  1.9400
    1PA     H6S10594   4.901   2.975   3.668  0.3275  0.0146 -1.5988
    1PA     C1510595   5.107   2.983   3.682 -0.2205  0.1904  0.5339
    1PA     H5R10596   5.111   2.995   3.574 -1.1023  0.0374  0.4734
    1PA     H5S10597   5.111   3.088   3.711 -0.5814 -0.0305  1.4068
    1PA     C1410598   5.227   2.904   3.736 -0.2927 -0.4993 -0.0618
    1PA     H4R10599   5.224   2.906   3.845  0.0388  0.0165 -0.0632
    1PA     H4S10600   5.226   2.798   3.709 -0.0131 -0.3248 -0.7752
    1PA     C1310601   5.369   2.966   3.690  0.3875  0.0835 -0.4086
    1PA     H3R10602   5.365   3.069   3.725 -2.7570 -0.7958  2.0498
    1PA     H3S10603   5.448   2.915   3.746  0.2622 -1.0136 -1.1978
    1PA     C1210604   5.397   2.948   3.540  0.0470 -1.3676  0.0489
    1PA     H2R10605   5.323   3.009   3.490  0.3903  0.5332  1.7852
    1PA     H2S10606   5.490   3.005   3.529 -1.1211  0.8760  1.3788
    1PC     C1110607   5.407   2.808   3.484  0.5303 -0.5908  0.4958
    1PC     O1210608   5.503   2.740   3.504  0.0847  0.0067  0.3214
    1PC     O1110609   5.302   2.773   3.417 -0.1162 -0.0595 -0.0423
    1PC      C110610   5.292   2.639   3.361 -0.5977  0.0646  1.1277
    1PC      HR10611   5.234   2.636   3.268  1.8633 -1.7383 -0.3873
    1PC      HS10612   5.390   2.596   3.340 -0.9071 -0.9985  1.8316
    1PC      C210613   5.218   2.541   3.462 -0.1213  0.5377  0.3891
    1PC      HX10614   5.227   2.439   3.423  0.8870 -0.1717  2.4222
    1PC      C310615   5.070   2.584   3.480  0.2998 -0.0540  0.5085
    1PC      HA10616   5.028   2.545   3.573 -0.1179 -2.4700 -0.6583
    1PC      HB10617   5.065   2.693   3.476 -0.9838 -0.1581 -1.3210
    1PC     O3110618   5.003   2.528   3.365 -0.3677 -0.2548 -0.4915
    1PC     P3110619   4.917   2.395   3.377  0.0974  0.0212  0.2326
    1PC     O3210620   5.034   2.282   3.372  0.1528 -0.5039  0.0383
    1PC     C3110621   5.025   2.167   3.455 -0.5986 -0.0472  0.5756
    1PC     H1A10622   5.078   2.203   3.543 -0.7691  1.8354 -0.0623
    1PC     H1B10623   4.919   2.145   3.475 -0.0726 -1.9574  1.4366
    1PC     C3210624   5.095   2.045   3.392 -0.4994  1.1004  0.2519
    1PC     H2A10625   5.202   2.061   3.386 -0.8756  2.9812 -1.9593
    1PC     H2B10626   5.066   1.950   3.437 -0.8419 -0.1805 -2.5877
    1PC     N3110627   5.061   2.025   3.242  0.3474  0.6117  0.1082
    1PC     C3310628   4.915   2.051   3.220  0.2208  0.1709 -0.0556
    1PC     H3A10629   4.904   2.160   3.227  0.5982  0.1698  0.5593
    1PC     H3B10630   4.885   2.003   3.127 -1.5188 -1.7828  1.4712
    1PC     H3C10631   4.860   2.003   3.301 -1.4987  0.3924 -1.0751
    1PC     C3410632   5.141   2.113   3.147 -0.4429 -1.2227  0.3712
    1PC     H4A10633   5.130   2.090   3.041  2.5096  2.2754 -0.8355
    1PC     H4B10634   5.110   2.216   3.165  0.6774 -0.7392 -0.4135
    1PC     H4C10635   5.246   2.099   3.172 -0.0760  0.5298 -0.1190
    1PC     C3510636   5.088   1.882   3.206  0.7022 -0.5282  0.3025
    1PC     H5A10637   5.170   1.828   3.252  0.0149 -1.4945  0.4153
    1PC     H5B10638   5.092   1.881   3.097  0.2603  1.2536  0.2468
    1PC     H5C10639   4.999   1.824   3.230  1.0433 -0.6778  1.2160
    1PC     O3310640   4.841   2.375   3.503  0.0935 -0.2994 -1.4045
    1PC     O3410641   4.840   2.382   3.250  0.3095  0.4538 -0.0987
    1PC     O2110642   5.283   2.551   3.592 -0.3910 -0.4419 -0.2154
    1PC     C2110643   5.376   2.459   3.627 -0.0604 -0.5300  0.0647
    1PC     O2210644   5.429   2.387   3.544 -0.2008  0.2299  0.3047
    1OL     C1210645   5.426   2.456   3.766 -0.5333 -0.2519 -0.1499
    1OL     H2R10646   5.510   2.385   3.765 -0.1795  0.0817  2.8057
    1OL     H2S10647   5.339   2.414   3.816 -0.4657 -1.2312 -0.8264
    1OL     C1310648   5.475   2.599   3.811  0.5378  0.0046 -0.6468
    1OL     H3R10649   5.385   2.660   3.808  0.6131  0.4661  3.7825
    1OL     H3S10650   5.544   2.645   3.740  0.6641 -0.0093 -0.5323
    1OL     C1410651   5.533   2.601   3.956 -0.5258  0.2743 -0.0563
    1OL     H4R10652   5.634   2.559   3.946 -1.9519 -2.8801 -2.1896
    1OL     H4S10653   5.475   2.537   4.022 -0.4960 -1.5713 -1.7571
    1OL     C1510654   5.544   2.743   4.019  0.4215 -0.5026  0.0723
    1OL     H5R10655   5.562   2.819   3.942 -0.5764  0.0354  0.3677
    1OL     H5S10656   5.630   2.756   4.085 -2.0069  1.1388  3.0288
    1OL     C1610657   5.415   2.792   4.098  0.1809 -0.4410 -0.0844
    1OL     H6R10658   5.389   2.727   4.181  1.0607  3.1880  3.2118
    1OL     H6S10659   5.328   2.789   4.033 -1.5518  1.0553  2.0662
    1OL     C1710660   5.445   2.930   4.156  0.2247 -1.0765  0.2432
    1OL     H7R10661   5.463   3.002   4.076 -1.6055 -1.9817 -1.0426
    1OL     H7S10662   5.531   2.919   4.222  0.0292  0.6762  0.8199
    1OL     C1810663   5.328   2.985   4.241 -0.2798 -0.8668  0.0062
    1OL     H8R10664   5.351   3.088   4.268 -2.2705 -0.3464 -0.2332
    1OL     H8S10665   5.335   2.942   4.341 -0.3971  0.5681  0.6361
    1OL     C1910666   5.197   2.974   4.178  0.1537  0.1156 -0.2392
    1OL     H9R10667   5.167   3.039   4.096 -0.7162  0.7645  0.5766
    1OL    C11010668   5.102   2.886   4.218  0.4753 -0.1572 -0.6741
    1OL    H10R10669   5.010   2.885   4.161  0.4507 -0.3228 -0.6306
    1OL    C11110670   5.122   2.790   4.336 -0.1653 -0.1064  0.1886
    1OL    H11R10671   5.229   2.782   4.358 -0.0512  1.9107  0.4429
    1OL    H11S10672   5.073   2.696   4.313 -2.1166  1.0769 -0.5981
    1OL    C11210673   5.046   2.835   4.465  0.5103 -0.1060  0.3244
    1OL    H12R10674   4.950   2.874   4.429  1.0695  0.2851 -0.7892
    1OL    H12S10675   5.101   2.922   4.502 -3.9024  2.5624  1.0483
    1OL    C11310676   5.022   2.734   4.589 -0.2398 -0.0706  0.2241
    1OL    H13R10677   4.991   2.794   4.675  0.1611  1.1573 -0.4665
    1OL    H13S10678   5.120   2.692   4.611  0.0176 -1.1076 -2.7333
    1OL    C11410679   4.914   2.626   4.558  0.5716  0.0482  0.1837
    1OL    H14R10680   4.932   2.571   4.466  1.8695  1.0736 -0.2047
    1OL    H14S10681   4.815   2.666   4.535  0.9295  0.3368 -0.8913
    1OL    C11510682   4.908   2.532   4.678 -0.5273 -0.5982  0.5455
    1OL    H15R10683   4.902   2.598   4.765 -0.1734 -1.9597  1.6286
    1OL    H15S10684   5.000   2.480   4.705 -0.5567 -1.2142 -0.5069
    1OL    C11610685   4.790   2.435   4.668  0.4779 -1.0311 -0.2921
    1OL    H16R10686   4.802   2.378   4.576  0.6582 -0.4921 -0.6036
    1OL    H16S10687   4.703   2.502   4.668  0.5076 -0.9925 -0.3301
    1OL    C11710688   4.785   2.339   4.784 -0.4014  0.1869  0.9184
    1OL    H17R10689   4.785   2.398   4.875 -0.7338  0.7759  0.5338
    1OL    H17S10690   4.877   2.282   4.770 -0.3810  0.7887 -1.6163
    1OL    C11810691   4.674   2.239   4.778  0.4316 -0.1913  0.4342
    1OL    H18R10692   4.593   2.263   4.710  0.0048  2.3432  1.7736
    1OL    H18S10693   4.619   2.231   4.872 -0.9141  0.4373 -0.2971
    1OL    H18T10694   4.707   2.136   4.761  1.8648  0.0203  1.7345
    1PA    C11610695   1.147   0.812   4.728  0.0268 -0.4043  0.3214
    1PA    H16R10696   1.139   0.705   4.746 -3.5861 -0.3500 -0.4443
    1PA    H16S10697   1.051   0.834   4.681  1.1130  2.0677 -0.8520
    1PA    H16T10698   1.153   0.862   4.825 -2.1716 -0.7915  0.6850
    1PA    C11510699   1.281   0.856   4.661 -0.1001 -0.0328  0.0174
    1PA    H15R10700   1.357   0.845   4.738 -0.6326 -0.4161  0.4938
    1PA    H15S10701   1.299   0.789   4.577 -0.3275 -1.3118  0.9811
    1PA    C11410702   1.278   1.003   4.603  0.0386 -0.1443  0.1740
    1PA    H14R10703   1.274   1.077   4.684 -0.9583  0.2483 -0.2207
    1PA    H14S10704   1.377   1.016   4.560  0.0686 -1.5147 -0.1865
    1PA    C11310705   1.154   1.031   4.505 -0.3597 -0.1891  0.3011
    1PA    H13R10706   1.065   1.044   4.566 -0.9621  1.3038 -0.8511
    1PA    H13S10707   1.166   1.128   4.457  1.8788 -1.2496 -1.3840
    1PA    C11210708   1.128   0.925   4.396  0.8090  0.1661  0.4844
    1PA    H12R10709   1.114   0.827   4.443  2.1171 -0.3637 -0.2064
    1PA    H12S10710   1.030   0.943   4.353 -0.0528 -2.2893  1.3062
    1PA    C11110711   1.244   0.921   4.290 -0.0487 -0.2218  0.4971
    1PA    H11R10712   1.336   0.905   4.346  0.8140 -1.7852 -1.3003
    1PA    H11S10713   1.234   0.828   4.233 -1.7349  0.2705 -0.0519
    1PA    C11010714   1.271   1.051   4.209  0.1280 -0.8293  0.2190
    1PA    H10R10715   1.233   1.141   4.259 -2.4656 -2.7193  1.8086
    1PA    H10S10716   1.379   1.061   4.201  0.2400 -2.7610 -1.1442
    1PA     C1910717   1.206   1.033   4.070  0.7231  0.0514  0.6125
    1PA     H9R10718   1.225   1.126   4.015 -1.8354 -0.1212 -0.6703
    1PA     H9S10719   1.258   0.957   4.011  0.1225  2.8450 -3.7466
    1PA     C1810720   1.052   1.012   4.079  0.1728  0.0465 -0.2257
    1PA     H8R10721   1.022   0.910   4.100 -1.1220 -0.0282 -2.2993
    1PA     H8S10722   1.008   1.071   4.159 -0.8676  0.7825 -1.3168
    1PA     C1710723   0.994   1.057   3.937  0.4569  0.2990  0.4434
    1PA     H7R10724   1.025   1.159   3.913  3.5193 -1.5061 -3.9830
    1PA     H7S10725   1.039   0.991   3.863  1.2118  0.1838  0.9936
    1PA     C1610726   0.839   1.052   3.934  0.3695 -0.0088 -0.0880
    1PA     H6R10727   0.822   0.952   3.973  0.5854  0.5189  1.3783
    1PA     H6S10728   0.813   1.133   4.003  1.5686  1.8753 -1.7737
    1PA     C1510729   0.760   1.076   3.799  0.5711  0.5805 -0.4954
    1PA     H5R10730   0.765   1.175   3.754  2.9290 -0.4929 -2.7141
    1PA     H5S10731   0.808   1.017   3.721  0.5225  1.1802 -0.9899
    1PA     C1410732   0.615   1.028   3.812  0.0918 -0.7899  0.4309
    1PA     H4R10733   0.626   0.920   3.823  2.3088 -0.5099  1.3817
    1PA     H4S10734   0.580   1.061   3.910 -1.1888 -0.2074 -0.2185
    1PA     C1310735   0.532   1.056   3.689 -0.2398  0.6584  0.2451
    1PA     H3R10736   0.500   1.161   3.689 -0.7946  0.5024 -1.6852
    1PA     H3S10737   0.583   1.030   3.596 -0.5765 -0.8288  0.4774
    1PA     C1210738   0.403   0.969   3.707  0.0370  0.2202 -0.2202
    1PA     H2R10739   0.432   0.866   3.684  0.0745 -0.0466  0.9524
    1PA     H2S10740   0.360   0.965   3.808 -2.9426  0.9938 -1.4167
    1PC     C1110741   0.293   1.005   3.618  0.0013 -0.9657  0.0950
    1PC     O1210742   0.178   1.037   3.659 -0.2961  0.2898 -0.1217
    1PC     O1110743   0.321   0.998   3.483 -0.0206 -0.3421 -0.0668
    1PC      C110744   0.222   1.059   3.389  0.7374 -0.0452  0.6414
    1PC      HR10745   0.224   1.020   3.288  1.5643 -1.1678  1.0888
    1PC      HS10746   0.117   1.045   3.417  1.0949 -1.2151  1.4263
    1PC      C210747   0.249   1.207   3.361 -0.4617 -0.2658 -0.5154
    1PC      HX10748   0.168   1.245   3.297 -0.2797  1.9942  0.5285
    1PC      C310749   0.392   1.238   3.308  0.1056  0.1799 -0.0711
    1PC      HA10750   0.461   1.202   3.384 -0.7092 -0.8535  0.1790
    1PC      HB10751   0.408   1.177   3.218 -0.8687 -0.2342  0.0307
    1PC     O3110752   0.404   1.384   3.284 -0.0077  0.0793 -0.2481
    1PC     P3110753   0.323   1.459   3.170 -0.0484 -0.0226 -0.0648
    1PC     O3210754   0.210   1.527   3.240 -0.2226  0.0275  0.1175
    1PC     C3110755   0.230   1.638   3.322  0.9845 -0.2902 -0.7846
    1PC     H1A10756   0.154   1.630   3.400  2.9878 -1.1092  1.1458
    1PC     H1B10757   0.330   1.639   3.367 -0.0544 -0.6772  1.6056
    1PC     C3210758   0.212   1.773   3.242  0.3819 -0.1666 -0.1100
    1PC     H2A10759   0.222   1.859   3.308  0.5093  0.4735 -0.9635
    1PC     H2B10760   0.289   1.784   3.166  0.9909 -0.3695  0.4691
    1PC     N3110761   0.079   1.790   3.175 -0.0174 -0.1672 -0.3224
    1PC     C3310762  -0.040   1.754   3.269 -0.5822  0.5198  0.1669
    1PC     H3A10763  -0.024   1.799   3.367  0.4207 -0.5903  0.5301
    1PC     H3B10764  -0.129   1.795   3.221 -1.4998 -2.3726 -0.6780
    1PC     H3C10765  -0.054   1.646   3.273 -1.0506  0.5983  0.6647
    1PC     C3410766   0.063   1.928   3.126  0.5140  0.1293  0.8856
    1PC     H4A10767   0.140   1.927   3.049  0.2719 -1.2323  0.6399
    1PC     H4B10768  -0.039   1.929   3.085 -0.0365 -2.6049  2.0645
    1PC     H4C10769   0.078   1.997   3.209 -3.0675 -0.1780  1.8977
    1PC     C3510770   0.069   1.707   3.049  0.0855  0.1582  0.8002
    1PC     H5A10771   0.144   1.748   2.981 -0.8464 -1.0274 -0.9623
    1PC     H5B10772  -0.028   1.714   3.001  1.4803 -0.9346 -2.2705
    1PC     H5C10773   0.103   1.608   3.079 -0.8291 -0.4665 -0.1989
    1PC     O3310774   0.418   1.561   3.115  0.0990  0.3311 -0.5303
    1PC     O3410775   0.262   1.365   3.077  0.7439  0.5043 -0.0500
    1PC     O2110776   0.236   1.268   3.491  0.1653 -0.7397  0.2138
    1PC     C2110777   0.111   1.300   3.539 -0.3936 -0.1111  0.8729
    1PC     O2210778   0.008   1.282   3.471 -0.1874  0.3651  0.0549
    1OL     C1210779   0.108   1.364   3.676 -0.2029  0.2709 -0.1288
    1OL     H2R10780   0.090   1.469   3.653 -1.0599  0.5031  1.5137
    1OL     H2S10781   0.196   1.343   3.737  0.0141 -0.9894 -0.8658
    1OL     C1310782  -0.022   1.319   3.748  0.2128 -0.3521 -0.5472
    1OL     H3R10783  -0.012   1.217   3.786  0.1216 -0.2541 -0.2559
    1OL     H3S10784  -0.107   1.339   3.682 -0.0568  0.1948 -0.0325
    1OL     C1410785  -0.044   1.399   3.875  0.8025 -0.2010 -0.1620
    1OL     H4R10786  -0.066   1.499   3.838 -1.1492 -0.6561 -0.2781
    1OL     H4S10787   0.047   1.405   3.935 -2.7537 -0.1247  5.6243
    1OL     C1510788  -0.167   1.363   3.964  0.1515 -0.0039 -0.4531
    1OL     H5R10789  -0.261   1.377   3.910 -0.2623  0.3978  0.3670
    1OL     H5S10790  -0.159   1.425   4.054 -0.4713 -0.8476  0.1962
    1OL     C1610791  -0.164   1.224   4.021  0.0873 -0.1093 -0.1478
    1OL     H6R10792  -0.175   1.149   3.942  1.6520  2.9134 -3.3769
    1OL     H6S10793  -0.240   1.211   4.098 -1.4096  2.2912 -1.1737
    1OL     C1710794  -0.030   1.193   4.099  0.2872 -0.1831 -0.4855
    1OL     H7R10795  -0.008   1.287   4.150  0.9154  0.4934 -1.9668
    1OL     H7S10796   0.051   1.161   4.034  0.0845 -0.2407 -0.7115
    1OL     C1810797  -0.043   1.092   4.207  0.4711 -0.1158 -0.7008
    1OL     H8R10798  -0.048   0.995   4.157  0.3760  0.2947 -1.4864
    1OL     H8S10799  -0.129   1.105   4.273  1.3595  1.3621  0.1978
    1OL     C1910800   0.091   1.079   4.285 -0.5025 -0.3506 -0.2661
    1OL     H9R10801   0.162   1.001   4.258  0.0258  0.3539 -0.9212
    1OL    C11010802   0.127   1.151   4.393 -0.0464  0.2504 -0.2622
    1OL    H10R10803   0.220   1.127   4.443  1.3004  0.8216 -2.4476
    1OL    C11110804   0.040   1.261   4.457 -0.4476 -0.1064 -0.3779
    1OL    H11R10805  -0.065   1.250   4.430 -0.5486 -0.9376  0.3290
    1OL    H11S10806   0.070   1.357   4.414 -0.8506 -0.2918 -1.0872
    1OL    C11210807   0.063   1.282   4.602 -0.3376 -0.0919 -0.8190
    1OL    H12R10808  -0.007   1.354   4.644 -0.0316 -0.2396 -0.0356
    1OL    H12S10809   0.165   1.316   4.617 -0.5328  0.6870 -1.2408
    1OL    C11310810   0.040   1.151   4.680  0.5244  0.1356 -0.0516
    1OL    H13R10811   0.093   1.169   4.773 -1.6349  0.9709  1.0574
    1OL    H13S10812   0.097   1.072   4.632 -0.5976 -0.9287  0.3460
    1OL    C11410813  -0.114   1.110   4.690 -0.0543 -0.3357  0.0108
    1OL    H14R10814  -0.141   1.087   4.587 -1.1027 -1.3190  0.4897
    1OL    H14S10815  -0.177   1.196   4.717  0.3985  0.3690 -1.1555
    1OL    C11510816  -0.139   0.984   4.773 -0.2275 -0.3118 -0.0930
    1OL    H15R10817  -0.076   0.907   4.727 -0.5467  0.4075 -1.7964
    1OL    H15S10818  -0.244   0.956   4.761  0.1222 -1.3324 -0.9812
    1OL    C11610819  -0.112   1.013   4.921  0.3868 -0.6224 -0.3666
    1OL    H16R10820  -0.170   1.101   4.950 -0.6413 -0.9174 -1.4862
    1OL    H16S10821  -0.007   1.041   4.933  0.6787 -1.8375  0.0341
    1OL    C11710822  -0.153   0.890   5.007  0.2753  0.1852  0.2823
    1OL    H17R10823  -0.071   0.820   4.991 -0.3615 -0.8807  1.5964
    1OL    H17S10824  -0.245   0.845   4.968 -0.3293  1.0788  0.6720
    1OL    C11810825  -0.161   0.921   5.161 -0.9892  0.5833 -0.1944
    1OL    H18R10826  -0.209   0.842   5.218  0.7297  1.9765  3.3147
    1OL    H18S10827  -0.221   1.012   5.165 -0.2534  1.1193 -1.1761
    1OL    H18T10828  -0.060   0.935   5.200  0.6563 -1.7394 -3.4086
    1PA    C11610829   0.142   5.228   5.185 -0.3340 -0.2767 -0.3139
    1PA    H16R10830   0.233   5.282   5.212 -0.0158 -1.4038  0.9280
    1PA    H16S10831   0.088   5.188   5.271 -0.6242  0.0824 -0.3264
    1PA    H16T10832   0.077   5.302   5.138  0.2718 -0.6776 -1.8038
    1PA    C11510833   0.175   5.111   5.088  0.0273  0.2049 -0.3011
    1PA    H15R10834   0.219   5.023   5.135 -2.6976 -0.9924  0.0652
    1PA    H15S10835   0.090   5.062   5.040  1.4083 -1.2680 -1.3164
    1PA    C11410836   0.268   5.161   4.973  0.4309  0.1547 -0.4282
    1PA    H14R10837   0.352   5.212   5.020 -1.6422  1.5694  1.8770
    1PA    H14S10838   0.298   5.073   4.916  1.3376  0.1312  0.0796
    1PA    C11310839   0.195   5.252   4.870 -0.2551 -0.0089 -0.7603
    1PA    H13R10840   0.107   5.192   4.846 -1.6306  1.4610  0.4718
    1PA    H13S10841   0.160   5.347   4.909 -1.0449 -0.3646 -0.5877
    1PA    C11210842   0.277   5.292   4.746 -0.0885  0.2825  0.2970
    1PA    H12R10843   0.371   5.336   4.781  0.0218  0.0508  0.2958
    1PA    H12S10844   0.301   5.199   4.694 -0.1230  0.1886  0.4478
    1PA    C11110845   0.201   5.381   4.647 -0.1210 -0.1027  0.0578
    1PA    H11R10846   0.273   5.400   4.568 -0.2185 -1.7132 -0.4348
    1PA    H11S10847   0.116   5.330   4.602 -1.3903  1.2521  0.8844
    1PA    C11010848   0.171   5.524   4.698  0.5977  0.1335 -0.1893
    1PA    H10R10849   0.098   5.513   4.777  1.8244 -1.3114  0.7743
    1PA    H10S10850   0.258   5.586   4.723  0.1504  2.1070 -3.2689
    1PA     C1910851   0.105   5.618   4.587  0.0363  0.3593  0.6079
    1PA     H9R10852   0.073   5.710   4.635  0.3225  1.1064 -0.6286
    1PA     H9S10853   0.186   5.640   4.518  0.1098 -1.7621 -0.0404
    1PA     C1810854  -0.015   5.555   4.511 -0.2828  0.1475 -0.3866
    1PA     H8R10855  -0.010   5.447   4.494  0.5114  0.2488 -0.8502
    1PA     H8S10856  -0.105   5.572   4.569 -1.1790 -1.6807 -1.2036
    1PA     C1710857  -0.014   5.618   4.373  0.2711  0.3277 -0.1405
    1PA     H7R10858  -0.003   5.725   4.392 -0.2997  0.1912  1.0363
    1PA     H7S10859   0.070   5.585   4.312  1.3164 -0.8786  1.9131
    1PA     C1610860  -0.155   5.600   4.307 -0.0930 -1.4284 -0.4278
    1PA     H6R10861  -0.184   5.495   4.312  1.6733 -1.8533  1.2388
    1PA     H6S10862  -0.216   5.657   4.378  2.8260  0.7276  0.4538
    1PA     C1510863  -0.168   5.652   4.165  0.0609 -0.0783  0.2370
    1PA     H5R10864  -0.141   5.758   4.173  1.0260 -0.2245 -1.0194
    1PA     H5S10865  -0.105   5.599   4.094 -0.3594 -0.9930  0.5321
    1PA     C1410866  -0.314   5.623   4.118  0.6953 -0.4221 -0.8167
    1PA     H4R10867  -0.329   5.516   4.128  1.7358 -0.6647 -1.8440
    1PA     H4S10868  -0.391   5.657   4.189  0.2267  1.1033 -2.0116
    1PA     C1310869  -0.350   5.665   3.975 -0.4244 -0.3271 -0.1787
    1PA     H3R10870  -0.334   5.772   3.961 -0.6455 -0.0517  1.5999
    1PA     H3S10871  -0.281   5.611   3.908  0.4920  0.0288  0.4647
    1PA     C1210872  -0.494   5.639   3.931 -0.0327 -0.0772  0.2546
    1PA     H2R10873  -0.506   5.531   3.932  1.0019 -0.2121 -0.9298
    1PA     H2S10874  -0.567   5.688   3.996 -0.8604  0.4684 -1.0494
    1PC     C1110875  -0.512   5.692   3.787  0.4590  0.1570 -0.7492
    1PC     O1210876  -0.550   5.807   3.769  0.0215 -0.3902 -0.0959
    1PC     O1110877  -0.488   5.602   3.694  0.0107  0.0485 -0.4333
    1PC      C110878  -0.479   5.643   3.551  0.1043 -0.4465 -0.1701
    1PC      HR10879  -0.524   5.563   3.491 -0.4731 -1.0201  1.0147
    1PC      HS10880  -0.530   5.737   3.530  3.8893  2.2783  2.1516
    1PC      C210881  -0.323   5.669   3.517  0.4205  0.5007 -0.4817
    1PC      HX10882  -0.315   5.713   3.417  0.1551  0.0469 -0.7095
    1PC      C310883  -0.245   5.535   3.492  0.0819  0.3840 -0.4796
    1PC      HA10884  -0.246   5.468   3.578  3.1843 -2.1594 -2.3073
    1PC      HB10885  -0.291   5.476   3.413 -1.9379  3.2233 -1.5307
    1PC     O3110886  -0.099   5.549   3.472  0.5970 -0.4671  0.2749
    1PC     P3110887  -0.043   5.601   3.331  0.0865  0.3843 -0.0256
    1PC     O3210888  -0.072   5.754   3.350  0.8744 -0.0131  0.3549
    1PC     C3110889   0.030   5.852   3.372 -1.0173  0.6132 -0.3838
    1PC     H1A10890  -0.019   5.936   3.421 -1.5019  0.8687 -1.3039
    1PC     H1B10891   0.104   5.810   3.441 -1.8835 -1.4815 -0.6983
    1PC     C3210892   0.079   5.898   3.235 -0.5382  0.6668  1.4736
    1PC     H2A10893   0.150   5.980   3.249 -0.6390  0.8223  1.0579
    1PC     H2B10894   0.128   5.821   3.175  0.3991  0.4415  2.5051
    1PC     N3110895  -0.021   5.954   3.126  0.2445  0.1611  0.3554
    1PC     C3310896   0.045   6.051   3.036  0.0838  0.0034 -0.1912
    1PC     H3A10897  -0.018   6.101   2.962  0.2926  1.0044  0.3069
    1PC     H3B10898   0.088   6.131   3.095  0.9911 -0.9265  0.4194
    1PC     H3C10899   0.133   5.998   2.999  0.5125 -0.3328  1.3023
    1PC     C3410900  -0.077   5.844   3.045 -0.3113 -0.3867 -0.8873
    1PC     H4A10901  -0.126   5.769   3.109 -1.5030  2.2013  1.3514
    1PC     H4B10902  -0.148   5.892   2.977  0.7138  1.2917 -0.8048
    1PC     H4C10903   0.001   5.799   2.985 -0.6681  2.1975 -3.3955
    1PC     C3510904  -0.131   6.029   3.193  0.2597 -0.0620 -0.4180
    1PC     H5A10905  -0.075   6.107   3.245  0.9426  0.0687 -1.3330
    1PC     H5B10906  -0.182   5.965   3.265 -0.5930 -0.9594 -1.7927
    1PC     H5C10907  -0.205   6.067   3.123 -1.2876 -0.6825  0.8532
    1PC     O3310908   0.101   5.570   3.327  0.2130  0.0291  0.7387
    1PC     O3410909  -0.136   5.559   3.223 -0.3330  1.1769 -0.0026
    1PC     O2110910  -0.264   5.749   3.623  0.2758 -0.5766  0.1387
    1PC     C2110911  -0.298   5.881   3.620 -0.1352 -0.0911 -0.7650
    1PC     O2210912  -0.356   5.941   3.534 -0.5224  0.2599 -0.2108
    1OL     C1210913  -0.261   5.961   3.744 -0.1931 -0.6792 -0.3439
    1OL     H2R10914  -0.205   5.888   3.802  0.3101  0.8349  1.1327
    1OL     H2S10915  -0.352   5.996   3.794 -0.7598 -1.0729 -1.0817
    1OL     C1310916  -0.181   6.087   3.703 -0.7638  0.4826  0.8111
    1OL     H3R10917  -0.252   6.140   3.639 -0.5624 -2.1905 -1.7527
    1OL     H3S10918  -0.087   6.069   3.652 -1.5806  0.6970 -0.7862
    1OL     C1410919  -0.149   6.173   3.826  0.1769 -0.0138 -0.0085
    1OL     H4R10920  -0.244   6.196   3.876  0.5725  0.3755  0.5746
    1OL     H4S10921  -0.116   6.271   3.790 -0.5647  0.1237 -0.3272
    1OL     C1510922  -0.047   6.108   3.924  0.7924 -0.4021  0.2743
    1OL     H5R10923  -0.056   5.999   3.933  0.5029 -0.3645  0.4515
    1OL     H5S10924  -0.071   6.128   4.028  1.8678 -0.2270  0.4882
    1OL     C1610925   0.099   6.140   3.902  0.3235 -0.4375 -0.9993
    1OL     H6R10926   0.119   6.108   3.800 -1.0693  1.1793 -1.7998
    1OL     H6S10927   0.155   6.068   3.963  0.0678 -0.8271 -1.2314
    1OL     C1710928   0.146   6.286   3.933 -0.0539  0.2418  0.2976
    1OL     H7R10929   0.093   6.362   3.875 -0.3736  0.8504  1.3654
    1OL     H7S10930   0.251   6.285   3.904 -0.3229 -1.3079 -0.6419
    1OL     C1810931   0.140   6.318   4.084 -0.2021 -0.0480 -0.0766
    1OL     H8R10932   0.035   6.307   4.110 -0.8079 -1.2327 -2.8402
    1OL     H8S10933   0.173   6.420   4.107 -1.6976  1.2381 -3.3004
    1OL     C1910934   0.225   6.225   4.168 -1.0550  0.0852 -0.3948
    1OL     H9R10935   0.329   6.232   4.139 -1.2263  1.1767 -0.7777
    1OL    C11010936   0.180   6.131   4.256  0.6267 -0.2868  0.0914
    1OL    H10R10937   0.252   6.060   4.297  1.2733  0.1141 -0.3423
    1OL    C11110938   0.033   6.108   4.283  0.4918  0.0611  0.0484
    1OL    H11R10939   0.015   6.022   4.217 -0.7664  0.1601  0.2500
    1OL    H11S10940  -0.037   6.180   4.242  0.6595  0.6785  0.8454
    1OL    C11210941   0.007   6.065   4.428  0.2124  0.4394 -0.0542
    1OL    H12R10942   0.055   6.140   4.491  0.9308  1.6542 -1.9860
    1OL    H12S10943   0.073   5.979   4.443 -0.8145 -0.2669  0.4526
    1OL    C11310944  -0.147   6.035   4.443  0.4601 -0.0485  0.4749
    1OL    H13R10945  -0.186   5.979   4.358  2.7906 -0.0140 -0.6412
    1OL    H13S10946  -0.203   6.129   4.438 -0.0608 -0.4277 -1.1896
    1OL    C11410947  -0.181   5.960   4.571 -0.1979 -0.3176  0.2166
    1OL    H14R10948  -0.129   5.864   4.577  1.6074  0.6171 -0.1403
    1OL    H14S10949  -0.289   5.950   4.579 -0.3255 -1.5220 -2.3260
    1OL    C11510950  -0.133   6.027   4.701 -0.3778  1.0135  0.4464
    1OL    H15R10951  -0.182   6.122   4.722 -2.9918 -0.4785  1.2183
    1OL    H15S10952  -0.026   6.047   4.687 -0.3098 -0.3461 -1.0774
    1OL    C11610953  -0.150   5.948   4.827 -0.7934  0.0611  0.6891
    1OL    H16R10954  -0.101   5.850   4.829  0.0622  0.3704 -2.4532
    1OL    H16S10955  -0.257   5.933   4.844 -0.9700  2.3666  1.7762
    1OL    C11710956  -0.106   6.027   4.949  0.2414  0.9864 -0.6435
    1OL    H17R10957  -0.178   6.107   4.966 -0.7342 -0.3608  1.8223
    1OL    H17S10958  -0.010   6.079   4.939  1.7021 -0.9307  2.4362
    1OL    C11810959  -0.108   5.928   5.064  0.5469 -0.5405 -0.0096
    1OL    H18R10960  -0.016   5.868   5.066  1.5954  1.0586  1.1040
    1OL    H18S10961  -0.195   5.863   5.059 -0.2829  0.5338  0.3099
    1OL    H18T10962  -0.102   5.974   5.163  1.8137  1.7558 -1.1080
    1PA    C11610963   2.570   0.015   5.109  0.4903  1.0167  0.1463
    1PA    H16R10964   2.629  -0.034   5.031  0.9050  2.4057 -0.4274
    1PA    H16S10965   2.625  -0.012   5.200 -0.4697  0.9123  0.6966
    1PA    H16T10966   2.560   0.122   5.092  0.8826  1.1681  0.8232
    1PA    C11510967   2.437  -0.054   5.113  0.1118 -0.1672  0.6027
    1PA    H15R10968   2.439  -0.159   5.083 -0.6215 -0.7217  2.4441
    1PA    H15S10969   2.397  -0.052   5.215 -1.7598 -1.2737 -0.0824
    1PA    C11410970   2.328   0.012   5.020 -0.2501 -0.4950  0.1317
    1PA    H14R10971   2.233  -0.031   5.051 -0.5306 -1.5239 -2.0626
    1PA    H14S10972   2.335   0.121   5.025  4.1117 -0.5493 -1.9714
    1PA    C11310973   2.354  -0.027   4.868 -0.3505  0.0785 -1.0111
    1PA    H13R10974   2.462  -0.019   4.849  0.0125  1.0123  1.2866
    1PA    H13S10975   2.329  -0.133   4.855 -0.0713 -0.3879  1.8876
    1PA    C11210976   2.282   0.066   4.769  0.3463  0.1729  0.4676
    1PA    H12R10977   2.173   0.054   4.773  0.5912 -1.5014  2.2987
    1PA    H12S10978   2.316   0.166   4.795  0.6624  0.0684  0.4520
    1PA    C11110979   2.333   0.041   4.631  0.3921  0.5051  0.5907
    1PA    H11R10980   2.336   0.135   4.576 -1.5569 -1.7912 -3.6847
    1PA    H11S10981   2.435   0.002   4.632  0.1077 -0.2401  0.5495
    1PA    C11010982   2.248  -0.057   4.547 -0.8348  0.6037 -0.0483
    1PA    H10R10983   2.226  -0.140   4.615  0.6269  0.9149  0.8245
    1PA    H10S10984   2.151  -0.013   4.523 -2.4484 -1.7185  1.8821
    1PA     C1910985   2.327  -0.102   4.426 -0.2461 -0.0731 -0.4448
    1PA     H9R10986   2.354  -0.005   4.384  0.9426  0.6919  1.9911
    1PA     H9S10987   2.418  -0.155   4.454 -0.7807  0.4172  2.3835
    1PA     C1810988   2.237  -0.170   4.325 -0.2472 -0.2800 -0.0197
    1PA     H8R10989   2.297  -0.216   4.246 -1.2457  1.5489 -1.9035
    1PA     H8S10990   2.180  -0.241   4.385 -1.4990  1.7048  1.2180
    1PA     C1710991   2.137  -0.075   4.254 -0.4835  0.3461  0.1051
    1PA     H7R10992   2.058  -0.052   4.326 -0.1660  0.9648  0.2640
    1PA     H7S10993   2.184   0.018   4.220  1.2806  0.8617  3.6284
    1PA     C1610994   2.069  -0.148   4.139 -0.4464 -0.4008 -0.4505
    1PA     H6R10995   2.031  -0.249   4.155  0.5363 -0.4904  1.3634
    1PA     H6S10996   1.981  -0.088   4.113 -1.3174 -1.1661  0.7012
    1PA     C1510997   2.132  -0.136   4.004  0.8041  1.0150 -0.5255
    1PA     H5R10998   2.055  -0.170   3.934  0.5879  0.6563 -0.1161
    1PA     H5S10999   2.159  -0.036   3.968  1.9537  0.9758  0.1909
    1PA     C1411000   2.252  -0.230   3.986 -0.3352  0.3167 -0.0562
    1PA     H4R11001   2.339  -0.183   4.032 -1.5255  0.3989  2.1736
    1PA     H4S11002   2.241  -0.326   4.037  0.0324 -1.1992 -2.6932
    1PA     C1311003   2.292  -0.256   3.836 -0.3232  0.0163 -0.2432
    1PA     H3R11004   2.296  -0.160   3.784  1.7958  0.4372  0.6297
    1PA     H3S11005   2.393  -0.296   3.829 -0.1595  0.7716 -2.7627
    1PA     C1211006   2.202  -0.355   3.752 -0.3629 -0.1194 -0.7807
    1PA     H2R11007   2.216  -0.458   3.786 -0.3000 -0.6021 -2.2279
    1PA     H2S11008   2.095  -0.340   3.771  0.1155  1.0587  1.0428
    1PC     C1111009   2.225  -0.351   3.602 -0.4270 -0.6618  0.3654
    1PC     O1211010   2.319  -0.299   3.544 -0.2775 -0.2234  0.2026
    1PC     O1111011   2.122  -0.419   3.542 -0.0629  0.1586  0.6169
    1PC      C111012   2.127  -0.442   3.398  0.9516  0.0531  0.6593
    1PC      HR11013   2.212  -0.388   3.356  0.3026 -0.9612 -2.0629
    1PC      HS11014   2.145  -0.547   3.375  2.0527  0.6573 -1.4151
    1PC      C211015   2.001  -0.387   3.325 -0.8438  1.0511 -0.3335
    1PC      HX11016   2.000  -0.390   3.216 -1.8489 -0.1997 -0.3013
    1PC      C311017   1.973  -0.242   3.356 -0.1479 -0.1902  0.6016
    1PC      HA11018   1.931  -0.236   3.457 -0.5214 -0.3316  0.4560
    1PC      HB11019   2.065  -0.182   3.356 -0.6928  0.7127  3.1013
    1PC     O3111020   1.871  -0.195   3.271 -0.1266  0.1357  0.6704
    1PC     P3111021   1.909  -0.113   3.140 -0.0379 -0.1388  0.0615
    1PC     O3211022   1.905   0.041   3.176 -0.3324  0.4306  0.1395
    1PC     C3111023   1.784   0.095   3.224 -0.1863 -0.4242 -0.4219
    1PC     H1A11024   1.732   0.015   3.277  1.1438 -1.1038 -0.1236
    1PC     H1B11025   1.814   0.171   3.296 -1.6522  0.0983 -0.3353
    1PC     C3211026   1.695   0.157   3.113  0.5146  0.2423 -0.2832
    1PC     H2A11027   1.671   0.081   3.039 -1.9191  0.2226  0.4928
    1PC     H2B11028   1.603   0.199   3.153  1.6292  1.2862  1.2524
    1PC     N3111029   1.753   0.271   3.040 -0.2590 -0.0833  0.1891
    1PC     C3311030   1.815   0.227   2.911  1.2650  0.6742 -0.5036
    1PC     H3A11031   1.921   0.200   2.906  0.8273 -0.8258 -2.7763
    1PC     H3B11032   1.764   0.137   2.876 -0.8038  1.2185  1.0385
    1PC     H3C11033   1.802   0.309   2.840 -1.9267 -1.4876 -2.5913
    1PC     C3411034   1.638   0.360   3.012 -0.3879  0.0170  0.0013
    1PC     H4A11035   1.662   0.448   2.953 -2.1697  0.4945 -0.0526
    1PC     H4B11036   1.556   0.306   2.964 -0.1382 -1.4617  1.1703
    1PC     H4C11037   1.613   0.410   3.106 -1.7588  0.1457 -0.4184
    1PC     C3511038   1.861   0.351   3.111  0.4434  0.4704 -0.0512
    1PC     H5A11039   1.907   0.405   3.028  0.0515 -1.7324 -1.7659
    1PC     H5B11040   1.930   0.286   3.164 -0.8531 -0.4856  0.4840
    1PC     H5C11041   1.811   0.410   3.187  0.1741 -2.5121  2.1749
    1PC     O3311042   2.051  -0.138   3.103 -0.0409  0.1337  0.4495
    1PC     O3411043   1.805  -0.132   3.032 -0.8038 -0.0244 -0.2025
    1PC     O2111044   1.886  -0.472   3.367 -0.1451 -0.1883 -0.0872
    1PC     C2111045   1.872  -0.595   3.315  0.4469 -0.4724 -0.3955
    1PC     O2211046   1.942  -0.646   3.229 -0.1329 -0.7815  0.4578
    1OL     C1211047   1.757  -0.670   3.369 -0.1606 -0.5449  0.8494
    1OL     H2R11048   1.716  -0.733   3.290 -0.7201  0.6885  0.1537
    1OL     H2S11049   1.675  -0.600   3.387  0.4122 -0.1121  1.8187
    1OL     C1311050   1.794  -0.760   3.488  0.6492  0.0505 -0.8207
    1OL     H3R11051   1.849  -0.848   3.455 -0.4369 -0.8400 -0.2977
    1OL     H3S11052   1.709  -0.822   3.517  1.0111  0.9199  2.3014
    1OL     C1411053   1.861  -0.688   3.603  0.3485 -0.3542  0.1706
    1OL     H4R11054   1.937  -0.620   3.564  0.5573 -0.3081  0.6566
    1OL     H4S11055   1.912  -0.764   3.663 -1.1633 -1.4694  0.0824
    1OL     C1511056   1.771  -0.606   3.705  0.5223 -0.0123 -0.3018
    1OL     H5R11057   1.681  -0.660   3.735  0.2691 -0.3200 -1.6013
    1OL     H5S11058   1.733  -0.523   3.644 -1.4314  0.6988  1.8264
    1OL     C1611059   1.840  -0.557   3.835  0.1509 -0.2672  0.2371
    1OL     H6R11060   1.774  -0.490   3.890  1.3331  0.2711  1.0096
    1OL     H6S11061   1.927  -0.497   3.807  0.0243 -0.0376  0.3334
    1OL     C1711062   1.884  -0.652   3.948 -0.4559 -0.3026  0.2932
    1OL     H7R11063   1.930  -0.584   4.019  2.7502  0.6578 -2.5493
    1OL     H7S11064   1.962  -0.719   3.910  1.0054 -0.1574  2.9489
    1OL     C1811065   1.781  -0.749   4.005  0.6953  0.2763  0.1723
    1OL     H8R11066   1.844  -0.832   4.039 -0.2432  0.2358  1.8777
    1OL     H8S11067   1.705  -0.788   3.937 -1.5564  1.8348  1.7063
    1OL     C1911068   1.705  -0.696   4.124 -0.3202  0.3657 -0.3975
    1OL     H9R11069   1.755  -0.618   4.182  1.3094 -1.4360  0.6758
    1OL    C11011070   1.582  -0.735   4.160  0.3103 -0.2158  0.2867
    1OL    H10R11071   1.538  -0.691   4.250  1.8130 -0.2241  1.0354
    1OL    C11111072   1.496  -0.838   4.095 -0.1406  0.2266 -0.0992
    1OL    H11R11073   1.539  -0.870   3.999 -0.2016  1.2783 -0.4887
    1OL    H11S11074   1.398  -0.793   4.079 -0.4021 -1.2034 -2.9182
    1OL    C11211075   1.496  -0.957   4.190  0.3592  0.1211 -0.1684
    1OL    H12R11076   1.421  -1.029   4.155 -0.1407  0.6764 -0.2505
    1OL    H12S11077   1.444  -0.941   4.285 -0.4891  2.5137 -1.0157
    1OL    C11311078   1.640  -1.021   4.199  0.6302  0.0857  0.2418
    1OL    H13R11079   1.729  -0.963   4.226  0.8457  0.2124 -0.7190
    1OL    H13S11080   1.662  -1.063   4.101  0.6558 -0.5390  0.5076
    1OL    C11411081   1.635  -1.138   4.295 -0.8572  0.6645 -0.1163
    1OL    H14R11082   1.587  -1.116   4.391 -2.8776  1.5848 -1.2973
    1OL    H14S11083   1.738  -1.169   4.312 -0.1049  1.5075 -2.8695
    1OL    C11511084   1.557  -1.258   4.230 -0.1113 -0.1956 -0.7487
    1OL    H15R11085   1.610  -1.289   4.139  0.6490  1.3967 -0.8683
    1OL    H15S11086   1.455  -1.227   4.207 -0.5097 -0.4549  0.6297
    1OL    C11611087   1.554  -1.371   4.334 -0.1663  0.0563 -0.2319
    1OL    H16R11088   1.644  -1.363   4.395 -0.2509 -1.4876  0.1092
    1OL    H16S11089   1.551  -1.468   4.284  1.9112 -1.0303  1.6638
    1OL    C11711090   1.438  -1.347   4.424  0.0882  0.3718 -0.0316
    1OL    H17R11091   1.347  -1.358   4.365  0.6169 -0.7241 -0.6628
    1OL    H17S11092   1.444  -1.247   4.468  0.3404  0.6156 -0.6135
    1OL    C11811093   1.440  -1.450   4.537 -0.2886  0.1664  0.5075
    1OL    H18R11094   1.512  -1.532   4.529  0.1511  0.6254 -0.2594
    1OL    H18S11095   1.341  -1.492   4.556  0.5873 -1.5537  1.4483
    1OL    H18T11096   1.468  -1.403   4.631 -2.5625  0.3639  1.1007
    1PA    C11611097   0.566   3.532   5.033 -0.4662  0.3957 -0.4211
    1PA    H16R11098   0.591   3.544   4.928  1.2477 -1.1641 -0.2122
    1PA    H16S11099   0.623   3.447   5.070  0.7182  0.5822 -1.7889
    1PA    H16T11100   0.610   3.617   5.087  1.4042 -0.8662  0.0696
    1PA    C11511101   0.415   3.515   5.045  0.1307 -0.1769  0.0225
    1PA    H15R11102   0.384   3.433   4.981 -0.9957  0.5710 -0.3943
    1PA    H15S11103   0.394   3.476   5.145  1.6152  1.2774  0.9309
    1PA    C11411104   0.340   3.643   5.012 -0.5987  0.4707  0.2761
    1PA    H14R11105   0.234   3.618   5.023 -1.0552  2.2047  0.0586
    1PA    H14S11106   0.357   3.719   5.089  0.9544  0.5787 -0.1562
    1PA    C11311107   0.367   3.700   4.869  0.1652  0.0845 -0.3246
    1PA    H13R11108   0.302   3.787   4.860 -2.0962 -1.5509 -0.1862
    1PA    H13S11109   0.466   3.745   4.855 -0.2950  1.1534 -0.2283
    1PA    C11211110   0.339   3.596   4.759  0.2881 -0.5161  0.0329
    1PA    H12R11111   0.405   3.510   4.768 -0.2816 -0.8762  0.8159
    1PA    H12S11112   0.252   3.531   4.775  1.9663 -2.8298  0.0091
    1PA    C11111113   0.333   3.648   4.616 -0.3615 -0.1625 -0.1520
    1PA    H11R11114   0.437   3.672   4.595 -0.8683  0.5858 -1.8473
    1PA    H11S11115   0.303   3.579   4.537 -0.5301  0.2682 -0.4688
    1PA    C11011116   0.239   3.765   4.584 -0.0123  0.3088  0.2833
    1PA    H10R11117   0.140   3.738   4.620  0.9946 -0.8651  2.2702
    1PA    H10S11118   0.275   3.847   4.648  0.9072  0.4419 -0.3868
    1PA     C1911119   0.228   3.820   4.433  0.1356  0.1737 -0.4323
    1PA     H9R11120   0.159   3.905   4.426 -0.3942 -0.0264  1.9638
    1PA     H9S11121   0.324   3.862   4.401  0.1380  1.4641  1.1980
    1PA     C1811122   0.176   3.711   4.340  0.6527  0.6344  0.3400
    1PA     H8R11123   0.240   3.624   4.335  1.2421  1.1820 -1.9194
    1PA     H8S11124   0.077   3.676   4.373  0.5165 -0.6940 -1.4309
    1PA     C1711125   0.148   3.763   4.204 -0.3676 -0.1368 -0.1524
    1PA     H7R11126   0.095   3.689   4.143  0.4685  0.4303 -1.5794
    1PA     H7S11127   0.093   3.856   4.217 -0.2505  0.0908 -1.2507
    1PA     C1611128   0.281   3.810   4.125  0.4571  0.4368  0.1081
    1PA     H6R11129   0.252   3.846   4.026  0.6526  0.5598  0.0954
    1PA     H6S11130   0.332   3.893   4.176  0.8015  0.9689 -1.0804
    1PA     C1511131   0.388   3.703   4.108  0.1840  0.3254  0.2332
    1PA     H5R11132   0.473   3.741   4.051 -0.6322  1.1012 -0.4757
    1PA     H5S11133   0.429   3.693   4.209  0.3691  2.9869  0.4394
    1PA     C1411134   0.341   3.565   4.045 -0.4491 -0.2822  0.1715
    1PA     H4R11135   0.426   3.496   4.038 -1.7093 -1.8991  0.7409
    1PA     H4S11136   0.262   3.512   4.098 -1.1587 -1.1486 -1.7186
    1PA     C1311137   0.291   3.587   3.901 -0.1951  0.9048 -0.3995
    1PA     H3R11138   0.200   3.645   3.918 -0.8088 -0.4830  1.1329
    1PA     H3S11139   0.348   3.656   3.837 -0.6391  0.7004 -1.0211
    1PA     C1211140   0.247   3.459   3.828  0.1882  0.1108  0.2955
    1PA     H2R11141   0.340   3.408   3.803  1.4203  1.8092  1.2908
    1PA     H2S11142   0.193   3.394   3.897  0.4881 -0.3562  0.0952
    1PC     C1111143   0.168   3.479   3.696  0.3792 -0.1396  0.0660
    1PC     O1211144   0.120   3.588   3.665 -0.4203  0.0103  0.1277
    1PC     O1111145   0.151   3.358   3.629  0.3323 -0.6289 -0.2466
    1PC      C111146   0.090   3.373   3.497 -0.8787  0.7060  0.2824
    1PC      HR11147   0.106   3.477   3.469  0.5531  0.2036 -0.8256
    1PC      HS11148   0.136   3.296   3.434 -3.5331  0.3838 -1.3236
    1PC      C211149  -0.064   3.349   3.505  0.0741  0.0300 -0.3588
    1PC      HX11150  -0.083   3.263   3.569 -0.6460  2.0275  2.1712
    1PC      C311151  -0.128   3.326   3.368  0.4984 -0.4706 -0.4083
    1PC      HA11152  -0.117   3.219   3.351 -0.3078 -0.7109  0.5553
    1PC      HB11153  -0.234   3.351   3.365  0.5827  0.0472  0.7784
    1PC     O3111154  -0.056   3.389   3.258 -0.3521  0.0397 -0.7900
    1PC     P3111155  -0.077   3.539   3.203 -0.0467 -0.4119 -0.5356
    1PC     O3211156  -0.033   3.633   3.320 -0.3818 -0.1893  0.4357
    1PC     C3111157  -0.110   3.737   3.367  0.2632  0.3843 -0.1222
    1PC     H1A11158  -0.126   3.814   3.291 -0.3030 -0.3327 -0.7319
    1PC     H1B11159  -0.205   3.696   3.403 -0.8829  1.5122 -1.8082
    1PC     C3211160  -0.052   3.807   3.493  0.4796 -0.0336  0.4457
    1PC     H2A11161  -0.140   3.869   3.515 -0.0284 -0.8882  0.8414
    1PC     H2B11162  -0.060   3.724   3.563 -2.8151  1.0107  1.4142
    1PC     N3111163   0.082   3.868   3.487 -0.2071 -0.0021 -0.4103
    1PC     C3311164   0.095   3.990   3.394 -0.0577 -0.3996  0.2881
    1PC     H3A11165   0.194   4.034   3.410 -0.9656  1.7068  0.2682
    1PC     H3B11166   0.091   3.963   3.289  1.4179 -1.1845  0.4102
    1PC     H3C11167   0.015   4.060   3.418  0.4862  0.5998 -0.7714
    1PC     C3411168   0.131   3.903   3.623 -0.0325 -0.4694  0.1760
    1PC     H4A11169   0.142   3.814   3.686 -0.2300  0.7854  2.0113
    1PC     H4B11170   0.229   3.950   3.613 -1.0507  1.6852  0.0615
    1PC     H4C11171   0.062   3.972   3.671  2.1046  1.2041  0.9023
    1PC     C3511172   0.179   3.773   3.431 -0.1310 -0.7430 -0.6750
    1PC     H5A11173   0.174   3.771   3.322  1.8838  0.5249 -0.8136
    1PC     H5B11174   0.154   3.671   3.463  0.1361 -0.2291  1.2154
    1PC     H5C11175   0.281   3.798   3.462  0.3226 -1.2680 -1.6925
    1PC     O3311176   0.022   3.555   3.090 -0.5153 -0.0262  0.2554
    1PC     O3411177  -0.225   3.556   3.185  0.1436  0.0586  0.1216
    1PC     O2111178  -0.118   3.472   3.562  0.2869 -0.1809 -0.3232
    1PC     C2111179  -0.232   3.453   3.635 -0.7255 -0.4318  0.5742
    1PC     O2211180  -0.305   3.362   3.618  0.5240 -0.0869 -0.0262
    1OL     C1211181  -0.244   3.542   3.752 -0.0459  0.4266  0.1648
    1OL     H2R11182  -0.350   3.546   3.779  0.1348  1.4036  0.7854
    1OL     H2S11183  -0.213   3.643   3.723 -0.3327  0.4360 -0.1075
    1OL     C1311184  -0.168   3.498   3.882  0.5914 -0.1331  0.0063
    1OL     H3R11185  -0.161   3.579   3.954 -2.0256  0.6844 -0.6082
    1OL     H3S11186  -0.066   3.486   3.846  0.4953 -2.3774  0.3809
    1OL     C1411187  -0.219   3.365   3.936 -0.1494  0.0237 -0.1859
    1OL     H4R11188  -0.222   3.287   3.860 -0.8472  0.2465 -0.3899
    1OL     H4S11189  -0.325   3.390   3.950  0.3204  2.2773 -0.4608
    1OL     C1511190  -0.159   3.300   4.063 -0.4389 -0.0046  0.1472
    1OL     H5R11191  -0.068   3.247   4.033  0.9531  2.2869  0.2565
    1OL     H5S11192  -0.230   3.221   4.088 -0.9753  0.5826  0.4908
    1OL     C1611193  -0.136   3.397   4.185 -0.3951  0.2598 -0.1939
    1OL     H6R11194  -0.056   3.469   4.165  1.6199 -2.1501 -1.2067
    1OL     H6S11195  -0.102   3.322   4.257 -3.2406 -0.7727  0.1133
    1OL     C1711196  -0.263   3.463   4.236  0.2018 -0.3139 -0.5700
    1OL     H7R11197  -0.346   3.397   4.262  0.6456 -1.3793 -1.8278
    1OL     H7S11198  -0.302   3.532   4.160 -0.4037  1.5544  1.3629
    1OL     C1811199  -0.244   3.556   4.364 -0.1162  0.0707  0.7375
    1OL     H8R11200  -0.156   3.618   4.347 -0.5996  0.0970 -1.9046
    1OL     H8S11201  -0.228   3.494   4.453 -1.2197 -1.3278 -0.0242
    1OL     C1911202  -0.367   3.637   4.393 -0.5932  0.1742  0.4730
    1OL     H9R11203  -0.402   3.695   4.307 -1.0317 -1.8293 -0.7208
    1OL    C11011204  -0.444   3.639   4.505  0.0331  0.5170 -0.0010
    1OL    H10R11205  -0.534   3.699   4.516 -0.4456 -0.4311  1.4461
    1OL    C11111206  -0.418   3.560   4.628 -0.7760 -0.1576 -0.0874
    1OL    H11R11207  -0.312   3.536   4.629  0.1216  3.5087 -0.5702
    1OL    H11S11208  -0.474   3.466   4.622 -1.5402  0.4793 -3.7205
    1OL    C11211209  -0.465   3.639   4.753  0.4054 -0.2045 -0.2435
    1OL    H12R11210  -0.573   3.658   4.752  0.5005  0.3960  0.5488
    1OL    H12S11211  -0.413   3.735   4.746  0.8636 -0.5012 -0.9969
    1OL    C11311212  -0.441   3.568   4.885 -0.2524  0.1381  0.4102
    1OL    H13R11213  -0.337   3.536   4.886  0.0245  1.0119  0.4965
    1OL    H13S11214  -0.499   3.476   4.886 -0.0666  0.0227  0.4533
    1OL    C11411215  -0.464   3.657   5.012  0.0684  0.0350  0.4009
    1OL    H14R11216  -0.459   3.764   4.990  2.3490 -0.3023 -0.8727
    1OL    H14S11217  -0.379   3.644   5.080 -0.1272 -2.4233  0.1840
    1OL    C11511218  -0.584   3.628   5.098  0.9265  0.2838 -0.0072
    1OL    H15R11219  -0.585   3.684   5.192  1.4870  1.8844 -0.9420
    1OL    H15S11220  -0.581   3.523   5.128 -1.5522 -0.0935 -0.9669
    1OL    C11611221  -0.721   3.650   5.027 -0.0832  0.0300  0.3507
    1OL    H16R11222  -0.719   3.603   4.928 -1.9402 -0.0408  0.3344
    1OL    H16S11223  -0.734   3.758   5.015 -1.4945 -0.2638 -0.9069
    1OL    C11711224  -0.832   3.590   5.111  0.3960 -1.0612  0.1086
    1OL    H17R11225  -0.925   3.645   5.094  0.3330 -1.2550 -0.1610
    1OL    H17S11226  -0.815   3.619   5.215  2.4581  1.4750 -0.8888
    1OL    C11811227  -0.860   3.443   5.101  0.5400  0.4490  0.1883
    1OL    H18R11228  -0.886   3.405   5.002  0.0288  0.0379  0.4787
    1OL    H18S11229  -0.949   3.430   5.164  1.0842  1.7739  1.2656
    1OL    H18T11230  -0.781   3.379   5.140  0.4329  0.4252  0.3713
    1PA    C11611231   0.092   4.910   4.672 -0.4233  0.1670 -0.2305
    1PA    H16R11232  -0.004   4.885   4.718 -0.2931  2.9981  1.6973
    1PA    H16S11233   0.071   4.986   4.597 -1.4323 -1.5708 -1.7715
    1PA    H16T11234   0.168   4.951   4.738 -1.3348  1.5831 -0.0479
    1PA    C11511235   0.152   4.786   4.605  0.0223  0.0307 -0.7546
    1PA    H15R11236   0.144   4.705   4.679  2.4334  0.6274  0.2359
    1PA    H15S11237   0.090   4.759   4.520 -0.6880  3.3465 -1.3629
    1PA    C11411238   0.300   4.803   4.560 -0.3262 -0.2421 -0.5356
    1PA    H14R11239   0.326   4.732   4.481 -1.0757  1.9045 -2.7723
    1PA    H14S11240   0.312   4.905   4.521 -3.4609  0.5449  0.4589
    1PA    C11311241   0.402   4.777   4.675 -0.6868  0.3083 -0.8083
    1PA    H13R11242   0.390   4.849   4.756 -0.0766  0.9558 -1.2916
    1PA    H13S11243   0.385   4.679   4.721 -0.5637  1.1499  1.0494
    1PA    C11211244   0.544   4.788   4.619  0.2132  1.2210  0.0723
    1PA    H12R11245   0.548   4.890   4.581 -3.0178  1.2864 -0.2249
    1PA    H12S11246   0.613   4.772   4.702 -0.0917 -1.8545 -0.1855
    1PA    C11111247   0.587   4.691   4.507 -0.4503  0.3732  0.6574
    1PA    H11R11248   0.552   4.590   4.528 -0.2681  0.2476  0.3716
    1PA    H11S11249   0.555   4.726   4.408  4.1098  1.2411 -0.6565
    1PA    C11011250   0.739   4.686   4.503 -0.2727  0.0713  0.0991
    1PA    H10R11251   0.782   4.647   4.595 -1.0193  0.3799  0.5837
    1PA    H10S11252   0.779   4.615   4.431 -0.4649 -1.5168  1.5351
    1PA     C1911253   0.813   4.823   4.469 -0.0533 -0.0070  0.0492
    1PA     H9R11254   0.801   4.889   4.555 -0.9988  0.8150 -0.7114
    1PA     H9S11255   0.921   4.806   4.468  0.1139  1.0312 -1.8549
    1PA     C1811256   0.771   4.895   4.342 -0.1297  0.4806 -1.2547
    1PA     H8R11257   0.669   4.928   4.361  0.4096  0.2942  2.4469
    1PA     H8S11258   0.827   4.989   4.333 -0.9351  1.0668 -0.3352
    1PA     C1711259   0.779   4.823   4.208 -0.2292  0.8011 -0.7717
    1PA     H7R11260   0.876   4.773   4.209  0.3534  1.9023  2.0822
    1PA     H7S11261   0.713   4.737   4.222  0.5910  0.4674  1.2059
    1PA     C1611262   0.750   4.907   4.090 -0.0037  0.3311  0.5487
    1PA     H6R11263   0.743   4.848   3.998  0.7038 -0.2509  0.8603
    1PA     H6S11264   0.650   4.949   4.105  0.4000  0.9729  1.4436
    1PA     C1511265   0.854   5.019   4.060  0.4608 -0.2351  0.9647
    1PA     H5R11266   0.846   5.094   4.139 -1.2866  1.3140 -0.6244
    1PA     H5S11267   0.952   4.971   4.060  0.8120  0.4528  0.0378
    1PA     C1411268   0.844   5.098   3.922 -0.5068  0.6422  0.1725
    1PA     H4R11269   0.774   5.181   3.927  0.5005  1.3995  1.9495
    1PA     H4S11270   0.942   5.144   3.904 -0.8204  1.2747  0.1124
    1PA     C1311271   0.836   5.002   3.807 -0.3294 -0.7371 -0.5486
    1PA     H3R11272   0.898   5.046   3.729  1.1640  0.1593  1.1053
    1PA     H3S11273   0.883   4.904   3.821 -0.1245 -0.6285 -0.4682
    1PA     C1211274   0.694   5.004   3.756  0.4684 -0.0792  0.3133
    1PA     H2R11275   0.622   4.977   3.834  0.0247 -2.7006 -0.9287
    1PA     H2S11276   0.677   5.110   3.736  1.7169  0.0601  0.0032
    1PC     C1111277   0.667   4.927   3.632 -0.6093  0.2563 -0.3208
    1PC     O1211278   0.760   4.873   3.574 -0.8503  0.6695  0.2174
    1PC     O1111279   0.541   4.912   3.594 -0.0772  0.0625  0.1684
    1PC      C111280   0.512   4.808   3.502  0.7380  0.5064 -0.0388
    1PC      HR11281   0.423   4.847   3.453  0.0552 -2.1765 -0.9775
    1PC      HS11282   0.588   4.804   3.424  0.4474 -1.3635 -0.2339
    1PC      C211283   0.472   4.674   3.571 -0.9683  0.1405  0.2750
    1PC      HX11284   0.560   4.617   3.603 -1.8266 -1.3296  0.0674
    1PC      C311285   0.387   4.589   3.472  0.8096  0.2519 -0.4616
    1PC      HA11286   0.356   4.499   3.525 -0.1209 -0.4837 -2.2169
    1PC      HB11287   0.299   4.641   3.434  1.7604  1.0592 -1.6080
    1PC     O3111288   0.480   4.551   3.361  0.4186  0.2898  0.2451
    1PC     P3111289   0.429   4.460   3.234  0.1040  0.1104  0.2476
    1PC     O3211290   0.404   4.567   3.118 -0.3218 -0.1231 -0.4528
    1PC     C3111291   0.287   4.655   3.113  0.0069  0.7348 -1.0895
    1PC     H1A11292   0.197   4.607   3.154  0.9395  0.4154  0.6341
    1PC     H1B11293   0.310   4.750   3.162 -2.7108  1.2353 -0.7093
    1PC     C3211294   0.265   4.712   2.972  0.4595 -0.6719  0.4688
    1PC     H2A11295   0.179   4.780   2.973 -0.0725 -1.2356 -2.3253
    1PC     H2B11296   0.349   4.780   2.956 -0.7633  1.4282  2.5346
    1PC     N3111297   0.246   4.619   2.858 -0.9205  0.2145 -0.7298
    1PC     C3311298   0.380   4.581   2.792 -0.6251  0.0151 -0.4471
    1PC     H3A11299   0.360   4.519   2.704  0.6130 -2.2809  0.8389
    1PC     H3B11300   0.439   4.669   2.765 -0.3706 -0.2053 -0.6146
    1PC     H3C11301   0.441   4.534   2.869 -1.2819  0.5207  0.3816
    1PC     C3411302   0.168   4.497   2.899  0.7283 -0.0371  0.1143
    1PC     H4A11303   0.076   4.525   2.950 -1.8989 -2.1490 -3.2274
    1PC     H4B11304   0.143   4.447   2.805 -0.2746 -0.4816  0.6129
    1PC     H4C11305   0.228   4.429   2.960 -0.6781  1.4589  3.2668
    1PC     C3511306   0.170   4.689   2.755  0.0145  0.4114  0.3348
    1PC     H5A11307   0.138   4.609   2.688  1.3837 -1.0108  1.3511
    1PC     H5B11308   0.236   4.759   2.701 -1.1679  0.3991 -1.1700
    1PC     H5C11309   0.086   4.749   2.789  1.7507  1.7724  2.3592
    1PC     O3311310   0.536   4.359   3.192  0.3741 -0.0905 -0.3173
    1PC     O3411311   0.296   4.403   3.264  0.2157 -0.4652  0.3028
    1PC     O2111312   0.382   4.697   3.686  0.1427  0.2341 -0.2323
    1PC     C2111313   0.427   4.726   3.808 -0.2878 -0.2622  0.6729
    1PC     O2211314   0.546   4.726   3.833 -0.7110 -0.1649 -0.5116
    1OL     C1211315   0.307   4.760   3.900  0.1241 -0.2533  0.9133
    1OL     H2R11316   0.257   4.666   3.922 -0.3175 -0.4737 -0.9527
    1OL     H2S11317   0.236   4.810   3.834 -1.0800 -0.5140  2.0051
    1OL     C1311318   0.342   4.851   4.023  1.0880  0.2828 -0.2487
    1OL     H3R11319   0.387   4.943   3.986 -1.9184  1.2804 -1.5604
    1OL     H3S11320   0.420   4.797   4.077  0.1656  1.7692  2.6622
    1OL     C1411321   0.218   4.883   4.115  0.1902 -0.7902 -0.3256
    1OL     H4R11322   0.193   4.796   4.176  1.2803  0.8152  2.5187
    1OL     H4S11323   0.125   4.916   4.069 -2.0750 -0.5024  4.1946
    1OL     C1511324   0.264   4.992   4.218  0.2691  0.4960 -0.8271
    1OL     H5R11325   0.346   4.962   4.284 -2.5092 -1.9826  1.5920
    1OL     H5S11326   0.184   5.003   4.291 -0.8275  2.4241 -2.2574
    1OL     C1611327   0.281   5.137   4.168 -0.1872  0.0186  0.0339
    1OL     H6R11328   0.199   5.177   4.109 -0.4383  1.8202  1.5377
    1OL     H6S11329   0.367   5.132   4.101 -0.8849 -0.9626 -0.7962
    1OL     C1711330   0.317   5.236   4.278 -0.3937  0.3408 -0.3824
    1OL     H7R11331   0.228   5.233   4.340  1.7540 -0.3916  2.8128
    1OL     H7S11332   0.347   5.336   4.245  1.4318  0.2216  0.8312
    1OL     C1811333   0.439   5.214   4.368  0.3017  0.2232  0.3474
    1OL     H8R11334   0.425   5.117   4.417  0.9169  0.6518  1.3835
    1OL     H8S11335   0.449   5.295   4.440 -0.0400  0.4750  0.1172
    1OL     C1911336   0.565   5.211   4.277  0.1641  0.5376  0.2730
    1OL     H9R11337   0.556   5.148   4.189  2.3743 -1.1652  1.2366
    1OL    C11011338   0.679   5.275   4.310  0.5649  0.1114  0.9537
    1OL    H10R11339   0.751   5.269   4.229 -1.2752  1.0624 -0.8187
    1OL    C11111340   0.711   5.358   4.436 -0.0735 -0.3012 -0.3572
    1OL    H11R11341   0.619   5.409   4.464  1.1533  1.4629  0.5498
    1OL    H11S11342   0.779   5.434   4.399  0.5531 -0.2224  0.9261
    1OL    C11211343   0.775   5.277   4.553 -0.0712 -0.0732  0.5847
    1OL    H12R11344   0.836   5.342   4.616  1.9348 -0.1031 -1.3020
    1OL    H12S11345   0.845   5.210   4.504 -1.2313 -1.5068  0.8395
    1OL    C11311346   0.672   5.202   4.637 -0.7015 -0.0786  0.8840
    1OL    H13R11347   0.655   5.106   4.588 -0.6629 -0.1323  0.9746
    1OL    H13S11348   0.571   5.244   4.642 -0.1835  1.1956  0.8266
    1OL    C11411349   0.716   5.169   4.785 -0.1894  0.0080 -1.0116
    1OL    H14R11350   0.755   5.259   4.834  1.5948 -2.7166  2.9076
    1OL    H14S11351   0.797   5.097   4.775  1.8420  1.9223  0.9349
    1OL    C11511352   0.598   5.121   4.878 -0.3963 -0.2337 -0.1201
    1OL    H15R11353   0.525   5.057   4.830 -1.1020  0.6943 -0.2887
    1OL    H15S11354   0.537   5.205   4.911 -0.9001 -1.1140  1.2565
    1OL    C11611355   0.640   5.050   5.002 -0.1987 -0.2768  0.0621
    1OL    H16R11356   0.700   4.962   4.977 -1.4815 -1.3676  0.7352
    1OL    H16S11357   0.550   5.014   5.052  0.2775  2.4254  3.0896
    1OL    C11711358   0.715   5.135   5.104  0.0169 -0.4440  0.0578
    1OL    H17R11359   0.639   5.197   5.153  0.0062 -1.8462  1.8938
    1OL    H17S11360   0.783   5.207   5.059 -1.0086 -0.1408 -1.0251
    1OL    C11811361   0.793   5.051   5.221  0.3366  0.9171  0.0050
    1OL    H18R11362   0.719   5.008   5.290  2.0431 -0.3276  1.0766
    1OL    H18S11363   0.858   5.114   5.282  0.7727 -1.5919  2.2223
    1OL    H18T11364   0.849   4.970   5.175 -0.9229 -0.7417  1.3283
    1PA    C11611365   5.010   0.234   5.132 -0.1401 -0.3209  0.0429
    1PA    H16R11366   5.109   0.235   5.179  0.0680 -0.9577 -0.3672
    1PA    H16S11367   4.976   0.131   5.120 -1.0248 -0.3014  2.2358
    1PA    H16T11368   4.947   0.281   5.207  1.2798 -0.8717  1.6128
    1PA    C11511369   4.987   0.316   5.005 -0.2417  0.0585  0.1556
    1PA    H15R11370   4.887   0.360   5.001  0.2186  0.9478 -2.0254
    1PA    H15S11371   5.060   0.397   4.995  0.7972 -0.7684  0.9196
    1PA    C11411372   5.005   0.226   4.880 -1.0337 -0.5200 -0.0312
    1PA    H14R11373   5.112   0.211   4.865 -1.1228 -0.0206 -1.2814
    1PA    H14S11374   4.968   0.125   4.897  1.2521 -1.3208  0.3265
    1PA    C11311375   4.939   0.293   4.766  0.5486  0.4334 -0.2895
    1PA    H13R11376   4.830   0.307   4.770  0.3772 -0.7287 -0.7298
    1PA    H13S11377   4.972   0.397   4.767  1.1269  0.2442  0.1120
    1PA    C11211378   4.959   0.229   4.630 -0.2031  0.1930 -0.0025
    1PA    H12R11379   4.906   0.290   4.557 -0.0795  0.1260 -0.1493
    1PA    H12S11380   5.065   0.232   4.605 -0.3621 -2.0139 -1.0991
    1PA    C11111381   4.905   0.083   4.604  0.4731 -0.2904  0.0725
    1PA    H11R11382   4.963   0.016   4.668  1.0681  0.3833  0.2442
    1PA    H11S11383   4.801   0.066   4.633 -0.4795  0.3749 -2.7393
    1PA    C11011384   4.920   0.050   4.457 -0.4164  0.5387 -0.1041
    1PA    H10R11385   4.836   0.092   4.401 -0.3012  1.5949  0.5127
    1PA    H10S11386   5.012   0.097   4.420  0.5732  0.2035  1.8999
    1PA     C1911387   4.921  -0.096   4.426  0.5437 -0.2232  0.2137
    1PA     H9R11388   5.013  -0.136   4.468  2.6538  1.0021 -2.9528
    1PA     H9S11389   4.836  -0.144   4.474  1.0306  1.0173  2.3813
    1PA     C1811390   4.914  -0.120   4.275 -0.1985 -0.2653  0.3193
    1PA     H8R11391   4.817  -0.076   4.250 -0.0996  0.9527  2.0048
    1PA     H8S11392   4.994  -0.065   4.226  0.8589 -0.4756  1.7749
    1PA     C1711393   4.905  -0.267   4.229 -0.4999 -0.2020 -0.0901
    1PA     H7R11394   4.807  -0.306   4.258 -0.6910  0.1933 -0.1991
    1PA     H7S11395   4.892  -0.259   4.120  3.2399  1.2139 -0.4920
    1PA     C1611396   5.022  -0.358   4.265  0.0897 -0.2325 -0.4604
    1PA     H6R11397   5.038  -0.356   4.373 -0.2727  1.2231 -0.4298
    1PA     H6S11398   5.004  -0.463   4.239  1.1250 -0.4181 -0.4574
    1PA     C1511399   5.144  -0.311   4.181 -0.1142  0.4372 -0.0864
    1PA     H5R11400   5.118  -0.283   4.079 -2.1556  2.1243  0.8445
    1PA     H5S11401   5.183  -0.218   4.223  0.6522 -0.2803  0.7913
    1PA     C1411402   5.265  -0.409   4.188 -0.4476 -0.5955  0.2298
    1PA     H4R11403   5.275  -0.433   4.294  1.1464 -0.6066  0.0796
    1PA     H4S11404   5.244  -0.507   4.146 -1.8133  0.9296 -2.7889
    1PA     C1311405   5.395  -0.347   4.124  0.5264  0.2849  0.6855
    1PA     H3R11406   5.390  -0.239   4.136  0.2574  0.1559  1.7554
    1PA     H3S11407   5.475  -0.392   4.183  1.7026 -0.1462 -1.2032
    1PA     C1211408   5.400  -0.395   3.973 -0.1523 -0.0398  0.1511
    1PA     H2R11409   5.503  -0.408   3.939  1.0366 -2.1779  4.2333
    1PA     H2S11410   5.350  -0.491   3.964  1.0188 -0.6855  0.4352
    1PC     C1111411   5.335  -0.296   3.881  0.1495  0.9808 -0.2286
    1PC     O1211412   5.380  -0.188   3.856 -0.0035 -0.6027  0.1428
    1PC     O1111413   5.220  -0.345   3.828 -0.2319 -0.2942  0.0922
    1PC      C111414   5.147  -0.269   3.729 -0.2593  0.1304  0.5609
    1PC      HR11415   5.118  -0.175   3.777 -0.4735 -0.7471  2.2048
    1PC      HS11416   5.222  -0.246   3.653 -0.4620  1.3380  0.7125
    1PC      C211417   5.027  -0.348   3.676 -0.0455  0.2892  0.3075
    1PC      HX11418   5.075  -0.435   3.630  0.9272  1.5529 -1.1171
    1PC      C311419   4.936  -0.261   3.575  0.5751  0.1291 -0.4687
    1PC      HA11420   4.867  -0.329   3.526  0.3576  0.5027 -0.6847
    1PC      HB11421   4.881  -0.184   3.631 -3.0561 -3.0627  0.5305
    1PC     O3111422   5.014  -0.207   3.470  0.5327  0.6277  0.0241
    1PC     P3111423   4.950  -0.196   3.322  0.2278  0.0140 -0.2722
    1PC     O3211424   4.833  -0.091   3.330  0.4808 -0.0739 -0.4323
    1PC     C3111425   4.811   0.020   3.237  0.4500  0.0021 -0.0224
    1PC     H1A11426   4.726   0.073   3.282  0.5453  0.1363  0.0012
    1PC     H1B11427   4.904   0.077   3.230  1.9778 -2.2630  1.2025
    1PC     C3211428   4.772  -0.036   3.096  0.3127 -0.1054  0.4669
    1PC     H2A11429   4.848  -0.112   3.077 -0.7316 -1.6591  2.2173
    1PC     H2B11430   4.669  -0.073   3.103  0.2640 -0.1883 -0.6688
    1PC     N3111431   4.769   0.056   2.973 -0.0913  0.1231 -0.4238
    1PC     C3311432   4.660   0.159   2.972 -0.4867 -0.2656 -0.2313
    1PC     H3A11433   4.632   0.196   2.873  2.4609 -0.9892 -1.3674
    1PC     H3B11434   4.575   0.102   3.011 -1.5282  0.6142 -1.1642
    1PC     H3C11435   4.701   0.237   3.035 -1.9803 -0.5562  1.1253
    1PC     C3411436   4.896   0.133   2.955 -0.1761  0.3390 -0.0573
    1PC     H4A11437   4.872   0.211   2.883 -0.2858 -0.9478 -1.4100
    1PC     H4B11438   4.934   0.175   3.049 -2.6555 -0.7806  1.4962
    1PC     H4C11439   4.978   0.065   2.933  0.4394  0.0734  2.8393
    1PC     C3511440   4.749  -0.024   2.847 -0.0998 -0.3635 -0.0038
    1PC     H5A11441   4.754   0.044   2.762  0.5197 -0.6721 -0.2088
    1PC     H5B11442   4.649  -0.068   2.849 -0.8819  1.3994  0.8697
    1PC     H5C11443   4.822  -0.105   2.852  0.2194  0.0270  2.3940
    1PC     O3311444   5.051  -0.143   3.226  0.0233  1.1741 -0.1535
    1PC     O3411445   4.874  -0.320   3.291 -0.1013 -0.4545 -0.0306
    1PC     O2111446   4.937  -0.380   3.783 -0.5329  0.1600 -0.1897
    1PC     C2111447   4.925  -0.508   3.826  0.5861  0.1544  0.2157
    1PC     O2211448   4.985  -0.602   3.776  0.2586  0.4423  1.0488
    1OL     C1211449   4.826  -0.524   3.943  0.4697  0.2626 -0.5588
    1OL     H2R11450   4.731  -0.476   3.919  1.1585  1.4737 -0.8533
    1OL     H2S11451   4.867  -0.475   4.031 -2.4007  0.5395  0.7032
    1OL     C1311452   4.812  -0.677   3.981 -0.3354  0.6927 -0.4901
    1OL     H3R11453   4.905  -0.724   4.015 -2.7703 -2.3473  2.2838
    1OL     H3S11454   4.783  -0.733   3.892 -0.1057 -0.0138 -0.1220
    1OL     C1411455   4.707  -0.719   4.083 -0.6974  0.5813 -0.0162
    1OL     H4R11456   4.699  -0.828   4.079  0.8465  0.4765 -0.8100
    1OL     H4S11457   4.606  -0.686   4.056 -1.7752 -2.3703  0.2433
    1OL     C1511458   4.723  -0.676   4.226  0.5174  0.1703  0.2680
    1OL     H5R11459   4.714  -0.569   4.240  0.5894  0.5333 -2.1647
    1OL     H5S11460   4.826  -0.703   4.250  0.6291  1.4130  1.2140
    1OL     C1611461   4.621  -0.753   4.310 -0.2069  0.0691  0.0652
    1OL     H6R11462   4.632  -0.852   4.267  1.5558  1.3301 -2.5093
    1OL     H6S11463   4.520  -0.717   4.289 -1.1510 -2.4164  0.1784
    1OL     C1711464   4.638  -0.764   4.465  0.2825 -0.2667  0.3507
    1OL     H7R11465   4.733  -0.814   4.484 -0.4514 -1.4348  0.9718
    1OL     H7S11466   4.562  -0.833   4.502 -0.8620 -1.2046 -3.5453
    1OL     C1811467   4.637  -0.633   4.541  0.6207  0.1410  0.5010
    1OL     H8R11468   4.540  -0.588   4.517  0.3286 -0.0392  1.3408
    1OL     H8S11469   4.716  -0.564   4.511  2.8598 -2.6743 -0.3246
    1OL     C1911470   4.644  -0.669   4.684  0.4654  0.2989  0.1161
    1OL     H9R11471   4.560  -0.728   4.722 -0.4048  0.7046 -1.1351
    1OL    C11011472   4.753  -0.655   4.763 -0.6767  0.0956  0.1417
    1OL    H10R11473   4.754  -0.679   4.869  1.3829 -0.1343  0.0858
    1OL    C11111474   4.893  -0.598   4.732  0.0065 -0.4335  0.6298
    1OL    H11R11475   4.881  -0.490   4.719  1.2429 -0.2198  1.1838
    1OL    H11S11476   4.930  -0.648   4.642 -0.5456 -0.5519  0.4676
    1OL    C11211477   4.993  -0.631   4.846 -0.2898 -0.3598 -0.8760
    1OL    H12R11478   4.978  -0.735   4.878  0.9428 -1.1839 -2.8293
    1OL    H12S11479   4.973  -0.568   4.933 -0.0188 -0.6879 -0.5739
    1OL    C11311480   5.142  -0.619   4.794 -0.0928  0.0695 -0.4563
    1OL    H13R11481   5.156  -0.677   4.702  0.0451  0.6738 -0.8188
    1OL    H13S11482   5.209  -0.663   4.867 -1.2880  0.0748  0.6565
    1OL    C11411483   5.200  -0.477   4.770 -0.0719  0.0835 -0.4837
    1OL    H14R11484   5.125  -0.424   4.710 -1.1752 -1.8838 -0.9036
    1OL    H14S11485   5.291  -0.476   4.710 -0.0835  2.1726 -0.5095
    1OL    C11511486   5.225  -0.395   4.895 -0.9996  0.0749  0.2623
    1OL    H15R11487   5.229  -0.461   4.982  1.3196  0.3307  0.3684
    1OL    H15S11488   5.132  -0.338   4.903 -0.5021  1.1631 -1.4632
    1OL    C11611489   5.346  -0.300   4.884 -0.2118 -1.2245 -0.8508
    1OL    H16R11490   5.443  -0.349   4.898  1.7867  2.5763 -0.9607
    1OL    H16S11491   5.354  -0.244   4.977 -1.3047  0.6040 -1.8274
    1OL    C11711492   5.338  -0.194   4.772  0.8166 -0.0849  0.6117
    1OL    H17R11493   5.341  -0.227   4.668  2.2583  2.0355 -0.0457
    1OL    H17S11494   5.432  -0.140   4.786  0.5881  0.2927  0.6828
    1OL    C11811495   5.221  -0.097   4.786  0.0053 -0.2076  0.0147
    1OL    H18R11496   5.207  -0.025   4.705 -3.1115 -0.1657  0.5498
    1OL    H18S11497   5.239  -0.049   4.882  1.6006 -0.8564  0.0688
    1OL    H18T11498   5.127  -0.151   4.797 -0.6746  1.1336  0.8066
    1PA    C11611499   1.254   5.070   4.404  0.6217  0.2490  0.1727
    1PA    H16R11500   1.191   4.980   4.405 -0.8219  1.2088 -1.2505
    1PA    H16S11501   1.339   5.053   4.471 -0.2529 -0.0609  1.2289
    1PA    H16T11502   1.289   5.091   4.303 -2.5983  2.2341 -0.6136
    1PA    C11511503   1.188   5.199   4.456 -0.0661  0.3814  0.3365
    1PA    H15R11504   1.141   5.174   4.551  0.1877  0.1551  0.4000
    1PA    H15S11505   1.262   5.278   4.474 -0.1906  0.9289 -1.3890
    1PA    C11411506   1.076   5.246   4.366  0.3179 -0.2304 -0.6291
    1PA    H14R11507   1.009   5.160   4.355 -0.0731  0.0278 -0.2438
    1PA    H14S11508   1.024   5.329   4.414  1.6247 -1.1251  2.4674
    1PA    C11311509   1.131   5.309   4.236  0.3161  0.5250  0.2391
    1PA    H13R11510   1.197   5.389   4.270  3.3832 -0.2650 -3.5429
    1PA    H13S11511   1.192   5.240   4.178  0.6939  0.0139  1.2204
    1PA    C11211512   1.021   5.364   4.143 -0.2723  0.2341  0.1089
    1PA    H12R11513   0.953   5.296   4.093  0.7521 -0.1897 -0.7280
    1PA    H12S11514   0.963   5.426   4.212  0.0873  1.1347 -0.3789
    1PA    C11111515   1.072   5.448   4.027  0.8639  0.4967 -0.1071
    1PA    H11R11516   1.111   5.540   4.070  2.1088  0.8546 -1.8946
    1PA    H11S11517   1.154   5.392   3.981  0.7460  0.4028 -0.2032
    1PA    C11011518   0.962   5.472   3.915 -0.1827  0.0787 -0.0715
    1PA    H10R11519   0.997   5.526   3.827  0.5968 -1.2911 -0.6247
    1PA    H10S11520   0.947   5.377   3.863  1.8834 -0.7192  0.7270
    1PA     C1911521   0.827   5.530   3.969 -0.1058 -0.7585  0.7726
    1PA     H9R11522   0.767   5.456   4.022 -0.2371  0.3971  2.2842
    1PA     H9S11523   0.849   5.623   4.022  0.2543 -1.2959  1.5808
    1PA     C1811524   0.746   5.579   3.847 -0.2623  0.0678  0.3837
    1PA     H8R11525   0.767   5.528   3.752 -0.1541  0.2366  0.3179
    1PA     H8S11526   0.639   5.563   3.864 -0.1673  2.1938  3.3665
    1PA     C1711527   0.777   5.724   3.817 -0.4959 -0.5790  0.1968
    1PA     H7R11528   0.742   5.792   3.895  2.7130  0.3131  0.9381
    1PA     H7S11529   0.885   5.741   3.815 -0.5804 -0.1012 -1.0094
    1PA     C1611530   0.716   5.760   3.683  0.1065  0.0674  0.1523
    1PA     H6R11531   0.768   5.851   3.653  0.4738  0.0754  0.8068
    1PA     H6S11532   0.742   5.686   3.607 -0.8774 -0.5741  0.4264
    1PA     C1511533   0.566   5.772   3.682  0.2166  0.2125 -0.2465
    1PA     H5R11534   0.539   5.788   3.577 -1.3550  1.5518  0.3350
    1PA     H5S11535   0.517   5.678   3.711 -2.0881  1.1319 -1.0111
    1PA     C1411536   0.504   5.878   3.772  0.6114 -0.5217 -0.5375
    1PA     H4R11537   0.517   5.851   3.877  3.2124  3.2856  0.2139
    1PA     H4S11538   0.556   5.973   3.757  0.7951  0.0659  3.2443
    1PA     C1311539   0.350   5.887   3.756 -0.1254  0.4304  0.0466
    1PA     H3R11540   0.316   5.784   3.767  1.6830 -0.0716  1.1791
    1PA     H3S11541   0.299   5.938   3.838 -1.0231  0.0490 -0.2705
    1PA     C1211542   0.300   5.931   3.618  0.1385 -0.4975 -0.0333
    1PA     H2R11543   0.336   5.857   3.546  2.3281  0.3773  0.1487
    1PA     H2S11544   0.192   5.922   3.609 -0.0664  1.3649  0.4402
    1PC     C1111545   0.332   6.069   3.568 -0.7583  0.2994 -0.0245
    1PC     O1211546   0.411   6.141   3.622  0.1147  0.0200 -0.2918
    1PC     O1111547   0.274   6.096   3.452 -0.0165  0.3751  0.4565
    1PC      C111548   0.287   6.233   3.397  0.8006  0.3493  0.5237
    1PC      HR11549   0.193   6.264   3.351  1.4377  0.7346 -0.5348
    1PC      HS11550   0.281   6.302   3.482 -2.7577  0.8104 -0.0551
    1PC      C211551   0.393   6.256   3.289 -0.0459  0.5224 -0.4500
    1PC      HX11552   0.413   6.363   3.293  2.5814  0.0478  0.6024
    1PC      C311553   0.351   6.216   3.144  1.0089  0.4302 -0.4559
    1PC      HA11554   0.255   6.264   3.128  0.7845 -0.5044 -1.9612
    1PC      HB11555   0.417   6.263   3.071 -1.0723  1.4721 -1.7051
    1PC     O3111556   0.326   6.079   3.123 -0.4052  0.7159  0.2435
    1PC     P3111557   0.423   5.982   3.036  0.0187 -0.2861  0.1603
    1PC     O3211558   0.460   5.864   3.130 -0.4393  0.6803  0.6128
    1PC     C3111559   0.555   5.884   3.237  0.3517  0.1527 -0.0644
    1PC     H1A11560   0.644   5.939   3.205  0.7099 -1.4943 -2.0222
    1PC     H1B11561   0.508   5.934   3.322  0.2385  1.6479 -0.9938
    1PC     C3211562   0.603   5.741   3.271  0.0483  0.0852 -0.1331
    1PC     H2A11563   0.664   5.745   3.362  0.7291  1.5805 -0.6347
    1PC     H2B11564   0.519   5.672   3.283  0.0100 -0.2970 -2.4647
    1PC     N3111565   0.684   5.663   3.164 -0.4743 -0.2748 -0.5768
    1PC     C3311566   0.759   5.552   3.224 -0.1781 -0.4692  0.1263
    1PC     H3A11567   0.847   5.590   3.276 -0.0860  0.9827 -1.0332
    1PC     H3B11568   0.693   5.508   3.298  1.6093  0.0811  2.0926
    1PC     H3C11569   0.787   5.478   3.149  1.2828  0.5621 -0.3867
    1PC     C3411570   0.595   5.602   3.062  0.1250 -0.0832 -0.4667
    1PC     H4A11571   0.518   5.543   3.112 -2.0697  1.2079 -2.2774
    1PC     H4B11572   0.545   5.676   3.001 -0.1305  1.4421  1.5238
    1PC     H4C11573   0.654   5.532   3.002  0.4925  0.5876 -0.8929
    1PC     C3511574   0.790   5.747   3.099  0.3151  0.0335 -0.3632
    1PC     H5A11575   0.849   5.805   3.170  0.2575 -2.5434  1.8304
    1PC     H5B11576   0.748   5.818   3.026  0.0398 -0.2127 -0.4457
    1PC     H5C11577   0.867   5.682   3.057 -1.1146 -2.4874  0.8070
    1PC     O3311578   0.342   5.925   2.928 -0.1792 -0.0599 -0.2692
    1PC     O3411579   0.548   6.063   3.003  0.0586 -0.0535 -0.2292
    1PC     O2111580   0.517   6.190   3.324 -0.4044  0.3477 -0.0592
    1PC     C2111581   0.619   6.267   3.382  0.0398 -0.3517  0.1628
    1PC     O2211582   0.614   6.389   3.381  0.0938 -0.0987  0.2566
    1OL     C1211583   0.724   6.188   3.456  0.3460 -0.1896  0.2542
    1OL     H2R11584   0.761   6.116   3.383 -0.7731 -0.3540 -0.1636
    1OL     H2S11585   0.677   6.133   3.538  2.5205  0.5884  2.0738
    1OL     C1311586   0.831   6.284   3.502  0.3672 -0.0387  0.2178
    1OL     H3R11587   0.787   6.358   3.570  1.8109  0.3819  0.7297
    1OL     H3S11588   0.874   6.336   3.416 -0.4367  1.0390  0.4540
    1OL     C1411589   0.947   6.211   3.577 -0.2571  0.2876 -0.0388
    1OL     H4R11590   1.028   6.274   3.614 -1.2690 -0.4768  3.6935
    1OL     H4S11591   0.987   6.137   3.508 -3.9378 -0.5945 -1.3270
    1OL     C1511592   0.893   6.137   3.699  0.1916  0.9984 -0.5074
    1OL     H5R11593   0.970   6.078   3.749  0.1797  0.2054 -1.4238
    1OL     H5S11594   0.818   6.065   3.668  1.0258 -0.1799  0.1777
    1OL     C1611595   0.819   6.219   3.804 -0.8478  0.0800  0.1488
    1OL     H6R11596   0.732   6.255   3.749 -0.3738 -0.7595 -1.1637
    1OL     H6S11597   0.870   6.308   3.840  0.0894 -0.6244  0.5801
    1OL     C1711598   0.763   6.133   3.917  0.1733  0.5054  0.1598
    1OL     H7R11599   0.838   6.092   3.985 -0.3683  0.8431  0.9612
    1OL     H7S11600   0.721   6.041   3.875  2.8354 -0.6506 -0.1097
    1OL     C1811601   0.658   6.210   3.994  0.0320 -0.1084  0.2903
    1OL     H8R11602   0.597   6.265   3.922 -0.2813 -1.0727 -0.1907
    1OL     H8S11603   0.714   6.284   4.052  0.1412  0.6148 -0.7244
    1OL     C1911604   0.576   6.125   4.075  0.2586  0.4168 -0.3012
    1OL     H9R11605   0.553   6.029   4.029 -1.6626  0.5156  0.4459
    1OL    C11011606   0.535   6.150   4.197 -0.0017 -0.4521  0.3956
    1OL    H10R11607   0.486   6.074   4.257  0.4059 -0.1818  1.0825
    1OL    C11111608   0.555   6.278   4.276 -0.0485 -0.2251  0.4709
    1OL    H11R11609   0.478   6.297   4.352 -2.5762 -0.1929 -2.0404
    1OL    H11S11610   0.555   6.365   4.210 -2.8484  0.3156  1.0915
    1OL    C11211611   0.690   6.258   4.344  0.2304 -1.0312  0.3785
    1OL    H12R11612   0.727   6.351   4.388 -0.8201 -1.1898  1.6132
    1OL    H12S11613   0.760   6.227   4.266  0.4488  2.5155 -0.9184
    1OL    C11311614   0.678   6.156   4.461 -0.1983 -0.3153 -0.3240
    1OL    H13R11615   0.633   6.062   4.428  0.2608 -0.2945 -1.0385
    1OL    H13S11616   0.612   6.191   4.540 -0.9355 -1.2950 -0.4916
    1OL    C11411617   0.814   6.114   4.529 -0.4879 -0.2381  0.2666
    1OL    H14R11618   0.798   6.075   4.630  1.6195 -0.1185  0.6794
    1OL    H14S11619   0.865   6.210   4.532  3.2966 -2.1746  1.9125
    1OL    C11511620   0.904   6.011   4.449  0.0472 -0.3929  0.6496
    1OL    H15R11621   1.009   6.014   4.479  0.2837 -2.9974  0.1757
    1OL    H15S11622   0.897   6.037   4.343  1.1301 -1.4282  0.3107
    1OL    C11611623   0.840   5.871   4.441 -0.3101 -0.6359 -0.9145
    1OL    H16R11624   0.744   5.887   4.392  0.8278  0.1215 -2.9627
    1OL    H16S11625   0.836   5.840   4.545  0.9038 -0.2026 -0.7358
    1OL    C11711626   0.922   5.777   4.346  0.2180 -0.8960  0.2452
    1OL    H17R11627   0.871   5.681   4.355  1.5635 -1.5309  1.1997
    1OL    H17S11628   1.025   5.782   4.381  0.6085  1.4077 -1.1674
    1OL    C11811629   0.917   5.823   4.195  0.0200 -0.3348 -0.5516
    1OL    H18R11630   0.959   5.751   4.126 -0.0210  0.8743 -1.8569
    1OL    H18S11631   0.941   5.929   4.181 -1.2371  0.2621  1.4073
    1OL    H18T11632   0.811   5.826   4.167 -0.9147 -2.7903  2.3931
    1PA    C11611633   1.898   5.171   4.680  0.2157 -0.0915 -0.0967
    1PA    H16R11634   1.985   5.118   4.721 -0.4152 -1.8593 -0.9796
    1PA    H16S11635   1.831   5.093   4.644  1.3652 -1.0364 -0.2146
    1PA    H16T11636   1.846   5.232   4.753 -2.6290  1.2634 -3.1141
    1PA    C11511637   1.944   5.247   4.554 -0.6752  0.0390  0.3368
    1PA    H15R11638   2.036   5.304   4.567 -0.5276  0.5091 -2.4323
    1PA    H15S11639   1.969   5.165   4.486  0.9625  0.0321  0.9430
    1PA    C11411640   1.847   5.345   4.485  1.2128  0.2378  0.4004
    1PA    H14R11641   1.861   5.447   4.521 -2.1571  0.4712  1.1582
    1PA    H14S11642   1.867   5.344   4.378  0.3577 -0.9567  0.2400
    1PA    C11311643   1.691   5.310   4.485  0.3820  0.3489 -0.5498
    1PA    H13R11644   1.652   5.301   4.586  0.1035 -0.0999 -0.6926
    1PA    H13S11645   1.632   5.387   4.436 -0.6916  0.4281  0.8369
    1PA    C11211646   1.639   5.183   4.408  0.3371  1.1335 -0.1854
    1PA    H12R11647   1.698   5.098   4.443 -1.3441 -0.1321 -0.3704
    1PA    H12S11648   1.535   5.166   4.435  0.7871 -4.5146 -1.5086
    1PA    C11111649   1.640   5.187   4.257 -0.2073 -0.1167  0.2338
    1PA    H11R11650   1.741   5.207   4.220 -0.2948 -0.5562 -0.2541
    1PA    H11S11651   1.608   5.089   4.220 -0.0464  1.1207 -3.3323
    1PA    C11011652   1.548   5.297   4.201  0.0710  0.2253 -0.5723
    1PA    H10R11653   1.445   5.288   4.236  0.4424  1.0214  0.7485
    1PA    H10S11654   1.589   5.397   4.217  0.2954 -0.1572  1.3669
    1PA     C1911655   1.520   5.286   4.044 -0.7426  0.4698 -0.1755
    1PA     H9R11656   1.495   5.381   3.996 -1.5292 -0.1445 -0.9895
    1PA     H9S11657   1.621   5.279   4.002 -1.2788 -0.0919 -1.3893
    1PA     C1811658   1.439   5.163   4.002  0.0803  0.4551 -0.1787
    1PA     H8R11659   1.482   5.079   4.057 -0.5853 -1.1493 -2.0603
    1PA     H8S11660   1.334   5.175   4.029  0.5678  2.8207  0.7864
    1PA     C1711661   1.451   5.123   3.852  0.0102 -0.0562 -0.1833
    1PA     H7R11662   1.408   5.201   3.788  0.2693 -0.0331 -0.3319
    1PA     H7S11663   1.553   5.107   3.815  0.7922  0.4903  1.6856
    1PA     C1611664   1.357   4.999   3.844 -0.2302  0.6981 -0.5399
    1PA     H6R11665   1.406   4.925   3.907  0.3318  1.9364  0.5108
    1PA     H6S11666   1.259   5.022   3.888 -0.6324  2.2930 -2.2358
    1PA     C1511667   1.337   4.944   3.705  0.4144 -0.0226 -0.2972
    1PA     H5R11668   1.426   4.890   3.672 -2.0695 -4.4772 -0.1678
    1PA     H5S11669   1.255   4.874   3.722 -0.0557  0.5445 -0.2330
    1PA     C1411670   1.286   5.048   3.603 -0.0580  0.4240  0.1168
    1PA     H4R11671   1.361   5.126   3.586 -0.6457  0.8712 -0.4239
    1PA     H4S11672   1.276   4.994   3.508 -0.0837  0.5581  0.0437
    1PA     C1311673   1.144   5.095   3.636 -0.6607  0.0832  0.2935
    1PA     H3R11674   1.078   5.010   3.615  0.4634 -0.4632 -1.0792
    1PA     H3S11675   1.139   5.134   3.738  1.7765  0.9788  0.0916
    1PA     C1211676   1.088   5.205   3.544  0.4004 -0.1517 -0.6171
    1PA     H2R11677   1.097   5.179   3.438 -0.4265 -0.8343 -0.5223
    1PA     H2S11678   0.982   5.207   3.569  0.9689 -0.4282  1.9212
    1PC     C1111679   1.144   5.347   3.555 -0.5296 -0.8914  0.5488
    1PC     O1211680   1.231   5.385   3.636 -0.4379  0.4071  0.7260
    1PC     O1111681   1.069   5.423   3.473 -0.4571  0.2214  0.0139
    1PC      C111682   1.128   5.556   3.422  0.5424  0.9022 -0.7694
    1PC      HR11683   1.047   5.626   3.400 -0.0577 -0.4184 -2.8886
    1PC      HS11684   1.201   5.596   3.493  2.5242  0.1922 -2.3820
    1PC      C211685   1.208   5.528   3.292  0.7517 -0.1450  0.5187
    1PC      HX11686   1.264   5.620   3.270  0.1814  0.0144 -0.2753
    1PC      C311687   1.129   5.492   3.168  0.0796 -0.0537  0.1826
    1PC      HA11688   1.074   5.583   3.142  0.4149 -0.3438 -1.5921
    1PC      HB11689   1.202   5.465   3.091 -0.5627 -0.1990 -0.3816
    1PC     O3111690   1.031   5.382   3.189 -0.7580 -0.0530  0.1167
    1PC     P3111691   0.956   5.321   3.056  0.0518 -0.0024 -0.0197
    1PC     O3211692   1.069   5.231   2.998 -0.6937  0.3782 -0.2931
    1PC     C3111693   1.116   5.110   3.072  0.1342 -1.0581 -0.2206
    1PC     H1A11694   1.195   5.127   3.146 -1.3857 -2.3684  1.7573
    1PC     H1B11695   1.032   5.067   3.127 -0.0796 -0.0819  0.2217
    1PC     C3211696   1.175   5.012   2.968 -0.3469 -0.3966 -0.1227
    1PC     H2A11697   1.213   4.926   3.024  0.4531  0.6677  0.9972
    1PC     H2B11698   1.096   4.981   2.899 -1.3448  0.3325  0.6818
    1PC     N3111699   1.295   5.061   2.898  0.5184 -0.3760  0.3541
    1PC     C3311700   1.269   5.145   2.780  0.4579 -0.1034  0.2152
    1PC     H3A11701   1.364   5.180   2.738  1.3138 -1.7491  0.7317
    1PC     H3B11702   1.209   5.085   2.711  2.2387 -0.7589 -0.8021
    1PC     H3C11703   1.210   5.226   2.822  0.5910 -0.2075  0.6102
    1PC     C3411704   1.386   5.128   2.991 -0.3385  0.4253  0.4464
    1PC     H4A11705   1.425   5.055   3.063  0.9209  1.2400  0.6035
    1PC     H4B11706   1.472   5.165   2.935 -1.0016 -0.6273 -1.3065
    1PC     H4C11707   1.339   5.213   3.040  0.7207  2.3972 -1.8962
    1PC     C3511708   1.371   4.944   2.840 -0.1329 -0.7527  0.1519
    1PC     H5A11709   1.411   4.874   2.914  0.4440 -1.8263 -1.1601
    1PC     H5B11710   1.457   4.983   2.786 -0.1965 -3.5365 -2.1154
    1PC     H5C11711   1.310   4.887   2.770  1.0132  0.2315 -1.6786
    1PC     O3311712   0.831   5.246   3.089 -0.2959 -0.3689  0.3566
    1PC     O3411713   0.943   5.435   2.966  0.1758 -0.2433  0.0706
    1PC     O2111714   1.300   5.410   3.308  0.2054 -0.0066 -0.0350
    1PC     C2111715   1.424   5.436   3.323 -0.8666 -0.0417 -0.0368
    1PC     O2211716   1.476   5.545   3.329 -0.3881  0.8260 -0.0796
    1OL     C1211717   1.505   5.316   3.329  0.2013  0.4346  0.4846
    1OL     H2R11718   1.584   5.316   3.253 -0.5288 -2.2816 -0.3361
    1OL     H2S11719   1.445   5.229   3.302  0.8615  0.1389 -0.0654
    1OL     C1311720   1.567   5.284   3.465 -0.2283 -0.3530  0.1506
    1OL     H3R11721   1.621   5.190   3.448  0.2779  0.2104 -1.4782
    1OL     H3S11722   1.490   5.266   3.540  0.7411 -0.9028  1.0439
    1OL     C1411723   1.656   5.388   3.532  0.3689 -0.2391 -0.0209
    1OL     H4R11724   1.590   5.472   3.553  0.3486 -0.2948  0.1376
    1OL     H4S11725   1.728   5.411   3.453 -0.6364 -0.1506 -0.9057
    1OL     C1511726   1.723   5.342   3.665 -0.1811  0.2060  0.6099
    1OL     H5R11727   1.791   5.261   3.638  0.1853  1.0232 -0.9634
    1OL     H5S11728   1.641   5.317   3.733  0.7079  1.3285  2.1083
    1OL     C1611729   1.812   5.453   3.733 -0.1373 -0.2025 -0.7538
    1OL     H6R11730   1.874   5.491   3.651 -1.1402  1.5693 -0.7042
    1OL     H6S11731   1.857   5.401   3.818 -3.4266 -2.5927 -0.3609
    1OL     C1711732   1.728   5.569   3.782  0.1449  0.2902 -0.5283
    1OL     H7R11733   1.657   5.535   3.857 -0.4269  0.5490 -0.9548
    1OL     H7S11734   1.663   5.625   3.715  1.8042  2.6855 -0.2004
    1OL     C1811735   1.822   5.680   3.844  0.7493  0.4050  0.1793
    1OL     H8R11736   1.904   5.710   3.779 -0.0196  1.7494 -0.1965
    1OL     H8S11737   1.868   5.661   3.941  0.2710  0.6857  0.4662
    1OL     C1911738   1.739   5.810   3.851  0.7398  0.2892  0.5219
    1OL     H9R11739   1.688   5.831   3.757  1.3067 -1.7947 -0.2641
    1OL    C11011740   1.718   5.875   3.969  1.1701 -0.3713  0.7488
    1OL    H10R11741   1.651   5.960   3.978  0.7269 -0.7966  1.4895
    1OL    C11111742   1.785   5.825   4.101  0.2986  0.5620 -0.2501
    1OL    H11R11743   1.782   5.914   4.165 -1.9430  2.0414 -2.3006
    1OL    H11S11744   1.891   5.809   4.080 -0.0012 -0.9313 -0.6426
    1OL    C11211745   1.710   5.717   4.182  0.0450 -0.0527  0.1790
    1OL    H12R11746   1.754   5.678   4.274 -0.0267  0.7273  0.5473
    1OL    H12S11747   1.699   5.644   4.101 -0.3989  1.3722 -1.0717
    1OL    C11311748   1.570   5.772   4.216  0.2805 -0.1430 -0.7434
    1OL    H13R11749   1.522   5.783   4.118  0.7486 -0.7444 -1.0461
    1OL    H13S11750   1.576   5.864   4.274 -3.2954 -0.3576  0.0965
    1OL    C11411751   1.473   5.686   4.308  0.1969 -0.0935  0.1623
    1OL    H14R11752   1.513   5.669   4.408  1.8563 -1.1777 -0.6805
    1OL    H14S11753   1.456   5.591   4.257 -0.5122 -0.0139  0.2396
    1OL    C11511754   1.331   5.754   4.328  0.9163  0.4474  0.0574
    1OL    H15R11755   1.264   5.682   4.375  0.7001  1.1775  0.8848
    1OL    H15S11756   1.288   5.770   4.229  0.3659  1.9468  0.5215
    1OL    C11611757   1.314   5.881   4.412 -0.4545  0.2337 -0.3491
    1OL    H16R11758   1.211   5.888   4.446  0.2906  0.8358  1.8271
    1OL    H16S11759   1.335   5.973   4.357  1.7156  0.3669  0.6196
    1OL    C11711760   1.406   5.881   4.537 -0.2705  0.2522  1.6087
    1OL    H17R11761   1.500   5.843   4.497 -2.2501 -3.0474 -0.1947
    1OL    H17S11762   1.362   5.813   4.610 -1.7994  0.4424  0.8843
    1OL    C11811763   1.416   6.019   4.596 -0.1150 -0.2872  0.4873
    1OL    H18R11764   1.319   6.061   4.623  0.3508  0.2152  1.4355
    1OL    H18S11765   1.450   6.104   4.536 -0.5846 -0.3739  0.1003
    1OL    H18T11766   1.488   6.006   4.677  0.8237 -1.4060 -0.5059
    1PA    C11611767   0.649   0.133   4.933  0.4910  0.3439 -0.8661
    1PA    H16R11768   0.568   0.061   4.933  0.4587  0.3777 -0.4794
    1PA    H16S11769   0.659   0.161   5.038 -0.0805 -1.5026 -0.3144
    1PA    H16T11770   0.743   0.088   4.899 -0.9866 -2.4104 -1.4197
    1PA    C11511771   0.605   0.248   4.842  0.1957  0.8271 -0.0003
    1PA    H15R11772   0.517   0.297   4.882 -0.7961 -0.2816 -0.7657
    1PA    H15S11773   0.690   0.315   4.830  1.2025 -0.4283  0.0511
    1PA    C11411774   0.575   0.194   4.704 -0.3416 -0.1463  0.4024
    1PA    H14R11775   0.667   0.171   4.648  0.6462  0.3736  1.7814
    1PA    H14S11776   0.526   0.098   4.718  1.8823 -1.1964  1.3110
    1PA    C11311777   0.489   0.273   4.603  0.2826  0.2960 -0.2213
    1PA    H13R11778   0.390   0.288   4.645  0.5593  0.8364  0.2390
    1PA    H13S11779   0.534   0.369   4.578  2.2906 -1.2406 -2.8515
    1PA    C11211780   0.466   0.200   4.477 -0.3417 -0.3067 -0.7027
    1PA    H12R11781   0.559   0.176   4.426 -1.4929  2.2719 -4.2344
    1PA    H12S11782   0.423   0.103   4.502  0.3834 -0.3119  0.5213
    1PA    C11111783   0.380   0.281   4.375 -0.2356  0.0347  0.1205
    1PA    H11R11784   0.281   0.295   4.419 -0.8933 -2.1677 -0.5922
    1PA    H11S11785   0.432   0.374   4.348 -0.0197 -0.4781 -1.2368
    1PA    C11011786   0.363   0.190   4.256 -0.5435 -0.1993  0.3038
    1PA    H10R11787   0.456   0.185   4.199 -1.3532 -0.0802 -1.0396
    1PA    H10S11788   0.343   0.089   4.291 -4.4829  0.8818  1.5073
    1PA     C1911789   0.252   0.235   4.160 -0.2746  0.4233  0.3369
    1PA     H9R11790   0.154   0.243   4.206 -1.4168 -1.5999 -1.6508
    1PA     H9S11791   0.281   0.338   4.140 -0.3321  0.2649 -0.5620
    1PA     C1811792   0.239   0.169   4.019  0.2999 -0.6108 -0.3971
    1PA     H8R11793   0.161   0.230   3.972 -0.7093 -1.2553  0.4251
    1PA     H8S11794   0.342   0.184   3.985  1.0208 -1.5829  1.3104
    1PA     C1711795   0.194   0.019   4.023 -0.2986  0.1973  0.1221
    1PA     H7R11796   0.278  -0.042   4.057  0.3927  1.2499  0.3138
    1PA     H7S11797   0.106  -0.010   4.080 -1.6038 -1.1093 -2.4461
    1PA     C1611798   0.161  -0.029   3.875  0.1732  0.0929 -0.2273
    1PA     H6R11799   0.115  -0.127   3.879 -1.8874  0.9992 -1.0674
    1PA     H6S11800   0.091   0.038   3.824  1.5784  2.3139  0.6431
    1PA     C1511801   0.280  -0.056   3.786 -0.7325 -0.0774 -0.3263
    1PA     H5R11802   0.250  -0.058   3.681 -3.9689 -0.1162  0.5490
    1PA     H5S11803   0.353   0.026   3.786 -0.6205 -0.0671 -4.3302
    1PA     C1411804   0.365  -0.187   3.817 -0.0158 -0.3886 -0.0567
    1PA     H4R11805   0.472  -0.169   3.804  0.2927 -2.6874 -0.9176
    1PA     H4S11806   0.349  -0.212   3.922 -0.3440 -1.2801 -0.3179
    1PA     C1311807   0.334  -0.311   3.732  0.1097 -0.1781 -0.4834
    1PA     H3R11808   0.312  -0.286   3.628 -0.5946  0.5154 -0.1780
    1PA     H3S11809   0.424  -0.373   3.726  0.5249  0.1440  2.1467
    1PA     C1211810   0.203  -0.386   3.774  0.0357  0.1222 -0.3490
    1PA     H2R11811   0.215  -0.446   3.864 -3.2788 -2.2472 -1.3968
    1PA     H2S11812   0.120  -0.317   3.792  1.4203  1.8292 -0.3942
    1PC     C1111813   0.149  -0.476   3.665 -0.8454 -0.1390 -0.3612
    1PC     O1211814   0.192  -0.481   3.554 -0.0546 -0.2556  0.0576
    1PC     O1111815   0.051  -0.560   3.702  0.5275 -0.7183  0.0879
    1PC      C111816   0.019  -0.671   3.612 -0.1965 -0.1175  0.1849
    1PC      HR11817   0.037  -0.646   3.507 -0.6151  0.1521  0.1775
    1PC      HS11818   0.093  -0.747   3.639 -0.0012  0.3168  0.8662
    1PC      C211819  -0.128  -0.713   3.629 -0.3436 -0.1430 -0.2134
    1PC      HX11820  -0.143  -0.792   3.555 -1.3605  1.8380 -2.1881
    1PC      C311821  -0.224  -0.598   3.606 -0.5389 -0.0514 -0.4029
    1PC      HA11822  -0.284  -0.576   3.695 -1.5146  0.6190 -1.2290
    1PC      HB11823  -0.179  -0.499   3.589 -0.4032  0.2929  1.7541
    1PC     O3111824  -0.312  -0.620   3.491  0.0682 -0.1356 -0.3416
    1PC     P3111825  -0.254  -0.610   3.343 -0.0643 -0.1940 -0.0720
    1PC     O3211826  -0.175  -0.472   3.343  0.3931  0.1526 -0.2969
    1PC     C3111827  -0.227  -0.348   3.286  0.2579 -0.3918  0.2830
    1PC     H1A11828  -0.317  -0.370   3.227  0.7601 -1.6687 -0.0239
    1PC     H1B11829  -0.247  -0.285   3.373 -1.5919  0.1435 -0.5083
    1PC     C3211830  -0.123  -0.276   3.200  0.5643  0.0739 -0.0353
    1PC     H2A11831  -0.159  -0.181   3.159  2.3605  0.5474 -0.5885
    1PC     H2B11832  -0.041  -0.260   3.269 -0.3035 -2.2727  1.5780
    1PC     N3111833  -0.069  -0.358   3.083  0.4907 -0.5178 -0.6071
    1PC     C3311834   0.041  -0.450   3.128  0.0880  0.5258  0.2133
    1PC     H3A11835   0.094  -0.506   3.051  2.3538  1.1225  1.2930
    1PC     H3B11836   0.108  -0.397   3.196 -1.3432  0.5677  1.6253
    1PC     H3C11837  -0.006  -0.518   3.199 -0.4152 -0.2668 -0.8548
    1PC     C3411838  -0.182  -0.441   3.023  0.7984  0.2283 -0.4274
    1PC     H4A11839  -0.146  -0.491   2.933 -1.7236  1.5730 -2.2542
    1PC     H4B11840  -0.210  -0.515   3.099 -0.0228  1.0324  0.0664
    1PC     H4C11841  -0.262  -0.376   2.989  0.7652  0.6766  0.4966
    1PC     C3511842  -0.018  -0.271   2.974  0.2339  0.0894 -0.2066
    1PC     H5A11843   0.032  -0.317   2.888  0.9179  1.1880 -0.4105
    1PC     H5B11844   0.053  -0.199   3.015 -0.2366  1.5211 -1.8431
    1PC     H5C11845  -0.112  -0.227   2.941 -0.1752  0.2824  1.1905
    1PC     O3311846  -0.145  -0.715   3.318  0.1110  0.0337 -0.2426
    1PC     O3411847  -0.364  -0.607   3.243  0.2691 -0.5279 -0.0642
    1PC     O2111848  -0.148  -0.759   3.761  0.2059 -0.2340 -0.0267
    1PC     C2111849  -0.229  -0.860   3.796 -0.4186 -0.4967  0.6153
    1PC     O2211850  -0.308  -0.904   3.720 -0.3369  0.8366  0.4782
    1OL     C1211851  -0.218  -0.900   3.939  0.2840  0.0001 -1.2814
    1OL     H2R11852  -0.118  -0.874   3.974 -0.8720  0.5108  1.8385
    1OL     H2S11853  -0.231  -1.008   3.943 -2.1933  0.3097  0.1860
    1OL     C1311854  -0.326  -0.833   4.023  0.0698 -0.0947 -0.3388
    1OL     H3R11855  -0.428  -0.851   3.990  1.0562 -1.3486 -2.7431
    1OL     H3S11856  -0.302  -0.726   4.021 -1.0956  0.1501 -2.8978
    1OL     C1411857  -0.318  -0.880   4.167  0.2646  0.2158  0.0739
    1OL     H4R11858  -0.214  -0.872   4.199  0.1495 -0.2142  0.5660
    1OL     H4S11859  -0.351  -0.984   4.167 -0.6183  0.4726 -1.4816
    1OL     C1511860  -0.404  -0.796   4.266 -0.0556  0.3847  0.2135
    1OL     H5R11861  -0.504  -0.815   4.225 -1.2772  0.5284  3.0175
    1OL     H5S11862  -0.380  -0.690   4.253 -2.2593  0.9455  0.4746
    1OL     C1611863  -0.399  -0.839   4.416  0.9475  0.3746 -0.6518
    1OL     H6R11864  -0.455  -0.765   4.474 -0.5084  0.4504 -2.1021
    1OL     H6S11865  -0.295  -0.833   4.450  0.6227  0.9330  0.2614
    1OL     C1711866  -0.440  -0.986   4.438  0.0612  0.5904  1.0892
    1OL     H7R11867  -0.381  -1.042   4.365 -0.5654  1.7466 -0.3604
    1OL     H7S11868  -0.543  -0.994   4.403  0.2453 -1.1983  0.9121
    1OL     C1811869  -0.434  -1.033   4.577 -1.0100  0.3899  0.1203
    1OL     H8R11870  -0.487  -1.129   4.579  0.6813 -0.5512  3.0061
    1OL     H8S11871  -0.493  -0.971   4.645  0.8246  2.3648 -0.0358
    1OL     C1911872  -0.290  -1.042   4.619 -0.7000  0.2115 -0.2160
    1OL     H9R11873  -0.226  -1.064   4.534 -0.0024  3.0280 -0.4640
    1OL    C11011874  -0.237  -1.037   4.743  0.1078 -0.7886  0.4115
    1OL    H10R11875  -0.130  -1.051   4.758  0.3589  2.3332  1.8076
    1OL    C11111876  -0.322  -1.014   4.870  0.3370 -0.2294  0.0501
    1OL    H11R11877  -0.421  -1.059   4.869 -0.6355  1.8901 -0.2359
    1OL    H11S11878  -0.336  -0.906   4.868 -2.4977 -0.5718 -0.4090
    1OL    C11211879  -0.255  -1.064   4.999  0.9562  0.4600 -0.1216
    1OL    H12R11880  -0.243  -1.172   4.994  0.3677  0.4430 -1.3688
    1OL    H12S11881  -0.314  -1.036   5.086  1.0627  0.5057 -0.0630
    1OL    C11311882  -0.114  -1.004   5.034 -0.8698  0.6023  0.2912
    1OL    H13R11883  -0.039  -1.053   4.972 -1.4308 -2.0322  1.5855
    1OL    H13S11884  -0.089  -1.026   5.139  0.3787  0.7954  0.0410
    1OL    C11411885  -0.093  -0.855   5.013 -0.0642  0.3830  0.5753
    1OL    H14R11886  -0.167  -0.798   5.070 -0.9884 -0.3092  0.0834
    1OL    H14S11887  -0.114  -0.829   4.909 -1.7240  0.5887  0.9419
    1OL    C11511888   0.049  -0.801   5.050  0.0087 -0.2806  0.6054
    1OL    H15R11889   0.054  -0.701   5.005  0.4731 -0.0072  1.2497
    1OL    H15S11890   0.124  -0.861   4.997  1.0386 -0.2281  1.9998
    1OL    C11611891   0.079  -0.795   5.201  0.4036 -0.5808  0.0583
    1OL    H16R11892   0.187  -0.779   5.207  0.2684  1.5125 -2.4367
    1OL    H16S11893   0.067  -0.895   5.244 -0.5090 -1.8981 -3.0521
    1OL    C11711894   0.005  -0.683   5.272 -0.7256 -0.1819  0.6233
    1OL    H17R11895  -0.102  -0.687   5.253 -0.8123 -1.2077  1.2891
    1OL    H17S11896   0.048  -0.584   5.255 -2.4266  0.1680 -2.0075
    1OL    C11811897  -0.001  -0.695   5.422  0.3422 -0.0864 -0.4996
    1OL    H18R11898  -0.052  -0.600   5.442 -2.4752 -0.9439 -3.1819
    1OL    H18S11899   0.099  -0.691   5.465  0.4724  0.9435 -0.8819
    1OL    H18T11900  -0.063  -0.776   5.461  0.0336 -0.8924 -2.6268
    7Na+    Na+11901   0.977   4.530  10.256  0.4654  0.3206  0.0146
    8Na+    Na+11902   0.192   4.450   8.645  0.5674 -0.6723  0.0962
    9Na+    Na+11903   4.595   3.808   8.734  0.1906 -0.3711  0.1858
   10Na+    Na+11904   4.458   2.558   2.219 -0.1624  0.0801  0.1852
   11Na+    Na+11905   0.418   4.155   0.377 -0.3997 -0.3359 -0.4748
   12Na+    Na+11906   1.864   2.373   7.761 -0.3009 -0.1644 -0.0154
   13Na+    Na+11907   2.462   1.082   2.014 -0.0435 -0.2041 -0.1349
   14Na+    Na+11908   0.207   2.513  10.097 -0.3049 -0.6296 -0.0343
   15Na+    Na+11909   5.460   3.100   0.461  0.0149 -0.5252 -0.5751
   16Na+    Na+11910   5.457   2.741   8.794 -0.3714 -0.3063 -0.2523
   17Na+    Na+11911   1.770   0.147   2.460  0.2820 -0.3068  0.1607
   18Na+    Na+11912   1.193   0.255   1.874  0.3162 -0.3309  0.1847
   19Na+    Na+11913   2.325   2.150   1.704  0.3247  0.1482  0.1468
   20Na+    Na+11914   3.237   3.575   7.480 -0.2774  0.3719  0.4808
   21Cl-    Cl-11915   1.214   4.070   0.882  0.0742 -0.5041 -0.0227
   22Cl-    Cl-11916   0.576   2.784   9.865  0.1318  0.0764  0.2895
   23Cl-    Cl-11917   2.787   4.611   7.851 -0.0392  0.3106  0.1115
   24Cl-    Cl-11918   0.979   3.674   2.286 -0.8126 -0.0894  0.0443
   25Cl-    Cl-11919   4.696   4.093   9.014  0.1564 -0.4068 -0.0647
   26Cl-    Cl-11920   1.980   2.305   1.937  0.0680 -0.1006  0.0697
   27Cl-    Cl-11921   0.992   2.190   2.039  0.1170 -0.1534 -0.0669
   28Cl-    Cl-11922   2.343   3.325   1.309  0.0491 -0.1202 -0.3440
   29Cl-    Cl-11923   1.962   4.497  10.025  0.1423  0.0636  0.1362
   30Cl-    Cl-11924   5.436   2.979   8.654  0.3056 -0.1330 -0.0392
   31Cl-    Cl-11925   4.541   2.814   0.871  0.0753  0.2737 -0.2222
   32Cl-    Cl-11926   3.279   1.564   8.167 -0.2241  0.4797  0.0671
   33Cl-    Cl-11927   1.335   3.193   8.034 -0.0269 -0.0760 -0.5581
   34Cl-    Cl-11928   3.532   0.668   1.480 -0.3050 -0.2293 -0.0138
   35Cl-    Cl-11929   4.618   2.791   2.203 -0.3622  0.0682  0.1974
   36Cl-    Cl-11930   1.386   0.403   2.304  0.1440  0.2049 -0.0420
   37Cl-    Cl-11931   3.463   2.169   2.820 -0.3591 -0.0285  0.2275
   38TP3      O11932   1.756   0.742   7.981  0.4970 -0.0239  0.3298
   38TP3     H111933   1.753   0.831   8.017 -0.3513 -0.0049  0.2270
   38TP3     H211934   1.764   0.686   8.058 -1.2098  0.0245  0.5821
   39TP3      O11935   2.758   4.544   8.910 -0.2996  0.1031  0.1764
   39TP3     H111936   2.754   4.521   9.003 -1.8340 -0.7237 -0.0850
   39TP3     H211937   2.849   4.525   8.885  0.2526  0.7670  1.6054
   40TP3      O11938   5.111   1.673   8.682 -0.6779  0.8362 -0.6830
   40TP3     H111939   5.102   1.657   8.588  1.6553 -0.8643 -0.6777
   40TP3     H211940   5.048   1.614   8.723  1.2409 -1.5776 -1.0699
   41TP3      O11941   1.625   1.591   9.110  0.0211 -0.4350  0.1648
   41TP3     H111942   1.605   1.506   9.149 -0.8338 -0.5652 -0.5501
   41TP3     H211943   1.632   1.573   9.017 -2.5570  0.6875 -0.2879
   42TP3      O11944   1.954   2.902   9.508  0.4729  0.0381  0.3003
   42TP3     H111945   2.017   2.954   9.458 -0.5929 -0.3492 -1.5373
   42TP3     H211946   2.000   2.876   9.587  1.3315  2.9722  0.7974
   43TP3      O11947   4.323   4.841   9.308 -0.6230  0.0990 -0.0724
   43TP3     H111948   4.231   4.817   9.313 -0.4467 -0.6226 -0.2933
   43TP3     H211949   4.349   4.854   9.399 -0.3412 -1.9798  0.1675
   44TP3      O11950   0.361   3.517   8.332  0.2868 -0.1421  0.1971
   44TP3     H111951   0.393   3.600   8.298 -0.6565 -0.0646 -0.5242
   44TP3     H211952   0.351   3.532   8.426  1.0741  0.2453  0.2170
   45TP3      O11953   0.444   2.589   7.495  0.2824  0.2299 -0.3290
   45TP3     H111954   0.491   2.672   7.491  1.3540 -0.2896  0.9704
   45TP3     H211955   0.369   2.606   7.552 -0.0074  0.5349 -0.7964
   46TP3      O11956   5.140   1.785   7.767  0.0080 -0.3203 -0.1477
   46TP3     H111957   5.083   1.733   7.711 -1.4573  2.0948 -0.9933
   46TP3     H211958   5.224   1.739   7.766 -1.3377 -2.8466 -0.5229
   47TP3      O11959   2.325   0.859   7.518 -0.2520 -0.1940 -0.1879
   47TP3     H111960   2.421   0.865   7.514 -0.0737 -1.2241  2.0531
   47TP3     H211961   2.306   0.766   7.506 -0.9303 -0.1096  0.2006
   48TP3      O11962   2.087   0.174   8.289 -0.2810  0.2312  0.2678
   48TP3     H111963   2.040   0.100   8.250  1.1675 -1.0154  0.8203
   48TP3     H211964   2.040   0.192   8.370 -1.1063  0.4122 -0.2555
   49TP3      O11965   0.298   1.226   8.385 -0.0062 -0.3600 -0.0361
   49TP3     H111966   0.209   1.259   8.380  0.4770  0.7861 -1.5473
   49TP3     H211967   0.296   1.143   8.337 -0.3243 -0.4845  0.1923
   50TP3      O11968   0.600   1.826   8.777 -0.5404  0.0415 -0.5844
   50TP3     H111969   0.645   1.795   8.856  0.8378  0.0350 -1.3530
   50TP3     H211970   0.555   1.748   8.743 -0.3201 -0.1904 -0.3468
   51TP3      O11971   1.598   5.524   8.216 -0.0037 -0.3790 -0.0025
   51TP3     H111972   1.526   5.585   8.233 -0.7860 -1.2870 -0.0324
   51TP3     H211973   1.613   5.480   8.300  0.3826 -0.3476 -0.0519
   52TP3      O11974   3.657   1.115   8.309  0.4034  0.6358  0.2328
   52TP3     H111975   3.589   1.183   8.314  1.1187  1.6167 -2.5543
   52TP3     H211976   3.713   1.132   8.384 -1.4670  0.8467  1.6325
   53TP3      O11977   1.869   0.726   9.661 -0.2956 -0.5535 -0.1629
   53TP3     H111978   1.839   0.733   9.570 -0.2479  0.6757 -0.0927
   53TP3     H211979   1.906   0.637   9.667 -0.3293 -0.6571 -1.3290
   54TP3      O11980   1.346   1.829   9.285 -0.3302  0.5584  0.5718
   54TP3     H111981   1.342   1.738   9.255 -0.7658  1.1839 -1.3222
   54TP3     H211982   1.255   1.853   9.301 -0.1290  0.3345  2.1631
   55TP3      O11983   1.234   3.040   7.610 -0.1347  0.0952  0.0604
   55TP3     H111984   1.155   3.079   7.573  0.6326  0.0238 -1.6808
   55TP3     H211985   1.204   2.958   7.650 -0.6626 -0.9158 -2.3066
   56TP3      O11986   1.873   0.912   7.429 -0.4803 -0.2171 -0.4411
   56TP3     H111987   1.842   0.928   7.518  1.7743 -1.0616  0.5283
   56TP3     H211988   1.793   0.897   7.378 -1.7349 -0.9227  1.6834
   57TP3      O11989   2.788   4.685   7.551  0.0394 -0.4473  0.0406
   57TP3     H111990   2.799   4.671   7.645 -0.7380  1.3033  0.4049
   57TP3     H211991   2.699   4.720   7.543  0.3864  0.1385 -1.2687
   58TP3      O11992   1.439   1.443   7.896 -0.0969  0.4634  1.1093
   58TP3     H111993   1.491   1.406   7.967  1.6909  1.9926  0.6384
   58TP3     H211994   1.500   1.452   7.824 -1.2941  1.2388  0.1700
   59TP3      O11995   1.925   0.914   8.319  0.3443 -0.1121 -0.6300
   59TP3     H111996   1.885   0.873   8.395 -1.1638  2.2613 -0.0893
   59TP3     H211997   2.018   0.922   8.343  0.2690 -1.2415  0.0925
   60TP3      O11998   0.294   1.738   7.391  0.0077  0.3400 -0.2028
   60TP3     H111999   0.324   1.828   7.388  0.4040  0.2067 -0.2503
   60TP3     H212000   0.210   1.739   7.345  0.6512  0.4373 -1.3825
   61TP3      O12001   2.813   2.484   7.473 -0.2871  0.4529 -0.1401
   61TP3     H112002   2.771   2.443   7.549 -1.8346 -1.2114 -1.8531
   61TP3     H212003   2.762   2.454   7.398  2.3145  0.6402 -2.0383
   62TP3      O12004   1.622   2.553   8.132 -0.1682 -0.7271  0.1129
   62TP3     H112005   1.527   2.565   8.142 -0.0012 -0.4858  1.5708
   62TP3     H212006   1.660   2.630   8.173  0.6380  0.2299 -2.3881
   63TP3      O12007   1.712   0.600   7.301  0.4679 -0.1290 -0.5462
   63TP3     H112008   1.699   0.541   7.227 -3.0986  0.3383 -0.3809
   63TP3     H212009   1.732   0.685   7.261  0.9897 -0.4188 -0.9002
   64TP3      O12010   1.597   0.573   7.576 -0.2744  0.2169  0.2764
   64TP3     H112011   1.668   0.589   7.513  0.9406 -0.3300  1.4718
   64TP3     H212012   1.568   0.484   7.558  1.3008 -0.6194  1.6059
   65TP3      O12013   1.814   1.903   7.949  0.2532  0.6131  0.3767
   65TP3     H112014   1.892   1.927   7.998  0.5712  1.1381 -0.3886
   65TP3     H212015   1.780   1.985   7.916 -0.1069  0.2845 -0.0723
   66TP3      O12016   0.895   2.216   6.712 -0.2910 -0.2596 -0.1788
   66TP3     H112017   0.933   2.259   6.789  0.4513 -1.3333  0.0782
   66TP3     H212018   0.819   2.169   6.746 -0.0615 -0.5946 -0.1178
   67TP3      O12019   4.749   1.096   8.135  0.7166  0.1303 -0.1407
   67TP3     H112020   4.787   1.106   8.048  0.8879 -0.5654 -0.1492
   67TP3     H212021   4.750   1.184   8.172  0.2432  0.5091 -1.0079
   68TP3      O12022   0.340   1.087   7.521 -0.6473  0.2849  0.5862
   68TP3     H112023   0.301   1.007   7.486 -1.7226  0.9255  0.2853
   68TP3     H212024   0.401   1.056   7.588 -0.5141 -0.8154 -0.0271
   69TP3      O12025   1.543   0.745   7.820 -0.6602  0.3986 -0.1002
   69TP3     H112026   1.569   0.714   7.733 -1.2040 -1.7287  0.4863
   69TP3     H212027   1.618   0.726   7.876 -1.0454  0.0344  0.2924
   70TP3      O12028   0.963   0.559   8.492 -0.1407 -0.3383  0.4175
   70TP3     H112029   0.984   0.466   8.484 -0.5255 -0.6944  3.1394
   70TP3     H212030   0.868   0.562   8.499 -0.0456  0.1736  1.4969
   71TP3      O12031   1.510   2.982   8.639  0.1305 -0.2419  0.4457
   71TP3     H112032   1.576   2.999   8.571 -0.8181  1.4860 -0.0735
   71TP3     H212033   1.472   2.898   8.616  0.1153  0.1333 -0.9405
   72TP3      O12034   0.033   2.953   9.914  0.3920  0.3779 -0.0124
   72TP3     H112035   0.110   2.945   9.857  1.0638 -1.8204  1.1482
   72TP3     H212036  -0.037   2.909   9.867  0.8242 -1.0021  0.6076
   73TP3      O12037   1.167   1.016   9.235  0.1078 -0.0063 -0.4841
   73TP3     H112038   1.146   0.989   9.145  0.6715 -0.6881 -0.4165
   73TP3     H212039   1.159   1.111   9.234 -0.9554 -0.0853 -0.9854
   74TP3      O12040   0.430   3.331   8.137 -0.0222  0.3567 -0.4707
   74TP3     H112041   0.478   3.389   8.078 -0.9545  0.2283 -1.3711
   74TP3     H212042   0.421   3.382   8.218  0.7655  0.7506 -0.6263
   75TP3      O12043   1.034   1.610   8.306 -0.1922  0.2605  0.0684
   75TP3     H112044   1.068   1.551   8.373 -0.1189 -0.6223 -0.7406
   75TP3     H212045   1.078   1.694   8.324 -0.9240  0.3111  1.7224
   76TP3      O12046   1.264   0.383   7.457  0.1295 -0.1602  0.7191
   76TP3     H112047   1.232   0.450   7.517  1.8502  2.4893 -1.2384
   76TP3     H212048   1.186   0.332   7.435 -1.7255  2.7216  0.3310
   77TP3      O12049   0.951   1.831   0.588 -0.3547  0.1261  0.0432
   77TP3     H112050   0.921   1.918   0.561 -0.1376  0.2979  0.3594
   77TP3     H212051   1.021   1.848   0.652 -0.5035 -0.2818  0.3148
   78TP3      O12052   2.196   2.066   7.119  0.5488  0.8700 -0.0070
   78TP3     H112053   2.188   2.107   7.205 -1.0080  0.5920 -0.0004
   78TP3     H212054   2.290   2.065   7.102  0.9403  0.2215  2.0236
   79TP3      O12055   1.490   4.921   7.685  0.2274 -0.4516 -0.0739
   79TP3     H112056   1.399   4.936   7.711  0.1176 -1.3770  0.1002
   79TP3     H212057   1.495   4.827   7.670  1.2360 -0.4453  0.2088
   80TP3      O12058   2.216   1.119   8.358 -0.0128  0.0971 -0.5960
   80TP3     H112059   2.161   1.142   8.283 -0.0220  0.0446 -0.6045
   80TP3     H212060   2.201   1.026   8.372 -0.2534  0.1791 -0.3257
   81TP3      O12061   1.047   0.488   8.814 -0.0322  0.1514  0.9368
   81TP3     H112062   1.120   0.443   8.771  0.0552  0.2460  0.9867
   81TP3     H212063   0.977   0.486   8.749 -0.3627 -0.9528  1.3161
   82TP3      O12064   3.520   1.452   7.441 -0.5543  0.1597  0.2089
   82TP3     H112065   3.481   1.384   7.385 -0.8863 -0.4973  1.2245
   82TP3     H212066   3.476   1.442   7.525 -1.4173  2.3957  0.0601
   83TP3      O12067   0.241   4.838   0.373  0.3568 -0.4568 -0.1917
   83TP3     H112068   0.186   4.763   0.350  1.2710 -2.1853  3.0758
   83TP3     H212069   0.190   4.914   0.345 -1.2456 -2.1963 -2.1806
   84TP3      O12070   2.498   2.670   9.817 -0.0125 -0.2755  0.1321
   84TP3     H112071   2.502   2.765   9.828 -2.2989  0.0973 -1.7931
   84TP3     H212072   2.480   2.636   9.904  1.2368  1.0213  0.9159
   85TP3      O12073   0.281   0.867   0.207 -0.3280  0.3048 -0.5625
   85TP3     H112074   0.279   0.948   0.257 -2.0720  0.4072 -0.7860
   85TP3     H212075   0.339   0.886   0.133  1.6280  0.4021  0.9378
   86TP3      O12076   1.500   4.165   8.949  0.1180  0.0515 -0.5058
   86TP3     H112077   1.486   4.071   8.933 -1.1662 -0.0236  0.8618
   86TP3     H212078   1.579   4.186   8.900  0.8482 -1.9180 -0.2473
   87TP3      O12079   0.262   2.681   7.109 -0.2257  0.0797 -0.2751
   87TP3     H112080   0.254   2.694   7.014 -0.9622  2.7458  0.1149
   87TP3     H212081   0.212   2.601   7.126  0.2303 -0.6429 -2.1835
   88TP3      O12082   4.592   1.156   7.836 -0.0293  0.1525  0.1105
   88TP3     H112083   4.642   1.111   7.768 -0.6838  0.4133 -0.5392
   88TP3     H212084   4.648   1.229   7.862  1.4166 -1.4596  1.7518
   89TP3      O12085   0.767   2.478   6.518 -0.0555 -0.7557 -0.1982
   89TP3     H112086   0.685   2.482   6.566  0.0422 -2.1686  0.1190
   89TP3     H212087   0.785   2.569   6.493 -0.9261 -0.2286  1.0421
   90TP3      O12088   0.610   4.443   8.801 -0.1266  0.2340  0.0243
   90TP3     H112089   0.556   4.460   8.878 -0.4506 -1.8605  0.2971
   90TP3     H212090   0.691   4.406   8.836  0.1452  0.2538 -0.5771
   91TP3      O12091   2.714   5.055   8.205 -0.0223 -0.2521  0.1179
   91TP3     H112092   2.637   5.110   8.196 -0.4206 -0.9968 -1.1415
   91TP3     H212093   2.685   4.968   8.178  1.6107 -0.2476 -1.8662
   92TP3      O12094   2.015   2.089   9.571  0.3123 -0.2519 -0.0350
   92TP3     H112095   1.939   2.090   9.513 -0.7159  0.5096  1.2855
   92TP3     H212096   2.008   2.170   9.622  1.7724 -0.3868  0.4155
   93TP3      O12097   5.025   3.799   9.796 -0.0136 -0.1973  0.0342
   93TP3     H112098   4.998   3.823   9.885  1.4826  1.2824  0.1273
   93TP3     H212099   4.995   3.872   9.742  1.0692 -0.0058 -0.3196
   94TP3      O12100   2.278   4.396   9.909  0.0604  0.0932 -0.1915
   94TP3     H112101   2.232   4.430   9.986  0.0907  0.1714 -0.2067
   94TP3     H212102   2.212   4.345   9.862 -0.1214  0.5361 -0.4199
   95TP3      O12103   0.362   1.174   9.240 -0.8832 -0.7011  0.0148
   95TP3     H112104   0.378   1.149   9.331 -1.2594 -1.1078 -0.0302
   95TP3     H212105   0.282   1.127   9.215 -1.4451  0.3397 -0.1591
   96TP3      O12106   0.608   1.701  10.240 -0.4353  0.0958 -0.2630
   96TP3     H112107   0.583   1.642  10.311 -1.2400 -0.2483 -0.8233
   96TP3     H212108   0.669   1.762  10.281  0.3113 -1.0390  0.3570
   97TP3      O12109   4.485   5.169   8.572 -0.3353 -0.0135 -0.6926
   97TP3     H112110   4.464   5.182   8.664 -0.1922  1.0807 -0.8146
   97TP3     H212111   4.473   5.255   8.532 -0.3684 -0.4768 -1.6899
   98TP3      O12112   0.927   0.899   8.072 -0.1448  0.2226  0.1701
   98TP3     H112113   0.960   0.974   8.023  0.4652 -0.5467 -0.6080
   98TP3     H212114   0.835   0.893   8.048 -0.0810  0.4360 -0.1213
   99TP3      O12115   4.740   1.359   0.852 -0.9545 -0.0869  0.1398
   99TP3     H112116   4.718   1.266   0.863 -2.7952 -0.3010 -4.3965
   99TP3     H212117   4.657   1.401   0.830  0.5881  1.8144 -2.2925
  100TP3      O12118   0.661   1.643   8.139  0.1927  0.2672 -0.1487
  100TP3     H112119   0.746   1.687   8.137  0.1001  0.3982 -1.0146
  100TP3     H212120   0.681   1.552   8.162  0.6657  0.0519 -1.3860
  101TP3      O12121   5.384   5.470   7.615 -0.0845  0.2435  0.0143
  101TP3     H112122   5.303   5.426   7.591  0.6935 -1.6544  0.8006
  101TP3     H212123   5.442   5.455   7.541  0.4799 -0.8804  0.6622
  102TP3      O12124   2.300   0.463   7.675  0.0890 -0.0123  0.3971
  102TP3     H112125   2.272   0.484   7.586  0.3811 -0.0122  0.3039
  102TP3     H212126   2.367   0.396   7.664  0.1640  0.0258  0.6134
  103TP3      O12127   0.228   0.143   6.997 -0.4100  0.2413  0.0910
  103TP3     H112128   0.258   0.226   6.961  1.2878  0.8793  2.8839
  103TP3     H212129   0.146   0.165   7.042 -0.2919  0.2889  0.2841
  104TP3      O12130   2.570   1.408   8.085  0.0429 -0.0268 -0.4387
  104TP3     H112131   2.619   1.383   8.163  0.4194 -0.8856 -0.9346
  104TP3     H212132   2.547   1.325   8.043 -0.2635  0.4166 -1.1747
  105TP3      O12133   0.356   5.147   7.356 -0.3581  0.0309  0.0166
  105TP3     H112134   0.265   5.148   7.325 -0.1778  1.5747 -0.5130
  105TP3     H212135   0.406   5.116   7.281 -0.1269  2.0524 -0.7013
  106TP3      O12136   5.084   4.713   7.148  0.3244  0.1797 -0.2363
  106TP3     H112137   5.062   4.806   7.148 -0.2691  0.0389 -0.2917
  106TP3     H212138   5.044   4.679   7.228  2.3873  0.4057  0.9265
  107TP3      O12139   0.836   0.906   7.458 -1.0120 -0.0976  0.5538
  107TP3     H112140   0.854   0.994   7.423  1.6630 -0.5167  0.7451
  107TP3     H212141   0.811   0.923   7.549 -0.7934  0.5087  0.5102
  108TP3      O12142   0.708   1.870   7.695  0.1696  0.6441 -0.0088
  108TP3     H112143   0.635   1.822   7.655 -0.7586  1.2063  1.0006
  108TP3     H212144   0.786   1.830   7.656 -0.6594 -0.1251 -0.9190
  109TP3      O12145   1.827   4.962   9.755 -0.3287 -0.5077  0.6247
  109TP3     H112146   1.840   4.980   9.848 -0.8874 -0.7047  0.7393
  109TP3     H212147   1.866   4.875   9.742  2.1273  0.6070  0.1281
  110TP3      O12148   4.662   2.051   9.614 -0.2324  0.6624  0.0959
  110TP3     H112149   4.637   2.143   9.619  0.8762  0.9350  0.6378
  110TP3     H212150   4.728   2.040   9.682  0.5939 -0.2289 -0.8375
  111TP3      O12151   4.578   2.182   7.880 -0.0474  0.6247  0.8951
  111TP3     H112152   4.522   2.104   7.887  0.5345  0.1462  0.2657
  111TP3     H212153   4.605   2.185   7.788  1.1949  0.6766  1.2476
  112TP3      O12154   1.144   1.739   9.074  0.2270  0.5283 -0.5000
  112TP3     H112155   1.084   1.671   9.043 -1.9615  2.4660 -0.7262
  112TP3     H212156   1.224   1.726   9.023 -0.4483 -1.3323 -1.1323
  113TP3      O12157   0.006   1.555   9.520 -0.0032 -0.1836  0.1849
  113TP3     H112158  -0.022   1.505   9.443  2.0357 -1.1144  0.0146
  113TP3     H212159  -0.032   1.642   9.508  2.1207  0.3636 -3.0182
  114TP3      O12160   1.521   0.297   7.487 -0.1419 -0.2179  0.1045
  114TP3     H112161   1.545   0.266   7.574 -1.7995 -1.8424  0.0336
  114TP3     H212162   1.427   0.317   7.494 -0.8250 -2.4395 -1.8130
  115TP3      O12163   0.840   1.667   7.873 -0.1869  0.2837  1.2347
  115TP3     H112164   0.841   1.696   7.964 -1.7461  2.1469  0.6916
  115TP3     H212165   0.784   1.730   7.828 -1.3623 -1.9365 -0.5642
  116TP3      O12166   1.491   3.156   7.737 -0.1766  0.4772  0.4656
  116TP3     H112167   1.412   3.118   7.700 -0.2972  0.5065  0.6921
  116TP3     H212168   1.468   3.177   7.827 -0.4440  2.1010  0.0313
  117TP3      O12169   4.587   0.702   9.042  0.3744  0.2514  0.1351
  117TP3     H112170   4.534   0.773   9.005  0.9026 -0.4512 -2.0451
  117TP3     H212171   4.677   0.726   9.022  0.5524 -1.0608 -0.7159
  118TP3      O12172   0.788   1.208   9.288 -0.4796  0.7527 -0.2196
  118TP3     H112173   0.746   1.212   9.374  1.3861 -0.3050  0.7927
  118TP3     H212174   0.847   1.283   9.287 -0.7495  0.9564 -0.7110
  119TP3      O12175   0.850   1.976   7.208  0.5237  0.6108  0.8282
  119TP3     H112176   0.906   1.903   7.233  0.4211  0.3072  0.1807
  119TP3     H212177   0.909   2.038   7.165  0.5540  0.7773  1.1041
  120TP3      O12178   1.015   0.874   7.175  0.2495  0.6005  0.2142
  120TP3     H112179   0.984   0.948   7.226 -0.1186 -0.1147  1.0321
  120TP3     H212180   1.042   0.913   7.091 -2.4090  1.3126 -0.3683
  121TP3      O12181   1.851   1.648   9.956 -0.6895 -0.4847 -0.1240
  121TP3     H112182   1.944   1.652   9.931 -0.6127  1.4760  0.3550
  121TP3     H212183   1.805   1.627   9.875  0.1380 -1.1239 -0.4373
  122TP3      O12184   0.040   1.251   7.801 -0.3522  0.3292  0.2956
  122TP3     H112185   0.126   1.294   7.798 -0.3655  0.3051 -0.5602
  122TP3     H212186  -0.014   1.311   7.854  0.2210  0.2744  0.9555
  123TP3      O12187   0.947   1.834   7.585 -0.3276 -0.1626  0.0758
  123TP3     H112188   1.023   1.840   7.642 -0.7114 -0.5046  0.6335
  123TP3     H212189   0.983   1.827   7.496  0.2650  1.1272  0.1996
  124TP3      O12190   2.869   0.876   8.560  0.0565 -0.1342  0.0666
  124TP3     H112191   2.820   0.799   8.588 -1.4416  0.3621 -1.0718
  124TP3     H212192   2.859   0.939   8.631  0.0793 -0.4818  0.3740
  125TP3      O12193   3.399   0.243   7.298 -0.6053 -0.1491 -0.3432
  125TP3     H112194   3.349   0.228   7.378 -0.2749  1.8351  0.2607
  125TP3     H212195   3.383   0.335   7.276  0.4530 -0.2785 -1.7565
  126TP3      O12196   1.389   1.875   7.635  0.3584 -0.3468  0.3145
  126TP3     H112197   1.432   1.893   7.718 -2.8005 -2.9006  2.6301
  126TP3     H212198   1.445   1.810   7.592 -0.4933 -2.7710  2.7577
  127TP3      O12199   1.431   5.102   7.940 -0.2449  0.1331 -0.5104
  127TP3     H112200   1.475   5.042   8.001  1.0563  0.3505 -1.2267
  127TP3     H212201   1.420   5.051   7.860  0.6843  0.7878 -1.0558
  128TP3      O12202   1.255   1.561   7.646  0.5827 -0.2445  0.2481
  128TP3     H112203   1.287   1.497   7.709 -0.3576 -1.1278 -0.1393
  128TP3     H212204   1.225   1.635   7.699 -1.0813 -1.3721  0.9225
  129TP3      O12205   0.948   0.838   6.781  0.1029  0.4435 -0.7821
  129TP3     H112206   0.911   0.878   6.702  1.0516  0.4214 -1.2467
  129TP3     H212207   0.997   0.909   6.823  2.0586 -0.2760 -1.7764
  130TP3      O12208   1.068   0.053   7.501  0.0039 -0.2019 -0.2113
  130TP3     H112209   1.043   0.135   7.457  0.6873  0.7200  1.0737
  130TP3     H212210   0.991  -0.002   7.494 -0.7969  0.9066 -0.3023
  131TP3      O12211   1.135   0.565   6.774 -0.1041 -0.4173  0.2117
  131TP3     H112212   1.088   0.485   6.748 -1.3733  0.1765  0.6431
  131TP3     H212213   1.069   0.634   6.768  1.2618  0.8077 -1.2558
  132TP3      O12214   1.801   1.291   8.492 -0.0571 -0.2341  0.2765
  132TP3     H112215   1.754   1.345   8.556  0.3666 -0.8834  1.1512
  132TP3     H212216   1.882   1.267   8.536 -0.2085 -1.5243 -0.1301
  133TP3      O12217   2.044   1.499   8.589 -0.2365 -0.0707 -0.0109
  133TP3     H112218   2.047   1.403   8.586 -2.3097 -0.1501 -0.4871
  133TP3     H212219   1.977   1.519   8.654 -2.2813  0.9840 -2.3418
  134TP3      O12220   1.340   0.717   0.764  0.5070  0.7462  0.0895
  134TP3     H112221   1.424   0.763   0.764  1.2289 -0.5420 -0.7801
  134TP3     H212222   1.356   0.639   0.817  0.2589 -0.1966 -1.2072
  135TP3      O12223   2.241   0.595   7.412 -0.1293  0.0117 -0.5139
  135TP3     H112224   2.330   0.580   7.379 -0.9687 -1.4604 -2.1939
  135TP3     H212225   2.185   0.540   7.357 -1.9117 -0.4091  1.6044
  136TP3      O12226   1.411   1.080   8.571  0.2460 -0.6575  0.9297
  136TP3     H112227   1.324   1.071   8.532 -0.0969  1.6339  1.0538
  136TP3     H212228   1.394   1.120   8.657  1.5321  1.9321  0.0458
  137TP3      O12229   5.393   1.056   7.753 -0.5658  0.5060 -0.5590
  137TP3     H112230   5.455   1.128   7.763  0.5429 -0.5291  0.1386
  137TP3     H212231   5.447   0.980   7.731 -1.3101 -0.8959  2.1511
  138TP3      O12232   2.075   1.833   9.661 -0.5619 -0.0540 -0.6562
  138TP3     H112233   2.066   1.780   9.582  1.2398  0.3803 -1.1811
  138TP3     H212234   2.069   1.924   9.629 -0.7969  0.1012 -0.1687
  139TP3      O12235   2.105   0.009   7.830  0.1370 -0.2163  0.7893
  139TP3     H112236   2.108  -0.086   7.817 -1.0183 -0.1503 -0.0429
  139TP3     H212237   2.178   0.042   7.777 -0.1222 -0.5551  0.2109
  140TP3      O12238   0.763   2.594   7.267 -0.2019 -0.1740 -0.2427
  140TP3     H112239   0.736   2.643   7.344  2.5425  2.2823 -0.7680
  140TP3     H212240   0.847   2.556   7.291  0.9208  1.0215 -2.1438
  141TP3      O12241   1.689   0.279   8.732 -0.1624  0.3996  0.2810
  141TP3     H112242   1.747   0.261   8.806  3.3086 -0.3444 -2.4528
  141TP3     H212243   1.715   0.366   8.702 -1.8760  0.8993  0.1882
  142TP3      O12244   0.201   2.824   8.480 -0.1296 -0.6594 -0.3546
  142TP3     H112245   0.147   2.745   8.478 -3.0921  1.3186 -2.2090
  142TP3     H212246   0.179   2.866   8.563  0.3006 -0.9906 -0.0684
  143TP3      O12247   1.811   5.386   6.964 -0.3531  0.5333  0.1485
  143TP3     H112248   1.744   5.383   7.031  0.0876  0.9691  0.6106
  143TP3     H212249   1.784   5.456   6.905 -0.6444  0.2698 -0.0338
  144TP3      O12250   0.784   2.058   6.911  0.0548 -0.2443  0.7735
  144TP3     H112251   0.877   2.042   6.896 -0.5119 -2.5144 -0.5058
  144TP3     H212252   0.747   1.971   6.925 -2.2160  0.4537 -0.7096
  145TP3      O12253   4.876   4.355   7.514  0.3058 -0.4916 -0.7014
  145TP3     H112254   4.896   4.318   7.600  1.3288  2.5424  0.4146
  145TP3     H212255   4.957   4.398   7.488 -0.9847  1.3250 -1.7557
  146TP3      O12256   2.049   4.086   7.728 -0.1932 -0.0205  0.3065
  146TP3     H112257   1.982   4.126   7.672  1.3278  1.2361 -0.6302
  146TP3     H212258   2.119   4.061   7.669  0.0125 -1.7333  1.2360
  147TP3      O12259   2.359   0.109   8.820  0.1973 -0.1399  0.2406
  147TP3     H112260   2.409   0.046   8.871  0.1347  0.6649  1.3123
  147TP3     H212261   2.419   0.184   8.809 -0.4585  0.4729  0.7855
  148TP3      O12262   0.269   0.394   6.883 -0.0857 -0.0262 -0.3158
  148TP3     H112263   0.222   0.411   6.801  1.7603 -0.5546 -1.5287
  148TP3     H212264   0.249   0.469   6.939 -0.3530  0.9697 -1.7205
  149TP3      O12265   1.467   2.234   7.479  0.2784  0.1168  0.0115
  149TP3     H112266   1.476   2.177   7.403 -2.7567  0.6787 -0.8439
  149TP3     H212267   1.390   2.200   7.525 -0.2315  2.1560  0.7031
  150TP3      O12268   4.798   0.292   9.212  0.2744  0.2402  0.3000
  150TP3     H112269   4.770   0.201   9.202  0.4961  0.3278 -1.2766
  150TP3     H212270   4.716   0.342   9.219  0.1542 -0.0834  1.2274
  151TP3      O12271   1.032   1.449   7.244  0.4677  0.2780  0.3124
  151TP3     H112272   1.002   1.390   7.175 -1.0642  2.2699 -0.7742
  151TP3     H212273   0.967   1.438   7.314 -0.6084  1.6624 -0.4466
  152TP3      O12274   1.915   1.080   9.801 -0.2256 -0.2028  0.6454
  152TP3     H112275   1.850   1.072   9.871 -0.6043  2.1645  0.6137
  152TP3     H212276   1.982   1.137   9.838  0.2671 -0.0676 -0.4462
  153TP3      O12277   2.570   3.008   9.599  0.3762  0.3201 -0.0597
  153TP3     H112278   2.526   3.041   9.521  0.2628  0.0698 -0.1039
  153TP3     H212279   2.498   2.993   9.662  0.6427  2.2471  0.7335
  154TP3      O12280   2.723   3.176   0.023  0.0343 -0.2020 -0.1996
  154TP3     H112281   2.642   3.199   0.069  1.6598  0.5384  2.4599
  154TP3     H212282   2.734   3.245  -0.042 -0.9549  0.2463  0.0898
  155TP3      O12283   0.856   0.721   7.029 -0.0494 -0.0834 -0.3989
  155TP3     H112284   0.881   0.764   6.947 -1.6243  0.3739 -0.6601
  155TP3     H212285   0.917   0.757   7.094  1.2956 -0.5437 -1.3670
  156TP3      O12286   0.282   2.836   9.021 -0.4088  0.6715 -0.3693
  156TP3     H112287   0.188   2.853   9.020 -0.3849  0.9141  0.8890
  156TP3     H212288   0.297   2.786   9.101  0.6091  1.1073 -0.2742
  157TP3      O12289   5.521   1.797   9.223  0.3601  0.1519 -0.0025
  157TP3     H112290   5.508   1.802   9.318  0.6368  1.6505 -0.0247
  157TP3     H212291   5.612   1.769   9.213  0.4962  0.5240  0.1784
  158TP3      O12292   0.230   0.727   8.056 -0.0331 -0.1031  0.2814
  158TP3     H112293   0.142   0.691   8.045 -0.3168  0.9791 -1.1751
  158TP3     H212294   0.248   0.770   7.973  2.1216 -0.8354  0.3569
  159TP3      O12295   0.742   0.146   7.514  0.0860  0.0857 -0.0011
  159TP3     H112296   0.786   0.061   7.517 -1.4972 -0.7881 -0.8065
  159TP3     H212297   0.756   0.178   7.425 -0.2527  0.1523 -0.0326
  160TP3      O12298   0.701   1.617   7.089  0.8371  0.1816  0.2903
  160TP3     H112299   0.664   1.705   7.074  1.3592  0.5486  1.1479
  160TP3     H212300   0.748   1.625   7.172  2.5998 -0.3688 -0.6321
  161TP3      O12301   1.760   5.065   8.018  0.1465 -0.1606  0.1153
  161TP3     H112302   1.743   4.985   7.967 -0.8520  1.1074 -1.6185
  161TP3     H212303   1.688   5.069   8.080 -0.7346  0.2803 -0.9331
  162TP3      O12304   5.099   1.890   8.842 -0.2334  0.0278 -0.4666
  162TP3     H112305   5.096   1.833   8.765  1.2174  0.3211 -0.7556
  162TP3     H212306   5.146   1.838   8.908 -1.0234 -0.0266  0.0636
  163TP3      O12307   5.478   4.174   7.465  0.9037  0.1327 -0.3744
  163TP3     H112308   5.511   4.124   7.539  1.8829  0.7110 -0.4196
  163TP3     H212309   5.551   4.229   7.438 -0.6719  2.8691  0.7671
  164TP3      O12310   0.538   3.498   7.957  0.5436  0.3707 -0.4203
  164TP3     H112311   0.592   3.547   8.020 -2.4307  2.5011  0.5901
  164TP3     H212312   0.549   3.544   7.874  0.4138  0.6973 -0.2564
  165TP3      O12313   4.128   1.479  10.108  0.3148 -0.4166  0.2157
  165TP3     H112314   4.071   1.523  10.045  0.8818  0.7531  0.5006
  165TP3     H212315   4.211   1.467  10.062  1.1649  1.6364  1.1299
  166TP3      O12316   4.373   4.152   9.014 -0.1164 -0.1391  0.2295
  166TP3     H112317   4.467   4.145   9.001 -0.2986 -1.1144 -0.6622
  166TP3     H212318   4.352   4.242   8.991  0.4198 -0.2744 -0.8208
  167TP3      O12319   1.462   3.840   9.119 -0.8565 -0.3786 -0.4060
  167TP3     H112320   1.536   3.868   9.065 -0.6684  1.8979  0.9799
  167TP3     H212321   1.500   3.776   9.179 -0.1241  0.3510 -0.0823
  168TP3      O12322   0.430   3.951   8.421 -0.0044  0.0305 -0.0591
  168TP3     H112323   0.450   3.958   8.328  0.8479  0.4984  0.1519
  168TP3     H212324   0.341   3.918   8.424 -0.9753  2.4728 -1.0620
  169TP3      O12325   5.395   0.665   8.472  0.2794 -0.3019  0.3662
  169TP3     H112326   5.426   0.586   8.428 -0.0341 -0.7537  0.9607
  169TP3     H212327   5.301   0.652   8.482  0.3258 -0.1348  1.0448
  170TP3      O12328   1.783   1.472  10.179 -0.8721  0.4743  0.2699
  170TP3     H112329   1.833   1.551  10.158 -1.1346  0.6042  0.1405
  170TP3     H212330   1.718   1.464  10.109 -0.8103  0.1122  0.2503
  171TP3      O12331   5.206   4.987   9.789  0.7561 -0.0340  0.1585
  171TP3     H112332   5.191   4.974   9.695  1.7980 -1.1847  0.1335
  171TP3     H212333   5.280   4.929   9.809  1.0762  0.8288  1.5166
  172TP3      O12334   0.925   0.384   7.970 -0.0704  0.0905 -0.0457
  172TP3     H112335   0.991   0.318   7.990  0.3421  0.0475 -1.5523
  172TP3     H212336   0.958   0.465   8.010  1.3965  0.3067 -1.6869
  173TP3      O12337   5.502   4.435   7.730 -0.3749 -0.8743  0.6317
  173TP3     H112338   5.559   4.473   7.663  0.0973 -0.9913  0.9633
  173TP3     H212339   5.415   4.437   7.691 -0.4482  0.9778  0.8054
  174TP3      O12340   0.454   5.330   7.585  0.0606  0.0884  0.4320
  174TP3     H112341   0.410   5.414   7.577 -1.1507 -0.5839 -0.2029
  174TP3     H212342   0.413   5.275   7.518  1.0540 -0.9075  0.6201
  175TP3      O12343   1.489   1.974   8.392 -0.8133  0.2525  0.7606
  175TP3     H112344   1.560   1.992   8.330 -1.2100  0.6454  0.4239
  175TP3     H212345   1.455   1.888   8.366 -1.0914  0.4934  0.3331
  176TP3      O12346   0.091   0.016   7.779 -0.2401  0.0750 -0.1284
  176TP3     H112347   0.144  -0.048   7.826 -0.3906  0.2942  0.3467
  176TP3     H212348   0.026  -0.036   7.733 -0.4004 -0.1102  0.3051
  177TP3      O12349   0.331   1.986   8.489  0.1873  0.4023  0.2951
  177TP3     H112350   0.374   1.986   8.574 -1.1442  2.6240  1.0051
  177TP3     H212351   0.338   2.077   8.459 -2.7211  0.4726 -0.2442
  178TP3      O12352   4.458   2.086   0.237  0.1634  0.1089 -0.2082
  178TP3     H112353   4.498   2.031   0.171  1.2073 -0.4774  0.8927
  178TP3     H212354   4.459   2.033   0.317 -2.3282  0.2689 -0.0163
  179TP3      O12355   2.724   3.261   7.806  0.1544 -0.1439  0.0757
  179TP3     H112356   2.636   3.228   7.824  0.3028 -1.7983 -2.0982
  179TP3     H212357   2.717   3.305   7.721  1.0697  1.2061  0.6739
  180TP3      O12358   0.496   2.371   9.035  0.0922  0.3133  0.0184
  180TP3     H112359   0.413   2.323   9.033  0.0157  0.3549  1.7089
  180TP3     H212360   0.556   2.317   8.984 -0.4226 -0.7720  0.5376
  181TP3      O12361   1.702   1.235   8.020  0.4898  0.2802  0.2905
  181TP3     H112362   1.708   1.247   7.925  1.6975  1.2446  0.4729
  181TP3     H212363   1.716   1.142   8.033  2.6417  0.4761 -0.3299
  182TP3      O12364   0.915   2.018   8.869 -0.0293 -0.3169  0.0246
  182TP3     H112365   1.010   2.011   8.855 -0.1508 -1.2485 -0.3357
  182TP3     H212366   0.876   1.976   8.793 -0.7133 -1.5965  1.0483
  183TP3      O12367   0.901   2.395   7.400 -0.3468 -0.0209  0.7276
  183TP3     H112368   0.914   2.347   7.482  0.5530  0.0034  0.5975
  183TP3     H212369   0.964   2.357   7.340 -0.6220  0.3509  0.2014
  184TP3      O12370   2.295   0.998   7.762 -0.3102 -0.7152  0.0402
  184TP3     H112371   2.330   0.938   7.696 -0.4261 -0.4789 -0.2359
  184TP3     H212372   2.204   1.012   7.735 -0.3727 -0.6639  0.2827
  185TP3      O12373   1.257   2.511   7.803  0.9000  0.4896  0.2365
  185TP3     H112374   1.258   2.435   7.862  0.2765  0.5108  0.2840
  185TP3     H212375   1.327   2.568   7.835  0.5819  0.4882  0.9474
  186TP3      O12376   3.029   3.818   7.894 -0.6440 -0.0331  0.0447
  186TP3     H112377   2.973   3.882   7.938  0.5337  1.1379 -0.1228
  186TP3     H212378   3.016   3.834   7.801  0.5447  0.7668  0.0100
  187TP3      O12379   0.925   0.406   7.601  0.3871  0.1394  0.1045
  187TP3     H112380   0.928   0.328   7.657 -0.9850 -0.4340 -0.5966
  187TP3     H212381   0.946   0.373   7.513 -0.2934  0.5473 -0.2114
  188TP3      O12382   4.040   1.601   8.089 -0.7099 -0.6005 -0.2313
  188TP3     H112383   3.961   1.645   8.121  0.7390  1.2352  0.9258
  188TP3     H212384   4.052   1.637   8.001 -0.0360  0.6888  0.3705
  189TP3      O12385   2.347   5.149   8.022  0.0022 -0.0722 -0.9467
  189TP3     H112386   2.402   5.158   8.099  1.8143  0.4182 -2.2658
  189TP3     H212387   2.315   5.059   8.026  0.7698 -0.3174 -0.0832
  190TP3      O12388   2.808   1.782   9.407 -0.0491 -0.1331 -0.2945
  190TP3     H112389   2.728   1.806   9.361  0.5209 -0.0436 -1.2410
  190TP3     H212390   2.866   1.857   9.395  0.4228 -0.4804 -0.1881
  191TP3      O12391   1.397   0.254   9.679  0.1001  0.1306  0.0346
  191TP3     H112392   1.466   0.197   9.713  0.0469  1.3124  2.2375
  191TP3     H212393   1.318   0.228   9.727 -0.1639  1.2609  0.2301
  192TP3      O12394   2.611   0.160   7.076 -0.7466  0.2701  0.3480
  192TP3     H112395   2.551   0.232   7.094 -1.4675 -0.3192  0.3291
  192TP3     H212396   2.617   0.112   7.159 -0.5815  0.1156  0.2474
  193TP3      O12397   2.943   0.627   8.721 -0.7526  0.1353 -0.3701
  193TP3     H112398   2.955   0.662   8.810 -2.5638  1.3941 -0.5882
  193TP3     H212399   3.011   0.670   8.669  0.6737 -1.0188  0.4877
  194TP3      O12400   5.126   1.708  10.006  0.2787 -0.0316  0.3720
  194TP3     H112401   5.108   1.699   9.913 -0.1814  0.3634  0.4228
  194TP3     H212402   5.209   1.756  10.010 -0.4578  1.2507  0.1878
  195TP3      O12403   3.024   0.864   7.509 -0.2488 -0.6462  0.0370
  195TP3     H112404   2.978   0.808   7.571 -1.1859  0.9739  0.8536
  195TP3     H212405   2.986   0.842   7.424 -1.9159  0.0089  0.5872
  196TP3      O12406   2.260   5.093   7.297  0.1221  0.1710 -0.1016
  196TP3     H112407   2.337   5.046   7.264 -0.4883 -0.0121 -1.3226
  196TP3     H212408   2.256   5.070   7.389  2.1755  1.0809  0.2599
  197TP3      O12409   1.224   1.286   0.299 -0.0061 -0.8735 -0.2871
  197TP3     H112410   1.176   1.240   0.230 -0.4295  0.2251 -0.7417
  197TP3     H212411   1.240   1.373   0.262  0.5720 -0.5826  0.6509
  198TP3      O12412   1.379   2.388   7.204 -0.3789  0.8426 -0.4022
  198TP3     H112413   1.388   2.473   7.162  0.2581  1.0202  0.0875
  198TP3     H212414   1.466   2.349   7.197 -0.3203  0.7883  0.5685
  199TP3      O12415   0.390   4.338   8.615  0.4213  0.4904  0.0764
  199TP3     H112416   0.469   4.345   8.669 -0.5479 -2.5566  2.0080
  199TP3     H212417   0.423   4.313   8.528  1.7075  1.0194  0.3998
  200TP3      O12418   5.148   0.928   8.336  0.3034  0.3632 -0.1753
  200TP3     H112419   5.240   0.950   8.321  0.3153  0.0485 -0.5958
  200TP3     H212420   5.111   0.920   8.247  0.4163 -1.7769 -0.0546
  201TP3      O12421   3.063   1.987   8.546 -0.5453 -0.5512 -0.3571
  201TP3     H112422   2.997   1.991   8.615  0.8177  1.1041  0.8911
  201TP3     H212423   3.062   2.073   8.506  0.1097 -0.8540 -1.0422
  202TP3      O12424   3.628   3.455   9.509  0.2140  0.8924 -0.4055
  202TP3     H112425   3.622   3.538   9.556 -0.0967  0.0943  0.9894
  202TP3     H212426   3.593   3.474   9.422 -1.5834  1.7741  0.4857
  203TP3      O12427   0.488   3.570   9.359 -0.3943  0.1949 -0.5011
  203TP3     H112428   0.518   3.480   9.349  0.4667  0.4108  0.0892
  203TP3     H212429   0.521   3.597   9.445 -0.6537  1.0665 -0.6732
  204TP3      O12430   1.329   2.163   9.877  0.2152  0.3591 -0.7186
  204TP3     H112431   1.411   2.116   9.889 -0.4439 -0.1353  2.2856
  204TP3     H212432   1.355   2.251   9.849  1.7815  0.2420  0.3294
  205TP3      O12433   1.078   0.871   9.017  0.0460 -0.3171 -0.2716
  205TP3     H112434   1.028   0.907   8.944  0.5141 -0.8698 -0.8655
  205TP3     H212435   1.021   0.804   9.054  0.4582 -1.1409 -1.1232
  206TP3      O12436   1.049   1.507   9.692 -0.4382  0.6776 -0.3552
  206TP3     H112437   1.068   1.544   9.778  0.3157 -0.1987 -0.1323
  206TP3     H212438   1.085   1.418   9.696 -2.5681 -0.2265 -0.7332
  207TP3      O12439   4.979   2.688   8.994  0.4092  0.5666  0.8767
  207TP3     H112440   4.982   2.615   8.932  0.7087  0.8151  0.5996
  207TP3     H212441   4.907   2.743   8.962  1.3837  1.3521  0.0153
  208TP3      O12442   1.294   0.104   7.170  0.4957 -0.2675  0.2464
  208TP3     H112443   1.329   0.024   7.132 -0.6350 -0.1851 -0.9959
  208TP3     H212444   1.199   0.097   7.158  0.3134  0.8879  0.8663
  209TP3      O12445   2.491   3.159   7.298 -0.2148 -0.0003 -0.1445
  209TP3     H112446   2.476   3.246   7.334  0.6319  0.2524 -0.3933
  209TP3     H212447   2.573   3.131   7.337 -0.6879 -0.8597  0.2496
  210TP3      O12448   1.488   4.671   7.560 -0.6552  0.0535 -0.3128
  210TP3     H112449   1.575   4.633   7.564 -0.0532  1.3872 -0.2387
  210TP3     H212450   1.428   4.597   7.564  0.4434 -0.7555  1.5654
  211TP3      O12451   5.007   5.449   9.002 -0.4472 -0.0054 -0.1082
  211TP3     H112452   4.970   5.363   8.982  0.1197 -0.0756 -0.8940
  211TP3     H212453   4.939   5.494   9.052 -0.3116 -1.2998  1.2455
  212TP3      O12454   2.423   1.769   9.508 -0.5763 -0.3094  0.4559
  212TP3     H112455   2.357   1.809   9.452  0.4227 -1.1510 -1.3772
  212TP3     H212456   2.475   1.714   9.448  1.1761 -0.4003  2.0169
  213TP3      O12457   5.320   0.603   7.593 -0.6592 -0.0483 -0.0795
  213TP3     H112458   5.332   0.562   7.508  0.5804 -0.9371  0.5020
  213TP3     H212459   5.245   0.660   7.582 -0.9413 -0.6885 -1.5734
  214TP3      O12460   1.149   1.749   7.826 -0.1667  0.5753 -0.1131
  214TP3     H112461   1.209   1.765   7.899  0.8461  0.0550 -0.8181
  214TP3     H212462   1.065   1.732   7.867  0.5000 -0.1888  0.9644
  215TP3      O12463   0.663   1.818   6.863  0.2392 -0.2994  0.0402
  215TP3     H112464   0.584   1.847   6.818 -0.2440 -0.4697  0.7781
  215TP3     H212465   0.695   1.744   6.811  0.1669  0.0579 -0.5123
  216TP3      O12466   0.117   0.136   7.383  0.4397  0.1130 -0.5357
  216TP3     H112467   0.042   0.077   7.385  0.7045 -0.2123  0.4199
  216TP3     H212468   0.103   0.191   7.307 -0.4406 -0.3748 -0.7301
  217TP3      O12469   1.814   0.154   8.143  0.4733  0.1904 -0.2338
  217TP3     H112470   1.866   0.140   8.064 -1.6877 -0.4511 -1.6016
  217TP3     H212471   1.765   0.072   8.154 -0.2016  0.7490  1.0504
  218TP3      O12472   2.707   0.808   7.929  0.8004  0.3240 -0.2122
  218TP3     H112473   2.673   0.729   7.970  0.6562  0.1030 -0.7488
  218TP3     H212474   2.631   0.848   7.887  0.6786  1.2691  0.8772
  219TP3      O12475   5.325   4.439   8.632 -0.0277 -0.3935 -0.0347
  219TP3     H112476   5.413   4.465   8.660 -1.0434  1.3281  1.6669
  219TP3     H212477   5.267   4.506   8.668 -1.8199 -0.1892 -3.1195
  220TP3      O12478   4.948   4.943   7.573 -0.3664 -0.5509  0.5626
  220TP3     H112479   4.918   4.853   7.588 -0.7405  0.0002  3.4435
  220TP3     H212480   5.040   4.934   7.549 -0.9558 -1.8097 -1.3316
  221TP3      O12481   1.471   0.377   7.780  0.0280 -0.3530  0.1750
  221TP3     H112482   1.411   0.446   7.751 -0.4740 -0.4683  0.9127
  221TP3     H212483   1.519   0.416   7.853  3.0782  0.8008 -2.3336
  222TP3      O12484   1.976   5.152   7.613  0.0800  0.0655  0.0592
  222TP3     H112485   2.042   5.209   7.574  0.6872  0.0672  1.0791
  222TP3     H212486   1.997   5.151   7.706 -0.6838 -0.8318  0.2300
  223TP3      O12487   1.351   0.076   6.868  0.2833 -0.6828  0.1188
  223TP3     H112488   1.367   0.041   6.780 -0.5791 -1.5634  0.3012
  223TP3     H212489   1.332  -0.002   6.921  3.0940 -0.4183  1.6161
  224TP3      O12490   1.189   1.628   7.078 -0.0378  0.3359 -0.4083
  224TP3     H112491   1.157   1.716   7.059  0.4271  0.4141 -0.8268
  224TP3     H212492   1.142   1.603   7.158  0.7107  1.4337  0.4033
  225TP3      O12493   1.501   1.590   8.335 -0.2161  0.4734 -0.7236
  225TP3     H112494   1.464   1.504   8.356 -0.4099  0.9201  0.8057
  225TP3     H212495   1.430   1.636   8.290  0.0240 -0.3086 -1.9134
  226TP3      O12496   1.586   0.183   6.985 -0.0559  0.1982  0.3200
  226TP3     H112497   1.497   0.149   6.970 -0.3663  1.7776 -1.7520
  226TP3     H212498   1.640   0.137   6.921 -0.0924  1.9550 -1.0077
  227TP3      O12499   0.754   2.782   9.042  0.2392 -0.2354  0.0366
  227TP3     H112500   0.681   2.721   9.045  0.8651 -0.9624  0.5944
  227TP3     H212501   0.713   2.869   9.035 -0.6643 -0.6268  0.5032
  228TP3      O12502   2.419   1.342   6.986 -0.3815  0.4881 -0.2827
  228TP3     H112503   2.330   1.352   6.953  0.4068  1.8077 -2.1132
  228TP3     H212504   2.441   1.427   7.023 -0.2785 -0.1826  1.2444
  229TP3      O12505   0.782   5.109   8.854  0.2748  0.0197  0.5426
  229TP3     H112506   0.874   5.081   8.857  0.7986  1.6250  0.0828
  229TP3     H212507   0.778   5.169   8.779 -1.8461 -2.3884 -1.3439
  230TP3      O12508   0.017   2.020   9.064  0.1522  0.2220  0.5475
  230TP3     H112509  -0.006   1.950   9.125  1.2034 -0.0107  0.6901
  230TP3     H212510  -0.042   2.092   9.087 -0.4457 -0.3623  0.8741
  231TP3      O12511   4.698   4.680   8.069  0.0878 -0.4440  0.1911
  231TP3     H112512   4.699   4.620   8.144 -1.5837 -0.3274  0.3224
  231TP3     H212513   4.639   4.750   8.096  0.0371 -0.0415 -0.9683
  232TP3      O12514   1.965   3.694   9.094 -0.0451 -0.3679 -0.2015
  232TP3     H112515   1.973   3.687   9.190 -0.4006  0.1585 -0.1305
  232TP3     H212516   1.984   3.786   9.075  1.0600 -0.7025 -0.7516
  233TP3      O12517   3.185   1.388   7.351  0.3231  0.3133  0.2053
  233TP3     H112518   3.123   1.315   7.342  2.1932 -1.4653  1.2547
  233TP3     H212519   3.270   1.349   7.330  1.3082  2.3033  0.4484
  234TP3      O12520   2.898   0.342   9.862  0.3527 -0.4191  0.4436
  234TP3     H112521   2.911   0.261   9.812  2.4231  0.0804  0.1332
  234TP3     H212522   2.983   0.358   9.905  0.9865  3.2114 -1.9257
  235TP3      O12523   2.769   3.873   8.237  0.6575  0.0354  0.7607
  235TP3     H112524   2.816   3.936   8.182  2.1204 -0.5916  1.2602
  235TP3     H212525   2.679   3.906   8.240  0.6465  0.3361 -1.6200
  236TP3      O12526   3.909   1.523   8.743  0.2201 -0.3723 -0.5504
  236TP3     H112527   3.872   1.438   8.722 -1.2422  0.3283 -0.9087
  236TP3     H212528   3.951   1.512   8.828  0.1756 -1.4851 -0.6708
  237TP3      O12529   2.381   0.098   7.306 -0.0331  0.3441 -0.7359
  237TP3     H112530   2.446   0.122   7.372 -0.0421 -0.6544 -0.3505
  237TP3     H212531   2.418   0.128   7.224  1.7741 -1.8005 -0.7485
  238TP3      O12532   2.831   4.540   8.580 -0.4373 -0.0015  0.1310
  238TP3     H112533   2.749   4.536   8.531 -0.2916  1.1264 -0.2310
  238TP3     H212534   2.849   4.634   8.589 -0.1026 -0.2090  1.7528
  239TP3      O12535   1.420   3.041   8.902 -0.1157  0.0413  0.2293
  239TP3     H112536   1.399   2.990   8.824  1.7273  1.2175 -1.0838
  239TP3     H212537   1.460   3.121   8.868 -0.2412  1.0503  2.3595
  240TP3      O12538   2.099   1.014   7.525 -0.2871  0.7862 -0.1235
  240TP3     H112539   2.167   0.948   7.514 -0.4282  0.5186  0.5463
  240TP3     H212540   2.020   0.975   7.488 -0.1451  0.9717 -0.6185
  241TP3      O12541   1.481   0.471   8.367  0.3117  0.1281  0.3058
  241TP3     H112542   1.487   0.413   8.291  1.9788 -0.2380  0.7002
  241TP3     H212543   1.524   0.552   8.339  1.6631 -0.2930  1.1098
  242TP3      O12544   3.653   1.987   8.351 -0.4543 -0.3471  0.2542
  242TP3     H112545   3.591   2.018   8.417 -0.5512 -2.0008  0.9645
  242TP3     H212546   3.600   1.974   8.272 -0.8927 -1.0739  0.6605
  243TP3      O12547   4.137   0.884   8.555 -0.0315  0.2216 -0.2432
  243TP3     H112548   4.230   0.903   8.540  0.5593 -1.1096  1.4979
  243TP3     H212549   4.117   0.812   8.496  0.1696  0.2026 -0.2883
  244TP3      O12550   1.912   0.200   8.872  0.3995  0.2758 -0.3254
  244TP3     H112551   1.962   0.201   8.953  0.9349  0.2646 -0.6569
  244TP3     H212552   1.977   0.211   8.803  0.0998 -1.0653 -0.8403
  245TP3      O12553   3.030   0.594   7.191 -0.3305  0.1201  0.2718
  245TP3     H112554   2.990   0.672   7.230  2.2161  1.7577 -0.2633
  245TP3     H212555   3.000   0.595   7.100  1.0776  1.5167 -0.2086
  246TP3      O12556   2.523   0.681   8.760  0.3195  0.2361  0.1026
  246TP3     H112557   2.501   0.752   8.820 -1.6125  0.2446 -0.5926
  246TP3     H212558   2.502   0.715   8.673  1.6346 -0.3382 -0.4670
  247TP3      O12559   2.535   0.162   7.529 -0.6243 -0.2476 -0.5908
  247TP3     H112560   2.622   0.122   7.522 -0.5541 -0.0728 -0.7124
  247TP3     H212561   2.551   0.255   7.517 -0.4598  0.1123  2.1046
  248TP3      O12562   3.328   0.472   8.803 -0.1520 -0.1189  0.1650
  248TP3     H112563   3.367   0.444   8.720  0.7789  0.1691  0.4905
  248TP3     H212564   3.257   0.410   8.818  0.0872 -0.5742 -0.5206
  249TP3      O12565   3.977   0.402   8.502 -0.1995 -0.1598  0.0464
  249TP3     H112566   4.030   0.474   8.467  0.1437 -0.3151  0.2454
  249TP3     H212567   3.890   0.415   8.464 -0.6272  1.4106  1.5033
  250TP3      O12568   1.782   3.602   8.917 -0.1102  0.6844 -0.4970
  250TP3     H112569   1.819   3.517   8.889  1.0451  1.4825 -1.4954
  250TP3     H212570   1.849   3.639   8.975 -0.9718  0.5648  0.5815
  251TP3      O12571   2.044   4.577   8.273  0.3983  0.3093  0.4026
  251TP3     H112572   2.073   4.574   8.364  1.5670 -0.5071  0.0170
  251TP3     H212573   2.004   4.491   8.258  1.5006 -0.0892 -0.2679
  252TP3      O12574   3.085   5.491   7.631 -0.0541  0.4771 -0.5759
  252TP3     H112575   3.046   5.415   7.588  0.2226  0.2163 -0.3636
  252TP3     H212576   3.031   5.565   7.602 -0.1356  0.2441 -1.0285
  253TP3      O12577   4.522   1.025   9.382 -0.5073  0.4439 -0.6198
  253TP3     H112578   4.451   1.030   9.446 -0.5662 -0.3197 -0.6301
  253TP3     H212579   4.498   1.089   9.315 -2.1191 -1.1006 -1.5611
  254TP3      O12580   1.598   1.749   7.793 -0.0615 -0.5425  0.2744
  254TP3     H112581   1.669   1.780   7.849 -0.1613 -0.0327  0.1145
  254TP3     H212582   1.523   1.741   7.852 -0.3796  0.7686  0.0509
  255TP3      O12583   0.841   0.447   9.640 -0.6775  0.3033  0.2976
  255TP3     H112584   0.820   0.514   9.575  0.0831 -1.7080 -2.0429
  255TP3     H212585   0.797   0.368   9.610  1.7129 -1.3127  0.8501
  256TP3      O12586   3.200   2.917   9.183  0.1380 -0.2090  0.3415
  256TP3     H112587   3.183   2.866   9.262 -1.2372  0.1709  0.2989
  256TP3     H212588   3.186   3.008   9.210  0.3962 -0.0204 -0.1528
  257TP3      O12589   5.323   4.897   8.102 -0.2914 -0.7572  0.0849
  257TP3     H112590   5.361   4.874   8.187  1.0655 -1.3275 -0.6556
  257TP3     H212591   5.337   4.818   8.049 -2.1148 -0.8036 -0.3449
  258TP3      O12592   4.054   2.017   8.765  0.4081  0.1029  0.2045
  258TP3     H112593   4.001   2.028   8.685  1.6206 -0.3978 -0.6811
  258TP3     H212594   4.027   2.089   8.822  1.1047  1.7748 -1.5366
  259TP3      O12595   1.240   1.782   8.215 -0.3058  0.5465 -0.0158
  259TP3     H112596   1.237   1.796   8.309 -3.0224 -0.1353  0.0301
  259TP3     H212597   1.211   1.866   8.178  1.5973  1.1032 -0.2946
  260TP3      O12598   0.318   2.836   7.729 -0.1791  0.4424  0.4367
  260TP3     H112599   0.298   2.898   7.799  0.2580  0.0140  0.9501
  260TP3     H212600   0.244   2.841   7.669 -0.5361  0.8356  0.9160
  261TP3      O12601   4.846   2.009   8.444 -0.3790 -0.2239 -0.5785
  261TP3     H112602   4.796   1.948   8.499  2.5263 -0.9617  1.3896
  261TP3     H212603   4.917   2.040   8.502  0.2327  2.3506 -2.6169
  262TP3      O12604   2.749   1.927   7.066 -0.8446  0.2699 -0.4567
  262TP3     H112605   2.663   1.884   7.070 -0.1548 -1.0753  0.2611
  262TP3     H212606   2.729   2.021   7.062 -2.3358  0.1030  2.0470
  263TP3      O12607   2.070   2.500   8.825 -0.1742  0.3987 -0.0769
  263TP3     H112608   2.130   2.565   8.861 -0.9624  0.5812  0.9409
  263TP3     H212609   1.997   2.551   8.790  0.0640  0.1551 -0.9505
  264TP3      O12610   2.270   1.268   9.663 -0.3608 -0.2395  0.7137
  264TP3     H112611   2.346   1.288   9.717  0.1294  0.0320 -0.0642
  264TP3     H212612   2.295   1.188   9.615 -0.4504  0.0153  0.2418
  265TP3      O12613   2.398   1.495   8.578 -0.5978  0.4015 -0.1747
  265TP3     H112614   2.338   1.569   8.587 -1.4078 -0.2851  0.2134
  265TP3     H212615   2.400   1.477   8.484 -0.2039  1.0673 -0.2965
  266TP3      O12616   2.010   4.979  10.036  0.0515 -0.5792 -0.5966
  266TP3     H112617   2.023   4.901  10.090  1.5470 -0.4627 -0.7453
  266TP3     H212618   2.090   4.984   9.982 -0.6040  0.3299 -1.4994
  267TP3      O12619   2.564   1.889   7.354  0.1102 -0.3077 -0.3012
  267TP3     H112620   2.587   1.981   7.340  1.1986 -0.8640 -2.3198
  267TP3     H212621   2.510   1.866   7.279  1.0175 -1.7011 -0.5446
  268TP3      O12622   2.237   1.837   7.626 -0.8185  0.1964 -0.5085
  268TP3     H112623   2.218   1.758   7.575  1.8513 -0.1102 -1.1108
  268TP3     H212624   2.202   1.819   7.713  3.0015 -3.2923  0.4988
  269TP3      O12625   2.487   4.307   7.860 -0.5501 -0.6486  0.3450
  269TP3     H112626   2.577   4.289   7.884  0.1193 -0.5187 -1.9609
  269TP3     H212627   2.455   4.368   7.927  0.5880 -1.8325  1.9897
  270TP3      O12628   2.814   1.409   8.819  0.2341  0.4853  0.4043
  270TP3     H112629   2.901   1.387   8.850 -0.1218  0.0152  1.0760
  270TP3     H212630   2.809   1.504   8.826 -0.5372  0.2454  3.6809
  271TP3      O12631   0.414   1.277   8.838  0.9212 -0.7202  0.3443
  271TP3     H112632   0.404   1.231   8.755  1.3504  0.5306 -0.4081
  271TP3     H212633   0.326   1.278   8.875  0.2587  0.8224 -1.2261
  272TP3      O12634   0.509   4.896   0.814 -0.2515 -0.1477 -0.2033
  272TP3     H112635   0.461   4.844   0.750 -0.3934  1.2320 -1.2310
  272TP3     H212636   0.452   4.970   0.833  0.2442  0.0093  0.7115
  273TP3      O12637   4.650   2.577   8.060 -0.5895 -1.0602  0.9332
  273TP3     H112638   4.739   2.562   8.089 -0.4779 -1.6136  0.2973
  273TP3     H212639   4.611   2.632   8.129  0.7332  0.5760  0.3991
  274TP3      O12640   5.216   1.738   7.428 -0.0358  0.3373 -0.0610
  274TP3     H112641   5.224   1.830   7.456  0.2882  1.1741 -2.7205
  274TP3     H212642   5.251   1.738   7.339  0.5938 -2.5394  0.1624
  275TP3      O12643   4.262   0.378   7.959 -0.3873 -0.3512 -0.3198
  275TP3     H112644   4.200   0.388   7.887  0.7983 -0.6026 -1.3984
  275TP3     H212645   4.229   0.436   8.027 -1.7987 -0.4740 -0.8748
  276TP3      O12646   0.101   5.059   7.564  0.0612  0.0611 -0.2258
  276TP3     H112647   0.093   5.080   7.471 -0.1423 -0.4360 -0.3268
  276TP3     H212648   0.096   5.143   7.609  2.0999  0.4890 -0.7760
  277TP3      O12649   5.407   2.046   8.175  0.3223 -0.2425 -0.2368
  277TP3     H112650   5.430   1.953   8.183  1.1696 -0.1999 -1.8526
  277TP3     H212651   5.334   2.047   8.112  1.1040  0.2690 -1.1534
  278TP3      O12652   0.889   1.764   8.123 -0.4683 -0.2900  0.6997
  278TP3     H112653   0.944   1.713   8.182  2.5141 -0.6256 -2.2743
  278TP3     H212654   0.902   1.855   8.151 -1.3418 -0.6489  2.3437
  279TP3      O12655   0.419   2.058   8.790 -0.0607  0.3248 -0.0891
  279TP3     H112656   0.465   2.140   8.772  1.6083 -0.7114 -0.7317
  279TP3     H212657   0.490   1.996   8.809 -1.3779 -0.5540  2.1110
  280TP3      O12658   4.344   1.066   1.451 -0.0322  0.1072  0.4300
  280TP3     H112659   4.412   1.038   1.512  0.4935  2.0627  0.7993
  280TP3     H212660   4.315   0.986   1.408  0.6558 -1.1051  2.1625
  281TP3      O12661   1.862   3.442   8.167  0.3431  0.1214  0.2747
  281TP3     H112662   1.782   3.488   8.142  0.4018  0.0459 -0.0476
  281TP3     H212663   1.933   3.496   8.132  0.4246  0.0235  0.2892
  282TP3      O12664   4.252   4.267   7.554 -0.4770 -0.1131 -0.2202
  282TP3     H112665   4.279   4.297   7.467 -0.6209  1.2602  0.2027
  282TP3     H212666   4.260   4.344   7.610 -1.2020 -0.7717  0.8106
  283TP3      O12667   1.798   1.259   7.332  0.0030  0.8590 -0.1557
  283TP3     H112668   1.877   1.222   7.372  0.1378 -0.1896 -1.3714
  283TP3     H212669   1.775   1.198   7.263 -3.0136  0.1353  1.4254
  284TP3      O12670   2.886   0.836   7.275 -0.6480  0.8510  0.2256
  284TP3     H112671   2.875   0.929   7.253 -0.3683  0.2713 -2.5006
  284TP3     H212672   2.798   0.799   7.265 -0.8618  0.9052  1.8127
  285TP3      O12673   4.563   0.816   7.795  0.0012 -0.4203  0.0853
  285TP3     H112674   4.634   0.761   7.827  0.9128  0.3634 -0.6006
  285TP3     H212675   4.584   0.904   7.827 -0.4666 -0.1135 -0.4334
  286TP3      O12676   3.719   0.235   7.263  0.3036 -0.2649  0.3447
  286TP3     H112677   3.746   0.252   7.173  1.4131  0.3492  0.7863
  286TP3     H212678   3.700   0.321   7.300  1.8990 -0.3200  1.3283
  287TP3      O12679   3.145   0.386   7.613 -0.0338 -0.0336  0.2060
  287TP3     H112680   3.121   0.324   7.682  1.6285 -0.1376  0.7199
  287TP3     H212681   3.143   0.472   7.656 -0.2168  0.0427  0.0496
  288TP3      O12682   3.699   1.632   0.608 -0.2992 -0.6157  0.4015
  288TP3     H112683   3.679   1.647   0.701  0.5381  1.7451  0.2227
  288TP3     H212684   3.754   1.553   0.609 -0.5366 -0.7829  1.8708
  289TP3      O12685   5.232   0.030   9.346  0.5546 -1.2043  0.1093
  289TP3     H112686   5.250   0.067   9.260 -0.5822 -1.7619 -0.3890
  289TP3     H212687   5.214  -0.063   9.329 -1.8121 -0.8908  0.6521
  290TP3      O12688   2.407   5.186   8.287  0.1556 -0.6195 -0.0804
  290TP3     H112689   2.361   5.103   8.302  0.0399 -0.5400  0.0217
  290TP3     H212690   2.339   5.252   8.302  0.1387 -0.5218 -0.5937
  291TP3      O12691   1.828   1.365   8.227  0.1165  1.1312  0.2242
  291TP3     H112692   1.805   1.318   8.308  0.9118  0.2921 -0.0353
  291TP3     H212693   1.774   1.325   8.160 -0.0308  1.3576  0.2065
  292TP3      O12694   1.111   1.835   7.331  0.0510  0.4317 -0.4806
  292TP3     H112695   1.105   1.837   7.236 -0.3099 -0.4757 -0.4729
  292TP3     H212696   1.152   1.751   7.351 -0.1649  0.4817  0.1787
  293TP3      O12697   2.491   0.687   0.578 -0.4055  0.0192  0.0255
  293TP3     H112698   2.427   0.758   0.581  0.9367  1.2682 -0.1879
  293TP3     H212699   2.548   0.710   0.505 -0.8914 -2.1238 -1.0686
  294TP3      O12700   4.809   0.306   8.546  0.1990 -0.3806 -0.6138
  294TP3     H112701   4.873   0.237   8.525  0.5562  0.3265 -1.9105
  294TP3     H212702   4.734   0.259   8.582  0.5848 -1.4244 -1.1513
  295TP3      O12703   2.537   4.799   7.531 -0.1475 -0.1626 -0.4632
  295TP3     H112704   2.543   4.891   7.555  0.1514 -0.3906  0.3915
  295TP3     H212705   2.445   4.777   7.543 -0.0412 -0.2150  0.2790
  296TP3      O12706   1.418   0.546   9.300 -0.2207 -0.0496 -0.0207
  296TP3     H112707   1.348   0.481   9.305  0.7975 -1.0291  1.7026
  296TP3     H212708   1.387   0.619   9.353 -0.6147  0.1674 -0.5474
  297TP3      O12709   2.422   0.552   8.130  0.4167 -0.0276  0.0953
  297TP3     H112710   2.495   0.535   8.070  0.1353 -3.1466  0.5461
  297TP3     H212711   2.347   0.564   8.073  0.2991 -2.2213 -0.2595
  298TP3      O12712   2.732   0.682   9.092 -0.5102  0.5023 -0.6609
  298TP3     H112713   2.737   0.677   9.187  0.8031  1.8675 -0.6537
  298TP3     H212714   2.796   0.618   9.061 -0.1037  0.8970 -0.6293
  299TP3      O12715   3.486   0.735   9.189  0.7130 -0.1374  0.3915
  299TP3     H112716   3.523   0.742   9.101 -0.2184  0.3980  0.0317
  299TP3     H212717   3.426   0.810   9.196 -1.1834 -1.6226  0.5150
  300TP3      O12718   3.389   4.718   8.783 -0.6421  0.0463  0.2686
  300TP3     H112719   3.350   4.780   8.722 -0.8931 -0.3322  0.0433
  300TP3     H212720   3.440   4.772   8.844  0.3926  0.3432 -0.8420
  301TP3      O12721   3.026   5.378   7.991  0.0439  0.0920  0.6901
  301TP3     H112722   2.973   5.448   8.030 -0.1936 -0.2812  1.0440
  301TP3     H212723   2.974   5.347   7.917  0.3208  0.5447  0.3090
  302TP3      O12724   2.593   5.408   8.110 -0.1462  0.0707  0.6796
  302TP3     H112725   2.528   5.373   8.171 -1.6833  2.7029  0.5903
  302TP3     H212726   2.543   5.432   8.032  1.4073 -0.7308 -0.6017
  303TP3      O12727   1.430   1.781   8.962  0.0359 -0.3674  0.1951
  303TP3     H112728   1.465   1.694   8.979  0.6520 -0.1249  0.1748
  303TP3     H212729   1.465   1.835   9.034 -1.1994 -0.3619  0.8122
  304TP3      O12730   1.778   0.765   9.388  0.5547 -0.1215 -0.1452
  304TP3     H112731   1.738   0.806   9.311  1.1255  0.7725  0.0362
  304TP3     H212732   1.747   0.674   9.384 -2.5843  0.8396  0.7357
  305TP3      O12733   2.056   0.855   9.265 -0.4949 -0.1445 -0.7948
  305TP3     H112734   1.966   0.839   9.293 -0.9300  1.8469 -0.9774
  305TP3     H212735   2.108   0.841   9.343 -1.1245  0.0044 -0.3365
  306TP3      O12736   3.970   1.137   8.232  0.3204 -0.3822 -0.0473
  306TP3     H112737   3.981   1.074   8.161 -1.8343 -0.1605 -0.5989
  306TP3     H212738   3.971   1.222   8.189  0.2248 -0.1869  0.3365
  307TP3      O12739   3.350   0.514   8.509 -0.5253  0.3735 -0.1199
  307TP3     H112740   3.431   0.562   8.492 -0.6537  0.6943  0.1676
  307TP3     H212741   3.358   0.434   8.457  0.0273  0.3514 -0.0039
  308TP3      O12742   2.628   0.855   7.505  0.1760 -0.4773  0.2119
  308TP3     H112743   2.642   0.817   7.418 -1.4948 -0.7256  0.0477
  308TP3     H212744   2.638   0.949   7.492  1.8965 -0.6473  0.1512
  309TP3      O12745   2.719   0.014   7.324  0.1360  0.5586  0.1646
  309TP3     H112746   2.790   0.077   7.336  0.7325 -0.2749  1.1247
  309TP3     H212747   2.764  -0.071   7.319 -0.6894  0.1724 -0.6390
  310TP3      O12748   0.709   5.197  10.039  0.2462 -0.1363 -0.2518
  310TP3     H112749   0.760   5.197   9.958 -2.5456 -1.6040 -2.0670
  310TP3     H212750   0.718   5.108  10.072 -0.2695 -0.0940 -0.0045
  311TP3      O12751   2.356   0.090   8.276  0.5574  0.2396 -0.0745
  311TP3     H112752   2.408   0.166   8.300 -1.5959  1.7258  0.0064
  311TP3     H212753   2.266   0.119   8.283 -0.3430 -2.5380  0.6425
  312TP3      O12754   3.758   2.000   7.546 -0.5278 -0.1444 -0.4016
  312TP3     H112755   3.744   2.050   7.626 -0.9667  0.7194 -1.0253
  312TP3     H212756   3.679   1.947   7.536  0.8578 -2.7278  1.5027
  313TP3      O12757   2.295   1.608   7.968  0.3193  0.1153  0.0391
  313TP3     H112758   2.368   1.642   8.020  1.4549  0.7765 -1.9302
  313TP3     H212759   2.261   1.535   8.020  1.3709  0.7709  1.7208
  314TP3      O12760   2.587   1.010   7.191  0.0243  0.4448 -0.5370
  314TP3     H112761   2.668   1.035   7.147 -0.0683  0.3389 -0.7666
  314TP3     H212762   2.597   0.917   7.208  1.1918  0.9689  2.0164
  315TP3      O12763   0.599   3.136   7.544 -0.3324 -0.2603  0.1351
  315TP3     H112764   0.599   3.185   7.461 -0.1367 -0.6311 -0.0839
  315TP3     H212765   0.581   3.203   7.611  1.2367  0.3370 -0.0327
  316TP3      O12766   3.436   5.089   8.820 -0.3966  0.3459 -0.3808
  316TP3     H112767   3.445   5.084   8.725  3.1579 -0.2275 -0.0901
  316TP3     H212768   3.464   5.004   8.852 -0.1697  1.0169  1.2659
  317TP3      O12769   3.584   0.646   8.442  0.2129  0.2164 -0.2180
  317TP3     H112770   3.577   0.709   8.370  0.7489  0.5934  0.0583
  317TP3     H212771   3.657   0.679   8.495 -1.4237  1.0461  1.5824
  318TP3      O12772   3.773   0.755   6.935 -0.1552  0.2854  0.4750
  318TP3     H112773   3.835   0.696   6.977  0.9761 -0.0676 -1.6168
  318TP3     H212774   3.715   0.783   7.006  0.4072 -1.8915  1.8438
  319TP3      O12775   2.244   0.884   8.127  0.2558 -0.3917  0.5289
  319TP3     H112776   2.232   0.977   8.107  3.5438 -0.0437  0.0308
  319TP3     H212777   2.199   0.838   8.055  0.1628  0.8007 -0.1844
  320TP3      O12778   3.600   1.254   6.968  0.3079  0.1263  0.4951
  320TP3     H112779   3.595   1.172   7.017  0.6947 -1.0609 -1.3858
  320TP3     H212780   3.622   1.227   6.879  0.0040  2.2536 -0.2554
  321TP3      O12781   4.589   0.965  10.232  0.0796 -0.4356 -0.8344
  321TP3     H112782   4.601   0.895  10.167  2.1206 -1.9828  1.1156
  321TP3     H212783   4.677   1.001  10.245 -0.5227  0.7235  0.1234
  322TP3      O12784   2.793   2.902   9.221 -0.5904 -0.1389 -0.0986
  322TP3     H112785   2.799   2.834   9.154 -0.3199 -0.2057 -0.0089
  322TP3     H212786   2.779   2.854   9.303  0.8444 -0.1665  0.1468
  323TP3      O12787   2.782   1.898   7.659 -0.8191 -0.3781  0.0421
  323TP3     H112788   2.749   1.828   7.714 -1.5083  0.6194  0.9077
  323TP3     H212789   2.707   1.955   7.643 -0.2628  0.2004 -0.6097
  324TP3      O12790   2.587   5.210   7.736  0.0925  0.2914  0.0592
  324TP3     H112791   2.613   5.138   7.679 -0.5717 -0.3891  0.6018
  324TP3     H212792   2.547   5.274   7.677  0.3524  0.0551 -0.3755
  325TP3      O12793   2.469   2.069   7.097  0.1816  0.2357 -0.3818
  325TP3     H112794   2.529   2.097   7.166 -0.8183 -0.4257  0.7821
  325TP3     H212795   2.473   1.973   7.099 -1.2126  0.1685 -0.0112
  326TP3      O12796   3.826   3.268   9.533 -0.0189 -0.1252  0.1747
  326TP3     H112797   3.762   3.339   9.532  1.6101  1.4009 -0.6471
  326TP3     H212798   3.900   3.303   9.584  0.4416 -1.5780  0.5386
  327TP3      O12799   2.097   1.228   7.341  0.2031  0.3482  0.0827
  327TP3     H112800   2.126   1.147   7.383 -0.1582  1.2435  2.1627
  327TP3     H212801   2.163   1.293   7.367 -0.1922  0.9988 -0.5074
  328TP3      O12802   2.436   2.711   8.111 -1.0183  0.5335 -0.7259
  328TP3     H112803   2.498   2.663   8.165 -1.9297 -0.3988 -0.4933
  328TP3     H212804   2.397   2.645   8.053 -2.0635  1.0304 -0.6100
  329TP3      O12805   1.589   5.435   7.920 -0.1667  0.0073 -0.5553
  329TP3     H112806   1.508   5.388   7.941  0.4378 -1.0779 -0.5963
  329TP3     H212807   1.611   5.481   8.001 -0.1936 -0.6471 -0.1700
  330TP3      O12808   2.760   0.222   9.351  0.0638 -0.4023  0.1795
  330TP3     H112809   2.806   0.142   9.374  1.4623 -0.1287 -1.5028
  330TP3     H212810   2.726   0.256   9.434  0.0339 -2.3691  0.9796
  331TP3      O12811   3.197   1.068   7.445  0.4119  0.2369  0.4482
  331TP3     H112812   3.150   1.107   7.371  0.8677 -2.0050 -1.0654
  331TP3     H212813   3.145   0.992   7.470  0.9289  0.2550  1.6442
  332TP3      O12814   1.586   0.761   8.338 -0.6643 -0.3753 -0.2149
  332TP3     H112815   1.491   0.762   8.328 -0.5342 -0.3725 -1.5356
  332TP3     H212816   1.609   0.850   8.363 -0.7630  0.3177 -2.4718
  333TP3      O12817   2.305   1.434   7.293 -0.1979  0.1062  0.3357
  333TP3     H112818   2.334   1.343   7.282 -0.7640 -0.1982  1.3169
  333TP3     H212819   2.345   1.480   7.220  1.0781 -0.7055  0.4951
  334TP3      O12820   0.730   2.070   7.918 -0.1197  0.1751  0.5347
  334TP3     H112821   0.655   2.123   7.893 -0.6378 -0.3251  1.0013
  334TP3     H212822   0.721   1.989   7.868  1.9113  1.3934 -1.9260
  335TP3      O12823   3.577   0.258   8.250 -0.1953 -0.6439  0.5538
  335TP3     H112824   3.549   0.313   8.177 -0.6126 -1.4217  0.1226
  335TP3     H212825   3.543   0.171   8.229  0.8116 -1.1613  1.0323
  336TP3      O12826   1.645   0.523   8.983 -0.4891 -0.1539 -0.0957
  336TP3     H112827   1.626   0.524   8.890 -1.2296 -1.9877  0.0282
  336TP3     H212828   1.588   0.590   9.020 -1.4699 -0.6466 -0.7137
  337TP3      O12829   3.841   2.653   9.466 -0.6328 -0.2533 -0.2446
  337TP3     H112830   3.884   2.739   9.469 -0.2495 -0.4695  0.7027
  337TP3     H212831   3.871   2.609   9.545 -0.3277 -1.5028 -1.0347
  338TP3      O12832   4.752   0.848   9.479 -0.4043 -0.8309 -0.6135
  338TP3     H112833   4.839   0.885   9.496 -0.4463 -0.0732 -1.9330
  338TP3     H212834   4.698   0.925   9.460 -1.2030 -1.3568 -0.4521
  339TP3      O12835   3.245   4.855   8.340  0.0892 -0.4135 -0.2526
  339TP3     H112836   3.206   4.936   8.307  1.1367 -0.0011 -0.4916
  339TP3     H212837   3.203   4.786   8.288 -0.3026  0.0201 -0.5207
  340TP3      O12838   2.007   2.187   7.799 -0.1650  0.3934  0.4638
  340TP3     H112839   2.014   2.143   7.884  0.3690 -0.1089  0.1632
  340TP3     H212840   2.082   2.155   7.749 -1.0271 -0.0711 -0.5565
  341TP3      O12841   2.886   0.251   7.084 -0.1493 -0.0161 -0.0675
  341TP3     H112842   2.946   0.193   7.130 -0.2552 -0.7273 -0.8135
  341TP3     H212843   2.802   0.206   7.086 -1.0318  1.6405  2.2370
  342TP3      O12844   4.180   5.329   7.485 -0.0192 -0.5507 -0.1636
  342TP3     H112845   4.241   5.398   7.507  1.2683 -1.5888 -0.4405
  342TP3     H212846   4.135   5.361   7.406  1.2195 -0.4155 -0.8295
  343TP3      O12847   1.030   4.500   9.504  0.1551  0.0135  0.4067
  343TP3     H112848   1.099   4.558   9.473  1.2670 -1.8866 -0.7952
  343TP3     H212849   1.003   4.538   9.588  1.6334  1.5998  0.2006
  344TP3      O12850   1.616   1.470   7.085 -0.0902 -0.2274 -0.5576
  344TP3     H112851   1.599   1.509   7.171  0.4482  0.6523 -0.8378
  344TP3     H212852   1.544   1.500   7.030 -0.7396 -1.2557 -0.2711
  345TP3      O12853   3.864   4.159   8.697  0.3559  0.7636  0.2514
  345TP3     H112854   3.770   4.162   8.713  0.1693  2.3435 -0.9777
  345TP3     H212855   3.902   4.216   8.765  0.3849  0.3865  0.5480
  346TP3      O12856   3.229   0.241   8.532 -0.1651 -0.2582  0.2396
  346TP3     H112857   3.242   0.155   8.572  0.7020 -1.4352 -2.4419
  346TP3     H212858   3.196   0.221   8.445  1.3378  2.0846 -0.8909
  347TP3      O12859   2.415   1.194   7.331  0.4319  0.5762  0.0353
  347TP3     H112860   2.443   1.197   7.423  3.6036  1.3196 -0.8816
  347TP3     H212861   2.486   1.148   7.286 -0.9840  0.4001 -2.0877
  348TP3      O12862   0.956   1.718   0.056 -0.0164 -0.1418 -0.1596
  348TP3     H112863   0.967   1.633   0.100 -0.5231 -0.7448 -1.1801
  348TP3     H212864   1.037   1.731   0.008 -0.4853 -0.7279 -1.1329
  349TP3      O12865   1.945   4.157  10.240  0.4523 -0.2070  0.0316
  349TP3     H112866   1.851   4.174  10.239  0.2209 -1.2441  1.9100
  349TP3     H212867   1.985   4.241  10.263 -0.0402  0.0888 -0.1947
  350TP3      O12868   1.632   2.778   7.626 -0.1530  0.0449 -0.2925
  350TP3     H112869   1.721   2.813   7.630 -0.4837  1.3350 -2.7899
  350TP3     H212870   1.643   2.686   7.603  0.5421  0.6028 -2.3572
  351TP3      O12871   1.978   1.684   9.443  0.1688 -0.2093 -0.1466
  351TP3     H112872   1.905   1.734   9.408  1.8823  1.4014 -1.5704
  351TP3     H212873   2.007   1.629   9.369  1.5859  0.6052 -0.2256
  352TP3      O12874   1.493   0.802   7.409  0.2712 -0.1352  0.4394
  352TP3     H112875   1.517   0.723   7.457  0.4951 -0.1677  0.2748
  352TP3     H212876   1.557   0.807   7.337 -0.4173 -0.3978 -0.1966
  353TP3      O12877   0.996   2.567   7.705 -0.4290 -0.9153 -0.3718
  353TP3     H112878   0.999   2.475   7.730 -0.3002 -1.0803 -0.9863
  353TP3     H212879   1.083   2.600   7.724 -0.6116 -0.8017  0.2844
  354TP3      O12880   3.413   1.280   8.358 -0.0674 -0.8231 -0.0283
  354TP3     H112881   3.345   1.243   8.301 -0.3021  0.4670 -0.5892
  354TP3     H212882   3.405   1.374   8.347  0.8628 -0.6153  1.0280
  355TP3      O12883   3.527   0.564   6.853  0.1757 -0.2377 -0.0451
  355TP3     H112884   3.446   0.611   6.835  0.8623  0.8768 -0.2773
  355TP3     H212885   3.537   0.569   6.949 -0.1702 -0.6191  0.0120
  356TP3      O12886   4.768   5.059   9.730  0.2778  0.4254  0.1263
  356TP3     H112887   4.711   5.066   9.806 -0.7513  1.2695 -0.7221
  356TP3     H212888   4.800   5.148   9.715 -1.4102  0.7389 -1.8548
  357TP3      O12889   3.210   0.999   9.091 -0.3819  0.0433  0.7919
  357TP3     H112890   3.256   0.968   9.170 -0.0687 -2.3335 -0.2695
  357TP3     H212891   3.280   1.026   9.032 -0.5504  0.4053  0.7593
  358TP3      O12892   1.253   1.276   7.826  0.0216 -0.2317 -0.1209
  358TP3     H112893   1.315   1.332   7.873  2.1053 -0.9987 -1.8875
  358TP3     H212894   1.294   1.190   7.826 -1.7224 -1.0752 -0.0892
  359TP3      O12895   3.234   5.453   9.226  0.0452  0.0197 -0.0285
  359TP3     H112896   3.198   5.508   9.297 -2.6727 -0.1570 -1.2226
  359TP3     H212897   3.235   5.511   9.150 -2.5744 -1.4107 -1.2357
  360TP3      O12898   1.576   1.891   9.612  0.4245  0.6808  0.4100
  360TP3     H112899   1.614   1.921   9.695  0.4626  2.0511 -0.0939
  360TP3     H212900   1.545   1.802   9.631  1.8252  0.3943  1.4535
  361TP3      O12901   3.389   0.215   8.989 -0.4070  0.2323 -0.4746
  361TP3     H112902   3.403   0.295   8.938  2.4386 -1.7035 -2.8382
  361TP3     H212903   3.470   0.205   9.040 -1.2367 -0.5251  0.7180
  362TP3      O12904   4.944   2.476   8.832  0.4952 -0.0262  0.7523
  362TP3     H112905   4.854   2.498   8.857  0.5393  0.4924  0.4725
  362TP3     H212906   4.945   2.487   8.736  1.0302  0.6362  0.8277
  363TP3      O12907   2.422   0.037   9.188 -0.2733 -0.5699  0.4639
  363TP3     H112908   2.426   0.132   9.192  1.3144 -0.6825  2.1429
  363TP3     H212909   2.460   0.014   9.102 -0.4476  0.2884  0.1597
  364TP3      O12910   2.062   2.022   8.043  0.3342 -0.0989 -0.3320
  364TP3     H112911   2.019   2.002   8.127  0.7162  4.2660  1.0291
  364TP3     H212912   2.153   2.037   8.067  0.5163  0.8118 -1.6207
  365TP3      O12913   3.970   1.989   9.384 -0.1888  0.4817  0.0097
  365TP3     H112914   4.012   2.021   9.305  1.1485 -0.9176  0.1281
  365TP3     H212915   3.968   1.894   9.374 -1.2746  0.3756  1.0295
  366TP3      O12916   3.991   5.509   9.294 -0.1462  0.7968 -0.0621
  366TP3     H112917   3.907   5.503   9.248  1.3879 -0.8183 -2.8193
  366TP3     H212918   3.970   5.495   9.386 -2.9271  0.7122 -0.6806
  367TP3      O12919   2.735   3.894  10.176  0.3841  0.0479  0.7093
  367TP3     H112920   2.667   3.934  10.121  2.7821 -0.0488 -2.4985
  367TP3     H212921   2.778   3.968  10.219 -1.2070  0.1615  2.1526
  368TP3      O12922   2.693   2.321   8.458  0.4265  0.3333 -0.1280
  368TP3     H112923   2.626   2.300   8.523 -0.0508  0.1958 -0.6560
  368TP3     H212924   2.741   2.394   8.496  0.2292  0.1714  0.4353
  369TP3      O12925   2.081   0.451   8.669 -0.9460 -0.0236  0.4204
  369TP3     H112926   2.104   0.469   8.760 -0.3749 -0.4459  0.3587
  369TP3     H212927   2.073   0.355   8.665 -0.7039 -0.0238 -0.0369
  370TP3      O12928   3.784   3.023   0.295  0.3366 -0.3875 -0.2536
  370TP3     H112929   3.837   3.102   0.282 -0.9940  0.9173  1.9031
  370TP3     H212930   3.707   3.054   0.344 -1.2185 -2.6675 -1.1818
  371TP3      O12931   5.519   2.045   7.787  0.3916 -0.2010  0.5797
  371TP3     H112932   5.492   1.996   7.710 -0.3676 -1.2729  1.5056
  371TP3     H212933   5.614   2.047   7.782  0.3424 -0.1571 -0.4385
  372TP3      O12934   1.818   1.285   7.011 -0.6648 -0.5342 -0.0245
  372TP3     H112935   1.742   1.338   7.034 -0.0335 -0.3341  1.6915
  372TP3     H212936   1.799   1.199   7.047 -0.9551 -1.0262 -1.3464
  373TP3      O12937   2.059   2.459   7.641  0.3250  0.2258  0.2524
  373TP3     H112938   2.109   2.527   7.686 -0.1739  0.4223  0.5112
  373TP3     H212939   2.125   2.394   7.615  0.7662  0.6851  0.2234
  374TP3      O12940   2.129   1.799   7.881  0.1184 -0.0923  0.8815
  374TP3     H112941   2.183   1.720   7.886  0.7354  0.3182  0.7457
  374TP3     H212942   2.155   1.850   7.957  1.9470  1.3759 -0.6687
  375TP3      O12943   2.994   1.007   8.335 -0.6821  0.2745 -0.2334
  375TP3     H112944   2.930   0.944   8.301 -0.8876  0.9796 -1.1635
  375TP3     H212945   2.987   0.998   8.430  0.6145 -2.4282 -0.3301
  376TP3      O12946   3.210   2.128   7.046 -0.0540 -0.4396  0.1622
  376TP3     H112947   3.299   2.094   7.044 -0.0722 -0.4387 -1.1671
  376TP3     H212948   3.154   2.051   7.039 -0.1289 -0.3145 -0.6491
  377TP3      O12949   3.222   0.729   8.885  0.1388  0.3517 -0.6424
  377TP3     H112950   3.231   0.644   8.842 -0.3335 -0.9979  1.8525
  377TP3     H212951   3.311   0.755   8.907  0.3391  0.8228 -1.9729
  378TP3      O12952   1.764   1.325   9.305 -0.0969 -0.0076 -0.2661
  378TP3     H112953   1.810   1.344   9.387 -0.2278 -0.0521 -0.1821
  378TP3     H212954   1.777   1.231   9.292 -1.8062 -0.4200  0.7872
  379TP3      O12955   2.400   1.062   6.990  0.2646 -0.3394 -0.6279
  379TP3     H112956   2.417   1.156   6.991  1.2170 -0.5090 -0.7438
  379TP3     H212957   2.448   1.028   7.066 -1.5674 -0.4760  0.4976
  380TP3      O12958   3.161   0.108   8.282 -0.1267 -0.2252 -0.4556
  380TP3     H112959   3.179   0.172   8.212 -1.4821 -3.0523 -3.5235
  380TP3     H212960   3.218   0.034   8.261 -3.3911 -2.7008 -0.8926
  381TP3      O12961   2.927   2.297   9.483 -0.0863  1.1238  0.0426
  381TP3     H112962   2.839   2.334   9.472 -1.7718 -2.1603  1.7172
  381TP3     H212963   2.930   2.269   9.574  2.0617 -0.4032 -0.4537
  382TP3      O12964   3.498   0.578   7.124  0.9546  0.3917 -0.1085
  382TP3     H112965   3.500   0.673   7.134  0.3539  0.2357  1.5502
  382TP3     H212966   3.561   0.546   7.189  2.4183 -0.2778 -1.7986
  383TP3      O12967   3.421   5.247   7.979 -0.5666  0.6002  0.1310
  383TP3     H112968   3.341   5.207   8.012  0.3458  0.2979  2.0472
  383TP3     H212969   3.400   5.339   7.967 -0.9148  0.7180  1.6043
  384TP3      O12970   0.888   2.366   8.516 -0.1550 -0.1477 -0.5089
  384TP3     H112971   0.960   2.428   8.511  0.7529 -1.1801 -0.4190
  384TP3     H212972   0.823   2.410   8.571  0.4292  0.7643 -0.5316
  385TP3      O12973   5.500   1.237   8.589 -0.2060  0.2596 -0.0217
  385TP3     H112974   5.444   1.212   8.516 -0.6686 -0.8892  0.7199
  385TP3     H212975   5.558   1.304   8.553  0.2076 -0.9709 -1.6809
  386TP3      O12976   2.271   5.348   9.285 -0.1467 -1.0530  0.3398
  386TP3     H112977   2.326   5.419   9.255  0.6359 -2.0182 -0.5189
  386TP3     H212978   2.182   5.383   9.282 -0.0789 -1.0746 -2.9653
  387TP3      O12979   4.170   0.216   6.858  0.0085 -0.1799  0.0605
  387TP3     H112980   4.156   0.297   6.809  0.6740 -1.1292 -1.7198
  387TP3     H212981   4.086   0.171   6.855  0.5610 -1.1351 -1.9055
  388TP3      O12982   4.018   5.232   8.618 -0.1310 -0.3604 -0.5768
  388TP3     H112983   4.105   5.270   8.607 -0.0035 -0.7240 -0.8163
  388TP3     H212984   3.975   5.290   8.681  0.1932 -0.0341 -0.6539
  389TP3      O12985   2.162   0.706   9.052  0.8774  0.0096 -0.6451
  389TP3     H112986   2.112   0.723   9.131  1.8266 -0.2098  0.0080
  389TP3     H212987   2.103   0.654   8.997  0.3148 -0.0498  0.0159
  390TP3      O12988   0.409   4.804  10.104  0.6165 -0.0523  0.1007
  390TP3     H112989   0.388   4.893  10.130 -1.2194 -0.7518  1.1346
  390TP3     H212990   0.480   4.777  10.162  2.0226  1.1495 -1.0458
  391TP3      O12991   1.629   0.825   9.132 -0.2881 -0.3560  0.4608
  391TP3     H112992   1.544   0.781   9.122 -0.5986  0.0831  1.1509
  391TP3     H212993   1.606   0.917   9.143  0.3763  0.0938 -1.6248
  392TP3      O12994   3.704   0.009   9.191  0.6167  0.2306 -0.2698
  392TP3     H112995   3.681   0.100   9.176  1.1138  0.2634 -0.8356
  392TP3     H212996   3.660  -0.014   9.273 -0.0475  0.7851 -0.4662
  393TP3      O12997   3.180   5.156   8.049  0.2328  0.5005 -0.0271
  393TP3     H112998   3.147   5.143   8.138 -0.3383 -1.2591 -0.4883
  393TP3     H212999   3.124   5.224   8.012 -0.0248  0.6809  0.6897
  394TP3      O13000   2.662   3.890   9.128 -0.1105 -0.1115  0.3404
  394TP3     H113001   2.667   3.851   9.216  0.8574 -1.0044 -0.1002
  394TP3     H213002   2.753   3.896   9.099 -0.5786 -2.3456 -1.6986
  395TP3      O13003   2.617   0.418   7.459  0.2873  0.0665 -0.0653
  395TP3     H113004   2.565   0.465   7.393  0.1118 -0.8845 -0.6207
  395TP3     H213005   2.705   0.417   7.422  0.4497  0.6139  0.3028
  396TP3      O13006   3.629   4.324   9.242  0.2407  0.0736 -0.3765
  396TP3     H113007   3.698   4.373   9.197  1.1556 -0.3912  0.4823
  396TP3     H213008   3.673   4.287   9.319 -0.7324 -1.0471 -0.3460
  397TP3      O13009   3.408   5.259   6.788  0.6013  0.1873  0.1056
  397TP3     H113010   3.473   5.253   6.718 -0.4778  0.1725 -0.9101
  397TP3     H213011   3.325   5.241   6.745 -0.6726  4.6737  0.4945
  398TP3      O13012   3.088   0.718   8.180 -0.4928 -0.5469  0.0212
  398TP3     H113013   3.071   0.777   8.107  2.0937  0.1353 -0.0965
  398TP3     H213014   3.005   0.711   8.226 -1.8009  0.1290 -2.1862
  399TP3      O13015   4.382   2.026   7.500  0.3904  0.0021  0.3912
  399TP3     H113016   4.430   1.971   7.562 -1.2295 -1.2472  0.5814
  399TP3     H213017   4.450   2.068   7.448  1.7008 -1.4067  0.9137
  400TP3      O13018   3.004   5.287   8.452 -0.0768  0.3998 -0.2911
  400TP3     H113019   3.096   5.301   8.474 -0.2302  0.2754  0.4250
  400TP3     H213020   2.964   5.373   8.461 -0.7914 -0.2199  3.0346
  401TP3      O13021   2.044   2.697   9.356 -0.1094  0.7240 -0.3917
  401TP3     H113022   1.984   2.766   9.382 -1.3913 -0.6982  0.4951
  401TP3     H213023   1.990   2.635   9.306  0.9027  0.1129 -0.7546
  402TP3      O13024   2.648   1.571   8.392  0.0515  0.1327  0.2047
  402TP3     H113025   2.715   1.522   8.439  0.2199 -1.4455 -1.6527
  402TP3     H213026   2.567   1.523   8.407 -0.0726  0.1825 -0.2905
  403TP3      O13027   2.116   1.336   7.023 -0.3368  0.2100 -0.4809
  403TP3     H113028   2.126   1.313   7.115  1.6875  0.0400 -0.7231
  403TP3     H213029   2.028   1.307   7.000 -0.0598 -1.7134  0.8317
  404TP3      O13030   3.240   3.332   7.408  0.2929 -0.0224 -0.3832
  404TP3     H113031   3.185   3.266   7.451  1.3409 -1.5803 -1.4047
  404TP3     H213032   3.232   3.313   7.315  0.4571  1.4372 -0.7138
  405TP3      O13033   4.944   5.117   8.192 -0.3480 -0.2339  0.0414
  405TP3     H113034   4.861   5.148   8.156  0.1068 -1.3453 -2.0158
  405TP3     H213035   4.984   5.195   8.231 -2.5199  0.2284  1.3957
  406TP3      O13036   4.128   2.917   1.154  0.7089  0.4277  0.1989
  406TP3     H113037   4.038   2.935   1.179  1.4444  0.9763  2.5803
  406TP3     H213038   4.170   3.003   1.149  0.8676  0.2586 -1.9278
  407TP3      O13039   1.001   3.127   8.993  0.0194 -0.1411 -0.5387
  407TP3     H113040   0.975   3.123   8.901  1.0197 -0.0974 -0.8310
  407TP3     H213041   1.097   3.125   8.991  0.0969  1.3541  0.4123
  408TP3      O13042   0.940   2.149   9.858 -0.0172 -0.3639  0.4241
  408TP3     H113043   1.017   2.121   9.809 -0.5146 -1.5793  0.3227
  408TP3     H213044   0.882   2.073   9.857 -1.3861  0.6625  0.1623
  409TP3      O13045   5.380   2.558   8.680  0.2595 -0.4664  0.5498
  409TP3     H113046   5.435   2.562   8.602 -0.4857  0.8782  0.0860
  409TP3     H213047   5.322   2.483   8.664  0.4860 -0.5462  0.0858
  410TP3      O13048   3.948   1.348   8.031  0.4229 -0.3737 -0.2832
  410TP3     H113049   3.923   1.351   7.938 -0.0086 -1.3349 -0.2022
  410TP3     H213050   3.983   1.435   8.049 -1.9289  0.7042 -0.6865
  411TP3      O13051   1.841   1.831   7.521 -0.1925  0.4599  0.1373
  411TP3     H113052   1.901   1.905   7.513 -1.7717  1.7827 -0.0078
  411TP3     H213053   1.883   1.772   7.582  1.4606  1.1316 -0.3350
  412TP3      O13054   1.973   1.685   7.697 -0.4092  0.0463 -0.0654
  412TP3     H113055   1.998   1.741   7.770  1.4163  0.9880 -1.3608
  412TP3     H213056   1.933   1.608   7.737  1.5176  0.0651  1.9857
  413TP3      O13057   1.761   2.950   9.025 -0.1628 -0.5992 -0.3209
  413TP3     H113058   1.704   2.919   9.095 -1.2740 -0.1798 -1.0227
  413TP3     H213059   1.732   3.040   9.010  0.3638 -0.5464 -1.0157
  414TP3      O13060   2.985   1.549   9.587  0.0799  0.7851  0.0963
  414TP3     H113061   2.936   1.483   9.537 -1.8782  2.6640 -0.5246
  414TP3     H213062   3.007   1.616   9.523  0.6081  1.5372  1.0527
  415TP3      O13063   2.092   1.582   8.339 -0.0027  0.3367  0.3504
  415TP3     H113064   2.011   1.559   8.294  0.3934 -0.2284 -0.0867
  415TP3     H213065   2.074   1.565   8.432 -0.0017 -0.9514  0.1236
  416TP3      O13066   3.213   0.249   8.046 -0.6004  0.4689  0.9607
  416TP3     H113067   3.302   0.277   8.027  0.0800 -2.3732 -0.2238
  416TP3     H213068   3.161   0.286   7.974  0.4612 -2.0883 -1.2131
  417TP3      O13069   1.655   3.733   8.247 -0.0042  0.6020 -0.8035
  417TP3     H113070   1.627   3.693   8.164  0.4787  0.1668 -0.7526
  417TP3     H213071   1.750   3.727   8.246 -0.0718 -0.9443  0.5710
  418TP3      O13072   2.640   4.419   8.306 -0.7236 -0.1018  0.6730
  418TP3     H113073   2.598   4.504   8.317 -1.0815 -0.1626 -0.1687
  418TP3     H213074   2.695   4.429   8.229  1.2000  0.1127  2.0374
  419TP3      O13075   4.591   5.004   9.523  0.2468  0.7949  0.1723
  419TP3     H113076   4.590   4.909   9.511  2.1895  0.9756 -1.6834
  419TP3     H213077   4.655   5.018   9.593  0.1198  0.7526  0.2976
  420TP3      O13078   3.768   1.368   9.633  0.5339 -0.6618  0.1087
  420TP3     H113079   3.741   1.391   9.722  1.1419  0.5505 -0.0123
  420TP3     H213080   3.689   1.335   9.592  0.0385 -0.3815  0.8307
  421TP3      O13081   2.988   0.384   8.525 -0.8027  0.0790 -0.1244
  421TP3     H113082   2.985   0.451   8.593  0.1596  0.7032 -0.6787
  421TP3     H213083   3.079   0.352   8.527 -1.1945 -1.0472 -0.0166
  422TP3      O13084   2.472   0.052   6.848 -0.4691 -0.0415 -0.1715
  422TP3     H113085   2.444   0.125   6.792 -0.2390  0.3547  0.2252
  422TP3     H213086   2.528   0.093   6.914  0.4510 -0.7144 -0.5248
  423TP3      O13087   2.701   1.102   7.413  1.0201 -0.7439  0.0119
  423TP3     H113088   2.741   1.102   7.326  0.6971  1.7707 -0.1764
  423TP3     H213089   2.758   1.157   7.466  0.5352 -1.2452  1.0871
  424TP3      O13090   1.088   0.912   9.461 -0.4648  0.3072 -0.6344
  424TP3     H113091   1.006   0.885   9.420 -0.2964  0.5625 -1.1459
  424TP3     H213092   1.140   0.948   9.389  0.2136 -0.1296 -0.3680
  425TP3      O13093   1.965   4.938   9.040 -0.2293  0.1367 -0.4075
  425TP3     H113094   1.890   4.998   9.045 -0.0331  0.5736 -2.3522
  425TP3     H213095   1.943   4.878   8.968  0.4974 -0.8606  0.1828
  426TP3      O13096   3.094   0.765   9.149  0.3893 -0.1754 -0.2062
  426TP3     H113097   3.123   0.856   9.145 -1.7077  0.4800 -1.2004
  426TP3     H213098   3.134   0.723   9.073 -1.3329  0.7607 -1.6698
  427TP3      O13099   0.551   0.955   0.384 -0.5522  0.3830  0.1009
  427TP3     H113100   0.591   0.874   0.351 -2.0161  0.3998 -1.8079
  427TP3     H213101   0.541   0.941   0.478  1.6090 -0.6126  0.2087
  428TP3      O13102   1.641   1.486   8.565  0.2948 -0.0155  0.5593
  428TP3     H113103   1.659   1.529   8.481 -2.0939 -0.4458 -0.1913
  428TP3     H213104   1.567   1.428   8.547  0.7925 -1.3094  2.5948
  429TP3      O13105   3.861   1.466   9.328  0.5078  0.0297  0.4818
  429TP3     H113106   3.813   1.405   9.385 -0.6130  0.1487 -0.3117
  429TP3     H213107   3.913   1.411   9.271  0.9941 -0.1198  1.0701
  430TP3      O13108   4.396   1.159   8.086  0.1411  0.6302 -0.5784
  430TP3     H113109   4.390   1.221   8.159 -1.2953  0.0787 -0.2066
  430TP3     H213110   4.486   1.166   8.056  0.7993  0.7812  1.3497
  431TP3      O13111   2.260   1.590   7.511  0.5046  0.2116 -0.8698
  431TP3     H113112   2.295   1.555   7.593 -0.0373  0.0682 -0.6978
  431TP3     H213113   2.283   1.524   7.445 -0.5793 -0.5218 -0.5340
  432TP3      O13114   4.814   2.821   8.818 -0.0186 -0.0680 -0.3079
  432TP3     H113115   4.873   2.888   8.785  0.4319  0.7069  1.9406
  432TP3     H213116   4.730   2.840   8.777  0.9129 -0.2263 -2.3251
  433TP3      O13117   4.448   1.336  10.224 -0.3190 -0.2240 -0.2644
  433TP3     H113118   4.473   1.333  10.316 -0.2859 -0.2222 -0.2736
  433TP3     H213119   4.374   1.275  10.217 -0.0271 -0.5757 -0.3256
  434TP3      O13120   3.952   1.869   7.037  1.0884  0.1474 -0.1978
  434TP3     H113121   3.908   1.851   7.120 -0.9751  1.5705 -0.9548
  434TP3     H213122   3.944   1.787   6.988  0.1544  0.0816  0.0591
  435TP3      O13123   0.165   1.299   8.940 -0.4158  0.3812  0.1776
  435TP3     H113124   0.174   1.375   8.998 -0.1313 -0.1376  0.8237
  435TP3     H213125   0.072   1.296   8.917 -0.7980 -0.2312  1.7451
  436TP3      O13126   0.219   1.411   6.996  0.0542 -0.7712 -0.0434
  436TP3     H113127   0.145   1.349   6.991 -0.0859 -0.5255 -1.0186
  436TP3     H213128   0.177   1.497   6.999  0.1657 -0.7419  3.2202
  437TP3      O13129   5.377   5.158   8.093 -0.0492  0.4063  0.3350
  437TP3     H113130   5.355   5.065   8.099  0.5443  0.1580 -1.1306
  437TP3     H213131   5.448   5.170   8.156 -0.2506 -0.0823  0.6595
  438TP3      O13132   0.711   0.479   9.192 -0.6650  0.0420  0.2393
  438TP3     H113133   0.771   0.404   9.196 -1.9573 -1.0122  0.2290
  438TP3     H213134   0.629   0.445   9.229 -1.0582  1.6561  0.8714
  439TP3      O13135   4.867   0.690   7.325 -0.1531 -0.2655 -0.3678
  439TP3     H113136   4.835   0.732   7.245 -1.6814 -1.9079 -0.6708
  439TP3     H213137   4.805   0.717   7.393  1.7844  2.0389  0.5474
  440TP3      O13138   0.312   4.572   7.190  0.4272 -0.1813  0.0980
  440TP3     H113139   0.279   4.487   7.159  2.0926 -0.8173  0.0212
  440TP3     H213140   0.386   4.591   7.133  0.7060  0.8270  0.7934
  441TP3      O13141   0.027   2.304   8.480  0.2666 -0.2098 -0.3538
  441TP3     H113142   0.056   2.269   8.564  0.6356  1.1166  0.0970
  441TP3     H213143   0.095   2.277   8.418  0.3878 -0.5452 -0.0765
  442TP3      O13144   1.713   1.728   9.376 -0.1809  0.4841  0.1357
  442TP3     H113145   1.680   1.685   9.297  2.5275  1.1405 -1.4338
  442TP3     H213146   1.670   1.813   9.377 -1.2642 -0.0541  0.1434
  443TP3      O13147   4.988   1.234   7.616  0.5232  0.3774  0.0509
  443TP3     H113148   4.930   1.162   7.591 -1.9783  2.0056  0.9341
  443TP3     H213149   5.015   1.213   7.705 -1.0661  1.0286  0.7022
  444TP3      O13150   5.022   2.114   9.344 -0.5489  0.1672  0.0781
  444TP3     H113151   5.044   2.147   9.257  0.9510 -0.1464  0.3277
  444TP3     H213152   4.995   2.191   9.393 -1.0058  0.4067 -0.5396
  445TP3      O13153   5.108   3.865   9.368  0.2693  0.1862  0.1399
  445TP3     H113154   5.084   3.787   9.318 -1.8273 -0.7021  2.4229
  445TP3     H213155   5.059   3.936   9.326 -1.8082 -0.6295  1.1003
  446TP3      O13156   5.514   0.900   7.102  0.0777  0.5327  0.0487
  446TP3     H113157   5.603   0.867   7.107  0.3626  1.3632  0.5450
  446TP3     H213158   5.459   0.822   7.103  0.7789  0.0419  0.3010
  447TP3      O13159   1.772   1.319   9.010 -0.0862 -0.0922 -0.1218
  447TP3     H113160   1.737   1.309   9.098 -1.0313  3.2102 -0.0675
  447TP3     H213161   1.703   1.363   8.961  0.6885 -1.2617 -2.3451
  448TP3      O13162   3.986   0.925   9.597 -0.3211 -0.1227  0.1550
  448TP3     H113163   3.993   1.012   9.636 -1.4438  0.4304 -0.8573
  448TP3     H213164   3.968   0.867   9.671 -2.4674  0.9253  0.5013
  449TP3      O13165   3.974   5.279   9.059  0.0082  0.1148  0.3770
  449TP3     H113166   3.973   5.349   8.994 -1.1534 -0.3858 -0.1557
  449TP3     H213167   4.055   5.294   9.109 -0.5017  2.1463  0.6273
  450TP3      O13168   0.416   0.736   9.281  0.1974 -0.0147 -0.2088
  450TP3     H113169   0.482   0.687   9.330  1.9621 -0.3005 -2.8010
  450TP3     H213170   0.423   0.704   9.191 -2.9977  0.4604 -0.6972
  451TP3      O13171   1.434   0.342   8.612 -0.5997 -0.3796 -0.2147
  451TP3     H113172   1.521   0.323   8.647 -0.4260  0.0693 -0.4025
  451TP3     H213173   1.451   0.388   8.530 -1.0116  2.6708  1.3539
  452TP3      O13174   3.484   0.049   7.857  0.2885  0.1695 -0.4695
  452TP3     H113175   3.537   0.027   7.781  1.5439 -1.2991  0.7821
  452TP3     H213176   3.408  -0.009   7.852 -0.4167  1.1831 -1.4441
  453TP3      O13177   5.266   1.963   7.201  0.5605  0.4303  0.4263
  453TP3     H113178   5.295   1.872   7.193 -1.8398 -0.2026 -2.1867
  453TP3     H213179   5.307   2.008   7.127 -1.7795  0.4118 -0.9390
  454TP3      O13180   5.230   0.695   7.103  0.0141  0.0359 -0.6379
  454TP3     H113181   5.323   0.683   7.125 -0.0526  0.3232 -0.1987
  454TP3     H213182   5.231   0.718   7.010  0.3240 -0.7471 -0.8372
  455TP3      O13183   3.843   0.120   8.242  0.3577  0.0305 -0.1967
  455TP3     H113184   3.765   0.158   8.282  0.1923  0.3271 -0.8051
  455TP3     H213185   3.864   0.178   8.170  0.6649 -0.5067 -0.5431
  456TP3      O13186   2.356   4.910   8.298  0.0195  0.1430 -0.3418
  456TP3     H113187   2.303   4.879   8.372 -0.3647 -1.0828 -1.1057
  456TP3     H213188   2.404   4.832   8.269 -0.3083  0.4587 -1.7604
  457TP3      O13189   0.052   0.706   7.755  0.3617 -0.2478  0.4206
  457TP3     H113190  -0.005   0.688   7.830  0.2173 -2.0759 -0.0887
  457TP3     H213191   0.065   0.620   7.714  3.4726  0.1344  0.5108
  458TP3      O13192   4.100   5.087   7.549  0.2329 -0.4145 -0.7865
  458TP3     H113193   4.179   5.035   7.564  0.0484 -0.0926  1.4457
  458TP3     H213194   4.133   5.175   7.527  0.4960 -0.6815 -1.4873
  459TP3      O13195   4.089   0.388   7.733 -0.0038  0.2133  0.1577
  459TP3     H113196   4.108   0.441   7.656 -2.4555  0.8251 -0.0705
  459TP3     H213197   4.067   0.302   7.699  0.8416 -0.0606  0.3067
  460TP3      O13198   0.624   1.387   8.020  0.1097  0.0941 -0.2229
  460TP3     H113199   0.556   1.440   7.978  0.0644 -0.5669 -0.9904
  460TP3     H213200   0.581   1.352   8.098 -0.7643 -1.1892 -1.2754
  461TP3      O13201   2.987   1.654   8.007  0.1384 -0.5365  0.0127
  461TP3     H113202   2.921   1.602   7.961  0.8321 -1.0528 -0.3911
  461TP3     H213203   3.064   1.598   8.012  1.5611  1.1521 -2.1325
  462TP3      O13204   0.285   0.739   9.517  0.4875 -0.4063  0.6707
  462TP3     H113205   0.250   0.650   9.524 -1.6350  0.1040 -2.2976
  462TP3     H213206   0.327   0.741   9.431  0.0192  1.6461  0.4751
  463TP3      O13207   3.512   5.374   8.727  0.2351  0.4206 -0.4278
  463TP3     H113208   3.567   5.420   8.790 -1.5131 -0.8712  2.1821
  463TP3     H213209   3.538   5.282   8.735 -0.8707  0.0730 -0.6448
  464TP3      O13210   5.383   0.218   7.579  0.1665 -0.1747 -0.2713
  464TP3     H113211   5.370   0.261   7.664  1.1669 -0.3421 -0.0274
  464TP3     H213212   5.414   0.130   7.601  1.8720  0.2753 -0.8261
  465TP3      O13213   4.210   0.572   7.585 -0.4296  0.3017  0.2545
  465TP3     H113214   4.211   0.664   7.611  0.6696  0.1739  0.6616
  465TP3     H213215   4.293   0.537   7.615 -0.5265 -0.6527 -0.5565
  466TP3      O13216   5.120   0.188   7.642  0.0740  0.5005  0.0195
  466TP3     H113217   5.195   0.225   7.596  0.7715  1.1280  1.6111
  466TP3     H213218   5.119   0.234   7.726 -2.1588  0.5787 -0.0241
  467TP3      O13219   3.713   3.682   7.541  0.1996  0.0081  0.0249
  467TP3     H113220   3.703   3.776   7.522  1.3716 -0.1479 -1.4357
  467TP3     H213221   3.770   3.679   7.618 -1.3656  0.5412  1.2194
  468TP3      O13222   5.166   5.428   7.040 -0.4303  0.1528 -0.2828
  468TP3     H113223   5.195   5.421   6.949 -1.2194 -0.8612 -0.4637
  468TP3     H213224   5.232   5.484   7.082  1.1190 -1.1298 -0.9581
  469TP3      O13225   4.593   1.538   8.867 -0.4373  0.4002  0.1714
  469TP3     H113226   4.635   1.479   8.804 -2.2332 -0.8737  0.1236
  469TP3     H213227   4.556   1.609   8.813  0.6857  0.9499  0.1130
  470TP3      O13228   2.706   0.489   8.766 -0.4168  0.1264 -0.5614
  470TP3     H113229   2.635   0.552   8.781 -0.5939 -0.0005 -0.8637
  470TP3     H213230   2.781   0.542   8.739  0.0369  0.4042  1.2117
  471TP3      O13231   1.635   2.324   7.729 -0.2323 -0.3963  0.4953
  471TP3     H113232   1.567   2.286   7.673  0.4377  0.9003 -1.2949
  471TP3     H213233   1.592   2.341   7.812 -1.8226 -0.5854 -0.2745
  472TP3      O13234   2.285   2.000   1.050 -0.0557  0.2466  0.1440
  472TP3     H113235   2.341   2.016   1.126 -1.1324  0.3139  0.9368
  472TP3     H213236   2.255   1.910   1.062  1.8673 -0.6841 -1.6026
  473TP3      O13237   3.328   1.178   8.012 -0.9149 -0.3937  0.7098
  473TP3     H113238   3.294   1.138   8.092  1.7034 -0.0287  2.0407
  473TP3     H213239   3.423   1.170   8.019 -0.6490 -1.4962 -2.9667
  474TP3      O13240   4.902   0.431   8.326  0.7919 -0.2882  0.4273
  474TP3     H113241   4.871   0.380   8.401 -1.4548  0.9015  0.3467
  474TP3     H213242   4.916   0.366   8.257 -2.0125 -0.8879  0.3369
  475TP3      O13243   4.997   2.426   8.563 -0.2707 -0.0330 -0.5008
  475TP3     H113244   5.026   2.475   8.485 -0.6818  0.6773 -0.2094
  475TP3     H213245   5.078   2.396   8.604 -0.1071 -2.6002 -2.5833
  476TP3      O13246   3.323   2.706   7.390 -0.1427 -0.0401  0.2390
  476TP3     H113247   3.328   2.611   7.399 -1.4469 -0.1323  0.1388
  476TP3     H213248   3.234   2.728   7.417 -0.3085  0.9910 -1.0557
  477TP3      O13249   2.187   5.495   9.658  0.2606  0.5032  0.3877
  477TP3     H113250   2.174   5.474   9.750 -0.6749  1.2076  0.4263
  477TP3     H213251   2.270   5.544   9.655  1.3060 -1.2161  0.5794
  478TP3      O13252   5.196   3.357   9.745  0.1038  0.0605 -0.7031
  478TP3     H113253   5.188   3.289   9.812 -0.0724  1.8512  1.1456
  478TP3     H213254   5.117   3.410   9.754  1.0553  1.5479 -0.9138
  479TP3      O13255   4.247   0.213   8.441  0.1596  0.1967 -0.9588
  479TP3     H113256   4.273   0.215   8.349 -0.0950  1.6033 -1.0062
  479TP3     H213257   4.202   0.296   8.456  1.9386  0.8687  0.9490
  480TP3      O13258   0.206   1.392   9.281  0.4120 -0.5843  0.0646
  480TP3     H113259   0.235   1.304   9.254 -0.2444 -0.2927 -1.6580
  480TP3     H213260   0.238   1.401   9.370 -0.3161 -2.9585  0.6103
  481TP3      O13261   4.885   4.723   7.868 -0.0256 -0.2508 -0.6026
  481TP3     H113262   4.821   4.707   7.937 -0.0863 -0.2259 -0.6537
  481TP3     H213263   4.948   4.783   7.908 -0.3681  0.2154 -0.7456
  482TP3      O13264   5.137   2.980   8.640  0.6604 -0.0057  0.7149
  482TP3     H113265   5.231   2.971   8.626  0.5432 -1.0485  0.5476
  482TP3     H213266   5.097   2.933   8.566  0.0272 -1.9621  2.2648
  483TP3      O13267   3.035   1.202   8.735  0.3539 -0.0111 -0.2541
  483TP3     H113268   3.082   1.125   8.701 -0.4439  0.2179 -1.9566
  483TP3     H213269   2.952   1.166   8.767  0.9128 -0.1610  1.0406
  484TP3      O13270   4.635   0.765   7.105 -0.1988  0.1731  0.6849
  484TP3     H113271   4.634   0.788   7.012 -0.0882 -0.9539  0.3935
  484TP3     H213272   4.635   0.849   7.150  1.4613  0.7619 -0.3531
  485TP3      O13273   3.085   5.071   8.290  0.4289  0.0400  0.0294
  485TP3     H113274   3.000   5.030   8.305  1.3154 -1.8124  0.1906
  485TP3     H213275   3.076   5.160   8.325 -1.4609 -0.0945 -0.0628
  486TP3      O13276   0.461   0.030   0.529  0.7954 -0.4230  0.2209
  486TP3     H113277   0.399   0.101   0.542  0.3852 -0.5901 -0.7745
  486TP3     H213278   0.523   0.063   0.464  0.1910 -1.2122 -0.7829
  487TP3      O13279   4.949   1.312   8.801  0.3321  0.3374  0.7433
  487TP3     H113280   4.987   1.307   8.889  0.3703  0.0617  0.7113
  487TP3     H213281   4.905   1.397   8.799  1.6482  1.0390  0.4968
  488TP3      O13282   3.940   0.526   6.814  0.0257 -0.0143  0.1595
  488TP3     H113283   3.869   0.577   6.774  1.0562 -1.2846 -3.4800
  488TP3     H213284   3.954   0.567   6.899 -1.4133  3.6502 -1.2858
  489TP3      O13285   3.801   0.422   7.062 -0.1890 -0.8117  0.1683
  489TP3     H113286   3.765   0.442   6.976  1.1511 -1.8224 -0.6459
  489TP3     H213287   3.859   0.495   7.081 -0.6683 -0.4697  0.3210
  490TP3      O13288   5.195   1.929   9.475  0.3041  0.1299  0.2169
  490TP3     H113289   5.112   1.917   9.427  0.3509  0.6759 -0.0054
  490TP3     H213290   5.193   2.021   9.503  1.3648  0.4883 -0.8164
  491TP3      O13291   0.452   1.595   7.965 -0.0525  0.6042 -0.5806
  491TP3     H113292   0.516   1.616   8.033  0.4380  1.0156 -1.1630
  491TP3     H213293   0.411   1.679   7.945  0.4103  0.6407 -1.3997
  492TP3      O13294   3.347   5.466   6.962  0.7479 -0.5661 -0.1039
  492TP3     H113295   3.368   5.409   6.888  1.0879 -0.7369  0.1221
  492TP3     H213296   3.252   5.461   6.971  0.9322 -2.5622  1.0767
  493TP3      O13297   3.964   1.103   8.877  0.4327 -0.1020 -0.4271
  493TP3     H113298   3.989   1.014   8.904 -1.7742 -1.0548 -1.3573
  493TP3     H213299   4.047   1.151   8.874  1.9401 -2.6275 -1.6912
  494TP3      O13300   5.143   0.706   7.368 -0.0722 -0.0272 -0.4713
  494TP3     H113301   5.048   0.692   7.359 -0.2222 -0.3604  1.3616
  494TP3     H213302   5.175   0.711   7.278 -1.8424  0.1398 -1.1156
  495TP3      O13303   5.128   0.921   9.906 -0.0510  0.0332  0.7878
  495TP3     H113304   5.189   0.848   9.908  0.1596  0.2325  1.9223
  495TP3     H213305   5.107   0.938   9.998 -0.1693  1.3453  0.5331
  496TP3      O13306   3.709   1.796   9.671  0.3561  0.1499 -0.4312
  496TP3     H113307   3.781   1.733   9.666 -0.7271 -1.0254 -1.8462
  496TP3     H213308   3.632   1.747   9.641 -0.8521  1.6460  0.1348
  497TP3      O13309   4.092   1.405   8.542  0.0169 -0.1778 -0.1892
  497TP3     H113310   4.041   1.406   8.623  0.3467 -1.6029  0.0545
  497TP3     H213311   4.040   1.352   8.482  0.8211 -0.9480 -0.2043
  498TP3      O13312   2.343   1.418   8.320 -0.1701 -0.5273  0.2757
  498TP3     H113313   2.308   1.333   8.346 -1.3350 -0.0897  0.1355
  498TP3     H213314   2.267   1.469   8.294  0.5776  0.3894 -0.1545
  499TP3      O13315   2.456   0.358   8.812 -0.6781  0.1887  0.0590
  499TP3     H113316   2.550   0.370   8.801 -0.5844  1.7193  2.2160
  499TP3     H213317   2.416   0.434   8.769 -0.9166 -0.1814 -0.3840
  500TP3      O13318   4.250   1.661   7.265  0.1656  0.1099  0.1148
  500TP3     H113319   4.251   1.610   7.184 -0.2366  1.4709 -0.7528
  500TP3     H213320   4.341   1.687   7.278  0.3135 -0.5190  0.3730
  501TP3      O13321   5.527   1.706   7.558  0.2137 -0.6872  0.4202
  501TP3     H113322   5.490   1.792   7.577  0.8178 -0.1574 -0.7874
  501TP3     H213323   5.568   1.715   7.472  1.1803 -1.8962  0.7362
  502TP3      O13324   1.238   2.202   8.803  0.4594 -0.5218 -0.0624
  502TP3     H113325   1.171   2.270   8.806 -0.3276 -1.0890 -3.0269
  502TP3     H213326   1.236   2.162   8.889 -2.4636 -0.0085  0.1544
  503TP3      O13327   4.097   1.145   7.601  0.0393  0.4528  0.1215
  503TP3     H113328   4.152   1.088   7.654  0.3662  1.4787  0.9007
  503TP3     H213329   4.107   1.112   7.511  0.3853 -0.5691  0.5354
  504TP3      O13330   4.006   1.501   7.316  1.0866 -0.4754 -0.6228
  504TP3     H113331   4.089   1.546   7.305  0.8800  0.6098  1.8465
  504TP3     H213332   3.941   1.559   7.276  1.1694  0.1118  0.0787
  505TP3      O13333   0.298   3.542   8.605  0.0375 -0.1870 -0.2155
  505TP3     H113334   0.248   3.461   8.615 -0.4590  0.0340 -0.8661
  505TP3     H213335   0.380   3.525   8.651 -0.1435 -0.9864 -0.1752
  506TP3      O13336   1.334   0.781   8.258  0.0200  0.1054 -0.0080
  506TP3     H113337   1.245   0.813   8.276  0.0443  0.6970 -0.8786
  506TP3     H213338   1.320   0.705   8.201  0.0568 -0.1370  0.3022
  507TP3      O13339   4.331   1.436   9.924 -0.1750  0.1364 -0.2513
  507TP3     H113340   4.422   1.464   9.912 -0.1177  0.0683  0.0175
  507TP3     H213341   4.293   1.439   9.836 -0.2525  1.3466 -0.1855
  508TP3      O13342   0.081   1.633   8.603  0.1828 -0.6235  0.2185
  508TP3     H113343  -0.008   1.624   8.635  0.5770 -0.0515  1.5113
  508TP3     H213344   0.136   1.624   8.681  1.2016 -0.0178 -0.4074
  509TP3      O13345   0.818   1.708   9.352  0.1061  0.4017  0.4328
  509TP3     H113346   0.811   1.658   9.434  1.0693 -0.5698 -0.0699
  509TP3     H213347   0.755   1.666   9.293 -0.1304  0.6991  0.4748
  510TP3      O13348   3.070   0.573   9.331  0.1530 -0.4615 -0.6351
  510TP3     H113349   3.104   0.646   9.280  0.6564 -0.1265  0.1760
  510TP3     H213350   2.983   0.602   9.359  1.1900  0.7227  1.4902
  511TP3      O13351   5.032   1.404   7.192  0.0142 -0.2266  0.4732
  511TP3     H113352   5.008   1.494   7.173  0.8712 -0.1928 -0.5374
  511TP3     H213353   4.954   1.365   7.232 -0.9315  0.4720 -0.6843
  512TP3      O13354   2.906   0.157   0.229  0.3214  0.6864  0.0625
  512TP3     H113355   2.912   0.124   0.318 -1.2881 -0.0048 -0.0483
  512TP3     H213356   2.843   0.229   0.234  1.0191  1.3308 -0.3363
  513TP3      O13357   4.859   2.758   0.848 -0.1334 -0.5085  0.4583
  513TP3     H113358   4.850   2.791   0.938  1.1264  2.7240 -0.5258
  513TP3     H213359   4.769   2.759   0.814 -0.3042  0.7649  0.8961
  514TP3      O13360   3.828   0.776   8.315 -0.2951 -0.1882 -0.2022
  514TP3     H113361   3.793   0.815   8.395 -0.6224  0.8078 -0.8244
  514TP3     H213362   3.849   0.850   8.259  0.8751 -0.8514 -0.6600
  515TP3      O13363   4.197   5.473   8.023 -0.7784 -0.2657 -0.8159
  515TP3     H113364   4.147   5.415   7.966 -2.0196  0.2928 -0.2985
  515TP3     H213365   4.159   5.461   8.110 -1.1310  1.3920 -0.7120
  516TP3      O13366   0.668   4.494   9.893  0.1266  0.0238 -0.0264
  516TP3     H113367   0.634   4.412   9.929  0.5488 -0.3203 -0.4194
  516TP3     H213368   0.590   4.546   9.874 -0.1293 -0.1611  0.5135
  517TP3      O13369   4.091   5.293   7.833 -0.1386 -0.9117  0.1424
  517TP3     H113370   4.003   5.296   7.794  0.1801  2.4241 -0.4710
  517TP3     H213371   4.148   5.271   7.759 -0.3827 -2.7225  0.4681
  518TP3      O13372   0.226   1.292   7.380 -0.2108  0.2951  0.3938
  518TP3     H113373   0.259   1.229   7.443 -0.0313  1.0924  1.0986
  518TP3     H213374   0.198   1.239   7.305  1.5494 -0.4767  0.2673
  519TP3      O13375   1.037   2.641   6.702 -0.3417 -0.2001  0.0269
  519TP3     H113376   1.085   2.672   6.778 -1.6367  0.2905  0.6563
  519TP3     H213377   1.011   2.552   6.726 -0.5705 -0.1206  0.0698
  520TP3      O13378   3.664   1.674   7.427  0.6895 -0.3615 -0.8307
  520TP3     H113379   3.719   1.683   7.349  0.7005  0.2427 -0.7584
  520TP3     H213380   3.633   1.584   7.424  2.3521 -0.9687 -0.4292
  521TP3      O13381   4.601   1.708   9.439  0.0068 -0.4840 -0.3075
  521TP3     H113382   4.591   1.764   9.516 -0.8533 -0.5110 -0.3937
  521TP3     H213383   4.589   1.619   9.472  1.0090 -0.6080 -0.2374
  522TP3      O13384   0.931   0.809   9.926  0.0321 -0.1224 -0.7707
  522TP3     H113385   0.868   0.737   9.931 -0.4981  0.1502 -2.7141
  522TP3     H213386   0.884   0.878   9.878  1.0862  0.8917 -0.3769
  523TP3      O13387   4.882   1.614   7.086 -0.2983  0.5762  0.0605
  523TP3     H113388   4.920   1.642   7.003  0.8443  1.8626  0.9872
  523TP3     H213389   4.838   1.692   7.120  0.4309  0.4528  1.3110
  524TP3      O13390   4.511   0.563   7.258 -0.2947  0.1448 -0.0256
  524TP3     H113391   4.493   0.612   7.339 -0.4253  2.2201 -1.2617
  524TP3     H213392   4.565   0.623   7.206  1.8115 -2.0961 -0.5160
  525TP3      O13393   0.276   0.901   8.291 -0.5547 -0.2316  0.3404
  525TP3     H113394   0.243   0.830   8.237  2.3816 -2.0225  0.7695
  525TP3     H213395   0.273   0.868   8.381  1.7440 -0.2790  0.4502
  526TP3      O13396   4.626   0.079   7.920  0.1667 -0.1938 -0.0308
  526TP3     H113397   4.539   0.087   7.882  0.8392  0.3708 -1.4757
  526TP3     H213398   4.651   0.168   7.942  1.0811 -0.1469 -1.2200
  527TP3      O13399   5.007   1.666   7.573  0.1323  0.4547  0.1368
  527TP3     H113400   5.086   1.675   7.519  0.1409 -1.5875 -0.2599
  527TP3     H213401   4.939   1.713   7.525  0.7344  0.8251 -0.3556
  528TP3      O13402   3.024   0.905   7.983  0.1287  0.4018  0.3483
  528TP3     H113403   2.932   0.897   7.959  1.0925 -0.0847 -3.4905
  528TP3     H213404   3.041   0.999   7.981 -0.4470  0.5498  1.8382
  529TP3      O13405   0.562   1.715   9.976  0.5570 -0.0470  0.0576
  529TP3     H113406   0.579   1.717  10.071 -0.8884 -0.0249  0.3306
  529TP3     H213407   0.646   1.691   9.937  1.4934  1.2498  1.2529
  530TP3      O13408   4.519   0.465   8.220 -0.2461  0.4130  0.5745
  530TP3     H113409   4.564   0.481   8.303 -1.1072  0.6514  1.0020
  530TP3     H213410   4.522   0.549   8.175  0.4534  0.2142  0.2493
  531TP3      O13411   0.455   2.907   7.497 -0.1335  0.0641 -0.6132
  531TP3     H113412   0.534   2.959   7.506 -0.5166  0.2868  1.9111
  531TP3     H213413   0.427   2.891   7.587 -0.8030 -3.3221 -1.3718
  532TP3      O13414   2.540   0.123   8.508 -0.1374 -0.1706 -0.1035
  532TP3     H113415   2.563   0.116   8.416  0.3231  1.0519 -0.0926
  532TP3     H213416   2.625   0.135   8.552 -0.2330 -2.0281  0.6132
  533TP3      O13417   3.975   1.455   7.761 -0.4992 -0.3953  0.4689
  533TP3     H113418   3.910   1.509   7.715 -0.3786  0.3832  1.2082
  533TP3     H213419   4.040   1.434   7.694  0.0260  1.2892  0.4433
  534TP3      O13420   4.587   2.044   8.194 -0.1553  0.3256  0.7588
  534TP3     H113421   4.531   2.023   8.269 -0.0198 -1.9115  0.2666
  534TP3     H213422   4.613   2.135   8.209 -4.2309  1.5650  0.7796
  535TP3      O13423   4.336   1.109   8.738 -0.0247  0.0257 -0.0337
  535TP3     H113424   4.367   1.188   8.694 -0.5581  1.2800  1.7564
  535TP3     H213425   4.366   1.037   8.683  1.8035  1.4164 -0.9047
  536TP3      O13426   5.526   2.829   9.004  0.0751 -0.5091 -0.4584
  536TP3     H113427   5.489   2.915   8.985 -0.4546 -0.8271 -0.8464
  536TP3     H213428   5.492   2.807   9.091  0.3164 -0.2706 -0.3007
  537TP3      O13429   2.637   0.865   9.492 -0.7797 -0.2535  0.1450
  537TP3     H113430   2.588   0.848   9.412  1.7267  0.6261 -1.6101
  537TP3     H213431   2.632   0.959   9.505  1.6682  0.0491 -0.8908
  538TP3      O13432   3.604   3.285   0.090  0.2027  0.1884  0.1885
  538TP3     H113433   3.598   3.277  -0.005 -0.8198  1.0368  0.1720
  538TP3     H213434   3.529   3.237   0.123  1.2000 -1.0926  0.6291
  539TP3      O13435   3.284   0.874  10.045  0.4930 -0.0112 -0.0944
  539TP3     H113436   3.246   0.915  10.123 -0.8642  0.4573 -0.9788
  539TP3     H213437   3.208   0.848   9.993  1.3720 -1.9733 -0.4155
  540TP3      O13438   3.639   5.314   8.213  0.5620  0.4870 -0.5580
  540TP3     H113439   3.720   5.349   8.174  0.8605  0.3592 -0.0579
  540TP3     H213440   3.641   5.221   8.193  0.5802  0.4676 -0.4651
  541TP3      O13441   4.558   1.600   7.760 -0.6277 -0.0744  0.7446
  541TP3     H113442   4.630   1.542   7.784  0.6182  0.2086 -2.1337
  541TP3     H213443   4.480   1.557   7.795  0.5260 -2.3110  0.6394
  542TP3      O13444   1.662   5.338   8.719 -0.4157 -0.1979 -0.0595
  542TP3     H113445   1.740   5.283   8.718 -0.8466 -0.8478 -2.9264
  542TP3     H213446   1.599   5.290   8.773 -0.4321 -2.0352 -1.6683
  543TP3      O13447   1.837   4.218   0.986  0.1481 -0.0028 -0.1574
  543TP3     H113448   1.902   4.240   0.919  1.4758  1.4243  1.5320
  543TP3     H213449   1.857   4.127   1.009  0.3426 -0.1666 -0.9559
  544TP3      O13450   4.346   0.275   8.216  0.2196  0.0985  0.8482
  544TP3     H113451   4.414   0.343   8.216 -2.3648  2.7822  1.3766
  544TP3     H213452   4.308   0.279   8.129 -1.8544  1.3633  1.7827
  545TP3      O13453   4.545   1.822   0.162  0.7222 -0.0953 -0.1056
  545TP3     H113454   4.573   1.734   0.188  1.2817  0.4605  1.2299
  545TP3     H213455   4.514   1.811   0.072 -2.6140 -2.3711  1.2177
  546TP3      O13456   4.515   1.392   0.210 -0.7102 -0.1525 -0.5647
  546TP3     H113457   4.426   1.374   0.241 -0.7873  0.1590 -0.6042
  546TP3     H213458   4.553   1.449   0.276 -0.5774 -0.1914 -0.6067
  547TP3      O13459   4.587   1.720   8.418 -0.0720  0.5883 -0.4005
  547TP3     H113460   4.510   1.666   8.398 -0.4100  0.6775  0.6627
  547TP3     H213461   4.560   1.809   8.397  0.7867  0.2738 -3.0399
  548TP3      O13462   5.195   0.737   8.919  0.2198 -0.2228 -0.0134
  548TP3     H113463   5.100   0.742   8.933 -0.0373  0.4634 -1.7818
  548TP3     H213464   5.205   0.745   8.824  2.0510 -0.4598  0.1369
  549TP3      O13465   4.703   2.249   0.538 -0.1767  0.0138  0.1092
  549TP3     H113466   4.778   2.191   0.523  0.0688  0.2444  0.4437
  549TP3     H213467   4.631   2.191   0.559 -0.1042 -0.2135 -0.2721
  550TP3      O13468   4.456   1.771   8.949 -0.1514  0.1816  0.3757
  550TP3     H113469   4.542   1.729   8.949 -0.6177 -0.7972 -0.2121
  550TP3     H213470   4.435   1.784   8.856 -1.0354 -0.4276  0.4843
  551TP3      O13471   4.283   1.018   9.518 -0.2268 -0.2277  0.2272
  551TP3     H113472   4.224   0.965   9.571  1.8706 -1.6677  1.1946
  551TP3     H213473   4.237   1.101   9.506 -2.6468 -1.4803  0.4888
  552TP3      O13474   0.040   2.076   9.530 -0.6896  0.0791  0.0654
  552TP3     H113475   0.124   2.077   9.576  0.2581  0.0517 -1.6326
  552TP3     H213476   0.023   2.168   9.510 -0.4096 -0.0378 -0.7351
  553TP3      O13477   3.866   1.780   8.675 -0.2289  0.1032 -0.4341
  553TP3     H113478   3.869   1.685   8.689  1.6233 -0.0918 -1.9927
  553TP3     H213479   3.873   1.791   8.580  2.5367  1.8811 -0.0788
  554TP3      O13480   3.881   4.989   8.634 -0.3502  0.0077 -0.4576
  554TP3     H113481   3.949   5.056   8.643 -0.3206 -0.2254  1.3632
  554TP3     H213482   3.826   5.019   8.562  0.7541  1.0157 -0.8961
  555TP3      O13483   5.099   1.630   8.401 -0.2575 -0.4013 -0.0050
  555TP3     H113484   5.013   1.640   8.360 -0.1960  1.2788  0.2200
  555TP3     H213485   5.151   1.702   8.365  1.4156 -2.0614 -0.9922
  556TP3      O13486   4.598   0.318   7.376 -0.2411 -0.2183 -0.0120
  556TP3     H113487   4.571   0.400   7.335  1.1868  0.2867  0.0232
  556TP3     H213488   4.629   0.264   7.304  1.8398  0.4987  0.3092
  557TP3      O13489   2.177   3.321   7.691 -0.0637  0.2504 -0.7549
  557TP3     H113490   2.242   3.388   7.669  0.1585  0.4909  0.5763
  557TP3     H213491   2.109   3.368   7.738  0.4937 -0.5885  0.9247
  558TP3      O13492   3.010   1.850   6.937 -0.2916 -0.2791 -0.7728
  558TP3     H113493   2.923   1.886   6.925 -0.8896 -1.4329  0.0137
  558TP3     H213494   3.005   1.799   7.018  0.7860 -1.3098 -1.3243
  559TP3      O13495   5.195   1.464  10.142 -0.1149 -0.7676 -0.7366
  559TP3     H113496   5.202   1.557  10.121 -0.8932 -1.2614 -3.3780
  559TP3     H213497   5.246   1.421  10.074 -1.4533 -2.3738 -0.7494
  560TP3      O13498   0.457   5.433   9.316  0.3950 -0.4789 -1.1610
  560TP3     H113499   0.430   5.387   9.395  2.1501  0.3770 -0.0376
  560TP3     H213500   0.416   5.384   9.244 -1.7704 -0.8532  0.2901
  561TP3      O13501   4.223   1.648   0.858 -0.2903 -0.4401  0.5529
  561TP3     H113502   4.150   1.586   0.852 -0.2599 -0.4841  0.6313
  561TP3     H213503   4.183   1.731   0.882 -0.8266  0.5102 -3.3673
  562TP3      O13504   5.497   0.607   7.148  0.4143  0.6014 -0.2355
  562TP3     H113505   5.489   0.589   7.241  1.7650 -0.0065 -0.2327
  562TP3     H213506   5.588   0.585   7.126  0.7069  2.6615 -1.2594
  563TP3      O13507   1.793   1.051   9.274  0.0785  0.1527  0.2581
  563TP3     H113508   1.813   1.008   9.191 -1.5952 -0.9817  0.4172
  563TP3     H213509   1.703   1.026   9.293  0.7195 -0.3478  2.8647
  564TP3      O13510   4.536   5.324   7.717  0.6114  0.0435 -0.1990
  564TP3     H113511   4.573   5.371   7.642 -1.7815  1.5669 -0.4944
  564TP3     H213512   4.483   5.255   7.679 -0.4989  0.7335  0.0451
  565TP3      O13513   0.236   0.574   7.424 -0.0322  0.4280  0.0973
  565TP3     H113514   0.198   0.535   7.503 -1.3959  0.4550 -0.5404
  565TP3     H213515   0.236   0.503   7.360  1.6018  0.2452  0.2749
  566TP3      O13516   4.722   5.265   8.135 -0.1080  0.3894 -0.1055
  566TP3     H113517   4.639   5.302   8.107 -1.0916 -1.2342  0.5675
  566TP3     H213518   4.779   5.340   8.152 -1.2618  1.4871 -1.1257
  567TP3      O13519   3.208   3.602   8.776  0.0706 -0.3403 -0.0754
  567TP3     H113520   3.233   3.542   8.706  0.7670  0.9886 -0.9928
  567TP3     H213521   3.267   3.677   8.766 -1.4415  0.9533  0.4085
  568TP3      O13522   0.991   1.099   7.892  0.1244 -0.2455  0.1506
  568TP3     H113523   1.076   1.123   7.855  0.0389 -0.4903 -0.2107
  568TP3     H213524   0.932   1.099   7.817 -0.4157  0.9413  0.5647
  569TP3      O13525   4.783   1.345   7.904 -0.1748  0.4079 -0.0928
  569TP3     H113526   4.800   1.380   7.817  1.1268 -0.4098 -0.1755
  569TP3     H213527   4.845   1.391   7.961 -1.0617  0.9849  0.4288
  570TP3      O13528   2.826   0.031   8.076  0.4305 -0.7128  0.1830
  570TP3     H113529   2.736   0.001   8.088  0.7054 -0.7555  2.4150
  570TP3     H213530   2.818   0.126   8.064  0.0685 -0.7631  0.0232
  571TP3      O13531   4.197   0.947   7.389  0.3559  0.6824 -0.9020
  571TP3     H113532   4.122   0.906   7.346  1.2481 -0.2810 -1.5832
  571TP3     H213533   4.245   0.874   7.428  1.4064  1.1838 -1.2248
  572TP3      O13534   3.093   4.760   7.144  0.2056  0.6097  1.0147
  572TP3     H113535   3.052   4.740   7.228  0.6054  1.3547  1.3970
  572TP3     H213536   3.071   4.686   7.087 -0.6188  0.4181  1.5836
  573TP3      O13537   2.849   0.473   8.221 -0.5847  0.5015 -0.1039
  573TP3     H113538   2.868   0.442   8.310 -0.1005 -0.4151 -0.5198
  573TP3     H213539   2.820   0.563   8.233  0.2445  0.6410  0.9189
  574TP3      O13540   3.899   0.092   7.417 -0.2341  0.0596 -0.6485
  574TP3     H113541   3.840   0.136   7.356 -0.3010 -0.4288 -0.9396
  574TP3     H213542   3.919   0.008   7.375  0.3557  0.0597 -0.3685
  575TP3      O13543   4.839   2.109   7.417  0.0911  0.1885 -0.0429
  575TP3     H113544   4.794   2.080   7.337  0.1580  0.1779 -0.0763
  575TP3     H213545   4.930   2.081   7.405  0.0237 -0.1319  0.1971
  576TP3      O13546   3.406   1.233   7.309 -0.0287  0.0582  0.2132
  576TP3     H113547   3.442   1.174   7.243 -2.5897  0.4671 -1.6411
  576TP3     H213548   3.354   1.176   7.367 -0.4009  0.1278 -0.0489
  577TP3      O13549   4.797   3.880   9.449 -0.8487  0.0798 -0.2140
  577TP3     H113550   4.775   3.967   9.484 -0.9432  0.5621 -1.4294
  577TP3     H213551   4.884   3.891   9.411  1.1402 -1.5534  3.6086
  578TP3      O13552   5.173   0.768   7.984 -0.4551 -0.2794 -0.4375
  578TP3     H113553   5.183   0.814   7.901 -0.4740  1.0877  0.3046
  578TP3     H213554   5.112   0.821   8.034  1.5059  0.3108  1.4326
  579TP3      O13555   5.457   0.117   9.528  0.3069 -0.2633 -0.4143
  579TP3     H113556   5.401   0.191   9.550 -0.0721 -0.8117  0.4754
  579TP3     H213557   5.430   0.092   9.440  2.0313  2.1330 -1.6816
  580TP3      O13558   4.498   2.338   8.132 -0.3098  0.4350 -0.2250
  580TP3     H113559   4.553   2.412   8.105  0.4762  0.2339  0.7754
  580TP3     H213560   4.487   2.286   8.052 -1.9882  2.3102 -1.2521
  581TP3      O13561   1.542   0.112   7.297 -0.1449  0.5447  0.7742
  581TP3     H113562   1.544   0.186   7.357  1.2282  0.0926  1.3212
  581TP3     H213563   1.451   0.082   7.298 -0.7992  2.4323  0.2573
  582TP3      O13564   2.038   3.629   8.077  0.2492  0.3116  0.2422
  582TP3     H113565   2.016   3.573   8.002 -0.4021 -0.3038  0.8914
  582TP3     H213566   2.133   3.626   8.082  0.2394 -0.3751 -0.0075
  583TP3      O13567   3.958   2.334   8.166  0.2914  0.4373  0.4659
  583TP3     H113568   3.952   2.427   8.144  0.1643  0.3606  0.1771
  583TP3     H213569   4.049   2.311   8.149  0.1672  0.3514 -0.0859
  584TP3      O13570   0.346   2.486   8.804 -0.2551 -0.1391 -0.3924
  584TP3     H113571   0.432   2.508   8.839 -1.2689  0.0230  2.1312
  584TP3     H213572   0.364   2.434   8.726  2.1153  1.3671 -0.9102
  585TP3      O13573   4.757   2.876   9.594 -0.2547  0.0359  0.1498
  585TP3     H113574   4.669   2.873   9.632 -0.7853 -0.9195 -1.1088
  585TP3     H213575   4.803   2.803   9.637 -0.1881  0.3093  0.5437
  586TP3      O13576   4.203   1.395   7.637 -0.5725 -0.2305  0.8003
  586TP3     H113577   4.278   1.387   7.578 -1.1522  1.9078 -0.2596
  586TP3     H213578   4.151   1.316   7.620  0.0102 -0.3493 -0.4951
  587TP3      O13579   3.193   0.721   7.877 -0.2997  0.2751  0.1326
  587TP3     H113580   3.130   0.652   7.856  0.2123 -0.4374  0.9162
  587TP3     H213581   3.140   0.793   7.910 -0.6834 -0.4699  1.1665
  588TP3      O13582   2.716   0.462   7.706 -0.2161  0.0677  0.1478
  588TP3     H113583   2.763   0.542   7.682  0.4778 -0.3739  0.0044
  588TP3     H213584   2.671   0.436   7.625 -0.1094  0.0867  0.0820
  589TP3      O13585   0.790   2.118   7.562 -0.1243 -0.6802 -0.7427
  589TP3     H113586   0.713   2.175   7.560 -0.1042 -0.6006  0.3725
  589TP3     H213587   0.755   2.031   7.581  0.0888 -0.5885  0.0738
  590TP3      O13588   2.265   5.204   9.879  0.0137  0.3083  0.0245
  590TP3     H113589   2.325   5.203   9.804  1.8484  0.2007  1.4646
  590TP3     H213590   2.240   5.112   9.890  1.1506  0.0600  0.6270
  591TP3      O13591   1.100   0.162   0.508 -0.0680 -0.5739 -0.2871
  591TP3     H113592   1.048   0.176   0.429  0.3748  0.5922 -0.3856
  591TP3     H213593   1.104   0.248   0.550 -0.2590 -1.1731  0.9854
  592TP3      O13594   5.415   0.647   0.630 -0.0359  0.0947 -0.7692
  592TP3     H113595   5.348   0.697   0.677 -0.6988 -0.7220 -0.8200
  592TP3     H213596   5.490   0.706   0.624 -0.4626  0.7271  0.0217
  593TP3      O13597   0.775   1.078   7.660  0.4444 -0.2422 -0.0697
  593TP3     H113598   0.700   1.068   7.719 -1.1826 -1.4988 -2.2210
  593TP3     H213599   0.763   1.165   7.622  1.3926  0.4947  1.3002
  594TP3      O13600   3.416   0.499   7.584 -0.8188 -0.5958 -0.0446
  594TP3     H113601   3.484   0.488   7.518 -2.0178 -1.3686 -1.1648
  594TP3     H213602   3.338   0.459   7.546 -1.7059 -0.4482  1.5553
  595TP3      O13603   0.480   0.254   7.614 -0.1251 -0.3828  0.2729
  595TP3     H113604   0.422   0.179   7.601 -1.4391  0.3663  1.6882
  595TP3     H213605   0.567   0.220   7.593 -0.5648 -2.5632  1.7974
  596TP3      O13606   0.217   0.392   7.229 -0.4167  0.2880  0.3539
  596TP3     H113607   0.156   0.331   7.188 -2.2696  1.2048  1.6624
  596TP3     H213608   0.218   0.468   7.170  0.7831 -0.4000 -0.5332
  597TP3      O13609   4.866   1.759   8.976  0.3213  0.3349 -0.0873
  597TP3     H113610   4.804   1.740   9.047  2.5214  0.6864  2.0319
  597TP3     H213611   4.879   1.854   8.981 -2.4124  0.9660 -3.5431
  598TP3      O13612   3.877   2.284   7.235 -0.1477 -0.8210 -0.0113
  598TP3     H113613   3.884   2.280   7.140 -1.3637  1.0359 -0.1932
  598TP3     H213614   3.805   2.225   7.257  1.5944 -3.0347  0.0016
  599TP3      O13615   0.008   1.250   6.959  0.5551 -0.0614 -0.1394
  599TP3     H113616   0.044   1.206   6.881 -0.1737 -1.2747  0.2034
  599TP3     H213617  -0.087   1.243   6.950  0.3851  2.2101 -0.4993
  600TP3      O13618   5.212   2.686   7.600 -0.1736  0.2827  0.3901
  600TP3     H113619   5.227   2.670   7.507 -1.9081  0.4883  0.0594
  600TP3     H213620   5.288   2.646   7.644  0.4767 -0.1248 -1.0757
  601TP3      O13621   4.089   5.192   8.327  0.1314 -0.1779 -0.0301
  601TP3     H113622   4.037   5.171   8.404  0.8128  0.5028  0.6212
  601TP3     H213623   4.061   5.281   8.303 -0.1978 -0.4486 -0.6693
  602TP3      O13624   3.809   4.296   9.461 -0.0294 -0.2409 -0.1667
  602TP3     H113625   3.855   4.365   9.413  1.6678 -1.5403 -0.4691
  602TP3     H213626   3.826   4.315   9.553  0.4479 -0.2820 -0.2477
  603TP3      O13627   4.487   1.404   6.714  0.2907 -0.0465  0.1506
  603TP3     H113628   4.409   1.459   6.713  0.1138 -0.3060 -0.1868
  603TP3     H213629   4.454   1.316   6.732  0.4633 -0.2246 -0.4070
  604TP3      O13630   4.557   1.004   0.180  0.3391  0.2429 -0.1019
  604TP3     H113631   4.623   1.068   0.204  0.6983  0.1615 -0.8711
  604TP3     H213632   4.555   1.005   0.084 -1.5488  1.0377 -0.0823
  605TP3      O13633   5.254   2.308   8.617  0.2349  0.6038 -0.7542
  605TP3     H113634   5.240   2.215   8.630 -2.9206  0.9181 -1.5006
  605TP3     H213635   5.278   2.315   8.524  0.7464  0.5031 -0.6295
  606TP3      O13636   4.372   3.008   9.330 -0.1138  0.0483 -0.3933
  606TP3     H113637   4.408   3.087   9.288 -0.0432  1.2463  1.8222
  606TP3     H213638   4.413   2.935   9.285  0.8557  1.3214 -1.5884
  607TP3      O13639   2.497   2.958   8.000 -0.3321 -0.4512 -0.5751
  607TP3     H113640   2.479   2.867   8.023 -2.2953 -0.1104 -0.6443
  607TP3     H213641   2.438   2.976   7.927  0.0511  0.8623 -0.5654
  608TP3      O13642   1.051   1.598   9.986 -0.6009  0.1220  0.2962
  608TP3     H113643   1.127   1.541   9.996 -0.2696 -0.0603 -2.8900
  608TP3     H213644   1.068   1.670  10.047  0.8714 -1.1676  1.4680
  609TP3      O13645   1.081   2.976   7.967 -0.5530 -0.2037  0.4212
  609TP3     H113646   1.136   3.051   7.987 -1.3654  0.2788  0.8699
  609TP3     H213647   1.020   3.007   7.901  0.7094 -1.1803 -1.2528
  610TP3      O13648   0.562   3.467   8.767 -0.1570 -0.0399 -0.1088
  610TP3     H113649   0.549   3.374   8.745  1.2403  0.0712 -1.4948
  610TP3     H213650   0.569   3.468   8.862  1.1651 -1.5448 -0.1722
  611TP3      O13651   4.534   2.979   7.533 -0.0406 -0.0366  0.0627
  611TP3     H113652   4.602   2.925   7.573  0.0587  0.9876  1.3333
  611TP3     H213653   4.452   2.937   7.558  0.1016 -0.8941 -0.9008
  612TP3      O13654   0.879   2.846   8.099 -0.3344 -0.7423  0.3574
  612TP3     H113655   0.941   2.913   8.072 -0.8509 -0.0376  0.8944
  612TP3     H213656   0.882   2.848   8.195 -1.9846  0.0725  0.4165
  613TP3      O13657   5.293   3.320   7.469 -0.4315  0.6152  0.1118
  613TP3     H113658   5.213   3.268   7.478  1.4160 -2.5315 -0.8901
  613TP3     H213659   5.329   3.293   7.384  1.8289  1.8093  0.6636
  614TP3      O13660   1.473   2.585   7.054  0.2688 -0.4881 -1.0504
  614TP3     H113661   1.555   2.567   7.007 -0.1555 -1.1918 -1.5121
  614TP3     H213662   1.444   2.669   7.018  1.6708  0.6170  0.3325
  615TP3      O13663   0.625   1.981   9.514 -0.1776 -0.7827 -0.0213
  615TP3     H113664   0.558   1.938   9.462  0.2699  0.1533 -1.4175
  615TP3     H213665   0.577   2.034   9.578 -0.7373 -1.6819  0.3005
  616TP3      O13666   1.138   2.482   8.844 -0.2151 -0.0537 -0.5445
  616TP3     H113667   1.129   2.443   8.931 -0.8523 -0.2882 -0.7147
  616TP3     H213668   1.071   2.550   8.842  1.8733  2.1067  0.3140
  617TP3      O13669   5.376   1.920   8.612 -0.6283  0.0515 -0.2212
  617TP3     H113670   5.458   1.894   8.570 -1.7787 -2.1585 -1.1777
  617TP3     H213671   5.403   1.969   8.689  1.5722  0.5694 -1.2885
  618TP3      O13672   5.515   3.175   8.125 -0.1002  0.7132 -0.3595
  618TP3     H113673   5.572   3.226   8.182  1.5165 -0.1866 -1.1315
  618TP3     H213674   5.466   3.118   8.184 -0.5123  1.7770  0.3451
  619TP3      O13675   4.676   2.729   7.595  0.2885  0.2858  0.1404
  619TP3     H113676   4.628   2.654   7.560  1.7999 -0.8177  0.3834
  619TP3     H213677   4.768   2.712   7.572  1.1552  0.2129  3.3449
  620TP3      O13678   0.534   2.268   8.163 -0.0819 -0.3184 -0.0694
  620TP3     H113679   0.606   2.223   8.207  1.0049 -1.1622 -2.6337
  620TP3     H213680   0.575   2.312   8.089 -1.6301  2.3574  0.5799
  621TP3      O13681   3.914   3.098   8.099 -0.2512 -0.1950  0.4807
  621TP3     H113682   3.991   3.149   8.073 -0.3910 -0.0246  0.4013
  621TP3     H213683   3.950   3.018   8.137 -0.0456 -0.9778 -1.2873
  622TP3      O13684   1.127   0.774   7.843 -0.6114  0.2469  0.3425
  622TP3     H113685   1.065   0.735   7.905 -2.9087 -0.5070 -2.3391
  622TP3     H213686   1.159   0.700   7.792  1.6394  0.8028  0.8992
  623TP3      O13687   5.497   2.107   8.803  0.3888  0.9360  0.9322
  623TP3     H113688   5.498   2.064   8.888  1.2899  1.6997  1.3143
  623TP3     H213689   5.587   2.136   8.789  0.0946  1.4664  0.0529
  624TP3      O13690   2.982   2.416   8.169 -0.7152 -0.1669  0.6160
  624TP3     H113691   2.903   2.454   8.132 -1.2625 -0.7375  1.1935
  624TP3     H213692   3.031   2.383   8.093 -2.1071 -1.8745  0.4434
  625TP3      O13693   1.152   2.807   8.197  0.2602 -0.5764  1.1144
  625TP3     H113694   1.115   2.832   8.112 -1.1417  0.6243  2.0487
  625TP3     H213695   1.191   2.887   8.231 -0.1906 -0.7709  2.1003
  626TP3      O13696   0.950   2.255   6.417  0.0132 -0.6363 -0.2770
  626TP3     H113697   0.914   2.341   6.398  2.0555  0.5633  1.1726
  626TP3     H213698   0.909   2.228   6.499  0.4426 -0.4066  0.0161
  627TP3      O13699   5.466   4.288   7.164  0.1772 -0.6331 -0.1435
  627TP3     H113700   5.559   4.312   7.161 -0.4698  2.1347  0.1193
  627TP3     H213701   5.440   4.301   7.255 -0.6748 -0.4684 -0.4012
  628TP3      O13702   0.961   3.000   6.722 -0.1037  0.7028  0.5320
  628TP3     H113703   1.012   3.080   6.738 -0.3729  0.6545  1.7031
  628TP3     H213704   1.022   2.942   6.676 -0.1840  1.9009 -1.1372
  629TP3      O13705   3.054   3.147   7.507  0.2463  0.2190  0.1054
  629TP3     H113706   3.071   3.148   7.602 -2.0071 -0.6442  0.5654
  629TP3     H213707   3.034   3.056   7.488  0.5986  0.4158 -1.1949
  630TP3      O13708   0.549   1.997   9.812  0.1854  0.0086 -0.1035
  630TP3     H113709   0.609   1.922   9.814 -0.5113 -0.6004 -1.2090
  630TP3     H213710   0.605   2.073   9.800  0.9672 -0.2447  1.7607
  631TP3      O13711   0.611   4.082   9.793  0.1011 -0.1729  0.4164
  631TP3     H113712   0.603   4.017   9.863 -0.8385 -1.1693 -0.5948
  631TP3     H213713   0.641   4.031   9.717 -0.3181  0.6346 -0.2975
  632TP3      O13714   1.115   5.125   7.962  0.0426 -0.0465 -0.3038
  632TP3     H113715   1.182   5.178   8.006 -0.6539  1.5584 -1.1559
  632TP3     H213716   1.035   5.141   8.011  0.0407 -1.1785  0.0913
  633TP3      O13717   0.858   3.478   7.239  0.3446 -0.3602 -0.4708
  633TP3     H113718   0.790   3.474   7.172 -0.7531  1.3516  0.4887
  633TP3     H213719   0.905   3.559   7.221  2.2129 -1.5703 -1.1740
  634TP3      O13720   1.736   3.266   7.418  0.5538  1.0105 -0.4212
  634TP3     H113721   1.713   3.357   7.435  0.4368  0.5286  2.2561
  634TP3     H213722   1.757   3.230   7.504  0.8560 -1.4264 -1.4650
  635TP3      O13723   1.895   3.037   7.923 -0.2581 -0.2253 -0.2009
  635TP3     H113724   1.980   3.024   7.964 -0.4827 -1.8812 -0.2205
  635TP3     H213725   1.849   3.097   7.982  0.8123  0.4622 -0.0563
  636TP3      O13726   5.218   2.902   8.003  0.1497 -0.2678  0.1145
  636TP3     H113727   5.214   2.898   7.907  1.8757 -0.7307  0.0396
  636TP3     H213728   5.298   2.951   8.022  0.3763 -1.0758  1.3250
  637TP3      O13729   0.145   3.408   8.177  0.1647  0.7442  0.2207
  637TP3     H113730   0.196   3.402   8.096  0.6512 -0.4183  0.5995
  637TP3     H213731   0.211   3.415   8.246 -0.2029  0.0839  0.6454
  638TP3      O13732   2.432   3.283   8.957  0.3281 -0.2427  0.0719
  638TP3     H113733   2.472   3.203   8.993 -2.9641 -1.1647  1.9097
  638TP3     H213734   2.369   3.251   8.892 -0.0005  0.9568 -0.2144
  639TP3      O13735   4.842   4.787   8.679 -0.3513 -0.0957 -0.5821
  639TP3     H113736   4.809   4.744   8.599 -0.3322 -0.0682 -0.6067
  639TP3     H213737   4.802   4.738   8.750 -1.6008  0.8544 -0.6089
  640TP3      O13738   1.031   2.220   7.633  0.5623 -0.8800  0.3406
  640TP3     H113739   0.952   2.169   7.611  0.9205 -1.2127 -0.1994
  640TP3     H213740   1.096   2.190   7.570  0.8013  0.2070  0.0739
  641TP3      O13741   2.333   3.906   8.547 -0.0796 -0.1985  0.7441
  641TP3     H113742   2.295   3.835   8.496  0.2370 -0.2286  0.5484
  641TP3     H213743   2.424   3.912   8.517 -0.0840  0.2405  0.8064
  642TP3      O13744   1.690   3.544   9.746  0.2711 -0.3552 -0.3568
  642TP3     H113745   1.643   3.625   9.728 -0.3718 -0.8420 -0.9032
  642TP3     H213746   1.751   3.536   9.672  1.6556  0.5894  0.6617
  643TP3      O13747   0.468   4.770   8.926  0.3428 -0.7702 -0.2489
  643TP3     H113748   0.421   4.845   8.890 -0.8344 -2.5006 -2.4446
  643TP3     H213749   0.558   4.782   8.897  0.0540 -0.4646 -1.0410
  644TP3      O13750   0.185   2.310   7.534 -0.2311  0.2731  0.0096
  644TP3     H113751   0.250   2.246   7.507 -0.0797 -0.1186  1.2564
  644TP3     H213752   0.222   2.350   7.613 -1.1730  0.5445  0.3219
  645TP3      O13753   5.319   2.309   8.297 -0.3993 -0.1530 -0.2936
  645TP3     H113754   5.331   2.228   8.248  0.1232  0.1428 -0.6576
  645TP3     H213755   5.408   2.335   8.322 -0.4659  0.9280 -1.1714
  646TP3      O13756   5.392   1.037   7.290 -0.8288  0.0707  0.2286
  646TP3     H113757   5.431   0.974   7.350 -1.0324  0.6254  0.9555
  646TP3     H213758   5.445   1.031   7.211  0.9500  1.0765  1.3228
  647TP3      O13759   1.060   3.940   9.124 -0.2047 -0.1534 -0.0693
  647TP3     H113760   1.126   3.950   9.193 -1.7125  1.3465  1.1868
  647TP3     H213761   0.982   3.982   9.159 -1.4530 -0.7167 -2.0923
  648TP3      O13762   2.055   2.026   6.889  0.3317  0.0515  0.5790
  648TP3     H113763   2.131   2.007   6.834 -0.3718 -1.5201  0.1427
  648TP3     H213764   2.088   2.021   6.978  0.8018 -0.3365  0.3833
  649TP3      O13765   0.082   2.351   8.191  0.0500 -0.3661 -0.1519
  649TP3     H113766   0.055   2.300   8.115 -1.8708  1.3599 -0.6596
  649TP3     H213767   0.063   2.442   8.167  0.6689  0.3228  1.8812
  650TP3      O13768   5.353   4.667   7.954 -0.2032  0.0606  0.0329
  650TP3     H113769   5.446   4.650   7.942 -0.1214 -0.9129  1.9426
  650TP3     H213770   5.321   4.688   7.866  1.4503 -1.4188 -0.9373
  651TP3      O13771   4.453   4.841   9.035 -0.1038 -0.1437 -0.2546
  651TP3     H113772   4.423   4.839   9.126 -0.6147 -1.7054 -0.4373
  651TP3     H213773   4.414   4.921   8.998  1.9416  1.6961  1.4913
  652TP3      O13774   0.440   3.858   7.400 -0.3422  0.3031  0.1494
  652TP3     H113775   0.523   3.828   7.365  0.0391 -0.0889  1.3761
  652TP3     H213776   0.461   3.941   7.443 -0.9313  1.1175 -1.0948
  653TP3      O13777   2.760   2.786   9.505 -0.4678  0.0941 -0.0648
  653TP3     H113778   2.681   2.754   9.549  0.5821 -0.8280  1.2083
  653TP3     H213779   2.794   2.853   9.564  0.1475 -0.1110 -0.1822
  654TP3      O13780   2.164   2.454   8.247 -0.6433 -0.4530  0.0131
  654TP3     H113781   2.081   2.477   8.287 -0.6024 -0.8007  0.3026
  654TP3     H213782   2.161   2.493   8.160 -1.2969 -0.8607 -0.1451
  655TP3      O13783   0.535   1.484   6.939  0.3135  0.8099 -0.6043
  655TP3     H113784   0.462   1.490   7.001 -0.7413  2.9395 -1.9796
  655TP3     H213785   0.610   1.519   6.987  0.2367 -0.4884  0.4945
  656TP3      O13786   1.276   3.445   7.250 -0.0694  0.4612 -0.2291
  656TP3     H113787   1.371   3.442   7.241 -0.1278 -1.8054 -0.3819
  656TP3     H213788   1.250   3.526   7.206  1.3988 -1.0517 -4.0649
  657TP3      O13789   4.140   4.366   8.528 -0.6454  0.3814  0.4507
  657TP3     H113790   4.089   4.397   8.453  1.7008 -0.7922 -1.6793
  657TP3     H213791   4.113   4.275   8.540 -1.7728  0.8631  1.7330
  658TP3      O13792   4.839   3.810   7.196 -0.0591 -0.0095 -0.1074
  658TP3     H113793   4.817   3.731   7.146  0.9580  0.2332 -0.9486
  658TP3     H213794   4.935   3.812   7.196 -0.0817  1.0676  0.1712
  659TP3      O13795   1.873   5.244   7.848 -0.1297  0.4155 -0.4585
  659TP3     H113796   1.815   5.183   7.894 -1.0916  1.6816  0.0186
  659TP3     H213797   1.944   5.260   7.910 -0.5668  0.8187 -0.0576
  660TP3      O13798   2.726   3.405  10.203  0.6989  0.0790  0.4693
  660TP3     H113799   2.711   3.494  10.236  1.8084 -0.1991  1.7467
  660TP3     H213800   2.766   3.418  10.117  1.3486  0.8272  0.8713
  661TP3      O13801   2.998   3.107   7.798  0.2984 -0.4233  0.7415
  661TP3     H113802   2.911   3.102   7.759  1.1468  0.5737 -1.3601
  661TP3     H213803   3.001   3.192   7.841  0.8844  0.3685 -0.8413
  662TP3      O13804   1.797   3.075   6.794 -0.2593 -0.2973 -0.3126
  662TP3     H113805   1.723   3.030   6.834 -1.3708 -0.0765 -2.0984
  662TP3     H213806   1.783   3.067   6.700  1.2684  0.9266 -0.6740
  663TP3      O13807   2.249   0.823  10.024  0.4147  0.0703  0.5909
  663TP3     H113808   2.252   0.833   9.929  0.6914 -1.6383  0.4063
  663TP3     H213809   2.233   0.911  10.057 -2.4658  0.2495 -1.1690
  664TP3      O13810   0.172   2.012   7.294 -0.0271 -0.0308  0.2563
  664TP3     H113811   0.128   2.058   7.224  0.0717 -2.2418 -1.3194
  664TP3     H213812   0.128   1.927   7.299  0.9057 -0.4541  1.8864
  665TP3      O13813   2.711   2.733   7.439 -0.1358  0.1611 -0.0066
  665TP3     H113814   2.641   2.709   7.500 -0.9510 -0.0093 -1.0010
  665TP3     H213815   2.779   2.667   7.452 -0.1475  0.3401  0.9787
  666TP3      O13816   2.180   4.351   7.519  0.4462  0.4668  0.4271
  666TP3     H113817   2.137   4.282   7.469  3.5945 -0.7550 -0.7557
  666TP3     H213818   2.160   4.432   7.473 -2.2911  0.2403  1.1457
  667TP3      O13819   1.361   2.639   7.528 -0.4976 -0.5035  0.4443
  667TP3     H113820   1.320   2.578   7.590 -1.2264 -0.5540 -0.0817
  667TP3     H213821   1.397   2.708   7.583 -2.1438  0.0452  0.8753
  668TP3      O13822   1.362   4.794   8.013 -0.0989  0.6107  0.4117
  668TP3     H113823   1.316   4.718   7.978  0.0215  0.1949  1.1296
  668TP3     H213824   1.431   4.757   8.069 -0.7310  1.2453  1.6366
  669TP3      O13825   5.126   1.206   7.870 -0.4403 -0.1816  0.2988
  669TP3     H113826   5.199   1.147   7.851 -0.9400 -0.0306 -2.2722
  669TP3     H213827   5.134   1.224   7.964  3.1758  0.2678 -0.0129
  670TP3      O13828   5.367   2.277   7.813 -0.5363  1.0470  0.1997
  670TP3     H113829   5.282   2.249   7.847 -0.6771 -1.1016 -1.8123
  670TP3     H213830   5.414   2.196   7.795  0.9121  2.1623 -1.2334
  671TP3      O13831   2.993   4.854   7.850 -0.1697 -0.1753  0.1356
  671TP3     H113832   2.928   4.918   7.880 -2.2379 -2.0648 -0.2421
  671TP3     H213833   2.951   4.769   7.860  2.1486 -1.4432 -0.3793
  672TP3      O13834   2.169   5.327   8.381  0.2593  0.8971  0.0185
  672TP3     H113835   2.201   5.382   8.452 -2.6845  1.6404  0.8244
  672TP3     H213836   2.095   5.376   8.344 -0.0239 -0.7745 -1.7384
  673TP3      O13837   1.020   1.387   9.461  0.3880  0.3271 -0.1975
  673TP3     H113838   1.069   1.449   9.515  0.5478  0.1288 -0.1138
  673TP3     H213839   1.018   1.306   9.513  0.0271  0.3149 -0.2287
  674TP3      O13840   1.072   2.543   7.073 -0.4745 -0.2121  0.1800
  674TP3     H113841   1.131   2.541   7.148  0.3625 -1.3952 -0.4919
  674TP3     H213842   1.121   2.592   7.006 -1.0546  0.4958  0.2708
  675TP3      O13843   5.517   3.710   7.542 -0.4751  0.7102  0.3008
  675TP3     H113844   5.601   3.669   7.560 -0.9090 -0.1151  0.4510
  675TP3     H213845   5.453   3.639   7.551 -1.0197  0.9597 -1.3839
  676TP3      O13846   0.863   3.061   7.816 -0.1690 -0.0164  0.3610
  676TP3     H113847   0.780   3.029   7.851  0.3243 -1.0352  0.6483
  676TP3     H213848   0.843   3.147   7.780 -1.4537 -0.4635 -0.0186
  677TP3      O13849   4.783   3.700   8.680 -0.3346 -0.4393  0.1512
  677TP3     H113850   4.767   3.608   8.662  0.1958 -0.6551  0.7928
  677TP3     H213851   4.857   3.701   8.740 -0.9050  0.3611  0.8511
  678TP3      O13852   2.430   3.914   9.655  0.3000 -0.4460 -0.4116
  678TP3     H113853   2.447   3.851   9.584 -1.0420 -2.5459  1.0550
  678TP3     H213854   2.451   3.865   9.735 -1.0336  0.8943  0.7831
  679TP3      O13855   1.126   2.232   7.274 -0.3324  0.4710  0.2146
  679TP3     H113856   1.126   2.171   7.201 -2.7407  2.5601 -1.6160
  679TP3     H213857   1.209   2.280   7.266  0.2116 -0.5045 -0.0585
  680TP3      O13858   5.285   2.535   9.487  0.2250 -0.1978  0.3623
  680TP3     H113859   5.267   2.629   9.479  2.0376  0.0170 -1.7751
  680TP3     H213860   5.236   2.495   9.415  1.1307 -0.6215 -0.0337
  681TP3      O13861   1.258   2.084   7.516  0.2408 -0.0277  0.1038
  681TP3     H113862   1.293   2.004   7.555  0.1526  0.4473  1.1719
  681TP3     H213863   1.200   2.054   7.446 -0.3549 -0.9228  0.9716
  682TP3      O13864   0.685   2.685   8.409 -0.2942  0.4471  0.0682
  682TP3     H113865   0.624   2.754   8.433  0.6834  1.4830 -0.4184
  682TP3     H213866   0.770   2.729   8.401  0.6895 -1.0936  1.5373
  683TP3      O13867   1.680   3.144  10.233  0.5505  0.2719 -0.1352
  683TP3     H113868   1.672   3.148  10.138 -0.0005  1.2052 -0.0619
  683TP3     H213869   1.615   3.208  10.265 -0.5163 -1.2824  0.9045
  684TP3      O13870   2.063   2.881   7.157  0.1676 -0.1813  0.7878
  684TP3     H113871   2.009   2.863   7.234 -0.0273 -0.2328  0.6418
  684TP3     H213872   2.008   2.853   7.083  0.1910  0.2452  0.6080
  685TP3      O13873   4.924   4.840   8.279  0.3673 -1.0298  0.5058
  685TP3     H113874   4.986   4.840   8.206 -0.7262 -1.6907 -0.4352
  685TP3     H213875   4.930   4.928   8.316 -0.7295  0.0559 -1.8169
  686TP3      O13876   1.867   2.859   7.704  0.3635  0.0729  0.1480
  686TP3     H113877   1.871   2.915   7.781 -0.0326  0.1130  0.1432
  686TP3     H213878   1.952   2.870   7.661  1.1753 -1.1702  1.4133
  687TP3      O13879   5.320   1.884  10.087 -0.1572 -1.0288 -0.6893
  687TP3     H113880   5.291   1.969  10.055  0.3252 -0.1924  1.0061
  687TP3     H213881   5.413   1.880  10.063 -0.2090 -1.1339 -0.8755
  688TP3      O13882   1.589   2.661   7.297  0.4206 -0.1040  0.0505
  688TP3     H113883   1.544   2.642   7.214  0.7527 -0.0259 -0.1466
  688TP3     H213884   1.528   2.630   7.364  0.1586 -0.1879 -0.2222
  689TP3      O13885   1.717   2.177  10.172 -0.2074  0.3648 -0.3023
  689TP3     H113886   1.746   2.203  10.259  0.2947 -0.9461 -0.0673
  689TP3     H213887   1.778   2.221  10.112  0.6508 -0.2845  0.0850
  690TP3      O13888   2.383   2.972   7.756 -0.4715 -0.1124  0.6799
  690TP3     H113889   2.318   2.931   7.700 -0.3130  0.9636 -0.3072
  690TP3     H213890   2.466   2.957   7.711  0.1087 -2.3859  2.4573
  691TP3      O13891   0.522   3.960   0.023 -0.3204  0.5232  0.2470
  691TP3     H113892   0.444   3.907   0.006 -0.2348  0.2655  0.6522
  691TP3     H213893   0.500   4.009   0.102 -0.6587  1.5969 -0.4945
  692TP3      O13894   2.452   2.451   7.406 -0.3641 -0.0057  0.2394
  692TP3     H113895   2.532   2.459   7.354 -1.1593 -0.7289 -1.1425
  692TP3     H213896   2.465   2.510   7.480  0.4500  1.7222 -1.2323
  693TP3      O13897   5.040   2.657   6.882  0.3539  0.3743  0.0391
  693TP3     H113898   5.043   2.618   6.795  0.0671  0.7721 -0.1500
  693TP3     H213899   5.131   2.658   6.911  0.1828 -1.8978  0.7016
  694TP3      O13900   4.770   1.732   8.021  0.6642 -0.1482 -0.3203
  694TP3     H113901   4.771   1.816   7.974  0.4158 -0.9569 -1.8007
  694TP3     H213902   4.831   1.677   7.971  0.0932 -1.1509  0.0883
  695TP3      O13903   0.202   4.281   7.439 -0.5323 -0.6249 -0.4473
  695TP3     H113904   0.202   4.308   7.348 -0.0686  0.6472 -0.0732
  695TP3     H213905   0.279   4.224   7.447  0.5268  0.7800 -0.4184
  696TP3      O13906   0.539   2.776   6.927  0.3914 -0.3465 -0.1037
  696TP3     H113907   0.453   2.750   6.894 -0.6232  1.7104  0.8100
  696TP3     H213908   0.530   2.773   7.022  0.4697  2.3841  0.0473
  697TP3      O13909   3.811   4.643  10.034 -0.4347 -0.3149  0.0245
  697TP3     H113910   3.897   4.657   9.995 -0.6497  0.1831 -0.2724
  697TP3     H213911   3.781   4.559   9.998 -1.1336  0.6855 -1.8111
  698TP3      O13912   2.098   3.095   7.486 -0.2297  0.0945  0.8295
  698TP3     H113913   2.030   3.147   7.528 -1.5057  0.6673 -1.8301
  698TP3     H213914   2.177   3.148   7.495 -0.9150  1.1656  0.7030
  699TP3      O13915   0.680   3.489   8.391  0.7840 -0.2239  0.0606
  699TP3     H113916   0.701   3.397   8.405 -1.4696 -0.9746 -1.1625
  699TP3     H213917   0.726   3.535   8.461  2.9873 -2.1243 -0.0616
  700TP3      O13918   1.820   3.806   7.012 -0.1357  0.1553 -0.3424
  700TP3     H113919   1.886   3.770   6.953  1.8475  0.2824  1.7474
  700TP3     H213920   1.793   3.731   7.066 -0.7408  0.3961 -0.3077
  701TP3      O13921   0.780   3.220   8.304 -0.2151  0.2315 -0.1848
  701TP3     H113922   0.739   3.238   8.219 -0.7420  2.8638  0.5688
  701TP3     H213923   0.874   3.226   8.287 -0.2909 -0.2081 -0.7736
  702TP3      O13924   1.229   3.503   7.531  0.1353 -0.2151 -0.3489
  702TP3     H113925   1.138   3.526   7.515  0.9432  2.1113 -1.8259
  702TP3     H213926   1.256   3.456   7.453  0.9152  1.3790 -1.0630
  703TP3      O13927   5.226   2.757   8.862  0.1779  0.6249  0.2284
  703TP3     H113928   5.192   2.832   8.814  1.0307  1.7806  1.3753
  703TP3     H213929   5.151   2.721   8.909 -0.2498  0.7056 -0.3982
  704TP3      O13930   1.064   3.234   6.766 -0.0826  0.0528 -0.3178
  704TP3     H113931   1.146   3.260   6.725  0.0904  0.2582  0.1550
  704TP3     H213932   1.055   3.292   6.842 -0.6445  0.0062 -0.3453
  705TP3      O13933   0.828   2.760   6.567  0.6606 -0.2234  0.1705
  705TP3     H113934   0.883   2.699   6.617  0.4229  0.4298  1.2485
  705TP3     H213935   0.839   2.844   6.612 -0.8268  0.0253  0.0932
  706TP3      O13936   0.907   3.758   7.820 -0.6729  0.1653  0.2240
  706TP3     H113937   0.924   3.665   7.834 -0.4066 -0.0593 -1.4724
  706TP3     H213938   0.824   3.760   7.772 -1.2368  0.8650  1.2054
  707TP3      O13939   1.696   1.846   6.929 -0.1521  0.4054 -0.5489
  707TP3     H113940   1.611   1.848   6.971  0.9996 -1.1328  1.9649
  707TP3     H213941   1.688   1.779   6.862 -0.1702 -1.6256  1.4393
  708TP3      O13942   1.079   3.443   6.977  0.0886 -0.3036  0.3574
  708TP3     H113943   1.015   3.457   7.046 -1.3539  0.2610 -1.0502
  708TP3     H213944   1.157   3.492   7.005 -0.7560  0.5672  1.1943
  709TP3      O13945   0.270   2.731   6.852 -0.4603  0.4412  0.3466
  709TP3     H113946   0.182   2.724   6.814 -0.5536  0.8900  0.4765
  709TP3     H213947   0.309   2.807   6.809  0.5237 -0.8047 -1.0081
  710TP3      O13948   1.661   4.722   0.078  0.7166 -0.3888  0.0454
  710TP3     H113949   1.691   4.634   0.052  0.0788 -0.4816 -0.3731
  710TP3     H213950   1.613   4.754   0.003 -0.3590 -0.2906  0.7731
  711TP3      O13951   1.653   3.287   8.554 -0.4188 -0.0748 -0.1371
  711TP3     H113952   1.663   3.209   8.500 -0.5636 -0.0444 -0.2074
  711TP3     H213953   1.619   3.354   8.495 -0.7509 -0.0926  0.0314
  712TP3      O13954   4.985   2.002   7.672 -0.3785 -0.2079 -0.5145
  712TP3     H113955   5.029   2.014   7.588  1.1955  0.5033  0.3874
  712TP3     H213956   5.042   1.941   7.720 -0.6846  0.2420  0.4387
  713TP3      O13957   3.113   3.179   8.285  0.1466  0.0879 -0.7440
  713TP3     H113958   3.124   3.088   8.312 -0.1864  0.0369 -0.7844
  713TP3     H213959   3.030   3.180   8.238  0.8716  0.0966 -2.0738
  714TP3      O13960   1.849   3.175   8.199  0.3876 -0.1954  0.1610
  714TP3     H113961   1.761   3.158   8.165  1.1829  0.3018 -2.2398
  714TP3     H213962   1.862   3.269   8.188  2.1676 -0.6595 -1.9229
  715TP3      O13963   1.524   2.131   7.223 -0.8077 -0.1615 -0.0885
  715TP3     H113964   1.609   2.101   7.256 -0.8621  0.8317  0.9853
  715TP3     H213965   1.491   2.057   7.171  0.6502 -0.6046 -0.4139
  716TP3      O13966   0.262   0.854   7.400  0.2476 -0.1722  0.1025
  716TP3     H113967   0.243   0.852   7.306 -2.1826 -0.0880  0.5448
  716TP3     H213968   0.280   0.763   7.423 -2.3779 -0.7283  0.1187
  717TP3      O13969   5.252   3.004   7.164 -0.2307 -0.4416 -0.2128
  717TP3     H113970   5.320   2.964   7.217 -0.1571 -0.0260  0.0082
  717TP3     H213971   5.196   2.931   7.137  0.3785 -0.8002 -0.5149
  718TP3      O13972   4.223   3.848   8.199  0.1369  0.3019 -0.2832
  718TP3     H113973   4.246   3.940   8.187 -0.1407  0.4994  0.7197
  718TP3     H213974   4.259   3.804   8.121 -0.3664  1.3620 -1.1238
  719TP3      O13975   1.095   3.027   9.564  0.0570 -0.0743  0.0263
  719TP3     H113976   1.104   3.092   9.633 -0.7674 -0.0807  0.1439
  719TP3     H213977   1.000   3.011   9.558 -0.0280  1.1282 -2.2134
  720TP3      O13978   2.275   4.983   8.931  0.2906  0.2999 -0.4152
  720TP3     H113979   2.207   4.932   8.974  0.2333  0.2648 -0.5471
  720TP3     H213980   2.258   5.073   8.957  0.9783  0.1397  0.6100
  721TP3      O13981   2.054   2.820   8.814 -0.0560  0.0138  0.3085
  721TP3     H113982   2.066   2.877   8.890  0.8396  2.4181 -1.5584
  721TP3     H213983   1.967   2.842   8.780  0.0407 -0.1546 -0.0553
  722TP3      O13984   4.019   5.113   9.893  0.0153 -0.0309  0.2817
  722TP3     H113985   3.951   5.095   9.958  0.9694 -0.9078  1.0613
  722TP3     H213986   4.079   5.039   9.901  0.2216 -0.0786 -1.5134
  723TP3      O13987   1.753   2.591   8.516  0.1719 -0.0209 -0.2203
  723TP3     H113988   1.757   2.685   8.535  0.6444 -0.0389 -0.2220
  723TP3     H213989   1.686   2.558   8.575  0.5144  0.1955  0.2929
  724TP3      O13990   4.818   4.036   7.632 -0.1865 -0.4387 -0.4672
  724TP3     H113991   4.891   4.098   7.642  0.0461 -0.9994  1.5768
  724TP3     H213992   4.743   4.091   7.610  0.0919  0.5807  1.0170
  725TP3      O13993   0.594   4.263   1.010 -0.6120  0.0557  0.0197
  725TP3     H113994   0.548   4.241   1.091  0.5460 -1.0303  0.3938
  725TP3     H213995   0.552   4.209   0.943  1.8515 -3.0478  0.8370
  726TP3      O13996   0.259   3.744   9.807  0.3777  0.2895 -0.5820
  726TP3     H113997   0.273   3.821   9.753  1.1495  0.2705 -0.4197
  726TP3     H213998   0.346   3.703   9.813  0.5610  0.9168  1.5899
  727TP3      O13999   1.552   2.648   6.734  0.0979  0.4475 -0.4691
  727TP3     H114000   1.520   2.715   6.795 -1.0040  0.2162 -0.7723
  727TP3     H214001   1.616   2.598   6.785 -0.1839  0.7971  0.2343
  728TP3      O14002   1.814   4.375   8.574  0.3091  0.4531 -0.8565
  728TP3     H114003   1.798   4.464   8.541  1.2298  0.6491 -0.7781
  728TP3     H214004   1.907   4.375   8.599 -0.0722 -0.0384  0.6444
  729TP3      O14005   5.276   0.387   7.768  0.4019 -0.2948  0.1662
  729TP3     H114006   5.281   0.481   7.751  2.3166 -0.1603  1.2794
  729TP3     H214007   5.276   0.380   7.863  1.5556 -1.4405  0.0997
  730TP3      O14008   3.725   2.301   9.518  0.0993 -0.0644 -0.0491
  730TP3     H114009   3.736   2.212   9.485 -2.8157 -0.7326  0.6043
  730TP3     H214010   3.710   2.289   9.612  1.6777  1.2956  0.3993
  731TP3      O14011   1.596   2.334   8.972 -0.0496 -0.1704  0.2165
  731TP3     H114012   1.564   2.295   8.891  0.8654 -1.7744  0.5955
  731TP3     H214013   1.565   2.275   9.041 -0.9760  1.2695  1.0605
  732TP3      O14014   1.756   2.218   0.156 -0.4264 -0.4627  0.9899
  732TP3     H114015   1.688   2.252   0.215  0.7779 -0.0450  2.1515
  732TP3     H214016   1.834   2.268   0.179 -0.1489  0.3468 -1.5882
  733TP3      O14017   5.356   1.701   1.697 -0.5922  0.1081 -0.2309
  733TP3     H114018   5.266   1.671   1.709  0.1362 -0.7632  3.5204
  733TP3     H214019   5.399   1.629   1.650 -0.9247 -1.1759  1.3868
  734TP3      O14020   1.073   3.861   8.533  0.3186 -0.2517 -0.1334
  734TP3     H114021   1.112   3.946   8.558 -2.4158  0.9868  0.0635
  734TP3     H214022   1.053   3.819   8.616 -0.3305 -0.1377 -0.2323
  735TP3      O14023   2.870   4.197   7.348 -0.1520 -0.0652 -0.2172
  735TP3     H114024   2.839   4.114   7.310 -2.8467 -0.4529  2.5596
  735TP3     H214025   2.815   4.264   7.307  1.2666  0.2417 -1.6391
  736TP3      O14026   5.043   3.160   7.758 -0.3735  0.3479  0.2277
  736TP3     H114027   4.977   3.097   7.786 -0.3462  0.3588  0.3167
  736TP3     H214028   5.119   3.107   7.736  0.2293  0.4662  1.9587
  737TP3      O14029   3.242   2.730   9.689 -0.2000  0.0527 -0.0658
  737TP3     H114030   3.312   2.708   9.750 -0.9405 -0.6060  0.5619
  737TP3     H214031   3.182   2.656   9.693  0.6841 -0.9255 -3.0474
  738TP3      O14032   5.183   3.639   7.516  0.5640  0.4497  0.4336
  738TP3     H114033   5.229   3.556   7.505  1.7844  0.9206  1.7319
  738TP3     H214034   5.116   3.622   7.582 -1.7497 -0.4533 -2.0659
  739TP3      O14035   2.520   3.705   7.600 -1.2450  0.1467  0.0658
  739TP3     H114036   2.567   3.781   7.634 -0.1175 -1.2144  1.6360
  739TP3     H214037   2.569   3.678   7.523 -1.4908  0.8152 -0.3340
  740TP3      O14038   2.003   0.969   9.028 -0.0393  0.2353 -0.4331
  740TP3     H114039   2.011   0.885   8.984  1.2202  0.5540 -0.8207
  740TP3     H214040   2.035   0.953   9.117 -0.6003  0.1095 -0.2486
  741TP3      O14041   0.320   3.157   7.451  0.1955  0.3482 -0.1787
  741TP3     H114042   0.356   3.070   7.468  0.0361  0.8285  3.0155
  741TP3     H214043   0.388   3.202   7.402  0.8849 -1.1101 -0.5961
  742TP3      O14044   1.237   2.695   7.297  0.3604  0.4759  0.0936
  742TP3     H114045   1.176   2.754   7.341  1.2594  1.7096 -0.2854
  742TP3     H214046   1.286   2.654   7.368  0.7927  1.3547  0.3073
  743TP3      O14047   3.365   2.766   8.287 -0.5226 -0.5625  0.1344
  743TP3     H114048   3.366   2.751   8.381 -2.5398 -1.7963 -0.0149
  743TP3     H214049   3.404   2.687   8.249  1.7336  0.5987 -0.0042
  744TP3      O14050   2.953   3.855   8.423  0.6321 -0.0223 -0.0748
  744TP3     H114051   2.905   3.882   8.501  0.1755 -2.0944  0.3807
  744TP3     H214052   2.885   3.847   8.355  0.6448 -0.8117  0.0035
  745TP3      O14053   1.487   3.352  10.314  0.0632 -0.8258 -0.1014
  745TP3     H114054   1.552   3.407  10.357  0.6613  0.2168 -2.2812
  745TP3     H214055   1.416   3.344  10.378  0.9586  0.5959  1.0972
  746TP3      O14056   1.628   2.911   6.923 -0.1518 -0.3562  0.1778
  746TP3     H114057   1.552   2.852   6.931 -0.4148 -0.0818 -0.3314
  746TP3     H214058   1.700   2.860   6.960 -0.0290 -1.6628 -1.7677
  747TP3      O14059   1.740   0.826   8.851  0.1101 -0.0113  0.2186
  747TP3     H114060   1.659   0.832   8.800  0.4364  1.0743 -0.2117
  747TP3     H214061   1.712   0.811   8.941 -0.6399  1.5065  0.2631
  748TP3      O14062   1.574   2.857   8.289  0.2539 -0.2152 -0.0895
  748TP3     H114063   1.536   2.846   8.202 -0.6588  0.6952  0.1824
  748TP3     H214064   1.510   2.818   8.349 -0.4463  1.5924  0.3944
  749TP3      O14065   0.435   3.740   8.186 -0.0768 -0.4761  0.7390
  749TP3     H114066   0.412   3.743   8.093  1.6420 -0.5897  0.2921
  749TP3     H214067   0.369   3.795   8.228 -2.2039 -2.1638 -0.2460
  750TP3      O14068   1.969   2.434   7.367  0.0822 -0.3477 -0.4732
  750TP3     H114069   1.876   2.457   7.361 -0.2700 -1.3130  0.9424
  750TP3     H214070   1.995   2.463   7.455  1.3486  0.6728 -1.1629
  751TP3      O14071   4.354   4.394   7.357 -0.3021  0.0092  0.0631
  751TP3     H114072   4.377   4.399   7.264 -0.3519  1.0060  0.0930
  751TP3     H214073   4.438   4.394   7.402 -0.2807 -0.2715  0.0202
  752TP3      O14074   0.399   2.376   8.530 -0.1712  0.4516  0.5536
  752TP3     H114075   0.412   2.458   8.482  1.2335  0.9448  1.7421
  752TP3     H214076   0.390   2.309   8.462  0.4748  1.3289 -0.4061
  753TP3      O14077   2.885   2.151   8.014 -0.2735 -0.4072 -0.3348
  753TP3     H114078   2.895   2.157   8.109 -0.6229  1.0998 -0.3695
  753TP3     H214079   2.887   2.057   7.995  1.0881 -0.6658  1.0091
  754TP3      O14080   2.280   3.858   7.662  0.2585  0.0964  0.0872
  754TP3     H114081   2.270   3.925   7.595  0.6674 -0.3469 -0.4229
  754TP3     H214082   2.351   3.802   7.629 -0.0432 -0.5489  0.5300
  755TP3      O14083   2.222   4.058   7.485 -0.0668 -0.2711 -0.4590
  755TP3     H114084   2.304   4.107   7.494  1.9419 -3.2631 -1.9451
  755TP3     H214085   2.228   4.015   7.400 -2.1713 -2.3771  0.3948
  756TP3      O14086   1.328   2.602   8.143 -0.3446  0.5099 -0.4239
  756TP3     H114087   1.264   2.672   8.156 -0.8029 -0.1863  1.2075
  756TP3     H214088   1.287   2.525   8.182  0.9016 -0.2615 -0.6221
  757TP3      O14089   0.001   4.624   8.640 -0.0223  0.3451  0.3622
  757TP3     H114090   0.042   4.689   8.697  0.1591 -0.3766  1.0634
  757TP3     H214091  -0.086   4.658   8.622  0.3399  1.1520  0.1038
  758TP3      O14092   1.699   0.971   9.642 -0.3607 -0.1100  0.1787
  758TP3     H114093   1.742   1.035   9.698 -1.1010 -0.3678  1.0589
  758TP3     H214094   1.757   0.895   9.644 -0.4252 -0.1501  0.6712
  759TP3      O14095   1.797   2.114   6.887  0.0347  0.0528  0.0131
  759TP3     H114096   1.889   2.096   6.868  0.1980  0.1627  0.6937
  759TP3     H214097   1.760   2.029   6.911  0.0238  0.0595  0.0197
  760TP3      O14098   0.577   2.921   8.234  0.4133  0.3756 -0.3384
  760TP3     H114099   0.504   2.979   8.213  1.1698  1.3571 -0.2862
  760TP3     H214100   0.629   2.970   8.298  0.6979 -0.6332  0.2128
  761TP3      O14101   4.693   2.803   7.848  0.6663 -0.1305  0.8083
  761TP3     H114102   4.666   2.727   7.900 -0.4776  0.3014  0.8454
  761TP3     H214103   4.673   2.779   7.758  0.0323  0.2470  0.8499
  762TP3      O14104   2.472   1.598  10.024 -0.3450  0.1126 -0.5362
  762TP3     H114105   2.393   1.545  10.038 -0.0086 -0.4397 -0.7238
  762TP3     H214106   2.520   1.592  10.106 -0.0493 -0.3097 -0.7368
  763TP3      O14107   1.414   1.521   6.941  0.3255 -0.1944 -0.2231
  763TP3     H114108   1.373   1.516   6.855  1.4470  0.9285 -0.8245
  763TP3     H214109   1.350   1.570   6.994  1.0580  1.9653 -1.2831
  764TP3      O14110   4.374   1.986   9.136 -0.0393 -0.0096 -0.0675
  764TP3     H114111   4.380   1.900   9.094  1.7739 -0.3954  0.9433
  764TP3     H214112   4.430   1.979   9.213 -0.5281  1.8295  0.4759
  765TP3      O14113   1.037   4.014   7.639 -0.5321  0.2590  0.0699
  765TP3     H114114   0.977   3.946   7.609 -0.1623  0.4971 -1.2102
  765TP3     H214115   1.024   4.017   7.734 -1.7063 -0.4799 -0.0635
  766TP3      O14116   2.213   2.690   7.727 -0.4134  0.1760  0.0479
  766TP3     H114117   2.189   2.752   7.796 -1.4319 -0.5912  0.4026
  766TP3     H214118   2.202   2.738   7.645  1.2180  1.2291  0.4272
  767TP3      O14119   2.900   0.526   9.639 -0.6038  0.3064 -0.1350
  767TP3     H114120   2.934   0.459   9.698 -1.3601 -0.0510 -0.0944
  767TP3     H214121   2.958   0.601   9.651 -2.9025  1.5688  3.8021
  768TP3      O14122   5.409   3.300   7.900 -0.3767 -0.5164 -0.3617
  768TP3     H114123   5.318   3.304   7.928 -0.5448 -1.4116 -0.7572
  768TP3     H214124   5.454   3.257   7.973  0.0947  1.7171  0.6921
  769TP3      O14125   4.629   4.724   9.520  0.2750 -0.6030 -0.5444
  769TP3     H114126   4.677   4.680   9.449  0.7324  0.5908 -0.9810
  769TP3     H214127   4.682   4.706   9.598  1.0468  0.0675 -0.9013
  770TP3      O14128   2.878   3.839   0.129  0.0271 -1.0829  0.6477
  770TP3     H114129   2.794   3.798   0.148 -1.3997  1.1138 -0.8796
  770TP3     H214130   2.882   3.914   0.189  0.8332 -1.0774  0.5906
  771TP3      O14131   2.782   2.554   8.047  0.1223 -0.2227 -0.3111
  771TP3     H114132   2.834   2.633   8.062 -0.8521  0.2184  0.8795
  771TP3     H214133   2.715   2.557   8.115 -1.4554 -0.7700 -1.7887
  772TP3      O14134   4.534   0.455   9.109  0.6090 -0.0142 -0.0415
  772TP3     H114135   4.468   0.448   9.041  1.1631  0.8300 -0.6654
  772TP3     H214136   4.565   0.545   9.104  1.5756 -0.3138  0.4567
  773TP3      O14137   0.550   3.614   7.731 -0.0012 -0.2358  0.3289
  773TP3     H114138   0.532   3.701   7.696 -0.6978 -0.9969 -1.2850
  773TP3     H214139   0.538   3.556   7.656  0.1147 -1.7586  1.4718
  774TP3      O14140   0.484   4.081   9.069 -0.0231  0.3764  0.4240
  774TP3     H114141   0.476   3.986   9.071  3.4069  0.0563  1.9405
  774TP3     H214142   0.540   4.099   8.993 -1.7747  1.3190 -0.6785
  775TP3      O14143   0.855   4.316   8.912  0.6024 -0.5839  0.0647
  775TP3     H114144   0.854   4.285   9.002  3.6497 -0.6008  0.1296
  775TP3     H214145   0.932   4.372   8.906 -0.4212  0.6799 -2.1381
  776TP3      O14146   2.093   3.056   8.143  0.2392  0.3802  0.3021
  776TP3     H114147   2.178   3.086   8.175  0.2038  0.5712  0.2164
  776TP3     H214148   2.029   3.099   8.200  0.1724  0.7896 -0.0854
  777TP3      O14149   1.261   3.370   8.301  0.5098 -0.0444 -0.1106
  777TP3     H114150   1.246   3.321   8.221 -2.7866  0.9394 -0.1515
  777TP3     H214151   1.297   3.305   8.362  1.4499 -1.1764 -1.8274
  778TP3      O14152   3.907   3.680   7.793  0.0014 -0.0217  0.6757
  778TP3     H114153   3.833   3.714   7.843  0.1238 -1.4516  1.8353
  778TP3     H214154   3.984   3.710   7.842  0.1132 -1.7979  1.6084
  779TP3      O14155   1.468   3.528   7.649  0.1214 -0.3539 -0.2395
  779TP3     H114156   1.376   3.530   7.624  0.0100  1.8370  0.2610
  779TP3     H214157   1.470   3.565   7.737  1.6067  0.6947 -0.6914
  780TP3      O14158   3.093   2.317   7.933  0.7692  0.8448 -0.0358
  780TP3     H114159   3.147   2.243   7.960  0.9491 -0.1238 -2.9156
  780TP3     H214160   3.003   2.287   7.946  0.8591  0.5462 -0.1071
  781TP3      O14161   2.134   3.703   8.447  0.2567  0.2935 -0.5405
  781TP3     H114162   2.194   3.662   8.384 -2.3386 -2.3103 -1.4271
  781TP3     H214163   2.143   3.650   8.526 -1.2349 -0.4142 -0.8420
  782TP3      O14164   4.103   2.653   8.353  0.4817  0.2671  0.3842
  782TP3     H114165   4.129   2.596   8.281  0.1780  1.1846 -0.4690
  782TP3     H214166   4.009   2.640   8.363  0.3416  0.9158 -0.0805
  783TP3      O14167   5.524   2.429  10.147  0.1779 -0.1067  0.4708
  783TP3     H114168   5.529   2.396  10.237 -0.6958 -0.8616  0.2501
  783TP3     H214169   5.462   2.502  10.152 -1.5327 -1.4932  0.1134
  784TP3      O14170   0.411   1.293   6.774  0.4517 -0.3000  0.4337
  784TP3     H114171   0.322   1.326   6.763  0.6504 -0.0994 -0.6352
  784TP3     H214172   0.450   1.350   6.840 -0.3526 -0.6855  1.2597
  785TP3      O14173   0.622   1.563   7.712  0.3528  0.0341 -0.1229
  785TP3     H114174   0.538   1.586   7.752  0.9906 -0.1380  1.3740
  785TP3     H214175   0.687   1.585   7.779  1.5969  1.1529 -1.6693
  786TP3      O14176   5.084   3.150   7.481 -0.3250 -0.2706  0.1431
  786TP3     H114177   5.080   3.061   7.445 -1.6125 -1.0332  2.0891
  786TP3     H214178   5.025   3.148   7.556 -0.7391  2.3798 -0.0633
  787TP3      O14179   1.595   2.316   6.922  0.1547 -0.4455  0.2106
  787TP3     H114180   1.636   2.401   6.938  0.6792 -1.0385  2.2456
  787TP3     H214181   1.669   2.257   6.909 -0.2328 -0.3976 -2.3724
  788TP3      O14182   3.570   4.618   9.103 -0.1404  0.2346 -0.2340
  788TP3     H114183   3.484   4.661   9.101  0.3717  1.2571 -0.6088
  788TP3     H214184   3.581   4.582   9.015  0.3292  1.1422 -0.5512
  789TP3      O14185   1.555   2.070   7.840 -0.2814 -0.3443  0.1353
  789TP3     H114186   1.460   2.059   7.847 -0.0969 -1.2848  1.2875
  789TP3     H214187   1.572   2.153   7.884 -0.4050 -0.9009  1.2472
  790TP3      O14188   0.521   3.532   7.475  0.4420 -0.0521 -0.8011
  790TP3     H114189   0.519   3.449   7.428  0.8021 -0.9145  0.6824
  790TP3     H214190   0.540   3.598   7.408 -0.2209 -1.1247 -2.0360
  791TP3      O14191   3.168   3.724   7.306  0.0360 -0.2227 -0.2094
  791TP3     H114192   3.174   3.677   7.223  1.9414  0.3461 -0.4264
  791TP3     H214193   3.167   3.816   7.282  2.3699  0.0058  0.4404
  792TP3      O14194   0.152   0.444   8.246 -0.0221 -0.2432 -0.0044
  792TP3     H114195   0.168   0.399   8.163  1.5677  0.6456 -0.2147
  792TP3     H214196   0.057   0.453   8.251 -0.3941 -3.8380  0.2109
  793TP3      O14197   5.195   4.531   8.135  0.4285  0.9670 -0.3990
  793TP3     H114198   5.241   4.558   8.056 -0.4742  0.9314 -0.9379
  793TP3     H214199   5.107   4.566   8.125 -0.3756 -1.0257 -0.4945
  794TP3      O14200   0.534   3.663   7.190  0.4454  0.3575  0.0892
  794TP3     H114201   0.572   3.578   7.169  0.5153  1.0075 -2.5617
  794TP3     H214202   0.444   3.657   7.158  0.0890  0.8890  0.9669
  795TP3      O14203   0.308   0.924   0.953  0.2095  0.0561 -0.0439
  795TP3     H114204   0.242   0.883   0.896  0.2491 -1.0211  0.6773
  795TP3     H214205   0.349   0.851   0.999  1.6773  0.7462 -0.2192
  796TP3      O14206   2.057   1.272   0.268 -0.4101 -0.3461  0.5072
  796TP3     H114207   2.087   1.351   0.223 -2.5632  0.7322  0.9053
  796TP3     H214208   1.979   1.300   0.316 -2.1002 -3.0760 -0.5558
  797TP3      O14209   4.257   3.454   9.268  0.1465  0.3126 -0.0036
  797TP3     H114210   4.250   3.548   9.247 -1.9434  0.2087  0.1244
  797TP3     H214211   4.232   3.410   9.186 -0.4221 -0.1132  0.3950
  798TP3      O14212   4.173   2.140   9.499 -0.5536  0.1295 -0.3641
  798TP3     H114213   4.102   2.082   9.471 -0.5959  0.7793 -1.6579
  798TP3     H214214   4.192   2.113   9.589 -0.6143 -1.8461 -0.9133
  799TP3      O14215   3.255   3.387   7.948  0.8245  0.6361 -0.1809
  799TP3     H114216   3.167   3.413   7.921  0.0993 -1.6823 -0.1482
  799TP3     H214217   3.255   3.399   8.043 -0.0878 -1.0683  0.0600
  800TP3      O14218   3.187   3.642   9.380  0.0545  0.2506 -0.3692
  800TP3     H114219   3.146   3.580   9.440 -0.3895 -0.1381 -1.0738
  800TP3     H214220   3.213   3.589   9.305 -0.0645  0.8727 -0.8509
  801TP3      O14221   3.455   2.327   8.147 -0.7100  0.3944  0.3865
  801TP3     H114222   3.389   2.390   8.119 -0.1762  0.5745 -0.4901
  801TP3     H214223   3.406   2.248   8.169 -1.2520  0.6452  0.0734
  802TP3      O14224   2.686   2.458   0.036  0.4691  0.1822 -0.2672
  802TP3     H114225   2.702   2.373   0.076 -0.0785  0.0047 -0.4120
  802TP3     H214226   2.592   2.457   0.016  0.3686  1.0115  0.1668
  803TP3      O14227   2.573   2.578   7.084  0.3763 -0.3700  0.1237
  803TP3     H114228   2.603   2.546   7.169 -1.0587  0.0769  0.8030
  803TP3     H214229   2.593   2.671   7.085  0.6622 -0.4241 -0.1786
  804TP3      O14230   2.444   2.037   7.837 -0.7418  0.4023  0.0980
  804TP3     H114231   2.478   1.981   7.767  0.0914 -1.1516  1.7072
  804TP3     H214232   2.516   2.098   7.855  0.0977 -0.9089  1.3795
  805TP3      O14233   3.035   2.668  10.051  0.1918  0.3765  0.0070
  805TP3     H114234   2.970   2.659  10.121 -2.3381  1.2327 -2.1450
  805TP3     H214235   2.983   2.678   9.971  2.9892  1.3138 -1.7761
  806TP3      O14236   2.357   2.173   7.368 -0.2644 -0.4840  0.2587
  806TP3     H114237   2.395   2.260   7.369  0.5653 -0.7966 -1.8832
  806TP3     H214238   2.432   2.114   7.372 -0.7226 -1.1028 -0.1273
  807TP3      O14239   2.490   1.933   7.607  0.4167  0.0213 -0.0955
  807TP3     H114240   2.397   1.911   7.614  0.6401 -0.8246  0.2167
  807TP3     H214241   2.516   1.903   7.520  0.3356  0.5151 -0.2945
  808TP3      O14242   2.714   2.654   7.775  0.6823 -0.2941 -0.1522
  808TP3     H114243   2.746   2.738   7.810  0.7997 -0.4684  0.1667
  808TP3     H214244   2.750   2.589   7.835  0.3793 -0.5532 -0.2542
  809TP3      O14245   4.032   2.852   7.479  0.8638 -0.3296 -0.3377
  809TP3     H114246   4.102   2.793   7.507 -0.1704 -1.9453 -1.0897
  809TP3     H214247   4.077   2.931   7.452  2.2531 -0.6142  1.0820
  810TP3      O14248   2.826   0.758   8.301 -0.0410 -0.0489 -0.0888
  810TP3     H114249   2.749   0.812   8.285 -0.6475 -1.0068 -0.4477
  810TP3     H214250   2.848   0.774   8.393 -0.2455  0.7668 -0.1873
  811TP3      O14251   4.724   1.317   9.319  0.1997 -0.0183 -0.2201
  811TP3     H114252   4.787   1.388   9.316 -0.2813  0.3475 -2.7948
  811TP3     H214253   4.642   1.358   9.347  0.4801 -0.0243  0.6298
  812TP3      O14254   3.420   2.251   7.215  0.0910  0.2646 -0.2174
  812TP3     H114255   3.452   2.161   7.222  0.1250  0.3707  1.3330
  812TP3     H214256   3.331   2.242   7.181 -0.0132 -0.3911  0.2014
  813TP3      O14257   2.541   3.180   9.361 -0.2340  0.2674 -0.2664
  813TP3     H114258   2.574   3.219   9.280 -1.3255 -0.3858 -1.0348
  813TP3     H214259   2.446   3.194   9.357 -0.8542 -3.7339 -1.2577
  814TP3      O14260   1.837   3.984   8.046 -0.4708 -0.0919  1.1025
  814TP3     H114261   1.835   3.936   8.129  0.3723 -0.5321  0.8842
  814TP3     H214262   1.910   3.943   7.998 -2.4868 -1.5132 -0.8457
  815TP3      O14263   0.559   2.622   9.128 -0.0090  0.2030 -0.4447
  815TP3     H114264   0.537   2.531   9.107 -1.1364  0.4896 -0.5492
  815TP3     H214265   0.479   2.659   9.165  0.0637  1.4825 -1.5006
  816TP3      O14266   3.732   2.378   7.803  0.0688  0.3873  0.6542
  816TP3     H114267   3.810   2.322   7.810  0.0625  0.4050  0.8923
  816TP3     H214268   3.738   2.435   7.880 -0.6051 -0.1550  1.1152
  817TP3      O14269   1.610   1.703   7.528 -0.0337 -0.1541  0.2378
  817TP3     H114270   1.694   1.744   7.509  0.5304 -1.4530 -0.1509
  817TP3     H214271   1.606   1.700   7.624 -0.7466  2.1064  0.2957
  818TP3      O14272   3.730   3.409   0.908 -0.5471  0.1670 -0.1331
  818TP3     H114273   3.639   3.385   0.923 -0.4510 -0.2841 -0.2461
  818TP3     H214274   3.754   3.362   0.828  0.3942 -1.4001  1.0240
  819TP3      O14275   1.689   3.055   8.414 -0.2888 -0.2330  0.2615
  819TP3     H114276   1.660   2.971   8.379  0.3204 -0.5773  0.5662
  819TP3     H214277   1.736   3.096   8.342 -1.5646  0.3540 -0.2547
  820TP3      O14278   4.059   3.784   9.970  0.4188 -0.1955  0.0679
  820TP3     H114279   4.108   3.842  10.027  1.2040 -0.7135 -0.0735
  820TP3     H214280   4.053   3.830   9.887 -1.8403  1.1369  0.9032
  821TP3      O14281   3.562   2.425   8.452 -0.9736 -0.7148 -0.0986
  821TP3     H114282   3.518   2.355   8.499 -0.4755 -1.4050 -0.6439
  821TP3     H214283   3.616   2.380   8.387 -1.4273  0.2091 -1.1338
  822TP3      O14284   1.462   3.955   7.627  0.3919  0.5597 -0.4428
  822TP3     H114285   1.542   4.006   7.642 -0.6140  2.2030 -0.5917
  822TP3     H214286   1.443   3.916   7.712  0.3810  1.5938  0.0358
  823TP3      O14287   3.713   2.738   7.387  0.3923 -0.0466  0.2092
  823TP3     H114288   3.703   2.718   7.480  0.2352  0.5188  0.3114
  823TP3     H214289   3.683   2.658   7.342  1.7045 -0.8145  0.6627
  824TP3      O14290   4.096   2.582   8.744  0.4605  0.0903  0.3202
  824TP3     H114291   4.102   2.635   8.824  0.1231 -0.9491  1.0445
  824TP3     H214292   4.182   2.591   8.703  1.2249 -0.7680  1.7092
  825TP3      O14293   5.047   0.954   7.495  0.0678  0.2997  0.4067
  825TP3     H114294   5.053   0.886   7.428  1.6512  0.2397  0.5821
  825TP3     H214295   4.981   1.015   7.463 -0.6057 -0.7687 -0.2548
  826TP3      O14296   2.247   1.743   8.538  0.4294 -0.2187  0.4614
  826TP3     H114297   2.196   1.721   8.460 -0.5759  0.0884  1.0127
  826TP3     H214298   2.314   1.803   8.508  1.7545 -2.2313 -0.6526
  827TP3      O14299   3.687   2.431   8.103 -0.2048 -0.5855  0.3751
  827TP3     H114300   3.604   2.384   8.114 -0.5041 -0.3382 -0.7169
  827TP3     H214301   3.666   2.521   8.127 -0.4649 -0.3651 -0.6236
  828TP3      O14302   2.761   1.500   7.932  0.5003 -0.4569 -0.0070
  828TP3     H114303   2.704   1.511   7.856 -0.2182  0.2525  0.6189
  828TP3     H214304   2.701   1.504   8.007  1.2855 -0.3980  0.6215
  829TP3      O14305   5.101   4.562   9.122 -0.3295  0.0339 -0.3106
  829TP3     H114306   5.129   4.471   9.129  0.8420  0.3884 -0.3673
  829TP3     H214307   5.115   4.598   9.209 -2.3532 -0.2629  0.1764
  830TP3      O14308   5.290   2.230   7.553 -0.1584  0.1830 -0.0723
  830TP3     H114309   5.310   2.279   7.632 -1.0520  1.1122 -0.4044
  830TP3     H214310   5.348   2.267   7.487  0.5952 -0.5997  0.1494
  831TP3      O14311   1.742   4.067   7.075  0.0473  0.8435 -0.5805
  831TP3     H114312   1.781   3.997   7.021  0.6435 -0.3795  1.3810
  831TP3     H214313   1.739   4.143   7.017  4.4742  0.7059 -1.1829
  832TP3      O14314   2.555   5.120   9.414  0.1442 -0.1000  0.5978
  832TP3     H114315   2.645   5.091   9.398 -0.5157 -1.2555 -1.1311
  832TP3     H214316   2.505   5.087   9.339 -1.5633  1.3049  1.0827
  833TP3      O14317   2.886   1.426   8.495  0.6460 -0.1174 -0.1549
  833TP3     H114318   2.974   1.408   8.461  0.8325  1.7198 -0.7252
  833TP3     H214319   2.898   1.437   8.589  0.6114 -2.3115  0.1249
  834TP3      O14320   3.810   4.178   7.681  0.5982  0.6396 -0.1921
  834TP3     H114321   3.875   4.111   7.658 -0.2511 -0.3340  0.2184
  834TP3     H214322   3.860   4.260   7.682  2.2045 -0.3083  1.7991
  835TP3      O14323   0.359   1.959   8.142 -0.0842 -0.0307  0.7687
  835TP3     H114324   0.377   2.052   8.149  1.0791 -0.0252 -1.6447
  835TP3     H214325   0.407   1.919   8.214 -1.0226  1.2655  2.1381
  836TP3      O14326   2.340   2.904   7.145 -0.6373  0.2992  0.5037
  836TP3     H114327   2.247   2.885   7.156 -0.2887 -1.5548  0.4443
  836TP3     H214328   2.366   2.945   7.228 -1.2679 -0.1870  0.9460
  837TP3      O14329   3.485   1.243   8.630 -0.5013  0.3540 -0.5458
  837TP3     H114330   3.495   1.330   8.669  0.8537  0.2430 -0.5985
  837TP3     H214331   3.449   1.260   8.543  0.2696  0.9163 -0.7681
  838TP3      O14332   3.251   3.431   8.227 -0.5816  0.0330  0.5698
  838TP3     H114333   3.220   3.362   8.285  0.4851  0.3422  1.5171
  838TP3     H214334   3.239   3.512   8.277 -1.5030  0.5134 -0.3989
  839TP3      O14335   5.124   3.141  10.253 -0.1793  0.3203 -0.0275
  839TP3     H114336   5.214   3.131  10.223  0.3698  0.2777  1.6064
  839TP3     H214337   5.128   3.210  10.319 -1.6093  1.4052 -1.0377
  840TP3      O14338   2.402   2.835   6.893 -0.1932  0.6129  0.0300
  840TP3     H114339   2.370   2.862   6.979 -2.4315 -1.4493 -0.1078
  840TP3     H214340   2.348   2.883   6.831 -1.2377 -0.8281 -0.2013
  841TP3      O14341   3.984   3.301   6.779 -0.2599 -0.9270  0.0527
  841TP3     H114342   4.003   3.347   6.861 -2.8475  0.0245  0.1608
  841TP3     H214343   3.998   3.208   6.799  1.1917 -0.5246  0.9502
  842TP3      O14344   3.367   2.469   7.539  0.7171  0.3650 -0.2834
  842TP3     H114345   3.376   2.454   7.633 -0.0321 -1.1600 -0.4470
  842TP3     H214346   3.437   2.418   7.499  0.8119  0.7255 -0.5865
  843TP3      O14347   0.236   2.739   0.388  0.2890  0.2760 -0.1401
  843TP3     H114348   0.251   2.832   0.407  2.4146 -0.1502  0.3901
  843TP3     H214349   0.320   2.708   0.354  0.2499 -1.9477  1.6822
  844TP3      O14350   4.112   3.573   8.014  0.6085  0.0170 -0.0367
  844TP3     H114351   4.080   3.660   8.040 -0.7193 -0.1166 -1.1600
  844TP3     H214352   4.126   3.527   8.097 -0.6185  0.6389  0.5299
  845TP3      O14353   3.779   4.212   8.152  0.1527  0.4297 -0.2364
  845TP3     H114354   3.795   4.240   8.242  1.6011 -1.6045  0.1956
  845TP3     H214355   3.700   4.258   8.126 -0.7368  0.4571  2.3498
  846TP3      O14356   2.748   3.430   7.577 -0.2276 -0.5068 -0.2764
  846TP3     H114357   2.699   3.481   7.513  0.7193 -1.5380 -1.8484
  846TP3     H214358   2.826   3.482   7.596 -0.7766  0.0558  0.4802
  847TP3      O14359   1.853   3.184   7.643 -0.0228 -0.4773 -0.2140
  847TP3     H114360   1.882   3.269   7.676 -1.4999 -0.3422  0.7877
  847TP3     H214361   1.803   3.146   7.716 -0.7086 -1.5064 -1.2077
  848TP3      O14362   4.258   4.493   7.737  0.2538  0.1570 -1.1421
  848TP3     H114363   4.202   4.554   7.783  0.2439  0.1303 -1.1177
  848TP3     H214364   4.347   4.513   7.769  0.1071 -0.6969 -0.1664
  849TP3      O14365   3.144   2.935   8.714 -0.0729 -0.2359  0.3878
  849TP3     H114366   3.202   3.006   8.689 -0.6037  0.3624  0.8278
  849TP3     H214367   3.184   2.898   8.793  1.6245 -2.1532 -1.2960
  850TP3      O14368   2.463   2.595   7.653  0.1445 -0.7857 -0.0191
  850TP3     H114369   2.548   2.617   7.690  0.4681 -0.3417 -1.0046
  850TP3     H214370   2.402   2.656   7.693  0.6163  0.2048 -0.8039
  851TP3      O14371   1.575   4.283   8.192 -0.8044  0.0459  0.0822
  851TP3     H114372   1.606   4.216   8.253 -0.9568  0.0815  0.1982
  851TP3     H214373   1.487   4.306   8.223  0.2223  2.1408  1.5422
  852TP3      O14374   1.339   4.844   0.077  0.2802  0.4453 -0.5583
  852TP3     H114375   1.423   4.875   0.111  1.0471 -0.0187 -1.9694
  852TP3     H214376   1.275   4.871   0.143  1.7431 -0.7590  1.4261
  853TP3      O14377   0.161   1.876   8.296 -0.1385 -0.4673  0.1498
  853TP3     H114378   0.217   1.885   8.373 -2.0314  0.4512  1.4361
  853TP3     H214379   0.217   1.902   8.223  1.4009 -0.4773  1.2990
  854TP3      O14380   1.741   0.600   8.204 -0.2501  0.1289  0.0976
  854TP3     H114381   1.688   0.661   8.254 -0.3417 -1.9812  2.6720
  854TP3     H214382   1.820   0.588   8.256 -0.6744 -2.7125  0.1702
  855TP3      O14383   1.137   1.530   8.060 -0.4339 -0.0318 -0.3314
  855TP3     H114384   1.129   1.585   8.138 -0.0025 -0.2710 -0.1176
  855TP3     H214385   1.053   1.484   8.054 -0.5358  0.1241 -0.1134
  856TP3      O14386   3.042   1.739   7.207 -0.1069 -0.0497 -0.3667
  856TP3     H114387   3.091   1.821   7.211 -2.5235  1.4140  0.0566
  856TP3     H214388   3.073   1.689   7.282  1.8653  0.2011 -1.0018
  857TP3      O14389   4.642   0.789   7.426  0.3193  0.4071  0.1816
  857TP3     H114390   4.561   0.809   7.474 -0.8662 -0.4616 -1.3900
  857TP3     H214391   4.652   0.863   7.366 -0.2851 -0.3213 -0.8365
  858TP3      O14392   3.254   1.849   8.329  0.1186  0.6176  0.2620
  858TP3     H114393   3.160   1.839   8.344  0.1457 -0.2422 -0.0829
  858TP3     H214394   3.279   1.770   8.280  0.9559  0.9958  0.0619
  859TP3      O14395   2.208   2.843   7.987  0.4488  0.2722 -0.5683
  859TP3     H114396   2.167   2.918   8.030  0.4776  0.5765 -1.0666
  859TP3     H214397   2.268   2.807   8.053  2.7685  2.5625 -1.3527
  860TP3      O14398   1.509   2.301   7.976  0.5339  0.3713 -0.6421
  860TP3     H114399   1.415   2.284   7.984  0.8633 -0.6663  1.3602
  860TP3     H214400   1.525   2.376   8.033  0.6896  1.5049 -2.1484
  861TP3      O14401   3.267   5.332   8.511  0.1819  0.2401  0.0413
  861TP3     H114402   3.247   5.417   8.549 -0.2185 -0.2321  0.8970
  861TP3     H214403   3.333   5.294   8.570  0.6913  0.1419 -0.5791
  862TP3      O14404   1.606   2.434   9.942  0.5396  0.2234  0.8389
  862TP3     H114405   1.555   2.489  10.001  0.0343 -0.7645  1.3327
  862TP3     H214406   1.548   2.419   9.867  1.3242  1.8094 -0.1241
  863TP3      O14407   1.458   1.843   7.070  0.4476  0.9536 -0.5994
  863TP3     H114408   1.436   1.787   7.144  0.7058  0.5425 -0.8343
  863TP3     H214409   1.375   1.886   7.047 -0.1798 -0.7414 -1.6147
  864TP3      O14410   2.776   2.989   7.973  0.7487  0.4434  0.6079
  864TP3     H114411   2.683   2.996   7.996 -0.0899  0.7682 -2.7135
  864TP3     H214412   2.806   3.079   7.966  1.2534  0.3368  1.2831
  865TP3      O14413   3.467   2.609   0.580  0.0425 -0.5753  0.1582
  865TP3     H114414   3.548   2.631   0.535 -1.6224  0.9859 -2.1615
  865TP3     H214415   3.442   2.689   0.626 -1.2506 -0.3854 -0.8396
  866TP3      O14416   3.876   3.159   7.829 -0.1087 -0.1554  0.0968
  866TP3     H114417   3.869   3.252   7.850  0.7245 -0.2180  0.6812
  866TP3     H214418   3.898   3.117   7.913  1.9399 -0.5856 -0.6307
  867TP3      O14419   1.382   2.988  10.063  0.6702 -0.2925  0.3959
  867TP3     H114420   1.368   3.083  10.064  0.9330 -0.2520  0.4464
  867TP3     H214421   1.352   2.958  10.149  0.9196 -0.2045  0.5127
  868TP3      O14422   3.617   1.329   8.076 -0.0009  0.1548 -0.1223
  868TP3     H114423   3.585   1.404   8.126  1.1115  2.8342 -3.1952
  868TP3     H214424   3.700   1.305   8.118 -0.6227  0.2863  1.1967
  869TP3      O14425   3.423   2.415   7.804 -0.1517  0.3409  0.5560
  869TP3     H114426   3.487   2.444   7.869  0.0752 -1.5450  1.2325
  869TP3     H214427   3.346   2.392   7.855 -0.1134 -0.7590  0.1395
  870TP3      O14428   2.164   3.599   8.732 -0.2811  0.3685 -0.0271
  870TP3     H114429   2.073   3.628   8.728 -0.5313 -0.4317 -0.1294
  870TP3     H214430   2.176   3.571   8.823  0.3818  2.1246  0.4638
  871TP3      O14431   2.960   2.888   7.397 -0.2603 -1.1061  0.2035
  871TP3     H114432   2.882   2.845   7.362 -1.8328  0.7054  1.3827
  871TP3     H214433   2.983   2.836   7.474 -1.7560 -0.2956  1.2362
  872TP3      O14434   3.514   2.171   8.564  0.3051  0.4060 -0.0714
  872TP3     H114435   3.562   2.102   8.610 -1.6188 -0.3286  0.8832
  872TP3     H214436   3.450   2.202   8.627 -0.2728  1.5935 -1.2149
  873TP3      O14437   5.361   1.084   8.878 -0.3737  0.3740 -0.2357
  873TP3     H114438   5.383   1.170   8.843  0.5166 -0.1029 -0.8613
  873TP3     H214439   5.307   1.043   8.810  0.9573 -0.3676 -0.8580
  874TP3      O14440   1.719   2.942   0.079  0.5600  0.1959 -0.0067
  874TP3     H114441   1.705   3.000   0.005 -1.1034  1.0801  0.9629
  874TP3     H214442   1.697   2.855   0.047 -3.1727  0.9685  0.2348
  875TP3      O14443   3.289   1.841   6.778 -0.1888  0.0121  0.1512
  875TP3     H114444   3.216   1.847   6.841 -0.6076 -3.6392  0.1139
  875TP3     H214445   3.367   1.860   6.830 -0.7872 -0.2001  1.1415
  876TP3      O14446   1.201   1.812   8.768  0.2704  0.2348 -0.2890
  876TP3     H114447   1.276   1.853   8.812  0.8008 -0.2910 -0.6785
  876TP3     H214448   1.185   1.732   8.818  1.6088 -0.9592 -1.6759
  877TP3      O14449   2.095   4.263   7.952  0.8177  0.1961  0.0077
  877TP3     H114450   2.054   4.191   7.999  0.6521  1.3990  1.7501
  877TP3     H214451   2.085   4.240   7.860 -1.6767 -0.6984  0.4542
  878TP3      O14452   1.380   1.144   8.823  0.0056  0.0361  0.1850
  878TP3     H114453   1.296   1.186   8.839 -0.1573  1.0242 -2.8958
  878TP3     H214454   1.414   1.122   8.910 -1.8185  2.7740  1.6357
  879TP3      O14455   3.208   1.376   0.298  0.4307  0.9030 -0.4834
  879TP3     H114456   3.196   1.349   0.207  1.0133 -0.2238 -0.2369
  879TP3     H214457   3.263   1.307   0.336 -2.2255 -0.1958  1.5030
  880TP3      O14458   3.873   3.724   8.155  0.7208  0.5213  0.2665
  880TP3     H114459   3.821   3.756   8.081  0.8896 -0.2790 -0.1994
  880TP3     H214460   3.847   3.632   8.165  2.0802  0.0973 -0.0003
  881TP3      O14461   3.064   2.682   7.547  0.1055  0.0409 -0.1518
  881TP3     H114462   3.050   2.723   7.632  1.5067  1.3216 -0.5269
  881TP3     H214463   3.011   2.603   7.550  0.5258 -0.1888  2.1002
  882TP3      O14464   5.439   0.412   7.381 -0.0834  0.4040 -0.2250
  882TP3     H114465   5.461   0.382   7.293  0.1236 -0.0711 -0.0131
  882TP3     H214466   5.420   0.332   7.430 -0.0630  0.6555  0.1993
  883TP3      O14467   3.840   3.423   7.684  0.2497 -0.4820 -0.2807
  883TP3     H114468   3.881   3.509   7.674  1.8363 -1.3188 -1.2608
  883TP3     H214469   3.851   3.403   7.777 -0.2633  0.4353 -0.0142
  884TP3      O14470   2.923   2.774   8.046 -0.1553  0.0583  0.0217
  884TP3     H114471   3.004   2.798   8.090  0.3806 -2.2828  0.3662
  884TP3     H214472   2.874   2.857   8.039  1.6203  1.2260  1.0857
  885TP3      O14473   2.669   2.833   6.871 -0.0276 -0.2641 -0.4980
  885TP3     H114474   2.576   2.850   6.882  0.2866  0.7924  0.6340
  885TP3     H214475   2.673   2.744   6.836 -1.4667 -0.2033 -0.8404
  886TP3      O14476   2.482   3.451   7.929 -0.2301  0.3969 -0.3311
  886TP3     H114477   2.457   3.375   7.876  0.8698  0.2402 -0.6330
  886TP3     H214478   2.577   3.451   7.927 -0.2205  1.6315 -0.0998
  887TP3      O14479   2.438   4.207   7.581 -0.0091 -0.2368  0.2036
  887TP3     H114480   2.369   4.265   7.549  2.3920  2.3984 -0.4433
  887TP3     H214481   2.447   4.229   7.673 -0.8431 -1.4394  0.5758
  888TP3      O14482   1.749   1.741   8.277 -0.4214  0.8159 -0.2286
  888TP3     H114483   1.722   1.764   8.188 -0.2424 -1.6880 -0.9656
  888TP3     H214484   1.692   1.668   8.301  3.7238 -2.7968 -0.7792
  889TP3      O14485   4.916   4.573   0.699 -0.8722  0.0179 -0.3210
  889TP3     H114486   4.825   4.598   0.710 -1.1490 -1.2063  0.2482
  889TP3     H214487   4.915   4.506   0.630 -0.4407 -0.1464 -0.1780
  890TP3      O14488   3.810   3.482   7.352 -0.3105 -0.2383  0.6955
  890TP3     H114489   3.811   3.535   7.273  0.8636 -0.4695  0.5512
  890TP3     H214490   3.761   3.535   7.416 -1.6139 -0.2365 -0.2928
  891TP3      O14491   4.368   5.062   7.958  0.0574  0.4741  0.5869
  891TP3     H114492   4.422   5.003   8.010 -0.1946  0.9510  1.3868
  891TP3     H214493   4.407   5.149   7.971 -2.0230  1.1445  2.7152
  892TP3      O14494   2.549   2.138   8.205  0.4224  0.4212  0.4201
  892TP3     H114495   2.512   2.216   8.245  2.8431  0.0341  3.6233
  892TP3     H214496   2.590   2.090   8.277  2.2181 -1.9592 -2.0213
  893TP3      O14497   3.070   4.346   7.416  0.3221 -0.0456 -0.4202
  893TP3     H114498   3.070   4.358   7.511  1.3227  1.6764 -0.6227
  893TP3     H214499   3.010   4.273   7.402  0.1290 -0.3013  1.5296
  894TP3      O14500   2.810   2.215  10.226 -0.1224 -0.5676  0.1483
  894TP3     H114501   2.762   2.298  10.226  2.7093  1.1383 -1.4210
  894TP3     H214502   2.785   2.174  10.144 -0.0348 -0.3653  0.0199
  895TP3      O14503   1.879   2.729   7.294 -0.4420 -1.4554 -0.1338
  895TP3     H114504   1.804   2.681   7.327  0.0487 -3.0571 -1.2508
  895TP3     H214505   1.881   2.708   7.200  1.2057 -1.2201 -0.1738
  896TP3      O14506   3.047   3.829   9.629  0.2688  0.1288  0.1185
  896TP3     H114507   3.119   3.790   9.579 -0.3609  0.2013 -0.8545
  896TP3     H214508   3.037   3.772   9.706  3.1671  1.6490  1.6918
  897TP3      O14509   3.482   2.627   8.783  0.4328 -0.2279 -0.1164
  897TP3     H114510   3.408   2.658   8.835 -1.4791 -3.2134 -0.9130
  897TP3     H214511   3.509   2.546   8.827  2.8539  0.5158 -0.1856
  898TP3      O14512   3.849   2.656   8.873  0.1591 -0.3425  0.3569
  898TP3     H114513   3.852   2.596   8.798  0.7562  0.5236 -0.3132
  898TP3     H214514   3.817   2.601   8.945 -1.3781 -0.9392 -0.7500
  899TP3      O14515   3.758   2.493   9.066 -0.4569  0.0877  0.2742
  899TP3     H114516   3.761   2.441   9.146 -1.0539  0.3893  0.4949
  899TP3     H214517   3.673   2.472   9.026 -0.1872 -0.0225 -0.2526
  900TP3      O14518   1.497   2.001  10.272  0.2830  0.4238  0.3115
  900TP3     H114519   1.414   2.048  10.272 -0.4344 -0.8176  0.6014
  900TP3     H214520   1.555   2.055  10.219 -0.2159  2.1732  1.5018
  901TP3      O14521   4.371   1.779   8.667  0.3846 -0.3904 -0.1165
  901TP3     H114522   4.369   1.724   8.588 -0.2315 -0.6437  0.0727
  901TP3     H214523   4.288   1.760   8.711 -0.3718  1.5749 -0.6621
  902TP3      O14524   2.873   1.243   9.046  0.1406  0.4996  0.3766
  902TP3     H114525   2.871   1.154   9.080  0.9509  0.1635 -0.4192
  902TP3     H214526   2.801   1.246   8.983  1.8259 -0.5052 -1.7088
  903TP3      O14527   2.576   1.704   7.792 -0.3641 -0.2298  0.6144
  903TP3     H114528   2.598   1.705   7.885 -2.0623 -0.3220  1.0477
  903TP3     H214529   2.528   1.786   7.778 -0.8313 -0.5988  0.0114
  904TP3      O14530   0.394   3.211   9.043  0.2313  0.1298  0.3916
  904TP3     H114531   0.320   3.235   8.986 -0.8618 -0.1048  1.6765
  904TP3     H214532   0.355   3.152   9.108  1.4081  0.5817  1.5150
  905TP3      O14533   1.768   3.589   6.756  0.6808 -0.5003  0.0202
  905TP3     H114534   1.675   3.567   6.753  0.9752 -2.0310  1.3963
  905TP3     H214535   1.770   3.683   6.774 -0.5971  0.0178 -2.3451
  906TP3      O14536   3.514   1.764   8.021  0.1984 -0.4724  0.0423
  906TP3     H114537   3.554   1.845   8.053 -2.1968  0.9464 -0.4140
  906TP3     H214538   3.447   1.743   8.086 -1.0310 -0.5549 -1.2252
  907TP3      O14539   0.858   1.612   8.732  0.5408  0.1105 -0.6763
  907TP3     H114540   0.855   1.607   8.636 -1.2395  0.9386 -0.6942
  907TP3     H214541   0.771   1.583   8.760  1.0472 -0.1241  0.6909
  908TP3      O14542   3.011   3.575   7.504  0.7476 -0.5533  0.4842
  908TP3     H114543   2.958   3.540   7.432  0.6410 -0.7282  0.6483
  908TP3     H214544   2.998   3.670   7.500 -1.6719 -0.7761  2.1708
  909TP3      O14545   2.150   3.531   7.352  0.1801 -0.4384  0.5245
  909TP3     H114546   2.070   3.583   7.360 -0.0679 -0.9706  1.6390
  909TP3     H214547   2.179   3.518   7.442 -0.1469 -2.8137  0.3165
  910TP3      O14548   2.012   3.818   7.838  0.3939  0.0814 -0.5886
  910TP3     H114549   2.102   3.825   7.870  0.8486 -1.6111 -1.4486
  910TP3     H214550   2.007   3.881   7.765  1.3800 -1.0179 -1.6208
  911TP3      O14551   3.181   3.287   6.811 -0.0816 -0.0650 -0.5326
  911TP3     H114552   3.137   3.215   6.767 -1.1369  0.6221 -0.6226
  911TP3     H214553   3.248   3.245   6.866 -1.2228 -1.1548  0.0298
  912TP3      O14554   4.244   3.001   7.376  0.0758 -0.4688  0.0834
  912TP3     H114555   4.252   3.060   7.301 -0.8779  0.4510  0.6868
  912TP3     H214556   4.313   3.030   7.436  0.4909 -0.8558 -0.2060
  913TP3      O14557   3.575   1.537   8.257 -0.0471 -0.3810  0.3035
  913TP3     H114558   3.488   1.566   8.232  0.1996  0.5667  0.5220
  913TP3     H214559   3.573   1.530   8.353  0.2055 -0.0565  0.3351
  914TP3      O14560   0.182   3.043   7.850  0.1179 -0.4463 -0.3058
  914TP3     H114561   0.114   3.060   7.915  1.9712  0.6709  1.3829
  914TP3     H214562   0.159   3.100   7.777 -0.5671  0.1766  0.3841
  915TP3      O14563   4.884   5.058   7.806 -0.0803  0.7636  0.3036
  915TP3     H114564   4.971   5.060   7.844 -0.2630 -2.5121  1.0226
  915TP3     H214565   4.897   5.027   7.717 -0.5196  0.2104  0.4319
  916TP3      O14566   2.897   4.082   0.315  0.3882  0.4448 -0.4648
  916TP3     H114567   2.856   4.168   0.312  0.3265  0.4404  0.1478
  916TP3     H214568   2.949   4.084   0.395 -1.0912 -0.7439  0.5547
  917TP3      O14569   2.922   2.872   6.982 -0.1900  0.5122 -0.1060
  917TP3     H114570   2.970   2.798   6.945 -0.9667  0.1766 -0.4541
  917TP3     H214571   2.831   2.858   6.955 -0.1698  2.1704 -1.0568
  918TP3      O14572   0.537   4.802   9.337  0.1634 -0.2014  0.2212
  918TP3     H114573   0.572   4.722   9.377 -1.4372 -1.2777 -0.4690
  918TP3     H214574   0.483   4.841   9.406 -0.0548 -0.3768  0.1499
  919TP3      O14575   1.850   0.448   7.918 -0.1181  0.0837 -0.2678
  919TP3     H114576   1.851   0.489   8.005 -1.6732 -0.1079 -0.1542
  919TP3     H214577   1.931   0.397   7.915  0.1990  0.5102  0.8760
  920TP3      O14578   3.777   3.443   8.216  0.1379  0.3803  0.1601
  920TP3     H114579   3.686   3.418   8.207  0.6545 -1.1325 -1.0813
  920TP3     H214580   3.805   3.405   8.299 -0.1055  0.0517  0.0919
  921TP3      O14581   4.206   3.887   9.493 -0.3170 -0.5316  0.3384
  921TP3     H114582   4.240   3.917   9.409 -3.3309  1.6944 -0.1496
  921TP3     H214583   4.275   3.829   9.528  2.5591  1.4270 -1.9232
  922TP3      O14584   1.813   2.399   8.016  0.0301  0.2561  0.0619
  922TP3     H114585   1.740   2.439   8.064  0.1909 -0.9406  1.3271
  922TP3     H214586   1.867   2.358   8.084 -1.5372 -4.4379 -1.3265
  923TP3      O14587   3.505   3.062   7.973  0.2789 -0.1508 -0.0095
  923TP3     H114588   3.411   3.078   7.980  0.5311  0.8185  1.2115
  923TP3     H214589   3.519   3.044   7.880 -1.2391 -1.1769 -0.0611
  924TP3      O14590   1.967   1.158   7.722 -0.5711 -0.1345 -0.3884
  924TP3     H114591   2.031   1.141   7.653  0.2468  0.1386  0.2918
  924TP3     H214592   1.892   1.103   7.699  0.0238 -0.6892 -1.0352
  925TP3      O14593   2.102   1.522  10.298  0.0235  0.0563 -0.1287
  925TP3     H114594   2.051   1.545  10.376  2.0393  1.4160  0.8353
  925TP3     H214595   2.111   1.605  10.251 -0.1204 -0.5214 -1.1797
  926TP3      O14596   2.361   1.812   9.880 -0.4695 -0.6322  0.4613
  926TP3     H114597   2.392   1.736   9.929 -2.3069 -0.8530  1.3217
  926TP3     H214598   2.317   1.774   9.804  1.6660 -0.3104 -0.9668
  927TP3      O14599   1.371   1.250  10.011 -0.4862  0.1056  0.0731
  927TP3     H114600   1.430   1.175  10.024  0.5065  0.5980 -1.4188
  927TP3     H214601   1.307   1.219   9.947 -0.4615  0.3117 -0.0521
  928TP3      O14602   2.769   4.964   9.044  0.2676  0.3384 -0.1332
  928TP3     H114603   2.762   5.020   8.967  1.1474 -0.3342 -0.7108
  928TP3     H214604   2.705   4.894   9.028  0.6710  0.0314 -0.3919
  929TP3      O14605   5.233   1.705   1.202  0.6741  0.2423 -0.1603
  929TP3     H114606   5.267   1.624   1.240  1.4226  0.8602  0.4978
  929TP3     H214607   5.155   1.724   1.253 -0.2877 -0.7870 -1.2029
  930TP3      O14608   0.779   1.569   9.633  0.6853  0.0295 -0.2140
  930TP3     H114609   0.865   1.533   9.653  0.9778 -0.9488 -2.9783
  930TP3     H214610   0.717   1.499   9.654  0.7260  0.0747  0.0540
  931TP3      O14611   0.967   1.436   7.668 -0.2328 -0.3471 -0.0563
  931TP3     H114612   0.942   1.508   7.726 -0.4987 -0.7220  0.2987
  931TP3     H214613   1.041   1.395   7.713  2.2087  1.8437 -1.9576
  932TP3      O14614   3.506   3.722   0.278  0.5426 -0.4430  0.1684
  932TP3     H114615   3.559   3.666   0.222  1.5599 -2.0786  2.6601
  932TP3     H214616   3.416   3.706   0.251  1.0920  0.1868 -2.1711
  933TP3      O14617   2.450   3.436   7.311  0.1532 -0.1116 -0.3905
  933TP3     H114618   2.519   3.497   7.337 -1.3614  0.8270  1.4982
  933TP3     H214619   2.389   3.490   7.260 -0.4310 -0.3885  0.0212
  934TP3      O14620   1.712   4.167   8.417  0.3209 -0.4621  0.0654
  934TP3     H114621   1.789   4.185   8.363 -0.3004  1.7488 -0.1307
  934TP3     H214622   1.718   4.230   8.489 -1.0745 -0.5326  0.2540
  935TP3      O14623   2.331   2.269   8.318 -0.2190  0.1949 -0.3849
  935TP3     H114624   2.317   2.203   8.250 -0.7435 -0.1582  0.0606
  935TP3     H214625   2.275   2.342   8.291 -1.8073 -0.6250  0.5816
  936TP3      O14626   0.605   1.989   7.343 -0.0866  0.0583 -0.5799
  936TP3     H114627   0.608   1.909   7.396  0.2652  0.2191 -0.3544
  936TP3     H214628   0.688   1.989   7.295 -0.5859 -0.3062 -1.4565
  937TP3      O14629   0.093   4.926   9.708  0.0710 -0.3125  0.2263
  937TP3     H114630   0.070   5.019   9.710 -0.5254 -0.4919  2.2783
  937TP3     H214631   0.137   4.910   9.791  2.5075 -1.3127 -1.1931
  938TP3      O14632   4.481   3.996   9.256  0.4599  0.0789  0.0685
  938TP3     H114633   4.530   4.034   9.183  1.5829  0.2758  0.9068
  938TP3     H214634   4.542   3.934   9.296  0.2529  0.8080  1.5397
  939TP3      O14635   4.685   4.029   8.686 -0.1695  0.5322 -0.3284
  939TP3     H114636   4.761   4.064   8.640 -0.3345  0.1461 -0.9008
  939TP3     H214637   4.703   4.046   8.778  0.4378  0.7789 -0.4890
  940TP3      O14638   0.848   1.402   7.436  0.0948 -0.7855  0.7835
  940TP3     H114639   0.895   1.424   7.517  1.2935  1.2096 -0.4244
  940TP3     H214640   0.755   1.407   7.461  0.4283  1.1099  1.7427
  941TP3      O14641   2.383   1.514   7.721 -0.4129 -0.6516  0.4248
  941TP3     H114642   2.459   1.572   7.722  0.4766 -1.7703  0.1159
  941TP3     H214643   2.341   1.526   7.806  0.5428 -0.5569  0.8871
  942TP3      O14644   4.217   2.204   7.669  0.4542 -0.5742 -0.0451
  942TP3     H114645   4.269   2.124   7.658  0.2196 -0.8028  0.4628
  942TP3     H214646   4.188   2.227   7.581 -1.2315 -2.2278  0.0400
  943TP3      O14647   2.605   1.160   9.598  0.0110 -0.1126  0.4272
  943TP3     H114648   2.520   1.121   9.578 -0.4810  2.3982 -2.7984
  943TP3     H214649   2.642   1.182   9.512  2.6149  1.4777  1.8956
  944TP3      O14650   1.927   3.973   7.297 -0.6724 -0.4524 -0.1500
  944TP3     H114651   1.989   4.046   7.300 -1.7620  0.4967 -0.3831
  944TP3     H214652   1.887   3.980   7.210 -3.1985  0.7205  1.0535
  945TP3      O14653   3.527   2.392   8.909  0.3199  0.4453 -0.0609
  945TP3     H114654   3.432   2.390   8.924  0.5502  1.8360  1.7586
  945TP3     H214655   3.550   2.302   8.888 -1.0981 -0.3066  1.5195
  946TP3      O14656   4.519   1.820   9.711  0.4355  0.2275 -0.0181
  946TP3     H114657   4.544   1.907   9.680  1.5278  0.2941  1.0010
  946TP3     H214658   4.476   1.837   9.795  0.7838 -0.2365  0.2516
  947TP3      O14659   3.712   2.066   7.257 -0.0626  0.5787 -0.2489
  947TP3     H114660   3.702   2.022   7.342 -1.0635  1.8698  0.3172
  947TP3     H214661   3.677   2.004   7.193  0.2413 -0.2010  0.3413
  948TP3      O14662   3.758   2.260   8.339  0.1602 -0.4778 -0.1492
  948TP3     H114663   3.734   2.168   8.326 -0.1387 -0.5005  0.5351
  948TP3     H214664   3.822   2.278   8.270 -0.9740 -0.7393 -1.2942
  949TP3      O14665   3.676   1.008   1.853 -0.3032 -0.4551 -0.0264
  949TP3     H114666   3.641   0.968   1.774  2.9503 -0.9327 -1.3379
  949TP3     H214667   3.723   1.086   1.822  1.6477 -1.0591  1.3111
  950TP3      O14668   1.717   1.828  10.131  0.1658  0.7099 -0.1977
  950TP3     H114669   1.765   1.762  10.081  0.2916  0.6224  0.0341
  950TP3     H214670   1.777   1.903  10.136  0.7146  0.2079  1.0099
  951TP3      O14671   3.513   0.072   9.972  0.6934 -0.5484  0.0944
  951TP3     H114672   3.602   0.068   9.936  0.4650 -0.9489 -0.4433
  951TP3     H214673   3.487  -0.020   9.980 -0.0506 -0.4231 -0.7272
  952TP3      O14674   3.097   1.796   6.595  0.1863 -0.3403 -0.6253
  952TP3     H114675   3.188   1.807   6.624 -0.0344 -0.3362  0.0791
  952TP3     H214676   3.045   1.821   6.671 -0.4053 -0.5359 -0.9670
  953TP3      O14677   3.470   4.170   8.480 -0.0534 -0.1605  0.0514
  953TP3     H114678   3.410   4.114   8.528  0.4861  0.1190  1.0558
  953TP3     H214679   3.545   4.115   8.460 -0.6762 -0.5363 -1.2879
  954TP3      O14680   1.464   3.536   8.930  0.5464 -0.0751 -0.2143
  954TP3     H114681   1.532   3.599   8.953  0.2073  0.7164 -1.3320
  954TP3     H214682   1.384   3.571   8.968  0.1899  0.6538 -1.6275
  955TP3      O14683   2.802   3.233   0.357  0.3157 -0.8149  0.4789
  955TP3     H114684   2.860   3.253   0.283 -1.1832  0.7250 -0.3317
  955TP3     H214685   2.756   3.154   0.331 -3.3485  2.0103 -2.2683
  956TP3      O14686   2.083   2.011   7.462 -0.4092 -0.4399  0.5653
  956TP3     H114687   2.127   1.947   7.519 -1.1199 -0.0439  1.5796
  956TP3     H214688   2.119   2.095   7.488  1.0416 -0.4775 -1.2621
  957TP3      O14689   3.401   1.988   7.661 -0.1361  0.6230  0.4125
  957TP3     H114690   3.486   2.019   7.695  1.6568 -1.5823 -1.8969
  957TP3     H214691   3.361   1.942   7.735  1.3965  0.3261  1.0799
  958TP3      O14692   1.122   1.303   9.182 -0.4433  0.5566 -0.2325
  958TP3     H114693   1.093   1.372   9.243 -2.9750 -0.6990  0.0406
  958TP3     H214694   1.080   1.325   9.099 -2.1007 -1.1564  0.1084
  959TP3      O14695   2.733   4.375   7.188  0.6158 -0.1682 -0.6679
  959TP3     H114696   2.769   4.448   7.137 -1.6551  0.5080 -1.3654
  959TP3     H214697   2.642   4.401   7.205  0.0086 -2.4890 -0.2510
  960TP3      O14698   3.832   2.961   9.208 -0.0578 -0.4007  0.0913
  960TP3     H114699   3.779   2.956   9.288  1.8946  0.2773  1.4830
  960TP3     H214700   3.888   3.037   9.222 -0.7033  0.6113 -2.6012
  961TP3      O14701   5.427   3.551   8.122 -0.0055 -0.3055  0.2309
  961TP3     H114702   5.504   3.497   8.141  0.3867 -0.7116 -2.3986
  961TP3     H214703   5.390   3.513   8.042 -2.4960  0.3869  1.0186
  962TP3      O14704   3.159   2.104   8.084 -0.6324 -0.2205 -0.4631
  962TP3     H114705   3.215   2.092   8.160 -1.5004 -0.7967  0.0990
  962TP3     H214706   3.091   2.036   8.093  0.1733 -1.3632 -2.6020
  963TP3      O14707   3.624   2.115   7.792  0.2903  0.1682  0.2760
  963TP3     H114708   3.692   2.107   7.859  0.4991  1.3158  0.2095
  963TP3     H214709   3.614   2.209   7.779  0.5999 -0.0425 -1.6546
  964TP3      O14710   2.318   3.673   7.179 -0.2632  0.0521 -0.0593
  964TP3     H114711   2.348   3.763   7.188 -0.9460  0.3078 -0.2644
  964TP3     H214712   2.274   3.653   7.262  1.2055 -0.6107  0.5745
  965TP3      O14713   3.233   3.109   7.979  0.2991 -0.3828  0.1519
  965TP3     H114714   3.150   3.090   7.935  0.3550  0.7585 -0.4688
  965TP3     H214715   3.236   3.205   7.986  1.5552 -0.4075  0.1836
  966TP3      O14716   4.884   3.229   8.428  0.4824  0.2374  0.4500
  966TP3     H114717   4.888   3.134   8.440 -0.6346  0.0698 -0.4781
  966TP3     H214718   4.862   3.241   8.336 -0.1791  1.3815  0.7432
  967TP3      O14719   4.990   1.364   9.080  0.1874 -0.2110 -0.5097
  967TP3     H114720   4.966   1.280   9.117 -1.6792 -0.4488 -2.2130
  967TP3     H214721   4.947   1.429   9.137 -1.1361 -0.5144 -1.1587
  968TP3      O14722   4.320   4.511  10.051  0.3552 -0.3014 -0.0685
  968TP3     H114723   4.411   4.534  10.033  0.7134 -0.5293  1.3749
  968TP3     H214724   4.287   4.477   9.968  0.9795  1.6652 -1.1553
  969TP3      O14725   0.560   4.252   8.365  0.4816  0.4453 -0.0568
  969TP3     H114726   0.494   4.232   8.298 -0.8764  0.7495  1.1840
  969TP3     H214727   0.642   4.259   8.315  0.0036 -2.2011 -1.3426
  970TP3      O14728   3.395   4.116   7.541 -0.1831  0.1338  0.1840
  970TP3     H114729   3.414   4.192   7.597  1.2583 -0.1019  0.0543
  970TP3     H214730   3.307   4.131   7.509 -0.7546  0.6412  1.9392
  971TP3      O14731   3.379   1.421   7.905 -0.0318 -0.2894 -0.3272
  971TP3     H114732   3.331   1.346   7.939  0.7174 -0.7034 -0.1844
  971TP3     H214733   3.363   1.490   7.969  2.1996 -1.3566  1.4069
  972TP3      O14734   2.804   0.723   7.672  0.1249 -0.0480  0.1220
  972TP3     H114735   2.764   0.769   7.598  0.5993  0.3248  0.0967
  972TP3     H214736   2.775   0.772   7.749 -0.9235 -0.8354  0.2407
  973TP3      O14737   1.512   1.644   7.286  0.1356 -0.1284 -0.0530
  973TP3     H114738   1.428   1.616   7.321  1.3928 -2.2934  1.3461
  973TP3     H214739   1.550   1.699   7.355  1.0765 -1.4651  0.4996
  974TP3      O14740   2.850   0.989   9.146 -0.0536  0.0509 -0.1046
  974TP3     H114741   2.919   0.943   9.098 -0.4380  0.7505 -1.3430
  974TP3     H214742   2.775   0.930   9.142 -0.3699  0.5136 -1.1907
  975TP3      O14743   1.268   1.608   7.364  0.3412 -0.5835 -0.1706
  975TP3     H114744   1.208   1.536   7.344  1.0687 -1.5722  1.0688
  975TP3     H214745   1.263   1.616   7.460 -0.7897  1.9726 -0.3928
  976TP3      O14746   2.025   3.037   9.032  0.0111  0.5232  0.1272
  976TP3     H114747   2.027   3.114   8.975  0.3006  0.7176  0.3986
  976TP3     H214748   1.934   3.007   9.030 -0.8369  2.7316  2.5064
  977TP3      O14749   2.703   3.898   7.714 -0.7802  0.4076  0.5344
  977TP3     H114750   2.696   3.984   7.672  0.5339  1.1166  1.7351
  977TP3     H214751   2.723   3.918   7.805 -2.4471 -1.1455  1.2789
  978TP3      O14752   3.398   1.793   7.457  0.3182  0.4744 -0.1932
  978TP3     H114753   3.409   1.848   7.534 -0.5934 -0.6343  0.7574
  978TP3     H214754   3.484   1.753   7.444  0.1756 -0.2326  0.9650
  979TP3      O14755   1.931   3.701   7.317 -0.1535  0.3857  0.3171
  979TP3     H114756   1.866   3.697   7.248  0.7695 -1.8795 -0.4867
  979TP3     H214757   1.961   3.792   7.318 -1.9427  0.9904 -0.5763
  980TP3      O14758   2.860   4.006   7.984 -0.0111  0.1802  0.5583
  980TP3     H114759   2.767   4.026   7.991 -0.0093  0.1906  0.5524
  980TP3     H214760   2.891   4.059   7.910  0.0677  0.4274  0.7676
  981TP3      O14761   2.988   3.709   6.987 -0.4715 -0.0108  0.1000
  981TP3     H114762   3.074   3.687   7.021 -1.2740 -1.4446  1.2431
  981TP3     H214763   2.932   3.715   7.065 -1.8624 -1.1910 -0.7740
  982TP3      O14764   2.626   2.972   7.601 -0.0697  0.3442  0.1176
  982TP3     H114765   2.669   3.038   7.547  0.4207  0.5018  0.6957
  982TP3     H214766   2.688   2.899   7.602 -0.5359 -0.0617 -0.3808
  983TP3      O14767   0.869   1.145   7.332 -0.7229  0.1144 -0.2216
  983TP3     H114768   0.912   1.177   7.252  0.2541  0.3788  0.4007
  983TP3     H214769   0.860   1.222   7.387 -0.2670 -0.2990  0.4324
  984TP3      O14770   2.173   2.867   8.564 -0.1924  0.0105 -0.2281
  984TP3     H114771   2.099   2.825   8.520 -0.1087 -0.7487  0.3572
  984TP3     H214772   2.163   2.846   8.656  0.1153  0.8821  0.0171
  985TP3      O14773   4.433   2.516   9.329 -0.1249 -0.2682  0.6186
  985TP3     H114774   4.407   2.437   9.377  1.8585 -0.0588  2.0560
  985TP3     H214775   4.471   2.483   9.248  0.8234 -0.8098  1.2774
  986TP3      O14776   3.586   3.019   8.708  1.0503  0.5127 -0.5966
  986TP3     H114777   3.580   2.982   8.796  0.7316  2.5238  0.2454
  986TP3     H214778   3.597   2.943   8.651  1.6309 -0.7828  1.2082
  987TP3      O14779   3.201   5.192   8.926 -0.1200  0.5233  0.2101
  987TP3     H114780   3.269   5.152   8.872 -1.3869 -0.7613 -0.4854
  987TP3     H214781   3.119   5.160   8.888 -1.0632  0.1342  2.4740
  988TP3      O14782   4.461   3.318   7.328  0.2940  0.4659  0.1428
  988TP3     H114783   4.456   3.245   7.267 -0.4237  1.1303 -0.6049
  988TP3     H214784   4.383   3.309   7.383  0.5065  0.3376  0.4209
  989TP3      O14785   0.929   2.663   8.830  0.7397 -0.3510 -0.3627
  989TP3     H114786   0.890   2.644   8.915  2.3047 -1.7267  0.0701
  989TP3     H214787   0.901   2.752   8.810 -1.9585 -1.0247  0.2782
  990TP3      O14788   0.827   4.399   8.163 -0.4333 -0.2595 -0.7940
  990TP3     H114789   0.837   4.304   8.160 -2.3292 -0.5532  0.8392
  990TP3     H214790   0.787   4.422   8.079 -0.9982 -1.0518 -0.7402
  991TP3      O14791   4.918   3.908   8.942  0.2029 -0.2436 -0.7231
  991TP3     H114792   4.959   3.979   8.892  2.6334 -0.2376  1.2425
  991TP3     H214793   4.836   3.947   8.974  1.1474  1.4413 -0.3003
  992TP3      O14794   3.171   1.637   7.410 -0.4821  0.0719 -0.1906
  992TP3     H114795   3.252   1.681   7.436 -1.2190  1.2822  0.0965
  992TP3     H214796   3.195   1.544   7.404  0.8530  0.3838  0.1522
  993TP3      O14797   3.368   3.196   8.415  0.1757 -0.4222  0.1089
  993TP3     H114798   3.449   3.191   8.363  1.1471  0.9893  1.4362
  993TP3     H214799   3.298   3.182   8.352  1.4302 -0.6929 -1.2440
  994TP3      O14800   0.070   3.400   7.411 -0.3248  0.5451 -0.3458
  994TP3     H114801   0.059   3.327   7.351 -1.0850  1.3732 -1.2328
  994TP3     H214802  -0.016   3.410   7.452 -0.2434  0.9829 -0.2783
  995TP3      O14803   4.370   1.321   7.427 -0.0535 -0.0179 -0.2270
  995TP3     H114804   4.458   1.320   7.464 -0.3072 -0.9506  0.3575
  995TP3     H214805   4.374   1.259   7.354 -0.3434 -0.3886  0.0706
  996TP3      O14806   4.353   1.587   8.424 -0.5865 -0.4752 -0.3910
  996TP3     H114807   4.353   1.581   8.328 -1.3050  1.2646 -0.5057
  996TP3     H214808   4.265   1.616   8.446  0.2943  1.4592  0.6456
  997TP3      O14809   4.888   3.465   8.267 -0.2593  0.0762  0.3326
  997TP3     H114810   4.882   3.415   8.348  1.2573  0.0608  0.4473
  997TP3     H214811   4.875   3.399   8.198 -0.1826 -0.1435  0.5260
  998TP3      O14812   5.410   2.094   7.012  0.2962 -0.0138  0.7147
  998TP3     H114813   5.442   2.085   6.922 -0.3506  1.9888  0.2461
  998TP3     H214814   5.477   2.145   7.056  0.1793 -0.2059  1.1150
  999TP3      O14815   4.890   1.553   9.250 -0.2875 -0.3469  0.0696
  999TP3     H114816   4.827   1.608   9.202  0.9045 -0.4632 -1.6568
  999TP3     H214817   4.944   1.616   9.298  2.0702  0.2047 -3.0975
 1000TP3      O14818   4.954   2.848   7.047 -0.1021  0.4797  0.1680
 1000TP3     H114819   5.010   2.830   7.122  0.0088  0.8343  0.1687
 1000TP3     H214820   4.987   2.791   6.978  0.3737  0.8231  0.1121
 1001TP3      O14821   4.060   0.952   9.317  1.0954 -0.0636 -0.6879
 1001TP3     H114822   4.029   0.962   9.406  1.8977  2.3850 -0.6550
 1001TP3     H214823   4.154   0.933   9.326  0.7373 -2.1673 -0.9706
 1002TP3      O14824   4.241   3.328   8.541  0.8181 -0.1644 -0.6472
 1002TP3     H114825   4.305   3.354   8.608  0.9781 -3.0558  0.4006
 1002TP3     H214826   4.157   3.332   8.586  0.7196 -0.2877 -0.8221
 1003TP3      O14827   0.315   2.238   9.603  0.2642  0.0124 -0.1577
 1003TP3     H114828   0.397   2.216   9.648 -0.1357  0.3913  0.7573
 1003TP3     H214829   0.341   2.251   9.512  1.0540 -0.9202 -0.0791
 1004TP3      O14830   4.465   2.169   8.956 -0.4992 -0.3787 -0.6318
 1004TP3     H114831   4.435   2.098   9.013  2.3583 -0.9073  0.2571
 1004TP3     H214832   4.499   2.124   8.879  1.0307  0.0293 -0.2020
 1005TP3      O14833   0.955   3.885  10.113 -0.0999  0.7588  0.2185
 1005TP3     H114834   0.974   3.966  10.066 -2.8339  0.9140 -0.7434
 1005TP3     H214835   0.895   3.911  10.183 -1.2044 -0.4450 -0.2519
 1006TP3      O14836   2.743   5.027   0.081  0.2445 -0.0066 -0.4944
 1006TP3     H114837   2.835   5.002   0.067  0.3917 -0.4629  1.1508
 1006TP3     H214838   2.732   5.109   0.033  2.1476  1.2453  1.1310
 1007TP3      O14839   3.900   3.285   7.192 -0.0105 -0.5149 -0.1123
 1007TP3     H114840   3.865   3.355   7.247 -0.9309 -1.0256 -0.0330
 1007TP3     H214841   3.925   3.329   7.110  0.1361  0.0262  0.2232
 1008TP3      O14842   0.551   3.896   0.811 -0.1065  0.5203  0.2884
 1008TP3     H114843   0.493   3.894   0.887  0.0267  0.7316  0.3980
 1008TP3     H214844   0.639   3.882   0.849  0.1227  2.0619  0.3410
 1009TP3      O14845   4.465   3.903   7.975 -0.1682  0.4382  0.4302
 1009TP3     H114846   4.457   3.990   8.013  0.7400  0.2434  1.0854
 1009TP3     H214847   4.558   3.893   7.956 -0.6643  0.7477 -2.3830
 1010TP3      O14848   3.808   1.663   7.197 -0.1187 -0.4285  0.0657
 1010TP3     H114849   3.760   1.743   7.177 -1.9132 -1.1992  1.1192
 1010TP3     H214850   3.859   1.644   7.118  0.1390  1.6062 -0.2684
 1011TP3      O14851   0.828   2.926   7.540 -1.0746 -0.7186  0.5152
 1011TP3     H114852   0.763   2.970   7.595  0.5753  3.7426 -0.9017
 1011TP3     H214853   0.904   2.984   7.542  1.7303 -4.1836 -0.5144
 1012TP3      O14854   0.231   3.570   7.563  0.9443 -0.2163  0.7976
 1012TP3     H114855   0.188   3.499   7.515 -3.2619  2.3734  0.4618
 1012TP3     H214856   0.296   3.604   7.502  0.2750 -1.2527 -0.5275
 1013TP3      O14857   5.082   3.859   6.861 -0.1811 -0.1828  0.2447
 1013TP3     H114858   5.061   3.820   6.776  1.8233 -0.1844 -0.2691
 1013TP3     H214859   5.088   3.785   6.921 -1.0326 -0.2322  0.2758
 1014TP3      O14860   0.043   2.627   7.380  0.2090  0.0479 -0.3508
 1014TP3     H114861   0.080   2.559   7.324  0.3774  1.0932 -1.5331
 1014TP3     H214862  -0.047   2.637   7.349  0.0479  0.0509  0.1174
 1015TP3      O14863   4.679   3.654   8.190  0.2406 -0.4817 -0.3051
 1015TP3     H114864   4.585   3.640   8.191  0.1648 -0.0825 -1.2819
 1015TP3     H214865   4.716   3.579   8.236 -0.7647  1.0664  3.2544
 1016TP3      O14866   1.222   2.317   8.021 -0.4239  0.5531  0.0279
 1016TP3     H114867   1.222   2.348   8.111 -0.2213 -1.4920  0.7537
 1016TP3     H214868   1.129   2.304   8.001 -0.5000  1.4455 -0.2305
 1017TP3      O14869   3.988   3.231   7.587  0.1066 -0.4998  0.3019
 1017TP3     H114870   3.952   3.318   7.604  0.3569 -0.4760  0.7164
 1017TP3     H214871   3.966   3.180   7.664 -0.5412 -0.9721 -0.1913
 1018TP3      O14872   5.168   2.649   8.094  0.2708  0.4267  0.1276
 1018TP3     H114873   5.208   2.592   8.029  2.0013 -1.1879  2.5345
 1018TP3     H214874   5.192   2.737   8.067  3.4579 -0.3858  0.1933
 1019TP3      O14875   3.856   2.915   7.693 -0.0218 -0.3126  0.4613
 1019TP3     H114876   3.867   2.996   7.743  0.5314 -1.3759  2.1208
 1019TP3     H214877   3.929   2.915   7.631  0.7408 -0.1488  1.3411
 1020TP3      O14878   5.351   3.241   7.222 -0.0428 -0.3184 -0.0676
 1020TP3     H114879   5.441   3.208   7.226 -0.0863 -0.3368  1.0228
 1020TP3     H214880   5.297   3.162   7.217 -0.0214 -0.3224 -0.2483
 1021TP3      O14881   4.105   2.924   8.236 -0.2200 -0.2031 -0.0201
 1021TP3     H114882   4.138   2.981   8.306  1.6491  0.0241 -1.0317
 1021TP3     H214883   4.110   2.835   8.273 -1.9028  0.1598  1.1034
 1022TP3      O14884   0.163   3.864   6.696  0.1240 -0.1073  0.4388
 1022TP3     H114885   0.209   3.947   6.679 -1.8157  1.0707  0.7726
 1022TP3     H214886   0.218   3.819   6.760  0.6605  1.4303  1.0916
 1023TP3      O14887   3.753   3.186   8.572  0.4588  0.2901 -0.5749
 1023TP3     H114888   3.698   3.130   8.628 -0.3284 -0.6865 -2.2755
 1023TP3     H214889   3.732   3.158   8.483  2.8549  0.7468 -1.3115
 1024TP3      O14890   5.104   3.774   7.284 -0.3388  0.2172  0.0734
 1024TP3     H114891   5.148   3.700   7.243 -1.7124 -0.3225 -0.4551
 1024TP3     H214892   5.090   3.747   7.374  2.7659  1.4402  1.0163
 1025TP3      O14893   2.911   2.554   8.385  0.3283  0.6109  0.1283
 1025TP3     H114894   2.983   2.533   8.444  0.1392 -1.1755 -0.2658
 1025TP3     H214895   2.929   2.504   8.305 -0.9342  0.7533 -0.2623
 1026TP3      O14896   0.776   1.528   9.954 -0.1129 -0.4365 -0.2765
 1026TP3     H114897   0.867   1.558   9.950  0.5207 -1.9318  2.0737
 1026TP3     H214898   0.756   1.525  10.048 -2.8259  0.5219 -0.7922
 1027TP3      O14899   5.187   3.163   8.961  0.0980 -0.2190 -0.1960
 1027TP3     H114900   5.190   3.251   8.923  1.6774  0.1727  0.7973
 1027TP3     H214901   5.191   3.104   8.886  2.3772  0.5516 -0.7229
 1028TP3      O14902   5.382   2.831   9.754 -0.2870  0.0842  0.6086
 1028TP3     H114903   5.388   2.743   9.716 -2.5614 -0.2065  0.8449
 1028TP3     H214904   5.336   2.882   9.688  0.2132  0.8741  0.8639
 1029TP3      O14905   4.298   5.017   8.264 -0.3356 -0.4711  0.5620
 1029TP3     H114906   4.244   5.080   8.311 -1.8349 -1.2773 -0.0745
 1029TP3     H214907   4.275   5.029   8.172  0.9200 -0.4975  0.2258
 1030TP3      O14908   5.388   2.348   8.873 -0.4347 -0.2990 -0.9299
 1030TP3     H114909   5.402   2.276   8.811  1.8445  0.2523 -1.1014
 1030TP3     H214910   5.358   2.420   8.819 -0.3632 -0.4115 -1.1218
 1031TP3      O14911   5.225   3.582   7.138 -0.0067  0.0074 -0.1273
 1031TP3     H114912   5.155   3.577   7.073  0.6015  1.7014 -0.9193
 1031TP3     H214913   5.274   3.500   7.126  0.1465  0.3409 -1.8464
 1032TP3      O14914   4.198   2.390   7.452  0.0217 -0.4008  0.4133
 1032TP3     H114915   4.121   2.342   7.423 -0.4992  1.1860 -0.9545
 1032TP3     H214916   4.269   2.358   7.396  0.2505 -1.5122  1.3415
 1033TP3      O14917   5.209   2.919   7.722  0.2183 -0.3444 -0.4806
 1033TP3     H114918   5.288   2.964   7.692  1.0025 -1.6929 -0.4929
 1033TP3     H214919   5.206   2.839   7.670 -0.9027 -0.5328 -0.1357
 1034TP3      O14920   4.857   2.229   7.956 -0.0513 -0.6271  0.4992
 1034TP3     H114921   4.772   2.185   7.949 -0.6410  0.5024  0.4796
 1034TP3     H214922   4.845   2.290   8.029  0.8364 -0.6537  0.6648
 1035TP3      O14923   5.310   4.433   9.793  0.0346 -0.1654 -0.3531
 1035TP3     H114924   5.396   4.469   9.817 -0.1190 -1.3900  2.1923
 1035TP3     H214925   5.255   4.510   9.778  0.9721  0.6345  0.2400
 1036TP3      O14926   0.121   3.208   7.625  0.1501  0.0576  0.5841
 1036TP3     H114927   0.092   3.297   7.608 -1.5478 -0.6065 -0.1486
 1036TP3     H214928   0.181   3.188   7.553 -1.7380 -0.3883 -0.8955
 1037TP3      O14929   2.836   5.512   9.442  0.4935  0.3528  0.1830
 1037TP3     H114930   2.743   5.491   9.453  0.1109  1.9800  0.2369
 1037TP3     H214931   2.871   5.441   9.389 -0.9280  0.0342 -0.3379
 1038TP3      O14932   0.986   0.211   0.268  0.4894  0.2222 -0.6932
 1038TP3     H114933   0.961   0.300   0.244  1.8155  0.9665  0.5826
 1038TP3     H214934   1.039   0.181   0.194 -1.2693 -0.1076 -1.8426
 1039TP3      O14935   5.214   1.970   7.970  0.3838  0.2262  0.0066
 1039TP3     H114936   5.174   2.046   7.927  1.7718  0.5435 -0.7552
 1039TP3     H214937   5.226   1.906   7.899 -0.3837 -0.5529  0.5645
 1040TP3      O14938   3.966   1.715   9.328  0.2594  0.0675  0.0711
 1040TP3     H114939   3.917   1.633   9.339 -2.4180  1.4522 -0.9198
 1040TP3     H214940   3.968   1.728   9.233 -0.9073  2.0099  0.2889
 1041TP3      O14941   2.210   1.475  10.048 -0.1141 -0.8060  0.4655
 1041TP3     H114942   2.164   1.548  10.008  2.2917  0.2328 -0.4720
 1041TP3     H214943   2.195   1.486  10.142  0.6551  1.1843  0.3642
 1042TP3      O14944   5.115   2.504   8.318  0.5273  0.0669  0.2464
 1042TP3     H114945   5.168   2.428   8.292  1.0843  0.1942  0.9892
 1042TP3     H214946   5.128   2.567   8.248 -1.8969 -1.4235 -1.6391
 1043TP3      O14947   4.728   2.946   8.068  0.0907 -0.1613 -0.4643
 1043TP3     H114948   4.705   2.911   7.982 -0.2740  1.5617 -1.0940
 1043TP3     H214949   4.668   2.903   8.129 -0.2413 -0.7255 -1.1825
 1044TP3      O14950   3.908   0.662   8.029  0.1123 -0.0446  0.1898
 1044TP3     H114951   3.836   0.725   8.029  0.8111  0.8257 -1.8678
 1044TP3     H214952   3.874   0.586   8.075 -0.8024  1.7835  2.6271
 1045TP3      O14953   4.948   2.613   9.376 -0.1861 -0.1353 -0.0324
 1045TP3     H114954   4.877   2.551   9.358  1.0856 -1.5620 -0.1451
 1045TP3     H214955   4.966   2.602   9.470  0.3153 -0.2192 -0.1387
 1046TP3      O14956   4.136   4.315   8.811  0.0415 -0.1532 -0.5379
 1046TP3     H114957   4.045   4.340   8.830 -0.2546 -0.1322 -1.8934
 1046TP3     H214958   4.163   4.376   8.742  0.6700 -0.9385 -0.9907
 1047TP3      O14959   4.131   4.079   9.158 -0.1373  0.2713  0.3152
 1047TP3     H114960   4.208   4.095   9.104 -0.9780  0.1421 -0.9359
 1047TP3     H214961   4.070   4.148   9.133 -1.1160 -0.7050 -0.0226
 1048TP3      O14962   3.523   2.694   7.147  0.5768 -0.1446  0.7358
 1048TP3     H114963   3.447   2.740   7.183  1.5922  2.5756 -0.4095
 1048TP3     H214964   3.532   2.616   7.201 -3.3577 -0.8403  0.5273
 1049TP3      O14965   4.302   1.703   6.759 -0.1656 -0.2060 -0.0819
 1049TP3     H114966   4.330   1.668   6.844  0.7370 -1.1434 -0.7698
 1049TP3     H214967   4.212   1.672   6.749  0.5895 -2.2561 -0.6438
 1050TP3      O14968   4.535   2.170   7.347  0.5739 -0.1170  0.3658
 1050TP3     H114969   4.494   2.245   7.302 -1.5931 -1.2233  0.4229
 1050TP3     H214970   4.589   2.129   7.279 -1.7017 -1.0432 -0.9646
 1051TP3      O14971   5.429   1.824   9.542 -0.5356 -0.2487 -0.2620
 1051TP3     H114972   5.353   1.877   9.518 -0.3465 -0.8879 -2.2807
 1051TP3     H214973   5.499   1.888   9.555 -0.7835  0.1451 -0.8367
 1052TP3      O14974   3.827   4.730   8.671 -0.1547 -0.4581 -0.4669
 1052TP3     H114975   3.833   4.826   8.669 -2.2413 -0.3121 -1.2238
 1052TP3     H214976   3.840   4.705   8.579 -1.5607 -0.7498 -0.5899
 1053TP3      O14977   5.029   1.667   9.465  0.2255 -0.0891  0.1181
 1053TP3     H114978   5.109   1.716   9.482  0.7512 -1.1334  0.6522
 1053TP3     H214979   4.958   1.726   9.492  0.7917  0.9856 -0.7350
 1054TP3      O14980   4.478   5.325   7.993  0.5354 -0.1570 -0.2717
 1054TP3     H114981   4.511   5.312   7.905  0.3663  0.2525 -0.3982
 1054TP3     H214982   4.408   5.389   7.983  0.6639  0.0594  0.1893
 1055TP3      O14983   2.984   3.358   7.897 -0.4160  0.5393  0.4625
 1055TP3     H114984   2.898   3.361   7.854 -0.6255 -0.0196  0.8426
 1055TP3     H214985   2.987   3.439   7.948 -1.9294 -0.7892  2.7402
 1056TP3      O14986   5.106   2.072   7.394 -0.2202 -0.3569  0.3274
 1056TP3     H114987   5.149   2.039   7.315 -0.9298  0.0055 -0.2251
 1056TP3     H214988   5.168   2.134   7.432  0.0198 -0.3504 -0.0767
 1057TP3      O14989   4.102   3.729   8.820  0.0237  0.4370 -0.5034
 1057TP3     H114990   4.134   3.818   8.804 -0.4516  0.8824  0.9051
 1057TP3     H214991   4.180   3.679   8.842  0.1405  0.8289  0.0028
 1058TP3      O14992   4.649   3.360   7.979 -0.7849  0.7407  0.2622
 1058TP3     H114993   4.580   3.341   7.915 -1.5971 -1.5386  1.7258
 1058TP3     H214994   4.645   3.455   7.991 -2.0755  0.9293 -1.4304
 1059TP3      O14995   4.366   0.761   8.322  0.1071  0.3641  0.0800
 1059TP3     H114996   4.331   0.713   8.247  0.3085 -0.6198  0.6094
 1059TP3     H214997   4.458   0.777   8.300  0.2992 -0.3769  0.3401
 1060TP3      O14998   4.940   2.685   7.579  0.2283 -0.1411 -0.3965
 1060TP3     H114999   5.030   2.693   7.609 -0.1235 -0.9384  0.9103
 1060TP3     H215000   4.921   2.592   7.583 -0.1172 -0.1839 -2.3378
 1061TP3      O15001   1.611   1.996   8.153 -0.0853 -0.5492  0.1802
 1061TP3     H115002   1.607   2.004   8.057 -2.2549  0.3996  0.3258
 1061TP3     H215003   1.705   1.998   8.173  0.2940  3.7277 -1.5615
 1062TP3      O15004   0.440   2.908   9.437 -0.0030 -0.1633 -0.0471
 1062TP3     H115005   0.457   2.952   9.354 -0.5341 -1.4390 -0.8527
 1062TP3     H215006   0.408   2.977   9.495 -1.7898  0.3338 -1.5876
 1063TP3      O15007   0.624   4.612   7.412  0.5742 -0.0657  0.4957
 1063TP3     H115008   0.564   4.685   7.395  3.4197  2.1074 -0.7543
 1063TP3     H215009   0.592   4.541   7.357  0.5250  1.8597 -2.0945
 1064TP3      O15010   5.126   4.258   7.988 -0.1239 -0.6542 -0.0778
 1064TP3     H115011   5.217   4.255   8.017  0.3826 -0.3694 -1.5947
 1064TP3     H215012   5.110   4.350   7.968  0.2042 -1.1411 -2.7055
 1065TP3      O15013   0.364   3.762   6.811 -0.5056 -0.0942 -0.1413
 1065TP3     H115014   0.419   3.820   6.758 -0.7137 -1.0349 -1.3871
 1065TP3     H215015   0.413   3.680   6.816  0.4406  0.5621  2.7803
 1066TP3      O15016   5.486   1.764   8.174 -0.4608 -0.0003 -0.2095
 1066TP3     H115017   5.553   1.793   8.236 -0.2163 -0.0264 -0.4646
 1066TP3     H215018   5.533   1.749   8.092 -0.3128 -2.5370  0.3003
 1067TP3      O15019   3.914   2.624   7.606 -0.8135 -0.0016  0.3578
 1067TP3     H115020   4.008   2.607   7.599 -1.2078 -2.4674  0.8111
 1067TP3     H215021   3.906   2.718   7.587  1.6009  0.0174 -0.8022
 1068TP3      O15022   4.550   3.661   7.645  0.2700 -0.0301  0.3193
 1068TP3     H115023   4.602   3.689   7.570 -1.5508  1.1316 -0.5440
 1068TP3     H215024   4.604   3.682   7.721  1.6219 -0.0974 -0.6085
 1069TP3      O15025   0.506   4.537   9.051 -0.0519  0.2788  0.0135
 1069TP3     H115026   0.551   4.533   9.135  0.3375  0.3400 -0.1905
 1069TP3     H215027   0.533   4.620   9.013 -1.9404  1.2684  0.7795
 1070TP3      O15028   3.941   2.882   6.846 -0.1429  0.2654  0.3858
 1070TP3     H115029   3.857   2.836   6.849  1.0390 -1.8184  2.8163
 1070TP3     H215030   3.924   2.966   6.889 -0.8428 -0.3691  1.3543
 1071TP3      O15031   4.521   4.535   7.856 -0.0253  1.0332  0.0488
 1071TP3     H115032   4.575   4.457   7.870 -1.2045  0.1280 -0.3546
 1071TP3     H215033   4.568   4.605   7.900  2.3287  0.6119 -1.6664
 1072TP3      O15034   0.723   2.865   8.738  0.2222  0.2153 -0.6371
 1072TP3     H115035   0.713   2.932   8.806  0.9159 -0.7697  0.4597
 1072TP3     H215036   0.668   2.896   8.666 -1.3543  0.7698  0.7502
 1073TP3      O15037   0.383   3.081   8.152  0.2019  0.1875  0.1233
 1073TP3     H115038   0.412   3.171   8.139  2.1044 -0.5530 -1.0136
 1073TP3     H215039   0.305   3.072   8.097 -0.5090  1.3834  0.9346
 1074TP3      O15040   4.328   3.889   7.735  0.7525 -0.0198 -0.9441
 1074TP3     H115041   4.381   3.920   7.808 -1.5910 -0.5998  1.1004
 1074TP3     H215042   4.341   3.794   7.735  0.9936  0.0175 -1.4543
 1075TP3      O15043   4.988   2.943   8.168  0.6913  0.4264 -0.2907
 1075TP3     H115044   4.924   2.944   8.098  2.4592 -1.1947 -1.9692
 1075TP3     H215045   5.072   2.927   8.125  1.3826 -4.4907  2.4802
 1076TP3      O15046   5.058   4.485   7.854  0.3601 -0.0875 -0.0523
 1076TP3     H115047   5.116   4.529   7.791 -0.9520  1.8703  0.0583
 1076TP3     H215048   4.979   4.539   7.855 -1.5212 -2.7788 -0.2690
 1077TP3      O15049   4.646   3.511   7.365  0.2184  0.2891  0.1285
 1077TP3     H115050   4.645   3.584   7.302 -0.1672  1.1673  1.1292
 1077TP3     H215051   4.567   3.461   7.345  0.8881 -0.3109 -1.0760
 1078TP3      O15052   3.574   2.460   7.308 -0.6123 -0.2295 -0.3742
 1078TP3     H115053   3.516   2.389   7.278  0.1669 -0.1966 -2.0209
 1078TP3     H215054   3.610   2.427   7.391 -1.7613 -0.9160 -0.1253
 1079TP3      O15055   2.409   1.178   7.912  0.6032 -0.4213  0.3006
 1079TP3     H115056   2.500   1.147   7.912  0.6956 -0.2248 -1.8977
 1079TP3     H215057   2.361   1.110   7.865 -0.0018  0.5685 -0.5173
 1080TP3      O15058   2.980   2.802   7.797  0.2577 -0.5472 -0.2320
 1080TP3     H115059   2.971   2.896   7.783 -0.4381 -0.8844 -2.1864
 1080TP3     H215060   2.955   2.789   7.889 -3.6951  0.6572 -1.0369
 1081TP3      O15061   0.089   3.163   7.294  0.2818  0.5071 -0.2339
 1081TP3     H115062   0.166   3.178   7.349  0.0875  1.4754 -0.2130
 1081TP3     H215063   0.102   3.076   7.258  0.4526 -0.1171  1.2892
 1082TP3      O15064   0.262   1.070   7.885 -0.2688  0.6795 -0.0724
 1082TP3     H115065   0.188   1.105   7.836  1.0704  0.8895 -2.0185
 1082TP3     H215066   0.286   0.989   7.840 -0.2865 -0.2119  1.4804
 1083TP3      O15067   0.017   3.820   9.293 -0.4676  0.3676  0.4872
 1083TP3     H115068   0.046   3.752   9.231 -1.2363  1.6792 -1.3514
 1083TP3     H215069   0.056   3.794   9.376 -1.8038 -3.0785  0.1398
 1084TP3      O15070   3.540   3.501   8.669  1.3182 -0.1373  0.5644
 1084TP3     H115071   3.523   3.563   8.598 -0.2490 -0.2408  0.8441
 1084TP3     H215072   3.467   3.439   8.664  1.1318 -0.0693  2.3560
 1085TP3      O15073   0.307   2.064   7.742  0.6842 -0.3030 -0.0819
 1085TP3     H115074   0.320   2.079   7.648 -0.4870  2.6979  0.1724
 1085TP3     H215075   0.368   2.124   7.785 -1.7929  1.5477  1.0182
 1086TP3      O15076   4.865   2.431   7.619  0.4411  0.0699  0.3877
 1086TP3     H115077   4.924   2.391   7.684  1.0759  0.7596  0.2383
 1086TP3     H215078   4.780   2.393   7.638  0.7182 -0.0926  1.3243
 1087TP3      O15079   3.597   2.007   8.100 -0.1421 -0.3199 -0.2227
 1087TP3     H115080   3.546   2.079   8.064  1.2260  0.6773 -0.1649
 1087TP3     H215081   3.687   2.026   8.076  0.8106  0.3472  3.6010
 1088TP3      O15082   5.474   3.112   9.060  0.0207  0.2304  0.2706
 1088TP3     H115083   5.495   3.146   9.147 -0.9485  3.1338 -0.5828
 1088TP3     H215084   5.379   3.117   9.054 -0.1188 -2.1184 -0.1437
 1089TP3      O15085   0.716   0.714   8.489  0.2024  0.4330 -0.5101
 1089TP3     H115086   0.654   0.771   8.443 -1.8784 -1.7049 -0.4145
 1089TP3     H215087   0.671   0.630   8.496  2.2566 -0.5407  1.5162
 1090TP3      O15088   2.480   3.469   8.619 -0.2764  0.3053 -0.1403
 1090TP3     H115089   2.421   3.527   8.667  0.8893  0.0242  1.6605
 1090TP3     H215090   2.559   3.465   8.672  0.2919 -1.5995 -1.0831
 1091TP3      O15091   4.491   4.909   7.017 -0.3534 -0.0438 -0.0377
 1091TP3     H115092   4.396   4.905   7.012 -0.5171  2.9237 -0.1957
 1091TP3     H215093   4.520   4.826   6.981 -2.8439  0.0756 -2.4975
 1092TP3      O15094   0.579   4.390   7.606 -0.7653  0.4453  0.6860
 1092TP3     H115095   0.658   4.381   7.660 -2.1105 -1.0103  2.4890
 1092TP3     H215096   0.591   4.473   7.560  1.7971  0.2659  0.9430
 1093TP3      O15097   4.766   3.817   7.802  0.1446  0.2798 -0.1749
 1093TP3     H115098   4.813   3.819   7.885  4.1443 -3.2291 -2.1473
 1093TP3     H215099   4.798   3.894   7.754 -0.2447  0.8792  0.5117
 1094TP3      O15100   3.899   2.693   7.901  0.0858 -0.8290  0.1951
 1094TP3     H115101   3.803   2.690   7.909 -0.0648  0.9945 -0.6132
 1094TP3     H215102   3.917   2.651   7.817 -0.1601  0.3590 -0.4637
 1095TP3      O15103   1.251   3.159   9.082 -0.1323 -0.2173 -0.3086
 1095TP3     H115104   1.299   3.184   9.161 -0.8218 -1.0705  0.3920
 1095TP3     H215105   1.318   3.122   9.024  0.4147  0.6382 -0.2305
 1096TP3      O15106   4.081   3.044   9.989  0.2043 -0.0185  0.2198
 1096TP3     H115107   4.160   3.032  10.041 -0.0943 -0.6862  0.5349
 1096TP3     H215108   4.018   3.082  10.050 -0.0998 -0.6613  0.3147
 1097TP3      O15109   3.863   3.411   1.134  0.2474 -0.1154  0.2220
 1097TP3     H115110   3.831   3.418   1.044 -2.1317  0.3224  1.0686
 1097TP3     H215111   3.938   3.470   1.138  2.3514 -2.4812 -2.3026
 1098TP3      O15112   3.629   1.112   9.459 -0.1209 -0.0972 -0.6746
 1098TP3     H115113   3.635   1.102   9.554  0.4739 -0.1762 -0.7193
 1098TP3     H215114   3.537   1.134   9.443 -0.8378 -2.6976 -0.3070
 1099TP3      O15115   4.459   4.132   8.106  0.5104 -0.1952 -0.5714
 1099TP3     H115116   4.400   4.149   8.179  0.7748  2.8484 -0.9989
 1099TP3     H215117   4.546   4.128   8.146  0.4610 -0.3882 -0.4837
 1100TP3      O15118   4.901   1.900   9.557  0.2065  0.2404 -0.0002
 1100TP3     H115119   4.812   1.935   9.553  0.8070  1.5706 -2.2607
 1100TP3     H215120   4.954   1.973   9.587  0.6153 -0.4432  0.9813
 1101TP3      O15121   1.360   1.130   8.129 -0.1065  0.7133  0.4188
 1101TP3     H115122   1.419   1.077   8.183 -2.1309  0.7393  2.7171
 1101TP3     H215123   1.334   1.070   8.058  0.4838 -0.1804  0.9355
 1102TP3      O15124   4.393   1.417   7.872 -0.0266  0.1319  0.1290
 1102TP3     H115125   4.314   1.414   7.818  0.1355 -0.8090 -0.0677
 1102TP3     H215126   4.449   1.347   7.837  1.5095  1.7305 -0.6879
 1103TP3      O15127   2.835   1.688   8.875 -0.9578  0.1776  0.0525
 1103TP3     H115128   2.786   1.731   8.946 -1.0896 -0.4627  0.3537
 1103TP3     H215129   2.920   1.732   8.875 -0.5549 -0.5726  1.3592
 1104TP3      O15130   0.603   2.919   7.862  0.4930  0.2205 -0.4220
 1104TP3     H115131   0.617   2.836   7.908 -0.4155  0.6917  0.7458
 1104TP3     H215132   0.530   2.901   7.803 -0.6885  0.5875  0.9095
 1105TP3      O15133   4.636   1.321   8.455  0.1831 -0.0751  0.4082
 1105TP3     H115134   4.673   1.236   8.474 -1.8988 -0.7927  1.4468
 1105TP3     H215135   4.551   1.321   8.500 -0.7542  1.7470 -1.2550
 1106TP3      O15136   0.780   2.665   7.546 -0.0286 -0.3383 -0.0495
 1106TP3     H115137   0.805   2.757   7.553 -3.2785  0.5089  2.0120
 1106TP3     H215138   0.857   2.616   7.573  1.7496  1.7558 -1.2046
 1107TP3      O15139   2.524   1.307   8.711 -0.4319 -0.3203 -0.1693
 1107TP3     H115140   2.481   1.373   8.657 -2.3134 -1.1384  0.2914
 1107TP3     H215141   2.580   1.357   8.770  0.4770  0.6677 -1.8510
 1108TP3      O15142   4.702   1.532   8.591  0.0309 -0.2251 -0.3473
 1108TP3     H115143   4.656   1.603   8.546 -0.8456 -0.3988  0.2715
 1108TP3     H215144   4.712   1.464   8.524 -0.2446 -0.0179 -0.5984
 1109TP3      O15145   0.884   2.905   0.415  0.4358 -0.2600 -1.3260
 1109TP3     H115146   0.910   2.818   0.445 -1.9281 -0.3187  0.6937
 1109TP3     H215147   0.938   2.965   0.466  0.1486 -0.5021 -0.7251
 1110TP3      O15148   0.039   0.912   7.583 -0.3897  0.1909 -0.4112
 1110TP3     H115149   0.092   0.874   7.513  0.0407 -0.2024  0.1278
 1110TP3     H215150   0.043   0.848   7.654 -1.1239  0.4224 -0.1568
 1111TP3      O15151   5.141   0.660   1.210  0.1819  0.3842 -0.3787
 1111TP3     H115152   5.173   0.680   1.122 -0.5683 -0.4081 -0.8482
 1111TP3     H215153   5.123   0.745   1.249  2.2088  0.8253 -0.3400
 1112TP3      O15154   1.052   4.939   8.931 -0.3397  0.3823 -0.2898
 1112TP3     H115155   1.121   5.005   8.919 -0.8508  1.1168  0.6613
 1112TP3     H215156   1.069   4.904   9.019  0.1833 -1.0738 -0.9654
 1113TP3      O15157   3.529   4.186   9.740 -0.1061 -0.8911 -0.1891
 1113TP3     H115158   3.484   4.140   9.668 -2.9241 -0.7534  1.4047
 1113TP3     H215159   3.537   4.276   9.709 -0.7471 -0.9717 -0.6098
 1114TP3      O15160   3.848   3.106   6.988  0.0221 -0.0420 -0.3205
 1114TP3     H115161   3.879   3.120   7.077 -0.8963  0.6633 -0.1099
 1114TP3     H215162   3.753   3.110   6.994 -0.1331 -1.8194 -1.0240
 1115TP3      O15163   4.639   5.078   9.973 -0.6904  0.3413 -0.1528
 1115TP3     H115164   4.650   5.004  10.033  0.1565 -0.3938 -1.1898
 1115TP3     H215165   4.654   5.155  10.027 -1.7989 -0.2344  0.9879
 1116TP3      O15166   4.050   2.339   8.900  0.5761 -0.2936 -0.5437
 1116TP3     H115167   4.021   2.333   8.991  1.1581 -3.1593 -0.5090
 1116TP3     H215168   4.008   2.419   8.867 -2.0160 -0.7846  1.3858
 1117TP3      O15169   0.240   5.354   0.003  0.1266 -0.2535 -0.0441
 1117TP3     H115170   0.320   5.304   0.019  0.3669  0.1702  0.0568
 1117TP3     H215171   0.249   5.385  -0.087 -0.2481 -0.8045 -0.2789
 1118TP3      O15172   1.862   2.158   8.581  0.1191 -0.6361 -0.0724
 1118TP3     H115173   1.775   2.178   8.616  0.0517 -0.8788 -0.0993
 1118TP3     H215174   1.870   2.063   8.590  0.4499 -0.5924  0.0860
 1119TP3      O15175   5.180   3.620   7.968  0.0816  0.1989 -0.2115
 1119TP3     H115176   5.139   3.541   7.931  1.5333 -0.2797 -0.8674
 1119TP3     H215177   5.152   3.622   8.059 -2.2331  0.4728 -0.9033
 1120TP3      O15178   3.900   0.380   9.009  0.2287 -0.5613  0.2114
 1120TP3     H115179   3.817   0.377   9.056 -0.3757 -1.6864 -0.9169
 1120TP3     H215180   3.953   0.311   9.049  0.6186  0.1439  0.9181
 1121TP3      O15181   5.016   3.633   8.954  0.1896 -0.1893  0.5511
 1121TP3     H115182   5.097   3.649   8.905 -1.5416 -0.7633 -2.6970
 1121TP3     H215183   4.968   3.716   8.948 -0.5114 -0.6060  0.2978
 1122TP3      O15184   5.177   4.031   7.887  0.0921  0.4339 -0.1878
 1122TP3     H115185   5.144   4.121   7.891 -0.4614  0.2155  0.2362
 1122TP3     H215186   5.163   4.005   7.795 -0.4901  0.5074 -0.1253
 1123TP3      O15187   5.393   3.259   9.599 -0.0164 -0.6470 -0.2361
 1123TP3     H115188   5.450   3.207   9.656  0.0261  0.0545  0.3780
 1123TP3     H215189   5.322   3.288   9.655 -0.6475 -0.9795 -0.8519
 1124TP3      O15190   4.119   4.701   7.820  0.0563 -0.0361  0.0025
 1124TP3     H115191   4.201   4.745   7.796  1.0869 -1.7772  0.1985
 1124TP3     H215192   4.072   4.764   7.874  1.1831  1.0683 -0.2841
 1125TP3      O15193   3.398   2.618   8.523  0.4194 -0.4498  0.5029
 1125TP3     H115194   3.467   2.648   8.583  2.2976  1.7217 -2.6006
 1125TP3     H215195   3.436   2.542   8.480  0.0383 -0.5542  0.3534
 1126TP3      O15196   0.842   2.926   9.671  0.2399 -0.7009  0.5375
 1126TP3     H115197   0.912   2.923   9.736 -0.4999  2.0579  1.5577
 1126TP3     H215198   0.763   2.902   9.720 -0.3248  1.4007  0.6959
 1127TP3      O15199   4.505   1.778   8.135 -0.2916  0.3713 -0.5384
 1127TP3     H115200   4.566   1.852   8.136 -0.3784  0.4569 -1.2203
 1127TP3     H215201   4.539   1.720   8.068  0.7171 -1.0286  1.1407
 1128TP3      O15202   3.615   0.986   8.046  0.7367  0.1285  0.3158
 1128TP3     H115203   3.701   1.011   8.015  0.8991  0.1933  0.8054
 1128TP3     H215204   3.611   1.020   8.136  1.2302 -2.2107  1.2517
 1129TP3      O15205   3.041   1.710   7.681 -0.4549 -0.5407 -0.2035
 1129TP3     H115206   3.097   1.705   7.604 -0.5260 -2.1905 -0.1748
 1129TP3     H215207   2.962   1.756   7.651 -0.7007 -1.6223 -1.2723
 1130TP3      O15208   4.538   3.386   7.617 -0.0833  0.2315 -0.2168
 1130TP3     H115209   4.526   3.478   7.594 -0.8581  0.0851 -0.4142
 1130TP3     H215210   4.597   3.351   7.551  0.8286  0.7758  0.3037
 1131TP3      O15211   4.807   1.817   7.428  0.1870 -0.6732 -0.0184
 1131TP3     H115212   4.766   1.901   7.451  0.2530 -0.9725  1.2516
 1131TP3     H215213   4.771   1.796   7.342 -0.8924 -0.0121  0.2536
 1132TP3      O15214   5.040   4.903   8.022  0.0071  0.3719  0.2253
 1132TP3     H115215   5.136   4.897   8.027 -0.1422 -1.4107  1.3406
 1132TP3     H215216   5.019   4.982   8.072  0.8418  0.3327  0.6568
 1133TP3      O15217   0.121   3.138   8.849  0.4135 -0.4819  0.1576
 1133TP3     H115218   0.108   3.130   8.943 -1.2516  1.1593  0.0687
 1133TP3     H215219   0.048   3.089   8.810  1.1661 -1.2676 -0.3132
 1134TP3      O15220   4.902   2.931   7.756  0.0679  0.2632 -0.6074
 1134TP3     H115221   4.910   2.891   7.669 -0.1491  0.6690 -0.8145
 1134TP3     H215222   4.829   2.885   7.797  0.9545 -0.7985 -0.1589
 1135TP3      O15223   3.936   2.183   7.780 -0.3126  0.2350  0.0307
 1135TP3     H115224   3.951   2.096   7.817  1.0004  1.5027  2.6271
 1135TP3     H215225   4.013   2.199   7.725 -1.0177 -0.6208 -1.2111
 1136TP3      O15226   0.345   1.049   8.670 -0.3244 -0.6263 -0.3158
 1136TP3     H115227   0.251   1.054   8.652 -0.7378 -2.0452  1.3283
 1136TP3     H215228   0.353   0.979   8.734  1.4697  1.6685  2.0838
 1137TP3      O15229   3.170   3.136   9.336  0.2014 -0.1744 -0.3453
 1137TP3     H115230   3.170   3.077   9.411 -0.0629 -1.9394 -1.7222
 1137TP3     H215231   3.078   3.163   9.328  0.1078 -0.5170 -0.4437
 1138TP3      O15232   4.311   2.345   8.783  0.5477 -0.0724 -0.3078
 1138TP3     H115233   4.226   2.355   8.827 -0.0389 -0.2420 -1.3786
 1138TP3     H215234   4.351   2.270   8.826 -0.1172 -0.3834 -0.2113
 1139TP3      O15235   4.125   1.675   7.814 -0.3389 -0.1109  0.0298
 1139TP3     H115236   4.150   1.696   7.724  0.7416 -0.3791  0.2584
 1139TP3     H215237   4.072   1.595   7.806  0.8228 -0.8670 -0.2640
 1140TP3      O15238   4.949   0.082   9.576 -0.0026  0.1267 -0.1586
 1140TP3     H115239   4.892   0.157   9.592  0.6095  0.9173 -1.5891
 1140TP3     H215240   4.896   0.022   9.524  0.7566  1.3353 -2.4231
 1141TP3      O15241   4.996   3.647   9.219  0.3473  0.1701 -0.1256
 1141TP3     H115242   4.953   3.565   9.245  0.4779  0.1606  0.0627
 1141TP3     H215243   4.997   3.644   9.123  0.1825  0.0388 -0.1227
 1142TP3      O15244   3.535   2.932   8.982  0.2832 -0.3267 -0.0942
 1142TP3     H115245   3.594   2.878   9.034  0.8472 -0.7325 -1.1425
 1142TP3     H215246   3.537   3.017   9.024 -0.0119 -0.9077  1.1192
 1143TP3      O15247   4.980   1.533   8.016 -0.5743 -0.3405  0.1080
 1143TP3     H115248   4.982   1.481   8.096 -3.3622 -0.4402  0.1603
 1143TP3     H215249   5.046   1.602   8.030 -0.6734 -0.6565  2.2547
 1144TP3      O15250   0.977   2.330   6.945 -0.0850  0.0184 -0.3195
 1144TP3     H115251   1.006   2.406   6.996  1.2368 -1.1705  0.7329
 1144TP3     H215252   1.003   2.254   6.997 -1.3030 -1.1681 -1.4057
 1145TP3      O15253   2.424   2.935   8.487 -0.1512  0.2601 -0.5274
 1145TP3     H115254   2.456   3.003   8.547  1.5060 -1.2104  0.2618
 1145TP3     H215255   2.339   2.909   8.524 -0.1783  0.9429 -0.0955
 1146TP3      O15256   0.571   1.719   7.449  0.1056  0.3010  0.1871
 1146TP3     H115257   0.609   1.641   7.490  1.4549  1.8244  1.8993
 1146TP3     H215258   0.491   1.687   7.406  2.5240 -2.6964 -2.2513
 1147TP3      O15259   0.544   1.117   7.799  0.4320  0.1921  0.7124
 1147TP3     H115260   0.459   1.151   7.826  0.9374  1.8764  0.2138
 1147TP3     H215261   0.577   1.070   7.876  1.0424  3.3640  2.5018
 1148TP3      O15262   0.191   5.326   7.962 -0.5262  0.4942 -0.0663
 1148TP3     H115263   0.262   5.263   7.972  0.4499  1.7140  0.9027
 1148TP3     H215264   0.124   5.279   7.912  0.4612 -1.0633  0.0366
 1149TP3      O15265   0.842   1.042   0.258 -0.1043 -0.4145  0.3650
 1149TP3     H115266   0.829   1.137   0.255 -1.3851 -0.6307 -2.4218
 1149TP3     H215267   0.771   1.010   0.314 -0.8489  0.0966 -0.2774
 1150TP3      O15268   0.535   0.183  10.208  0.3693 -0.0170 -0.0293
 1150TP3     H115269   0.626   0.157  10.224 -0.2442 -1.2188  1.6156
 1150TP3     H215270   0.520   0.161  10.116  1.2930 -1.2092  0.0927
 1151TP3      O15271   5.476   2.304   7.377  0.1904  0.3402  0.8223
 1151TP3     H115272   5.493   2.274   7.287 -2.0821  1.6686 -0.1092
 1151TP3     H215273   5.560   2.336   7.408  1.1933 -0.9286 -0.5334
 1152TP3      O15274   4.502   1.735   7.323  0.2539  0.0438 -0.3821
 1152TP3     H115275   4.542   1.740   7.410 -0.1528  2.0708 -0.2774
 1152TP3     H215276   4.573   1.757   7.263 -0.0120  0.9051 -0.3900
 1153TP3      O15277   4.533   2.519   7.495  1.2674 -0.4155 -0.1434
 1153TP3     H115278   4.489   2.468   7.563  1.0266 -0.0631 -0.0353
 1153TP3     H215279   4.517   2.470   7.414 -0.3913  0.3528 -0.3046
 1154TP3      O15280   0.236   3.559   7.162 -0.0694  0.7578  0.7371
 1154TP3     H115281   0.169   3.555   7.093  0.4119  0.4490  0.2838
 1154TP3     H215282   0.246   3.469   7.191  1.0606  0.6116 -0.0811
 1155TP3      O15283   2.843   5.252   9.722 -0.4768 -0.1413  0.4723
 1155TP3     H115284   2.896   5.172   9.729 -0.0579 -0.0534 -1.5222
 1155TP3     H215285   2.898   5.321   9.759  0.2626 -0.3059 -0.2929
 1156TP3      O15286   3.877   1.833   8.402  0.5829  0.0516  0.2176
 1156TP3     H115287   3.872   1.777   8.325  0.8507 -0.6829  0.7259
 1156TP3     H215288   3.799   1.888   8.397 -0.4706 -1.3782  0.4815
 1157TP3      O15289   0.096   1.635   7.917  0.1754 -0.3610 -0.2311
 1157TP3     H115290   0.171   1.694   7.904  0.1581 -0.3858 -0.4414
 1157TP3     H215291   0.118   1.557   7.866 -0.8231  0.3535 -1.7928
 1158TP3      O15292   5.348   2.528   7.916  0.2282  0.0165  0.3772
 1158TP3     H115293   5.344   2.436   7.890 -0.8343  0.0644  0.3500
 1158TP3     H215294   5.398   2.571   7.847 -0.6900 -0.2471 -0.4563
 1159TP3      O15295   2.938   4.148   7.696  0.4208  0.0579  0.0144
 1159TP3     H115296   2.926   4.228   7.747 -0.5997 -0.4944  0.6763
 1159TP3     H215297   2.851   4.130   7.660  0.3612 -1.3695  0.8268
 1160TP3      O15298   1.940   0.519   7.431 -0.0661 -0.0889  0.2993
 1160TP3     H115299   1.987   0.516   7.347 -0.4312  2.2588 -0.0186
 1160TP3     H215300   1.852   0.547   7.408 -0.5540 -0.7725  1.3253
 1161TP3      O15301   3.175   2.822   9.443 -0.2512 -0.1239 -0.0401
 1161TP3     H115302   3.203   2.788   9.528 -1.6373 -0.3316  0.3390
 1161TP3     H215303   3.099   2.769   9.419 -0.8356  0.9659 -0.6638
 1162TP3      O15304   2.351   3.882   7.921  0.2920 -0.2861  0.3761
 1162TP3     H115305   2.335   3.868   7.828  1.6796  1.5350 -0.1751
 1162TP3     H215306   2.315   3.805   7.964  0.0084 -1.3396 -1.7105
 1163TP3      O15307   1.064   4.561   8.166  0.7265  0.0243 -0.1413
 1163TP3     H115308   1.094   4.587   8.079 -0.4456 -0.3888 -0.6760
 1163TP3     H215309   0.992   4.500   8.150  1.2772 -1.0001  1.1074
 1164TP3      O15310   0.562   4.394   7.272 -0.2262  0.0189  0.2359
 1164TP3     H115311   0.509   4.317   7.251 -1.1513  0.5956  0.4726
 1164TP3     H215312   0.599   4.421   7.187  0.0804 -0.6635  0.1474
 1165TP3      O15313   0.307   0.052   7.568  0.1672  0.1151  0.0232
 1165TP3     H115314   0.264   0.056   7.654  1.7298 -0.2908  0.8310
 1165TP3     H215315   0.235   0.063   7.505 -0.8137  1.7222  1.3980
 1166TP3      O15316   1.064   4.583   6.650  0.2057  0.0709  0.5295
 1166TP3     H115317   1.125   4.523   6.609 -0.7388 -1.2545  1.0280
 1166TP3     H215318   0.981   4.535   6.653 -0.2493  0.9159  2.0866
 1167TP3      O15319   0.412   4.906   7.653 -0.1908  0.0791  0.1927
 1167TP3     H115320   0.372   4.841   7.596 -0.7763 -0.3953  1.1361
 1167TP3     H215321   0.361   4.986   7.638  0.9981  0.5228 -1.5142
 1168TP3      O15322   2.482   3.490   9.948 -0.1468 -0.5498  0.0316
 1168TP3     H115323   2.446   3.474  10.036 -0.8827 -2.1157 -0.5478
 1168TP3     H215324   2.575   3.469   9.957  0.0132  0.3754  0.7044
 1169TP3      O15325   0.761   3.133   8.558 -0.1292  0.4186 -0.1122
 1169TP3     H115326   0.743   3.149   8.466  0.3531 -1.2264 -0.5007
 1169TP3     H215327   0.689   3.176   8.605 -1.3205 -0.2507 -1.3163
 1170TP3      O15328   5.405   2.876   7.343  0.0081 -0.4821 -0.2254
 1170TP3     H115329   5.400   2.912   7.432 -1.5240 -0.5483 -0.2653
 1170TP3     H215330   5.338   2.808   7.341 -1.5924  1.0589 -2.1054
 1171TP3      O15331   2.837   4.614   8.166 -0.3552  0.0100  0.5342
 1171TP3     H115332   2.790   4.690   8.200  0.2869  0.7206 -0.1159
 1171TP3     H215333   2.812   4.610   8.074  1.5468  0.9884 -0.0725
 1172TP3      O15334   1.793   0.048   0.070  0.0262 -0.1852 -0.3640
 1172TP3     H115335   1.763   0.101   0.144  0.0385 -0.1349 -0.3947
 1172TP3     H215336   1.788  -0.042   0.102 -1.8589 -0.3164 -0.9785
 1173TP3      O15337   4.652   2.606   9.633  0.1748  0.3456  0.6041
 1173TP3     H115338   4.570   2.654   9.637  0.8843  1.4519  2.1953
 1173TP3     H215339   4.649   2.547   9.709  1.4781  1.4319  1.5152
 1174TP3      O15340   2.578   2.957   8.265 -0.2222  0.5614 -0.4082
 1174TP3     H115341   2.550   2.912   8.185 -0.0414  1.3272 -0.9116
 1174TP3     H215342   2.507   2.942   8.327 -0.2687 -0.2210 -0.6439
 1175TP3      O15343   1.054   4.889   9.210  0.1291  0.3513  0.0554
 1175TP3     H115344   0.995   4.857   9.278  1.4174 -0.0483  0.9996
 1175TP3     H215345   1.135   4.839   9.223  1.0484  1.6623 -0.5146
 1176TP3      O15346   0.350   0.827   7.769  0.0812 -0.4108  0.3070
 1176TP3     H115347   0.421   0.777   7.810  0.5892  0.1617  0.1327
 1176TP3     H215348   0.302   0.762   7.717  0.1465 -0.9081  0.8609
 1177TP3      O15349   4.259   1.481   9.661  0.3895  0.1170  0.7863
 1177TP3     H115350   4.234   1.565   9.623 -0.6338 -0.7203 -0.4700
 1177TP3     H215351   4.351   1.469   9.635  0.4413  0.6993  0.6951
 1178TP3      O15352   0.846   4.562   7.235 -0.1781  0.5996  0.0200
 1178TP3     H115353   0.767   4.567   7.289 -0.1193  0.1993  0.1497
 1178TP3     H215354   0.814   4.555   7.145 -0.2997  0.1479  0.0953
 1179TP3      O15355   1.320   5.523   8.493  0.0646  0.3512  0.2492
 1179TP3     H115356   1.271   5.545   8.572  1.0347  2.1009  0.3841
 1179TP3     H215357   1.412   5.533   8.518  0.4730 -1.4930 -0.4141
 1180TP3      O15358   2.370   0.065   8.014  0.5606  0.0039 -0.0883
 1180TP3     H115359   2.279   0.037   8.002  0.5125  0.4992 -0.9253
 1180TP3     H215360   2.383   0.065   8.108  0.5407 -2.8197 -0.0323
 1181TP3      O15361   1.752   0.991   7.680  0.2024  0.3939 -0.3607
 1181TP3     H115362   1.782   0.916   7.732  1.1284  1.2755  0.4161
 1181TP3     H215363   1.657   0.989   7.687  0.2926  0.1671  0.9341
 1182TP3      O15364   2.945   4.952   7.587  0.2567 -0.4901 -0.3063
 1182TP3     H115365   2.997   4.879   7.554  3.1346  1.0681  0.5782
 1182TP3     H215366   2.936   4.934   7.681  0.3837 -0.0541 -0.2096
 1183TP3      O15367   1.874   4.140   7.525 -0.9537  0.2121  0.0246
 1183TP3     H115368   1.889   4.071   7.460 -0.9348  0.6520 -0.4456
 1183TP3     H215369   1.843   4.215   7.473 -1.2964  0.4492  0.5667
 1184TP3      O15370   0.464   2.806   7.247 -0.4688  0.0746 -0.2387
 1184TP3     H115371   0.439   2.834   7.335  2.0906  3.2690 -0.4137
 1184TP3     H215372   0.384   2.771   7.209 -2.2022  0.9336  2.4695
 1185TP3      O15373   3.420   0.591   7.966  0.4210  0.1050  0.1444
 1185TP3     H115374   3.345   0.644   7.942 -0.8940 -1.1568  1.3417
 1185TP3     H215375   3.397   0.502   7.937  2.1547 -0.0131 -0.9628
 1186TP3      O15376   2.715   0.200   8.848 -0.3305  0.2808  0.2460
 1186TP3     H115377   2.701   0.295   8.858 -0.5978  0.2212  0.4494
 1186TP3     H215378   2.745   0.189   8.758  2.3189  0.8700  1.0093
 1187TP3      O15379   4.601   4.463   7.449  0.2486 -0.2581 -0.4262
 1187TP3     H115380   4.692   4.467   7.479  0.4996 -2.2582 -0.8392
 1187TP3     H215381   4.595   4.530   7.382  0.6665  1.7647  1.4973
 1188TP3      O15382   5.465   5.459   7.366 -0.5198  0.2186  0.3740
 1188TP3     H115383   5.425   5.490   7.284  1.4300 -0.4787 -0.8719
 1188TP3     H215384   5.466   5.364   7.358  0.6641  0.1902  0.7091
 1189TP3      O15385   0.587   3.308   9.343 -0.3650 -0.9490  0.2372
 1189TP3     H115386   0.648   3.298   9.416 -0.7687 -2.2831  0.4161
 1189TP3     H215387   0.582   3.220   9.304 -3.7282 -1.3822  1.4714
 1190TP3      O15388   1.646   3.566   8.050  0.0837 -0.3138  0.4046
 1190TP3     H115389   1.700   3.597   7.978  0.3195 -2.0336 -0.1888
 1190TP3     H215390   1.574   3.519   8.008 -0.5838 -0.0633  1.2468
 1191TP3      O15391   1.960   3.936   8.909  0.4825 -0.5746  0.1015
 1191TP3     H115392   1.870   3.938   8.944  0.7205 -3.4876  1.0372
 1191TP3     H215393   1.955   3.989   8.829 -0.9815  3.0462  2.4359
 1192TP3      O15394   4.343   4.479   8.919 -0.0374 -0.1671  0.2734
 1192TP3     H115395   4.266   4.426   8.896  0.3672 -0.4454 -0.4711
 1192TP3     H215396   4.374   4.512   8.835  2.8797 -3.1386  0.0718
 1193TP3      O15397   2.213   4.900   8.044 -0.5299 -0.4266  0.2847
 1193TP3     H115398   2.154   4.866   7.977 -0.2273 -0.4157  0.0115
 1193TP3     H215399   2.260   4.823   8.077 -2.2778 -0.7835  2.0838
 1194TP3      O15400   0.395   1.499   7.228  0.0418 -0.0818  0.4057
 1194TP3     H115401   0.316   1.466   7.185  0.2338  0.9393 -0.7710
 1194TP3     H215402   0.364   1.566   7.288  0.0482  0.6338 -0.3840
 1195TP3      O15403   3.594   4.833   7.439 -0.0399 -0.2913 -0.4208
 1195TP3     H115404   3.598   4.854   7.345  0.0745  0.0104 -0.3482
 1195TP3     H215405   3.593   4.737   7.442  1.3061 -0.3268 -0.6718
 1196TP3      O15406   1.502   1.963   8.674  0.5563 -0.1131  0.4812
 1196TP3     H115407   1.491   1.967   8.579  0.4751 -0.0145  0.4939
 1196TP3     H215408   1.559   1.887   8.689 -1.2121 -1.4867  0.5023
 1197TP3      O15409   5.468   2.953   8.302  0.0919  0.1391  0.4673
 1197TP3     H115410   5.433   2.949   8.391 -1.3589  0.4173 -0.0763
 1197TP3     H215411   5.548   2.901   8.305 -0.4604 -0.6526  1.7014
 1198TP3      O15412   0.675   0.715   0.325  0.1496  0.2006 -0.1071
 1198TP3     H115413   0.723   0.666   0.392 -0.7618  0.1377  0.5253
 1198TP3     H215414   0.735   0.723   0.252  0.5896 -1.1688  0.1028
 1199TP3      O15415   0.033   4.759   8.228  0.3965 -0.0308 -0.6735
 1199TP3     H115416   0.103   4.796   8.174  1.8972 -2.2546 -0.3324
 1199TP3     H215417   0.027   4.667   8.200 -0.2424 -0.6762  1.4682
 1200TP3      O15418   2.155   3.767   9.928 -0.1618 -0.5854  0.0461
 1200TP3     H115419   2.100   3.748   9.853 -0.6823 -1.5487  0.6707
 1200TP3     H215420   2.100   3.822   9.985  0.4941  0.7960 -0.6136
 1201TP3      O15421   0.883   5.060   7.540 -0.5296  0.3072 -0.2011
 1201TP3     H115422   0.822   5.118   7.586 -1.4601 -1.1331  0.4323
 1201TP3     H215423   0.842   5.044   7.455  0.1590  1.2752 -0.7215
 1202TP3      O15424   1.694   0.402   7.105 -0.2832  0.3565 -0.4333
 1202TP3     H115425   1.682   0.307   7.100  0.1260  0.2356  0.7208
 1202TP3     H215426   1.784   0.417   7.076 -0.4777  0.4330 -0.9993
 1203TP3      O15427   4.929   0.077   8.484 -0.3230 -0.1527 -0.4886
 1203TP3     H115428   4.846   0.032   8.467 -0.6263  0.5287 -0.8219
 1203TP3     H215429   4.952   0.050   8.573 -0.2199 -1.3941 -0.8808
 1204TP3      O15430   4.625   4.904   7.831  0.4781  0.3379 -0.9462
 1204TP3     H115431   4.694   4.937   7.774  0.3781  0.2813 -1.0978
 1204TP3     H215432   4.665   4.902   7.918  1.6525 -2.5162 -1.5000
 1205TP3      O15433   2.136   0.884   9.753  0.2033  0.0317 -0.0606
 1205TP3     H115434   2.062   0.943   9.769  0.8344  0.6094  0.7339
 1205TP3     H215435   2.105   0.827   9.683 -0.1980  1.6723 -1.2527
 1206TP3      O15436   0.179   5.016   8.446  0.0415 -0.3766  0.1663
 1206TP3     H115437   0.215   4.928   8.459  0.5524  0.0088  1.4380
 1206TP3     H215438   0.220   5.069   8.515  0.0966  0.9645 -0.8877
 1207TP3      O15439   1.052   0.736   7.435  0.0001  0.1748 -0.5074
 1207TP3     H115440   1.103   0.790   7.375  1.2539 -0.2820  0.1332
 1207TP3     H215441   0.972   0.786   7.451  0.5644  1.2266 -0.9654
 1208TP3      O15442   2.438   4.713   7.143  0.2698 -0.0454 -0.6237
 1208TP3     H115443   2.509   4.667   7.187 -0.0192  0.2309  0.1310
 1208TP3     H215444   2.360   4.692   7.194  0.3529  2.4417  0.6047
 1209TP3      O15445   1.571   5.422   7.094  0.3286  0.3041 -0.0717
 1209TP3     H115446   1.481   5.394   7.073  0.3369 -2.5475  3.2093
 1209TP3     H215447   1.560   5.507   7.137 -1.0318 -0.7799  1.8208
 1210TP3      O15448   1.187   2.818   7.784  0.3186 -0.3556 -0.1249
 1210TP3     H115449   1.276   2.783   7.796  1.2071  1.2732 -1.6255
 1210TP3     H215450   1.179   2.885   7.851  0.5647  0.0819 -0.5240
 1211TP3      O15451   1.515   2.224   9.191  0.2362  0.3362 -0.1186
 1211TP3     H115452   1.564   2.147   9.220  0.2734  0.3370 -0.1789
 1211TP3     H215453   1.433   2.219   9.239 -0.5031 -0.7216 -1.4620
 1212TP3      O15454   0.144   5.042   9.441 -0.2573  0.3100  0.5581
 1212TP3     H115455   0.113   5.106   9.504 -0.6207  1.4088 -0.7139
 1212TP3     H215456   0.239   5.042   9.451 -0.1101  2.2964 -0.5899
 1213TP3      O15457   1.554   3.457   8.341  0.2060  0.4454 -0.2371
 1213TP3     H115458   1.579   3.547   8.358  1.0894  0.1165  0.2645
 1213TP3     H215459   1.465   3.462   8.306 -0.9029  1.2980  2.5753
 1214TP3      O15460   1.291   4.163   7.666  0.4885  0.3337  0.2277
 1214TP3     H115461   1.210   4.112   7.661  0.3133  0.6975 -0.8280
 1214TP3     H215462   1.360   4.101   7.645  0.5197 -0.0530  1.4417
 1215TP3      O15463   4.214   3.338   8.250 -0.0165  0.1187  0.1543
 1215TP3     H115464   4.121   3.324   8.270  0.3905 -2.7394  0.2496
 1215TP3     H215465   4.254   3.354   8.336 -0.4328  1.6852  0.0825
 1216TP3      O15466   4.421   4.269   9.375 -0.2087  0.3012  0.1407
 1216TP3     H115467   4.415   4.192   9.319 -0.3463 -0.5729  1.3430
 1216TP3     H215468   4.370   4.336   9.328 -1.5129 -0.8338 -0.0945
 1217TP3      O15469   1.524   5.043   8.202  0.4800 -0.0414 -0.3222
 1217TP3     H115470   1.432   5.018   8.207 -0.3106  2.7289 -0.2016
 1217TP3     H215471   1.559   5.018   8.288 -0.3879 -0.2345 -0.0128
 1218TP3      O15472   0.566   4.850   7.268  0.0018  0.0005  0.3960
 1218TP3     H115473   0.503   4.916   7.241 -0.9779 -0.7414  0.8394
 1218TP3     H215474   0.574   4.791   7.193  0.1470  0.0757  0.3521
 1219TP3      O15475   1.147   3.376   7.761 -0.3062  0.0584 -0.0635
 1219TP3     H115476   1.165   3.427   7.683 -0.8142  0.3826  0.0306
 1219TP3     H215477   1.230   3.333   7.781 -0.1441  0.0743 -0.7053
 1220TP3      O15478   0.997   0.645   8.062  0.2371  0.0495  0.0282
 1220TP3     H115479   1.061   0.637   8.133 -1.5364 -1.0269  1.5431
 1220TP3     H215480   0.981   0.739   8.054  2.3076  0.3777 -0.6856
 1221TP3      O15481   0.454   4.162   7.475 -0.1949 -0.0370  0.0579
 1221TP3     H115482   0.443   4.162   7.380 -0.7206  0.3256  0.1143
 1221TP3     H215483   0.511   4.237   7.493  0.4577 -0.5102 -0.0294
 1222TP3      O15484   5.039   4.472   9.919 -0.5826  0.8090 -0.6429
 1222TP3     H115485   5.075   4.383   9.919  0.6591  1.2715 -2.3122
 1222TP3     H215486   5.095   4.520   9.980 -1.9841  0.2013  1.1685
 1223TP3      O15487   5.275   3.821   8.536 -0.1708  0.2144  0.1278
 1223TP3     H115488   5.226   3.899   8.510 -1.6284 -1.0709 -1.1812
 1223TP3     H215489   5.321   3.794   8.456 -2.1787 -2.0010 -0.3474
 1224TP3      O15490   1.062   4.465   8.901  0.2414 -0.0165  0.1014
 1224TP3     H115491   1.072   4.544   8.847  2.2756  0.0715  0.5327
 1224TP3     H215492   1.135   4.409   8.873 -0.4066 -1.1682  0.7406
 1225TP3      O15493   4.971   2.913   7.412  0.3531  0.0374  0.5162
 1225TP3     H115494   5.015   2.883   7.332  1.3425 -0.2343  1.1552
 1225TP3     H215495   4.940   2.832   7.453 -1.5123  0.2727 -0.3434
 1226TP3      O15496   1.469   3.805   7.891  0.3814  0.0605  0.1978
 1226TP3     H115497   1.550   3.801   7.941 -0.0839 -0.3324  0.9338
 1226TP3     H215498   1.414   3.737   7.929 -0.4615  0.6259  0.0046
 1227TP3      O15499   1.333   4.365   8.277  0.2104  0.0450  0.3716
 1227TP3     H115500   1.271   4.437   8.287 -0.2064  0.0377 -1.9533
 1227TP3     H215501   1.284   4.286   8.300  0.5016  0.4130  2.3474
 1228TP3      O15502   4.688   4.278   7.881  0.5824 -0.3357 -0.4672
 1228TP3     H115503   4.605   4.236   7.862  0.7693 -0.9769  0.1350
 1228TP3     H215504   4.722   4.232   7.957  0.7688  0.9227  0.2274
 1229TP3      O15505   5.513   4.081   8.128  0.4852  0.8279 -0.2387
 1229TP3     H115506   5.470   3.999   8.153  1.5078  0.6470  0.9459
 1229TP3     H215507   5.440   4.141   8.110 -0.2657  0.3636  1.1776
 1230TP3      O15508   0.680   1.404   8.566  0.5512  0.4732 -0.4464
 1230TP3     H115509   0.711   1.424   8.478  0.0015 -0.2117 -0.8026
 1230TP3     H215510   0.757   1.374   8.613  1.2471  2.6509 -0.1188
 1231TP3      O15511   0.994   3.458   8.209  0.2473  0.2344 -0.2565
 1231TP3     H115512   1.082   3.441   8.242  2.1144  0.7699 -4.5646
 1231TP3     H215513   0.976   3.548   8.234  0.5634 -0.1368  1.3505
 1232TP3      O15514   0.607   0.465   8.461 -0.6802 -0.4113  0.2217
 1232TP3     H115515   0.650   0.471   8.375  0.3932 -0.9161  0.7257
 1232TP3     H215516   0.520   0.429   8.441 -0.6880  0.0956 -0.7289
 1233TP3      O15517   2.616   3.105   9.083  0.1723 -0.6489  0.3248
 1233TP3     H115518   2.646   3.044   9.151  2.9303 -0.6917 -0.8919
 1233TP3     H215519   2.690   3.164   9.069 -0.8032  0.1154 -1.8068
 1234TP3      O15520   1.235   4.963   7.758 -0.0245 -0.5927 -1.5571
 1234TP3     H115521   1.181   5.015   7.818  0.2068 -0.4781 -1.4464
 1234TP3     H215522   1.186   4.882   7.746  0.0197 -0.7005 -1.0463
 1235TP3      O15523   0.919   3.439   7.925 -0.3574  0.2103  0.1579
 1235TP3     H115524   0.931   3.462   8.017 -0.4022 -2.7227  0.9432
 1235TP3     H215525   1.004   3.405   7.898 -0.2061  1.5097 -1.0386
 1236TP3      O15526   1.574   4.694   6.931 -0.1267 -0.6710  0.3650
 1236TP3     H115527   1.649   4.653   6.975 -1.3315 -1.5285  1.6978
 1236TP3     H215528   1.521   4.729   7.003 -1.7409 -1.3804 -0.4510
 1237TP3      O15529   0.695   5.249   7.690  0.9307 -0.7437 -0.1640
 1237TP3     H115530   0.693   5.191   7.766 -0.9399  1.7032  1.7602
 1237TP3     H215531   0.602   5.265   7.670  1.3925  0.9553 -1.0663
 1238TP3      O15532   5.210   0.794   9.219  0.0521  0.0218 -0.3854
 1238TP3     H115533   5.195   0.888   9.211  0.6231  0.0260 -1.5209
 1238TP3     H215534   5.255   0.770   9.138  1.6880 -0.8707  0.7468
 1239TP3      O15535   4.733   4.612   9.298 -0.5624 -0.8539 -0.1359
 1239TP3     H115536   4.731   4.521   9.267  1.4204 -0.6928 -0.7954
 1239TP3     H215537   4.703   4.664   9.223 -1.7332 -0.9439  0.2544
 1240TP3      O15538   3.632   4.594   8.279 -0.1272  0.4868 -0.5057
 1240TP3     H115539   3.536   4.594   8.274 -0.1756 -0.0463  0.2387
 1240TP3     H215540   3.657   4.509   8.244  0.1681  1.2282 -2.1078
 1241TP3      O15541   2.454   4.610   7.906  0.8106 -0.4731  0.0040
 1241TP3     H115542   2.399   4.581   7.833 -0.4182 -0.6270  0.9759
 1241TP3     H215543   2.544   4.605   7.872  0.3351 -1.6201 -1.1294
 1242TP3      O15544   1.687   4.300   6.962  0.3671 -0.5664 -0.0299
 1242TP3     H115545   1.604   4.320   7.004  0.2079  1.0807 -1.0842
 1242TP3     H215546   1.749   4.365   6.997  0.3913  0.3809 -1.7636
 1243TP3      O15547   0.250   1.441   7.809  0.1988  0.3281 -0.2210
 1243TP3     H115548   0.326   1.452   7.866  0.1437 -1.2915  0.1965
 1243TP3     H215549   0.282   1.466   7.722  0.6450  1.5610  0.2812
 1244TP3      O15550   0.731   3.824   7.251 -0.3763  0.2092 -0.4947
 1244TP3     H115551   0.811   3.785   7.215 -0.6283  1.3805 -2.3716
 1244TP3     H215552   0.661   3.765   7.222 -0.5903  1.2027 -2.1035
 1245TP3      O15553   1.640   4.478   8.000  0.5442  0.0188  0.3078
 1245TP3     H115554   1.608   4.554   8.048  0.2990  0.4832 -0.5766
 1245TP3     H215555   1.608   4.402   8.049 -1.6034  0.4672 -0.3536
 1246TP3      O15556   4.524   3.658   7.079 -0.5710  0.4538  0.0933
 1246TP3     H115557   4.480   3.620   7.003 -1.5514 -2.5797  2.0780
 1246TP3     H215558   4.617   3.638   7.066 -0.9850 -1.9855  0.7075
 1247TP3      O15559   0.478   4.876   8.254 -0.1633  0.5899 -0.3143
 1247TP3     H115560   0.548   4.814   8.273 -0.7032 -0.1989 -0.8346
 1247TP3     H215561   0.461   4.919   8.338 -0.4705 -0.7044  0.3025
 1248TP3      O15562   1.780   4.351   7.370 -0.2877  0.0153  0.5716
 1248TP3     H115563   1.867   4.359   7.332 -0.3962  1.4199  0.5989
 1248TP3     H215564   1.721   4.383   7.301 -0.6872  0.1644  0.9838
 1249TP3      O15565   1.205   0.454   8.187  0.1758  0.1517  0.2640
 1249TP3     H115566   1.249   0.415   8.263 -0.2229 -2.2821 -0.7126
 1249TP3     H215567   1.276   0.490   8.134  0.6657 -0.3858  0.5510
 1250TP3      O15568   1.014   3.713   8.317  0.2941  0.2479 -0.4340
 1250TP3     H115569   0.952   3.759   8.260 -2.2791 -1.8262  0.5900
 1250TP3     H215570   1.022   3.769   8.394  0.1888  0.8222 -0.8349
 1251TP3      O15571   0.835   1.912   8.630 -0.0098  0.2784 -0.5127
 1251TP3     H115572   0.750   1.894   8.671 -0.1322  1.3938 -0.2809
 1251TP3     H215573   0.850   1.835   8.574 -0.3416 -0.7523  0.7810
 1252TP3      O15574   2.261   4.712   7.572 -0.6884  0.6073 -0.1031
 1252TP3     H115575   2.279   4.650   7.643  0.7406 -0.1022 -1.0515
 1252TP3     H215576   2.235   4.657   7.498 -1.2596  1.2640 -0.3960
 1253TP3      O15577   0.110   3.915   8.988 -0.0251 -0.0622  0.9275
 1253TP3     H115578   0.127   3.993   9.040  0.4229  0.8271 -0.5406
 1253TP3     H215579   0.176   3.852   9.017  1.2869  0.9848  0.2539
 1254TP3      O15580   2.244   4.989   7.558 -1.0377 -0.3913  0.4490
 1254TP3     H115581   2.296   5.009   7.636  1.3206 -1.5971 -0.7570
 1254TP3     H215582   2.251   4.894   7.548 -1.1980 -0.2363 -1.3077
 1255TP3      O15583   4.729   1.073   7.616  0.6960 -0.1568  0.1237
 1255TP3     H115584   4.773   1.004   7.666  0.7216 -0.1893  0.0562
 1255TP3     H215585   4.771   1.071   7.530  1.3378  0.5766  0.4153
 1256TP3      O15586   0.879   5.220   6.913  0.0593  0.4746  0.4900
 1256TP3     H115587   0.964   5.243   6.951  0.9178 -1.7563 -0.0135
 1256TP3     H215588   0.828   5.186   6.986 -0.1889  1.2040  0.6631
 1257TP3      O15589   1.111   5.059   8.474 -0.2237 -0.0169 -0.5533
 1257TP3     H115590   1.158   4.994   8.527  0.0940 -0.3995 -1.2760
 1257TP3     H215591   1.180   5.101   8.423  0.2660  4.4760  3.5024
 1258TP3      O15592   2.208   4.111   8.392  0.1178  0.1467  0.1461
 1258TP3     H115593   2.275   4.132   8.328  0.3767  1.4770  0.8384
 1258TP3     H215594   2.248   4.044   8.448  0.5999  0.4236  0.1256
 1259TP3      O15595   1.567   5.389   7.442  0.2808  0.2241 -0.5623
 1259TP3     H115596   1.572   5.481   7.416  0.6446  0.9696  1.9996
 1259TP3     H215597   1.641   5.376   7.501 -1.3638 -0.9663  1.3125
 1260TP3      O15598   0.621   2.283   9.668 -0.2989  0.1526  0.6923
 1260TP3     H115599   0.589   2.337   9.740 -0.4394  0.6007  0.3049
 1260TP3     H215600   0.672   2.344   9.614 -0.2867 -0.1528  0.3584
 1261TP3      O15601   0.643   4.895   7.800  0.3878  0.6076 -0.3314
 1261TP3     H115602   0.573   4.919   7.738  0.0367  0.7723  0.1239
 1261TP3     H215603   0.678   4.814   7.765  1.1317  1.4250 -1.5180
 1262TP3      O15604   0.785   5.005   7.293  0.4223  0.5216 -0.0633
 1262TP3     H115605   0.705   4.958   7.316 -0.0574  0.9400 -0.8624
 1262TP3     H215606   0.764   5.049   7.211  2.0557 -0.8054 -1.2029
 1263TP3      O15607   2.332   3.629   8.078  1.0957 -0.4426  0.1254
 1263TP3     H115608   2.382   3.567   8.025  0.1370 -1.4367  0.3639
 1263TP3     H215609   2.389   3.648   8.153  2.1321  0.3646 -0.8574
 1264TP3      O15610   0.895   5.306   7.241  0.0910  0.7239  0.1226
 1264TP3     H115611   0.976   5.288   7.193  0.3451 -2.6570  1.6687
 1264TP3     H215612   0.829   5.255   7.196 -0.1489 -0.5473  1.8773
 1265TP3      O15613   1.100   4.683   7.252  0.0993 -0.9045 -0.0789
 1265TP3     H115614   1.177   4.634   7.278  0.3800  0.2418  1.3514
 1265TP3     H215615   1.026   4.632   7.285  0.1262 -2.7438 -2.6969
 1266TP3      O15616   1.466   4.762   7.159 -0.4993  0.1497 -0.3175
 1266TP3     H115617   1.433   4.678   7.190  0.4539  0.8822  2.7923
 1266TP3     H215618   1.493   4.808   7.238 -0.0046  2.9690 -2.0686
 1267TP3      O15619   0.227   2.534   7.805  0.4597 -0.0884 -0.0444
 1267TP3     H115620   0.269   2.621   7.803  0.9111 -0.2815  1.0089
 1267TP3     H215621   0.252   2.497   7.889  0.2084 -1.2246 -0.4633
 1268TP3      O15622   0.627   4.241   6.896 -0.0477  0.2329 -0.2039
 1268TP3     H115623   0.610   4.321   6.945 -0.1557  0.0785  0.0127
 1268TP3     H215624   0.585   4.172   6.947 -1.8907  0.3263 -1.5214
 1269TP3      O15625   3.513   0.749   8.168 -0.4619  0.2984 -0.3622
 1269TP3     H115626   3.482   0.690   8.099  0.4542  0.9270 -1.3299
 1269TP3     H215627   3.530   0.832   8.123 -1.0025  1.0677  0.8493
 1270TP3      O15628   0.478   3.645  10.154 -0.5503  0.2736  0.5722
 1270TP3     H115629   0.538   3.573  10.175 -1.3568 -0.5395  0.1641
 1270TP3     H215630   0.398   3.623  10.201 -0.4750  1.4378  1.2412
 1271TP3      O15631   0.315   0.348   8.440  0.2819  0.4732  0.5204
 1271TP3     H115632   0.258   0.282   8.479  1.1927 -0.3368  0.5103
 1271TP3     H215633   0.274   0.370   8.357 -1.1023  1.4148  1.4470
 1272TP3      O15634   4.528   1.239   9.947  0.0049  0.7105 -0.4596
 1272TP3     H115635   4.530   1.274  10.035 -0.0872 -0.0382 -0.1496
 1272TP3     H215636   4.435   1.239   9.923  0.1387  1.9875 -1.0038
 1273TP3      O15637   0.332   5.292   9.829  0.5182 -0.0805  0.4549
 1273TP3     H115638   0.243   5.328   9.834  0.4180 -0.2683  0.0318
 1273TP3     H215639   0.350   5.260   9.918  0.5417  0.8517  0.7885
 1274TP3      O15640   1.848   3.149   9.800  0.3963 -0.2242 -0.0193
 1274TP3     H115641   1.802   3.220   9.846 -0.7697 -1.1770  0.2945
 1274TP3     H215642   1.790   3.124   9.729 -0.0366 -2.1119  0.9727
 1275TP3      O15643   5.409   4.761   9.097 -0.0601  0.3966  0.2724
 1275TP3     H115644   5.322   4.739   9.065 -0.2214  2.1930 -0.5360
 1275TP3     H215645   5.448   4.676   9.121 -1.6613 -0.4935 -0.2547
 1276TP3      O15646   4.534   5.449   9.780  0.0148  0.0689 -0.6101
 1276TP3     H115647   4.440   5.432   9.782 -0.1463  0.8466 -1.3904
 1276TP3     H215648   4.573   5.364   9.758 -0.6048  0.0693 -1.7588
 1277TP3      O15649   1.084   5.236   9.424  1.0035 -0.0025  0.0181
 1277TP3     H115650   1.134   5.300   9.474  1.6449 -0.2942 -0.2458
 1277TP3     H215651   1.035   5.288   9.360 -0.9121  0.5124  1.8280
 1278TP3      O15652   4.869   1.103   9.460  0.1183 -0.1206  0.2265
 1278TP3     H115653   4.805   1.116   9.390 -0.9749 -0.4945  1.1415
 1278TP3     H215654   4.885   1.191   9.495  0.9844  0.1191 -0.7617
 1279TP3      O15655   0.556   3.455   9.040 -0.1293  0.2545  0.1537
 1279TP3     H115656   0.499   3.381   9.060  1.1418 -0.5864  0.7799
 1279TP3     H215657   0.645   3.421   9.055  0.4903  1.7879  0.0673
 1280TP3      O15658   1.162   4.123   8.311  0.0269  0.7323  0.1830
 1280TP3     H115659   1.074   4.094   8.284 -0.3911  1.0480  1.1756
 1280TP3     H215660   1.159   4.122   8.407  2.2296 -2.6881  0.2893
 1281TP3      O15661   0.494   3.983   7.714  0.0663 -0.3749 -0.1880
 1281TP3     H115662   0.478   4.027   7.630 -1.5060 -1.1996 -0.3337
 1281TP3     H215663   0.407   3.959   7.745  0.6852 -0.5561  1.4330
 1282TP3      O15664   1.048   3.295   7.326 -0.5291  0.0953 -0.1564
 1282TP3     H115665   0.971   3.347   7.303 -1.8115 -1.3873  0.7041
 1282TP3     H215666   1.121   3.341   7.284 -2.1284  0.3350 -2.8255
 1283TP3      O15667   0.648   4.825   8.580  0.2702  0.4101 -0.1391
 1283TP3     H115668   0.661   4.816   8.674  1.8652  2.3970 -0.1276
 1283TP3     H215669   0.705   4.758   8.542  0.3287  0.2177  0.2841
 1284TP3      O15670   4.016   0.271   8.761  0.7987  0.0666  0.0668
 1284TP3     H115671   3.951   0.331   8.796  0.8872  1.0884 -1.4478
 1284TP3     H215672   4.026   0.298   8.669  2.6943 -0.6288  0.0469
 1285TP3      O15673   0.835   3.839   7.521 -0.2327  0.5313  0.1713
 1285TP3     H115674   0.813   3.747   7.537  0.9377  0.4097  1.1534
 1285TP3     H215675   0.790   3.860   7.440  0.3437 -1.2297 -0.6369
 1286TP3      O15676   1.048   2.383   9.087 -0.0269 -0.1937  0.1059
 1286TP3     H115677   0.989   2.312   9.111  0.2494 -0.2070  0.7398
 1286TP3     H215678   1.057   2.435   9.166 -0.3437  0.6339 -0.3980
 1287TP3      O15679   3.919   0.280   9.837  0.6543 -0.9231 -0.4615
 1287TP3     H115680   3.945   0.288   9.929  0.5280  1.0559 -0.5727
 1287TP3     H215681   3.989   0.228   9.797  1.4425 -0.5867  0.4599
 1288TP3      O15682   1.760   3.748   9.973  0.2162  0.4097  0.2334
 1288TP3     H115683   1.818   3.673   9.987  0.2991 -0.3160 -3.4859
 1288TP3     H215684   1.783   3.781   9.886 -2.6139  2.2306  0.0828
 1289TP3      O15685   5.323   1.194   9.116  0.2485  0.3314  0.0845
 1289TP3     H115686   5.346   1.138   9.041  1.2161  0.1531  0.5002
 1289TP3     H215687   5.237   1.162   9.144 -1.9543  2.9371 -3.3284
 1290TP3      O15688   1.962   4.174   8.284 -0.0841  0.9016 -0.1335
 1290TP3     H115689   1.975   4.131   8.199  1.0533 -0.8005  0.8931
 1290TP3     H215690   2.032   4.139   8.340 -2.4738 -0.0909  2.3235
 1291TP3      O15691   1.345   4.814   8.910  0.0016  0.2430  0.8235
 1291TP3     H115692   1.264   4.774   8.941 -1.1041  2.7060  1.2489
 1291TP3     H215693   1.414   4.754   8.938 -1.4206 -0.2759  3.3471
 1292TP3      O15694   4.411   4.455   8.143 -0.3703 -0.1611 -0.2721
 1292TP3     H115695   4.392   4.451   8.049 -0.7224 -1.5771 -0.1508
 1292TP3     H215696   4.369   4.377   8.179  1.7772 -0.8805  0.7087
 1293TP3      O15697   0.909   2.837   8.394 -0.0425  0.0897 -0.6197
 1293TP3     H115698   1.002   2.817   8.401 -0.3772 -1.0020  0.8988
 1293TP3     H215699   0.894   2.905   8.459 -0.3934 -0.0314 -0.5748
 1294TP3      O15700   0.310   4.317   9.098  0.3003  0.0570  0.0643
 1294TP3     H115701   0.391   4.360   9.071  0.5962 -0.8441 -0.4950
 1294TP3     H215702   0.327   4.223   9.088 -0.1940 -0.2228  1.6795
 1295TP3      O15703   5.462   0.673   8.033  0.1731 -0.3082 -0.2081
 1295TP3     H115704   5.392   0.738   8.037 -0.0924 -0.4295 -2.4293
 1295TP3     H215705   5.417   0.588   8.036  0.3035 -0.3814 -0.2906
 1296TP3      O15706   1.504   4.562   8.410 -0.0285  0.5944  0.0876
 1296TP3     H115707   1.448   4.495   8.371  0.3417  0.4217 -0.1429
 1296TP3     H215708   1.448   4.604   8.475 -0.3590  0.2705  0.0147
 1297TP3      O15709   1.726   4.817   7.904 -0.2806  0.1345  0.6639
 1297TP3     H115710   1.758   4.742   7.854 -0.0108 -0.8720  2.3238
 1297TP3     H215711   1.634   4.827   7.876  0.1674  0.2606 -0.7976
 1298TP3      O15712   4.849   3.809   8.079 -0.0947  0.2045 -0.0785
 1298TP3     H115713   4.787   3.739   8.102  1.9068 -2.0422 -1.3217
 1298TP3     H215714   4.928   3.787   8.128  0.3281  2.0233  0.0622
 1299TP3      O15715   2.254   4.398   8.131 -0.0553 -0.8666 -0.1464
 1299TP3     H115716   2.188   4.440   8.186  0.0831 -2.1325  1.0198
 1299TP3     H215717   2.209   4.379   8.049 -0.5732  0.0640 -0.0879
 1300TP3      O15718   1.399   3.509   7.935 -0.0567  0.0666 -0.0434
 1300TP3     H115719   1.376   3.421   7.964 -0.4575 -0.4784 -1.9598
 1300TP3     H215720   1.327   3.564   7.968 -1.3023 -0.7805 -1.2821
 1301TP3      O15721   1.170   4.598   7.687  0.0195 -0.8870  0.7235
 1301TP3     H115722   1.202   4.545   7.614  1.2888  0.4395  0.2764
 1301TP3     H215723   1.090   4.639   7.654  0.0640 -1.0567  0.4043
 1302TP3      O15724   2.357   5.003   7.786  0.6048  0.0548 -0.2199
 1302TP3     H115725   2.409   5.070   7.830  0.3365 -0.1901  0.4701
 1302TP3     H215726   2.388   4.920   7.822  1.8360 -0.3050 -1.9924
 1303TP3      O15727   1.318   4.474   7.484  0.1714 -0.3155  0.9047
 1303TP3     H115728   1.314   4.504   7.393 -2.0141 -1.4218  0.6096
 1303TP3     H215729   1.348   4.384   7.478 -0.0766 -0.4227  1.2621
 1304TP3      O15730   2.357   4.968   8.661 -0.0608  0.1098 -0.2650
 1304TP3     H115731   2.335   4.976   8.754 -0.5426 -0.0246 -0.3663
 1304TP3     H215732   2.419   5.039   8.645  0.2130 -0.0201  0.2171
 1305TP3      O15733   5.165   5.301   8.585  0.2923  0.0500 -0.1724
 1305TP3     H115734   5.170   5.369   8.652 -0.7886  0.4021 -0.4285
 1305TP3     H215735   5.127   5.225   8.630 -1.0856  0.5072 -0.5317
 1306TP3      O15736   5.308   5.413   8.209  0.2194  0.2578 -0.1090
 1306TP3     H115737   5.216   5.417   8.236 -0.2238 -1.0919 -1.3616
 1306TP3     H215738   5.318   5.327   8.170  2.1966  0.1480  0.5677
 1307TP3      O15739   0.388   3.211  10.222  0.0181 -0.3274  0.0534
 1307TP3     H115740   0.455   3.144  10.232 -0.7322 -1.0562  0.3255
 1307TP3     H215741   0.311   3.163  10.192 -0.2839  0.5458 -0.6038
 1308TP3      O15742   1.012   5.239   9.025  0.4812  0.0235  0.5969
 1308TP3     H115743   1.092   5.197   8.992  0.0574  1.2153 -2.1010
 1308TP3     H215744   1.030   5.333   9.019 -0.8649  0.2942  0.6305
 1309TP3      O15745   4.171   1.720   7.540  0.0931  0.2282 -0.1616
 1309TP3     H115746   4.202   1.681   7.459 -0.3494  0.9526 -0.6922
 1309TP3     H215747   4.218   1.804   7.546 -0.4957  0.5594 -0.1027
 1310TP3      O15748   2.784   4.980   9.325  0.3100 -0.5875 -0.2236
 1310TP3     H115749   2.858   4.926   9.352  1.1195 -0.2779 -1.7438
 1310TP3     H215750   2.780   4.967   9.230 -0.7532  0.4402 -0.3153
 1311TP3      O15751   5.075   3.388  10.006 -0.2960  0.2335 -0.4749
 1311TP3     H115752   5.095   3.420  10.094 -0.7022 -0.1908 -0.2334
 1311TP3     H215753   5.005   3.445   9.975  0.1005  0.6225 -0.6689
 1312TP3      O15754   4.041   1.469   9.005 -0.0296 -0.3006  0.0229
 1312TP3     H115755   4.066   1.388   9.048  0.3547  0.2348  0.8252
 1312TP3     H215756   4.119   1.525   9.012 -0.8329  0.7192  0.9129
 1313TP3      O15757   1.380   4.742   6.760  0.1617  0.0750 -0.5517
 1313TP3     H115758   1.393   4.684   6.684 -1.1586 -0.1546 -0.6266
 1313TP3     H215759   1.463   4.739   6.807  1.0732  0.3896 -2.1032
 1314TP3      O15760   4.918   3.381   7.605  0.1847 -0.1154 -0.0837
 1314TP3     H115761   4.960   3.322   7.668 -0.7072 -1.0167 -0.3346
 1314TP3     H215762   4.931   3.468   7.643 -0.0372 -0.6170  1.1884
 1315TP3      O15763   1.419   1.318   9.216  0.0448 -0.2196 -0.2307
 1315TP3     H115764   1.327   1.309   9.189 -0.1730  3.1732 -0.8448
 1315TP3     H215765   1.417   1.308   9.311 -0.6343 -2.2454 -0.4391
 1316TP3      O15766   0.868   2.604   7.949  0.1378  0.8589  0.1167
 1316TP3     H115767   0.902   2.687   7.982  0.8920  0.7980 -0.4948
 1316TP3     H215768   0.896   2.600   7.858 -1.8166  0.9646 -0.5219
 1317TP3      O15769   2.358   4.160   8.154 -0.5991  0.3366 -0.3397
 1317TP3     H115770   2.313   4.243   8.138  2.0969  1.4661 -2.3794
 1317TP3     H215771   2.345   4.110   8.073  0.6146  0.1071 -0.3941
 1318TP3      O15772   4.860   5.485   8.011  0.0994  1.3969 -0.0225
 1318TP3     H115773   4.772   5.501   7.976  0.3523 -1.5465 -2.2036
 1318TP3     H215774   4.893   5.411   7.959  2.9203  0.8754  2.4017
 1319TP3      O15775   5.198   5.404   0.327 -0.0451  0.0523  0.0878
 1319TP3     H115776   5.228   5.454   0.251  1.2026 -0.5364  0.1758
 1319TP3     H215777   5.109   5.377   0.304  0.2280  0.0895 -1.0624
 1320TP3      O15778   0.075   5.074   8.798 -0.0106 -0.4124 -0.4853
 1320TP3     H115779   0.056   5.118   8.715 -0.4833  1.0717  0.3874
 1320TP3     H215780   0.156   5.115   8.829 -1.5322  1.3398  1.3216
 1321TP3      O15781   3.975   0.252   9.249  0.2760  0.7832 -0.0311
 1321TP3     H115782   3.896   0.283   9.293 -0.8166 -1.4605 -0.3144
 1321TP3     H215783   3.990   0.165   9.288  1.7884  0.6177 -0.9870
 1322TP3      O15784   4.800   5.338   7.786  0.6821  0.0012 -0.3647
 1322TP3     H115785   4.831   5.249   7.807  0.5172 -0.1354 -0.6886
 1322TP3     H215786   4.724   5.323   7.730  0.4976  0.3468 -0.2000
 1323TP3      O15787   5.116   2.678   0.525  0.3007 -0.0544 -0.0021
 1323TP3     H115788   5.123   2.696   0.618  2.3576  0.8651 -0.3251
 1323TP3     H215789   5.027   2.645   0.514  0.1733 -0.5649  2.3428
 1324TP3      O15790   1.264   3.947   8.062 -0.5943  0.7338 -0.4379
 1324TP3     H115791   1.334   3.985   8.010 -0.4714  0.6735 -0.3181
 1324TP3     H215792   1.264   3.997   8.144  0.2872 -0.2279  0.1624
 1325TP3      O15793   2.548   5.116   8.560  0.2557 -0.3998  0.2429
 1325TP3     H115794   2.507   5.135   8.475 -1.1877  3.3076  1.6363
 1325TP3     H215795   2.599   5.037   8.545  1.3214  1.0065 -4.5362
 1326TP3      O15796   0.836   0.163   8.809  0.3172  0.5871 -0.0317
 1326TP3     H115797   0.770   0.094   8.811  1.1073 -0.1777 -0.2372
 1326TP3     H215798   0.791   0.238   8.770 -0.5746  0.2253  0.2948
 1327TP3      O15799   2.330   0.118   7.721 -0.4298  0.6487  0.0718
 1327TP3     H115800   2.400   0.143   7.660 -1.0603  0.4045 -0.7722
 1327TP3     H215801   2.375   0.102   7.804  0.8273 -1.6554 -1.0048
 1328TP3      O15802   0.520   2.267   7.761 -0.6602 -0.3322  0.2235
 1328TP3     H115803   0.556   2.324   7.829 -0.9761 -1.3121  1.2195
 1328TP3     H215804   0.537   2.315   7.679  2.6071 -0.6269  0.6641
 1329TP3      O15805   0.225   3.953   7.839  0.3291  0.3874  0.6482
 1329TP3     H115806   0.212   4.026   7.900 -0.9696  0.8653 -0.1808
 1329TP3     H215807   0.212   3.875   7.892  1.1769  0.7608  1.4209
 1330TP3      O15808   3.004   3.257   8.893  0.4650 -0.4350 -0.0783
 1330TP3     H115809   2.961   3.343   8.898  0.8868 -0.2788  1.2125
 1330TP3     H215810   3.095   3.275   8.916  0.3694 -1.3595  1.0726
 1331TP3      O15811   5.042   5.345   8.332  0.2910  0.1595  0.2302
 1331TP3     H115812   4.971   5.388   8.380 -1.1175 -0.7341 -1.0081
 1331TP3     H215813   5.099   5.310   8.401 -1.2529 -0.3808  1.2623
 1332TP3      O15814   5.350   4.395   8.326 -0.1950  0.1104  0.5754
 1332TP3     H115815   5.336   4.438   8.411  0.6358  0.1797  0.6774
 1332TP3     H215816   5.296   4.445   8.265  0.6313  1.2039  0.7247
 1333TP3      O15817   4.578   2.875   8.624 -0.2479 -0.2223  0.6525
 1333TP3     H115818   4.497   2.829   8.646 -1.1126  0.2905 -1.3885
 1333TP3     H215819   4.550   2.955   8.580  1.3576  0.2803  0.4953
 1334TP3      O15820   1.310   3.754   9.510 -0.0683  0.3097  0.2687
 1334TP3     H115821   1.331   3.847   9.511  0.7126  0.1331  0.9409
 1334TP3     H215822   1.274   3.739   9.422 -1.0572  1.4217  0.4663
 1335TP3      O15823   2.590   4.038   7.978  0.2811 -0.9339  1.1317
 1335TP3     H115824   2.552   4.121   8.008  0.1287 -0.0920 -1.2585
 1335TP3     H215825   2.518   3.994   7.932  1.0315 -1.2355  0.2250
 1336TP3      O15826   4.770   5.360   8.477 -1.0573 -0.1435 -0.1007
 1336TP3     H115827   4.771   5.271   8.510 -1.8232  0.1827  0.8173
 1336TP3     H215828   4.677   5.384   8.475 -0.7734  1.1327  1.0424
 1337TP3      O15829   0.883   4.315   6.817 -0.4977  0.1100  0.3266
 1337TP3     H115830   0.796   4.293   6.849 -0.1188  2.0389  2.7838
 1337TP3     H215831   0.867   4.360   6.734 -1.7558 -0.7724  0.0844
 1338TP3      O15832   0.851   5.177   8.106  0.0935 -0.3025  0.6628
 1338TP3     H115833   0.779   5.126   8.069 -0.3711 -1.3301  2.9174
 1338TP3     H215834   0.809   5.233   8.171  1.0685  0.5552  0.5533
 1339TP3      O15835   2.190   4.674   9.676  0.5173 -0.4832 -0.2719
 1339TP3     H115836   2.177   4.762   9.638  2.0390  0.7233  1.9237
 1339TP3     H215837   2.285   4.663   9.679  0.3344 -2.0997 -0.2285
 1340TP3      O15838   4.212   3.059   8.471  0.0087 -0.1579 -0.0381
 1340TP3     H115839   4.174   3.003   8.538 -1.5289 -0.7952 -1.4162
 1340TP3     H215840   4.207   3.147   8.507  0.6111 -0.6768  1.3151
 1341TP3      O15841   1.567   3.009   9.710  0.1495 -0.4958  0.3171
 1341TP3     H115842   1.558   3.102   9.690  0.8011 -0.5729 -0.3555
 1341TP3     H215843   1.481   2.982   9.742 -0.0718  0.3069  0.3887
 1342TP3      O15844   0.509   0.505   9.787 -0.5933  0.6331  0.0519
 1342TP3     H115845   0.576   0.566   9.755 -0.5844  1.1399  1.0252
 1342TP3     H215846   0.426   0.552   9.773 -0.9227 -0.6507 -2.7056
 1343TP3      O15847   2.448   3.783   9.389 -0.0863 -0.2284 -0.2537
 1343TP3     H115848   2.402   3.788   9.305 -0.8410 -0.3113  0.1543
 1343TP3     H215849   2.541   3.781   9.365 -0.2268  1.6702 -1.0011
 1344TP3      O15850   1.628   4.353   9.108  0.7220  0.1987  0.1124
 1344TP3     H115851   1.564   4.407   9.155  0.7761 -0.0612  0.4909
 1344TP3     H215852   1.576   4.298   9.050  0.4857 -1.0168  1.4377
 1345TP3      O15853   1.492   0.786   8.729  0.2805 -0.0322 -0.2068
 1345TP3     H115854   1.480   0.843   8.653  0.6307  0.2637 -0.0349
 1345TP3     H215855   1.403   0.759   8.752  0.0798  0.8445  0.0278
 1346TP3      O15856   0.215   3.718   7.986 -0.4590 -0.1607  0.0656
 1346TP3     H115857   0.182   3.654   7.923  1.0782 -0.0977 -0.8236
 1346TP3     H215858   0.220   3.669   8.068 -0.9495 -0.6906 -0.2176
 1347TP3      O15859   3.094   3.466   9.899  0.4510  0.1045  0.2250
 1347TP3     H115860   3.165   3.469   9.964 -0.9077  1.2278  1.6878
 1347TP3     H215861   3.097   3.376   9.865  3.1812  0.3894 -0.4562
 1348TP3      O15862   2.046   4.229   7.268  0.7951 -0.5815 -0.3468
 1348TP3     H115863   2.029   4.320   7.244 -0.1799 -1.2656 -2.3096
 1348TP3     H215864   2.141   4.218   7.254  1.0657  0.3355  0.6760
 1349TP3      O15865   4.007   1.962   7.916  0.3872  0.0724 -0.5735
 1349TP3     H115866   3.934   1.904   7.895  0.2117 -0.5877  1.7267
 1349TP3     H215867   4.083   1.903   7.925  0.2132  0.1289  1.7339
 1350TP3      O15868   3.847   5.163   7.660 -0.5749 -0.2078  0.1061
 1350TP3     H115869   3.799   5.094   7.613  0.0194 -0.4137 -0.1971
 1350TP3     H215870   3.938   5.152   7.633 -0.1095 -0.7650  1.8634
 1351TP3      O15871   3.580   4.526   7.765  0.6251  0.8597 -0.0446
 1351TP3     H115872   3.551   4.601   7.817  0.9098  1.6001 -0.9588
 1351TP3     H215873   3.676   4.534   7.762  0.8153 -0.5393  1.3735
 1352TP3      O15874   3.665   4.102   7.261  0.6132  0.8741  0.1876
 1352TP3     H115875   3.741   4.045   7.275  0.4313  0.0503 -1.9707
 1352TP3     H215876   3.591   4.042   7.252  0.1312  1.5368 -0.3033
 1353TP3      O15877   3.390   3.749   7.828  0.0015  0.0121  0.3325
 1353TP3     H115878   3.356   3.796   7.752 -0.8908  0.4955  1.0192
 1353TP3     H215879   3.337   3.780   7.901  0.3595 -0.9992  1.0357
 1354TP3      O15880   3.522   0.962   8.684  0.3747  0.0348 -0.0313
 1354TP3     H115881   3.437   0.949   8.642  1.0850 -1.3199 -1.1187
 1354TP3     H215882   3.533   1.057   8.687 -1.0185  0.2127 -0.1971
 1355TP3      O15883   2.854   5.293   7.788  0.5453 -0.1548 -1.1231
 1355TP3     H115884   2.760   5.273   7.789  0.2375  1.2143 -0.7919
 1355TP3     H215885   2.883   5.266   7.701 -0.8829  2.4928 -2.4919
 1356TP3      O15886   0.869   3.538   7.513  0.2846  0.1859 -0.4535
 1356TP3     H115887   0.816   3.470   7.555 -0.5137  0.7765 -0.4909
 1356TP3     H215888   0.861   3.519   7.420 -0.0808  0.4299 -0.4738
 1357TP3      O15889   3.955   3.523   8.426  0.0292 -0.0036 -0.3985
 1357TP3     H115890   3.876   3.573   8.405 -0.0312  0.7403  1.5145
 1357TP3     H215891   3.944   3.500   8.518  2.4945  0.9393  0.1559
 1358TP3      O15892   3.235   3.334   7.135 -0.5104 -0.3923  0.4874
 1358TP3     H115893   3.287   3.285   7.071  1.0712  0.0658  1.3941
 1358TP3     H215894   3.236   3.424   7.103 -0.4784 -0.3271  0.6697
 1359TP3      O15895   3.376   4.132   7.924 -0.0436 -0.0204 -0.1342
 1359TP3     H115896   3.351   4.204   7.866  0.0993 -0.7350 -1.0835
 1359TP3     H215897   3.457   4.099   7.887  0.0259 -0.5035  0.4551
 1360TP3      O15898   2.522   4.955   7.270 -0.6764 -0.1166  0.3858
 1360TP3     H115899   2.570   5.030   7.305  0.0453 -0.5553  0.3380
 1360TP3     H215900   2.558   4.880   7.316 -1.5287 -0.4180  0.5650
 1361TP3      O15901   1.345   5.313   8.061  0.4363 -0.5352  0.4541
 1361TP3     H115902   1.384   5.287   8.144 -0.6474  1.6318  1.6754
 1361TP3     H215903   1.380   5.250   7.998  3.6376 -0.4203  1.9907
 1362TP3      O15904   0.435   3.184   8.460 -0.5067  0.2308 -0.4005
 1362TP3     H115905   0.342   3.178   8.439  0.0873 -2.0012 -2.4864
 1362TP3     H215906   0.474   3.232   8.386  0.0266  1.1434  0.4513
 1363TP3      O15907   4.694   2.093   0.041 -0.6672 -0.6965 -0.6853
 1363TP3     H115908   4.677   2.002   0.020  0.0737 -0.3043 -3.2061
 1363TP3     H215909   4.690   2.138  -0.044  1.4257  1.1838  0.1551
 1364TP3      O15910   3.849   1.065   7.759 -0.2610  0.6450  0.1593
 1364TP3     H115911   3.939   1.090   7.737 -0.3565  1.0828  0.2615
 1364TP3     H215912   3.799   1.146   7.750 -0.5171  0.5649  0.8172
 1365TP3      O15913   3.233   3.897   8.023  0.0264  0.2321 -0.3366
 1365TP3     H115914   3.262   3.973   7.972 -1.0099 -0.1952 -1.5750
 1365TP3     H215915   3.147   3.875   7.988  0.1681 -1.3233  0.2266
 1366TP3      O15916   0.125   3.348   8.671  0.0711  0.3063 -0.2637
 1366TP3     H115917   0.079   3.388   8.744  0.3413 -0.2685  0.2329
 1366TP3     H215918   0.147   3.260   8.702 -0.9219 -0.3925 -1.4914
 1367TP3      O15919   3.288   0.819   8.327 -0.1323  0.3604  0.1314
 1367TP3     H115920   3.368   0.773   8.302 -0.2527 -0.0799  0.5632
 1367TP3     H215921   3.222   0.790   8.264  0.2127  1.2423 -0.6468
 1368TP3      O15922   4.292   0.028   7.619 -0.0887  0.1275 -0.0850
 1368TP3     H115923   4.374   0.049   7.575 -0.9960  2.2681 -0.8539
 1368TP3     H215924   4.313   0.036   7.713 -0.0819  3.5813 -0.3172
 1369TP3      O15925   3.800   3.900   6.983  0.2001  0.0787 -0.5830
 1369TP3     H115926   3.778   3.861   7.067 -0.4550  0.6775 -0.4815
 1369TP3     H215927   3.859   3.835   6.942  0.9770  0.0425  0.5587
 1370TP3      O15928   0.260   0.600   8.596 -0.0291 -0.7457  0.5733
 1370TP3     H115929   0.272   0.528   8.534 -1.5292 -2.4703  2.2660
 1370TP3     H215930   0.243   0.676   8.540  1.9653 -1.5853 -1.2416
 1371TP3      O15931   4.385   3.219   7.778  0.2904  0.1544 -0.1663
 1371TP3     H115932   4.414   3.128   7.776  1.7271  0.6176 -0.5837
 1371TP3     H215933   4.424   3.260   7.701 -2.5453  0.4987 -1.5117
 1372TP3      O15934   3.055   1.353   8.101 -0.2325  0.5116 -0.0412
 1372TP3     H115935   3.130   1.411   8.115  0.8857 -0.7214 -0.6973
 1372TP3     H215936   3.080   1.272   8.145 -1.8286  0.5643  0.9803
 1373TP3      O15937   3.378   4.318   7.735 -0.1867 -0.3338  0.5358
 1373TP3     H115938   3.439   4.387   7.762  0.4267  0.3497 -2.3406
 1373TP3     H215939   3.299   4.365   7.709  0.2229 -0.6871 -1.4102
 1374TP3      O15940   1.579   4.885   7.392 -0.3869 -0.3220  0.2640
 1374TP3     H115941   1.609   4.946   7.460  2.0516 -0.4848 -0.6161
 1374TP3     H215942   1.559   4.805   7.439 -2.3358  0.7248  1.2625
 1375TP3      O15943   1.729   5.064   8.449  0.0047  0.8111 -0.3839
 1375TP3     H115944   1.684   5.049   8.532 -0.7256  2.4103 -0.4744
 1375TP3     H215945   1.822   5.056   8.470 -0.2086  0.4864  0.4365
 1376TP3      O15946   2.707   4.637   9.681  0.3751 -0.7183 -0.4943
 1376TP3     H115947   2.653   4.715   9.697 -0.1990 -1.4247  1.1581
 1376TP3     H215948   2.790   4.672   9.650 -0.7219  0.4303 -2.1927
 1377TP3      O15949   0.432   5.002   8.767 -0.3080  0.6517  0.3989
 1377TP3     H115950   0.469   5.045   8.843  1.5868 -0.3076  0.0314
 1377TP3     H215951   0.456   5.058   8.693 -2.5486  1.8381  0.5036
 1378TP3      O15952   4.667   0.147   9.850 -0.2224 -0.0982  0.3188
 1378TP3     H115953   4.747   0.102   9.879 -0.2059  0.4458  1.1392
 1378TP3     H215954   4.608   0.077   9.823  0.4281 -0.5204 -0.0221
 1379TP3      O15955   5.512   2.620   8.171 -0.5114  0.1442 -0.2535
 1379TP3     H115956   5.436   2.612   8.113 -1.5721  1.8097  0.8632
 1379TP3     H215957   5.559   2.697   8.138  0.6080 -0.7672 -0.8236
 1380TP3      O15958   2.630   4.844   8.085  0.0394  0.1766 -0.0901
 1380TP3     H115959   2.670   4.795   8.013  0.9052 -0.4512  0.7891
 1380TP3     H215960   2.536   4.826   8.077  0.2913 -1.2592 -0.0790
 1381TP3      O15961   1.036   3.977   7.923 -0.1777 -0.2081 -0.2928
 1381TP3     H115962   1.123   3.958   7.959  0.1636 -0.7406 -1.3671
 1381TP3     H215963   1.000   3.892   7.901 -0.7930  0.0425 -0.2686
 1382TP3      O15964   2.924   3.830   9.075 -0.3446 -0.2813  0.2903
 1382TP3     H115965   3.010   3.869   9.096 -0.3470  0.1074 -0.4228
 1382TP3     H215966   2.928   3.811   8.982 -0.7615 -0.9698  0.4139
 1383TP3      O15967   2.988   0.047   7.255 -0.3123  0.1630 -0.2532
 1383TP3     H115968   3.081   0.041   7.232 -0.4675  0.9243 -1.1008
 1383TP3     H215969   2.956  -0.043   7.250 -0.2796  0.2517 -2.7822
 1384TP3      O15970   2.740   3.270   8.733 -1.1268 -0.6015 -0.2615
 1384TP3     H115971   2.752   3.350   8.785  0.8290  1.4050 -3.6090
 1384TP3     H215972   2.792   3.204   8.779 -0.7450  0.6812  1.1992
 1385TP3      O15973   2.481   4.411   7.247 -0.0887 -0.5796  0.7991
 1385TP3     H115974   2.429   4.330   7.245 -0.8835 -0.0607  0.5825
 1385TP3     H215975   2.433   4.468   7.307  0.3849 -0.2001  0.8155
 1386TP3      O15976   2.463   0.344   8.331 -0.5468  0.1278 -0.0264
 1386TP3     H115977   2.514   0.371   8.408 -1.0837  1.9279 -0.2737
 1386TP3     H215978   2.460   0.423   8.277 -2.2656 -0.4250 -0.7430
 1387TP3      O15979   4.832   4.217  10.107  0.5097 -0.0012 -0.1217
 1387TP3     H115980   4.885   4.144  10.138 -1.4144 -1.0589  0.7965
 1387TP3     H215981   4.842   4.284  10.175 -0.6586 -0.8614  0.9369
 1388TP3      O15982   1.686   3.232   9.014 -0.6630  0.4763 -0.3976
 1388TP3     H115983   1.619   3.238   8.946 -0.3986  1.5886 -0.5637
 1388TP3     H215984   1.729   3.317   9.013  0.0766  0.1179  0.4111
 1389TP3      O15985   4.091   5.470   8.293 -0.1243 -0.4885  0.5602
 1389TP3     H115986   4.112   5.467   8.387 -0.2647 -1.3500  0.5672
 1389TP3     H215987   4.016   5.529   8.287 -0.1797 -0.5103  1.0005
 1390TP3      O15988   3.202   0.487   9.719 -0.4686  0.1367 -0.1218
 1390TP3     H115989   3.186   0.442   9.803  0.0436  1.4194  0.6680
 1390TP3     H215990   3.294   0.468   9.699  0.3356  2.3884  1.1988
 1391TP3      O15991   3.656   3.968   7.549 -0.0889 -0.2929 -0.1347
 1391TP3     H115992   3.739   4.001   7.514 -0.4877 -0.4540 -1.2440
 1391TP3     H215993   3.593   4.038   7.532 -0.5470 -0.8718 -0.8636
 1392TP3      O15994   2.933   0.165   7.497 -0.6192 -0.4243  0.7019
 1392TP3     H115995   2.904   0.253   7.476  0.8433  0.0784  0.7542
 1392TP3     H215996   2.972   0.132   7.417 -1.1079 -1.0127  0.6984
 1393TP3      O15997   2.337   4.676   8.143 -0.2129 -0.1655 -0.1173
 1393TP3     H115998   2.301   4.592   8.173  1.1622 -1.1565 -1.1110
 1393TP3     H215999   2.370   4.656   8.055  2.6005  0.6988  0.6980
 1394TP3      O16000   3.105   4.038   7.509 -0.4273 -0.1974 -0.3734
 1394TP3     H116001   3.078   4.088   7.586 -3.0498  0.9007 -1.9610
 1394TP3     H216002   3.027   3.990   7.482  1.2694 -2.9482 -0.6183
 1395TP3      O16003   4.244   3.301   7.508 -0.2228  0.6558 -0.3898
 1395TP3     H116004   4.167   3.245   7.522  0.8940 -0.3268  2.0065
 1395TP3     H216005   4.241   3.364   7.580 -0.0002  2.0312 -1.5672
 1396TP3      O16006   3.342   5.007   6.928  0.0588 -0.4479 -0.2114
 1396TP3     H116007   3.388   4.954   6.863 -0.2330  1.8053 -2.3351
 1396TP3     H216008   3.280   5.059   6.877  1.2264  2.8649  1.6143
 1397TP3      O16009   1.930   5.424   8.291  0.4727  0.3240  0.1319
 1397TP3     H116010   1.852   5.450   8.340  0.1523  0.2962 -0.3623
 1397TP3     H216011   1.899   5.358   8.229  1.0800 -0.4124  0.6166
 1398TP3      O16012   2.064   5.305   7.276  0.0566 -0.4982 -0.0184
 1398TP3     H116013   2.089   5.304   7.184  0.7905 -0.3169  0.1739
 1398TP3     H216014   2.142   5.276   7.323 -0.5230 -1.2457  0.5012
 1399TP3      O16015   2.616   2.557   8.267 -0.3668 -0.3847  0.6750
 1399TP3     H116016   2.612   2.470   8.308  0.1127 -0.6002  0.2585
 1399TP3     H216017   2.649   2.614   8.337 -1.4133 -0.3899  1.1869
 1400TP3      O16018   3.843   3.739   8.625 -0.4980  0.4445 -0.6486
 1400TP3     H116019   3.864   3.656   8.669 -3.0887  0.7756  1.2552
 1400TP3     H216020   3.918   3.796   8.645  0.5610 -0.9155 -0.6536
 1401TP3      O16021   2.279   0.543   8.505 -0.7117  0.4377 -0.3569
 1401TP3     H116022   2.330   0.490   8.443 -0.2013 -1.8531  1.9609
 1401TP3     H216023   2.219   0.481   8.546  0.2981  1.4732  2.8258
 1402TP3      O16024   3.301   3.995   8.595 -0.1823  0.3931 -0.5394
 1402TP3     H116025   3.253   4.069   8.633  0.2632  1.2114 -1.5385
 1402TP3     H216026   3.271   3.992   8.504  1.0223  0.3718 -0.9441
 1403TP3      O16027   4.072   4.524   8.235  0.5561 -0.4009 -0.1328
 1403TP3     H116028   4.018   4.540   8.313  0.9060  0.5199 -0.0740
 1403TP3     H216029   4.109   4.609   8.214 -0.9497 -0.2565 -2.3764
 1404TP3      O16030   1.397   2.683   9.329  0.4739 -0.3196  0.2631
 1404TP3     H116031   1.360   2.744   9.392 -0.2018 -1.7736  1.3012
 1404TP3     H216032   1.418   2.737   9.252 -0.8162  1.0625  0.8637
 1405TP3      O16033   3.880   3.467   8.697  0.3101  0.2592 -0.1285
 1405TP3     H116034   3.913   3.378   8.707  0.4806  0.4089  0.6594
 1405TP3     H216035   3.785   3.457   8.690  0.3449  0.0038 -0.2626
 1406TP3      O16036   3.435   4.427   9.900 -0.0003 -1.1408 -0.6292
 1406TP3     H116037   3.380   4.349   9.900  0.1514 -1.2531 -0.0742
 1406TP3     H216038   3.403   4.478   9.975 -0.2286 -0.5783 -1.1065
 1407TP3      O16039   1.160   4.116   8.603 -0.1015  0.3619  0.1591
 1407TP3     H116040   1.080   4.106   8.655 -0.2660  0.9975  0.0364
 1407TP3     H216041   1.222   4.158   8.662  0.7533 -1.8194  0.8377
 1408TP3      O16042   3.290   3.863   7.595  0.1572 -0.0964 -0.1177
 1408TP3     H116043   3.215   3.916   7.568 -0.6104 -1.2560 -0.3137
 1408TP3     H216044   3.366   3.917   7.576 -0.6863  1.7962  1.6509
 1409TP3      O16045   4.161   3.217   7.157 -0.3435 -0.3552  0.4228
 1409TP3     H116046   4.082   3.231   7.209  0.2897 -1.6141  1.7611
 1409TP3     H216047   4.164   3.291   7.096 -2.0007  0.2292  1.0467
 1410TP3      O16048   4.651   3.852   7.459 -0.9057 -0.1795 -0.2120
 1410TP3     H116049   4.687   3.830   7.373 -0.9278  0.9183 -0.5176
 1410TP3     H216050   4.721   3.901   7.502 -2.2431  2.6251 -1.0975
 1411TP3      O16051   2.973   4.608   7.333  0.3559  0.4515  0.3990
 1411TP3     H116052   3.036   4.538   7.350  3.0981  2.5139 -1.0191
 1411TP3     H216053   2.921   4.614   7.413  1.1612 -2.0766  1.1527
 1412TP3      O16054   2.820   4.404   7.590 -0.2687  0.3201 -0.3282
 1412TP3     H116055   2.811   4.400   7.685 -1.3061 -0.8118 -0.4628
 1412TP3     H216056   2.799   4.495   7.567 -0.7863  0.3996  0.4438
 1413TP3      O16057   3.218   3.805   0.987 -0.2362  0.0181 -0.5817
 1413TP3     H116058   3.192   3.762   0.906 -0.2013  1.3416 -1.3095
 1413TP3     H216059   3.139   3.805   1.041 -0.1789 -1.1322 -0.4959
 1414TP3      O16060   5.150   0.270   9.454  0.1927  0.0469  0.3535
 1414TP3     H116061   5.188   0.188   9.422 -1.7268  0.0542 -2.1432
 1414TP3     H216062   5.074   0.243   9.505 -0.0744  0.2346  0.0595
 1415TP3      O16063   3.122   4.005   7.174 -0.2485 -0.2016 -0.1801
 1415TP3     H116064   3.054   4.023   7.109  0.9333  1.1248 -1.0882
 1415TP3     H216065   3.082   4.024   7.258 -1.6065 -1.3351 -0.5585
 1416TP3      O16066   3.406   0.426   9.301  0.0958  0.1757 -0.0649
 1416TP3     H116067   3.342   0.369   9.344 -1.1697  1.1639 -0.6066
 1416TP3     H216068   3.363   0.511   9.297  2.1772  1.3233  1.2070
 1417TP3      O16069   3.812   0.743   7.349  0.0427 -0.0238 -0.3221
 1417TP3     H116070   3.767   0.788   7.277  0.0991 -0.9056 -0.9182
 1417TP3     H216071   3.904   0.744   7.325  0.0419 -0.4752 -0.3432
 1418TP3      O16072   3.908   5.321   9.532  0.1567 -0.9095  0.0308
 1418TP3     H116073   3.960   5.242   9.516 -0.2152 -0.8002 -1.8472
 1418TP3     H216074   3.941   5.356   9.615  1.6159 -1.9921 -0.0861
 1419TP3      O16075   1.664   0.198   7.681  0.0026  0.2580 -0.0879
 1419TP3     H116076   1.716   0.152   7.746  0.2111  0.3938 -0.1584
 1419TP3     H216077   1.602   0.250   7.732  0.6031  0.8702  0.0127
 1420TP3      O16078   4.024   4.911   8.898  0.2285 -0.4618  0.0347
 1420TP3     H116079   4.000   4.880   8.810  2.4450 -2.0530 -0.0403
 1420TP3     H216080   3.956   4.875   8.955 -2.0034  1.7180 -1.1562
 1421TP3      O16081   2.447   1.286   7.610  0.1109  0.3608 -0.0815
 1421TP3     H116082   2.421   1.368   7.653  1.8411  0.7734  0.2238
 1421TP3     H216083   2.433   1.219   7.677 -0.5690  0.5143 -0.0691
 1422TP3      O16084   3.613   0.545   0.329  0.6474 -0.3693 -0.0647
 1422TP3     H116085   3.607   0.638   0.310 -0.6621 -0.5590 -0.5798
 1422TP3     H216086   3.526   0.511   0.313  1.3821 -1.8903 -0.9487
 1423TP3      O16087   3.419   3.959   7.218 -0.1214 -0.0080  0.7705
 1423TP3     H116088   3.435   3.868   7.194  0.2231  0.4195 -0.6816
 1423TP3     H216089   3.328   3.961   7.247 -0.0494 -0.8664  1.0692
 1424TP3      O16090   2.594   5.385   9.748 -0.3206 -0.4901 -0.4487
 1424TP3     H116091   2.676   5.343   9.722 -0.5434 -1.7826  0.9384
 1424TP3     H216092   2.580   5.452   9.681  1.8198 -0.3161 -0.7501
 1425TP3      O16093   2.459   0.778   8.253  0.3458  0.3189 -0.6317
 1425TP3     H116094   2.453   0.686   8.229  0.3822  0.5982 -1.7160
 1425TP3     H216095   2.380   0.818   8.215 -1.9552 -0.0469  3.4479
 1426TP3      O16096   1.281   4.309   8.799 -0.2774  0.2227 -0.5562
 1426TP3     H116097   1.330   4.380   8.757 -1.2860  0.7905 -0.8096
 1426TP3     H216098   1.331   4.288   8.877  1.5284 -0.7232 -1.9309
 1427TP3      O16099   3.600   2.093   8.938 -0.1387 -0.2368  0.0070
 1427TP3     H116100   3.587   2.019   8.998 -1.9948 -0.1023 -0.1915
 1427TP3     H216101   3.645   2.054   8.862 -1.8995 -1.3765 -0.4905
 1428TP3      O16102   1.331   0.954   7.915  0.0339 -0.5169 -0.1497
 1428TP3     H116103   1.251   0.903   7.901 -0.1048  0.0514 -1.5133
 1428TP3     H216104   1.402   0.894   7.893 -0.1317 -0.1216 -1.8173
 1429TP3      O16105   3.556   1.010   0.624 -0.2568 -0.4114 -0.1840
 1429TP3     H116106   3.559   1.052   0.710 -0.3029  0.5629 -0.6539
 1429TP3     H216107   3.469   0.970   0.621 -0.5773  0.2607 -0.1014
 1430TP3      O16108   3.366   4.744   7.029 -0.1393 -0.0762  0.2602
 1430TP3     H116109   3.364   4.791   6.946  1.1607 -1.0890 -0.3632
 1430TP3     H216110   3.290   4.777   7.077 -0.9011  0.5260 -1.3199
 1431TP3      O16111   2.286   5.506   8.547  0.6416 -0.5120 -0.1007
 1431TP3     H116112   2.336   5.525   8.468  0.8955  0.5282  0.2867
 1431TP3     H216113   2.312   5.575   8.608 -1.1789 -0.0132  0.1539
 1432TP3      O16114   2.503   5.348   7.515 -0.4703  0.0369 -0.0699
 1432TP3     H116115   2.557   5.312   7.444 -0.9349  1.7179 -1.2908
 1432TP3     H216116   2.476   5.434   7.484 -2.1266  0.0867  1.4324
 1433TP3      O16117   1.911   2.886   8.463  0.1842  0.7925  0.0399
 1433TP3     H116118   1.823   2.918   8.483 -0.3076  0.6760 -1.8882
 1433TP3     H216119   1.950   2.955   8.410  1.5153  1.1533  1.4597
 1434TP3      O16120   4.539   3.454   9.403 -0.1672  0.1931 -0.3307
 1434TP3     H116121   4.516   3.536   9.446  0.9685  0.5478 -0.3846
 1434TP3     H216122   4.485   3.388   9.447 -2.5215  1.2142 -1.5693
 1435TP3      O16123   2.925   4.371   8.164 -0.7798 -0.4303  0.3291
 1435TP3     H116124   2.905   4.463   8.182  1.1259  0.1654 -0.4445
 1435TP3     H216125   2.992   4.348   8.228  0.1139 -0.6922 -0.6720
 1436TP3      O16126   2.824   4.506   6.578  0.1930 -0.1376  0.1454
 1436TP3     H116127   2.806   4.595   6.609 -1.0005 -1.0022  2.0613
 1436TP3     H216128   2.886   4.471   6.642 -1.3820 -1.5603  0.9338
 1437TP3      O16129   2.886   4.328   7.901  0.6418 -0.8400  0.0043
 1437TP3     H116130   2.844   4.411   7.878  1.2786 -0.9347 -1.5546
 1437TP3     H216131   2.894   4.331   7.996  1.6476  1.3908 -0.1205
 1438TP3      O16132   3.282   3.269   8.891 -0.1374  0.4973  0.1725
 1438TP3     H116133   3.295   3.217   8.812  0.6340  0.6333  0.2125
 1438TP3     H216134   3.278   3.204   8.961  2.2309  0.5514  0.4020
 1439TP3      O16135   0.057   2.675   9.486 -0.0981  0.2111 -0.3957
 1439TP3     H116136   0.012   2.605   9.534  0.4287 -0.0398 -0.2691
 1439TP3     H216137   0.111   2.628   9.422  1.5430  0.4558  0.8106
 1440TP3      O16138   2.052   0.364   8.087  0.0045  0.2670 -0.4185
 1440TP3     H116139   2.147   0.366   8.099  0.0920 -0.3981 -0.9262
 1440TP3     H216140   2.023   0.289   8.139 -0.1509  0.0421 -0.8253
 1441TP3      O16141   1.724   5.075   7.547 -0.0740  0.1341 -0.5155
 1441TP3     H116142   1.815   5.101   7.533  0.1006 -0.5144 -0.6033
 1441TP3     H216143   1.713   5.079   7.642  0.6130 -1.6075 -0.3347
 1442TP3      O16144   1.861   4.575   7.791  0.1901  0.2883  0.4680
 1442TP3     H116145   1.810   4.554   7.712  1.3009 -0.3043 -0.1101
 1442TP3     H216146   1.820   4.523   7.860  0.2848 -0.5477 -0.0882
 1443TP3      O16147   2.794   5.171   8.873  0.0240  0.1801  0.2878
 1443TP3     H116148   2.843   5.240   8.918 -0.2956  0.9708 -0.5648
 1443TP3     H216149   2.741   5.217   8.808 -0.1151 -0.8704 -0.3644
 1444TP3      O16150   2.231   5.278   7.639  0.0894 -0.4293 -0.3546
 1444TP3     H116151   2.299   5.332   7.597 -0.5128  0.8555  0.2775
 1444TP3     H216152   2.273   5.193   7.653  0.6660 -0.5345 -2.4962
 1445TP3      O16153   4.213   3.664   8.412  0.4203  0.3377 -0.0828
 1445TP3     H116154   4.135   3.609   8.410  0.5532 -0.1333  3.8621
 1445TP3     H216155   4.197   3.730   8.345 -3.2376  0.0983  0.4496
 1446TP3      O16156   5.098   1.094   9.256  0.8501  0.0039 -0.2287
 1446TP3     H116157   5.017   1.047   9.276  1.1785 -0.2342  0.5458
 1446TP3     H216158   5.105   1.160   9.325  2.7334 -1.7509  1.3162
 1447TP3      O16159   4.438   4.196   8.549  0.6657 -0.2899 -0.1853
 1447TP3     H116160   4.385   4.125   8.586 -1.0349  0.4190 -1.1732
 1447TP3     H216161   4.516   4.199   8.604  0.1342 -2.0243  0.7065
 1448TP3      O16162   3.195   1.889   0.819  0.0883  0.0005 -0.1018
 1448TP3     H116163   3.140   1.844   0.755  1.8849 -1.6981 -0.5136
 1448TP3     H216164   3.274   1.912   0.770  0.3338  1.1496  0.8231
 1449TP3      O16165   2.462   4.802   6.893 -0.0864 -0.0453 -0.7509
 1449TP3     H116166   2.444   4.748   6.969 -1.8582 -0.8643 -1.7361
 1449TP3     H216167   2.558   4.801   6.885  0.0394 -0.9785  0.6948
 1450TP3      O16168   2.795   4.584   7.043  0.0313 -0.3638  0.6107
 1450TP3     H116169   2.814   4.621   7.129  0.7393 -3.1487  1.7276
 1450TP3     H216170   2.881   4.574   7.002 -0.0577 -1.4744  0.6664
 1451TP3      O16171   2.272   4.498   7.736  0.1782 -0.3373  0.4539
 1451TP3     H116172   2.282   4.425   7.676 -0.0527  0.6662 -0.8222
 1451TP3     H216173   2.199   4.472   7.794 -1.0749 -0.3666 -1.1096
 1452TP3      O16174   3.468   4.724   7.930  0.5351 -0.1129  0.0257
 1452TP3     H116175   3.497   4.815   7.926 -0.2708  0.1649  0.4313
 1452TP3     H216176   3.386   4.723   7.881  0.2351 -0.5041  0.5383
 1453TP3      O16177   3.687   4.487   8.680 -0.3169 -0.5523 -0.9388
 1453TP3     H116178   3.733   4.571   8.688 -0.9762 -0.2304 -0.4605
 1453TP3     H216179   3.611   4.507   8.626 -0.2992 -0.9257 -1.1055
 1454TP3      O16180   4.399   5.472   8.715  0.2393  0.3137 -0.1918
 1454TP3     H116181   4.469   5.490   8.778  0.4527 -1.9287  0.2359
 1454TP3     H216182   4.321   5.508   8.757  0.8003  1.1273  0.1875
 1455TP3      O16183   1.763   4.659   8.438 -0.5676  0.0317  0.0069
 1455TP3     H116184   1.800   4.667   8.351  0.3856 -4.5395 -0.1592
 1455TP3     H216185   1.670   4.642   8.423 -0.3857 -0.8531 -0.1578
 1456TP3      O16186   2.880   4.720   6.763  0.1172 -0.8447  0.2648
 1456TP3     H116187   2.923   4.685   6.841 -0.4233  0.0503  0.9757
 1456TP3     H216188   2.953   4.747   6.706  0.5113 -0.5705  0.8946
 1457TP3      O16189   2.432   3.395  10.209  0.4943 -0.3349  0.1267
 1457TP3     H116190   2.371   3.412  10.281  0.1658  0.9770 -0.4515
 1457TP3     H216191   2.518   3.418  10.244  0.4422 -0.5378  0.3854
 1458TP3      O16192   1.920   5.223   9.565 -0.3514 -0.9489 -0.3229
 1458TP3     H116193   1.850   5.213   9.501  0.5280 -0.8425 -1.3216
 1458TP3     H216194   1.904   5.155   9.630 -0.8985 -1.4572 -0.9875
 1459TP3      O16195   4.721   3.783   0.372  0.6691 -0.4418  0.2551
 1459TP3     H116196   4.798   3.762   0.318  0.0162  0.4576 -1.0463
 1459TP3     H216197   4.739   3.872   0.404  0.8722 -0.8231  1.2140
 1460TP3      O16198   3.142   4.316   8.294  0.9728 -0.0851 -0.1089
 1460TP3     H116199   3.180   4.234   8.326  0.6641 -0.4961 -0.7970
 1460TP3     H216200   3.141   4.373   8.371 -1.1102 -1.5628  0.9824
 1461TP3      O16201   5.220   5.093   0.938  0.7111 -0.5187  0.7460
 1461TP3     H116202   5.135   5.076   0.897  0.5597 -1.2499  1.3450
 1461TP3     H216203   5.223   5.188   0.949  0.2202 -0.4354  0.1878
 1462TP3      O16204   2.670   5.036   7.535  0.0168 -0.2390 -0.1751
 1462TP3     H116205   2.755   4.996   7.514 -0.9514 -1.7500 -1.2872
 1462TP3     H216206   2.660   5.107   7.472  1.3373  1.2559  1.2374
 1463TP3      O16207   5.193   1.714   8.061  0.0770  0.5018 -0.2915
 1463TP3     H116208   5.281   1.718   8.097 -0.7565  0.5408  1.8778
 1463TP3     H216209   5.178   1.801   8.024  0.8806  0.5486 -0.5128
 1464TP3      O16210   2.847   3.077   8.274  0.2715 -0.2836 -0.4958
 1464TP3     H116211   2.757   3.081   8.242 -0.1341 -0.8793  0.5353
 1464TP3     H216212   2.850   2.998   8.328  0.9440  0.6410  0.8626
 1465TP3      O16213   2.820   0.253   7.882 -0.2759  0.5053  0.8045
 1465TP3     H116214   2.774   0.319   7.831 -0.0371 -1.8084 -2.6290
 1465TP3     H216215   2.910   0.286   7.889 -0.4339  1.0851  0.1095
 1466TP3      O16216   1.964   3.728   9.365 -0.1394  0.3480 -0.5392
 1466TP3     H116217   1.956   3.659   9.430  0.6982  0.4420 -0.3277
 1466TP3     H216218   1.997   3.803   9.414  0.5814  0.3943 -1.0865
 1467TP3      O16219   3.259   1.396   8.790 -0.0348  0.5684 -0.0366
 1467TP3     H116220   3.289   1.345   8.865  3.7317  1.8942 -0.5287
 1467TP3     H216221   3.187   1.345   8.753  0.3149 -1.8216  2.4385
 1468TP3      O16222   1.095   3.601   9.885  0.2832  0.1649  0.1308
 1468TP3     H116223   1.100   3.674   9.823 -0.9028  0.1243 -0.0296
 1468TP3     H216224   1.001   3.581   9.890  0.6285 -1.5743 -0.1001
 1469TP3      O16225   2.096   2.819   7.525 -0.7846  0.1605  0.0341
 1469TP3     H116226   2.023   2.784   7.473  0.7512 -0.6388 -1.6878
 1469TP3     H216227   2.121   2.900   7.480 -0.6976  0.4980  0.6892
 1470TP3      O16228   2.410   3.621   8.335 -0.0181  0.2024 -0.4782
 1470TP3     H116229   2.486   3.655   8.382 -0.9870 -0.2851  1.5044
 1470TP3     H216230   2.433   3.530   8.316 -0.5715 -0.3209  1.2397
 1471TP3      O16231   2.526   3.996  10.027 -0.4762 -0.4062 -0.4548
 1471TP3     H116232   2.494   3.945   9.953 -0.9353  1.1654 -1.3597
 1471TP3     H216233   2.450   4.045  10.057  0.3623  1.0730 -0.7133
 1472TP3      O16234   2.621   1.820   8.041  0.0076  0.3164  0.2896
 1472TP3     H116235   2.553   1.771   8.088  0.5213  0.9851  1.7520
 1472TP3     H216236   2.673   1.861   8.110  2.6624 -1.1916 -0.7506
 1473TP3      O16237   3.249   3.451   8.541 -0.1427  0.0225  0.1091
 1473TP3     H116238   3.267   3.361   8.513 -1.3960 -0.1046 -0.3426
 1473TP3     H216239   3.165   3.472   8.500  0.0748  1.3546  0.3202
 1474TP3      O16240   2.980   2.637   9.375 -0.4621 -0.6265 -0.1018
 1474TP3     H116241   2.971   2.642   9.279 -0.0547  1.5122 -0.0359
 1474TP3     H216242   2.894   2.606   9.405 -0.9607 -0.2235 -1.0803
 1475TP3      O16243   3.079   3.407   0.425 -0.2096  0.2863 -0.6608
 1475TP3     H116244   3.006   3.389   0.366  0.7596 -1.3636 -1.3897
 1475TP3     H216245   3.148   3.347   0.397  1.1581  1.2728  0.5213
 1476TP3      O16246   1.875   0.620   9.979 -0.2219  0.2129 -0.1594
 1476TP3     H116247   1.801   0.591   9.925 -0.6315 -0.2121  0.6152
 1476TP3     H216248   1.925   0.678   9.922 -1.0864  0.4026 -0.7363
 1477TP3      O16249   1.916   0.643   8.544 -0.3677  0.3155  0.5455
 1477TP3     H116250   1.965   0.586   8.604  0.5346 -0.6299 -1.0438
 1477TP3     H216251   1.915   0.595   8.461 -2.2102  1.2810 -0.0152
 1478TP3      O16252   2.231   2.235   7.616  0.3218  0.2978  0.0965
 1478TP3     H116253   2.308   2.253   7.669  0.4097  0.1228  0.0293
 1478TP3     H216254   2.267   2.204   7.532  0.1974  1.3105 -0.3359
 1479TP3      O16255   5.168   1.419   9.767 -0.1170  0.0615 -0.4598
 1479TP3     H116256   5.094   1.424   9.707 -0.5877 -0.0390  0.1095
 1479TP3     H216257   5.144   1.349   9.828  0.4443  0.0311 -0.2736
 1480TP3      O16258   1.215   5.158   8.877  0.0824 -0.4466  0.2376
 1480TP3     H116259   1.237   5.251   8.869 -0.3623 -0.3816 -0.2613
 1480TP3     H216260   1.251   5.119   8.797 -1.3295 -0.3942 -0.4273
 1481TP3      O16261   4.120   4.978   7.289  0.1325 -0.0418 -0.1959
 1481TP3     H116262   4.089   5.054   7.239 -2.6393 -1.1706 -0.2921
 1481TP3     H216263   4.125   5.009   7.379 -2.0714  0.0062 -0.0570
 1482TP3      O16264   3.210   3.953   8.343 -0.2545 -0.0724  0.3932
 1482TP3     H116265   3.116   3.941   8.360 -0.3677 -1.2455 -0.9395
 1482TP3     H216266   3.220   3.932   8.250  1.4677 -0.7204  0.7080
 1483TP3      O16267   4.105   0.503   8.168  0.1374 -0.5340 -0.5476
 1483TP3     H116268   4.036   0.438   8.183 -0.2954  0.0067 -0.1484
 1483TP3     H216269   4.063   0.571   8.115 -0.1528  0.6570  1.1700
 1484TP3      O16270   2.668   2.244   8.731  0.2799 -0.3985  0.2533
 1484TP3     H116271   2.580   2.211   8.751  0.0007  0.8828  1.1477
 1484TP3     H216272   2.723   2.165   8.733 -1.1011 -1.4812 -2.0233
 1485TP3      O16273   2.203   2.032   8.839 -0.3496 -0.2650 -0.2930
 1485TP3     H116274   2.294   2.059   8.827 -0.1174 -0.5286  0.8768
 1485TP3     H216275   2.154   2.090   8.781  0.5678 -0.2063 -1.0354
 1486TP3      O16276   4.791   5.051   8.607 -0.2836  0.0812 -0.2956
 1486TP3     H116277   4.828   4.964   8.619  1.2887  0.4562 -2.1883
 1486TP3     H216278   4.698   5.041   8.630 -0.3602 -2.3362 -1.4638
 1487TP3      O16279   3.582   4.856   7.182 -0.0577 -0.4334 -0.1609
 1487TP3     H116280   3.494   4.865   7.146  0.2158  0.9191 -0.5212
 1487TP3     H216281   3.640   4.884   7.111  0.5701  0.6233  0.7641
 1488TP3      O16282   2.506   4.262   9.735  0.7625 -0.0410  0.3421
 1488TP3     H116283   2.457   4.219   9.666  2.0442  1.4062 -1.5454
 1488TP3     H216284   2.440   4.284   9.801 -0.4173 -1.8403 -0.2047
 1489TP3      O16285   3.534   4.323   8.216  0.0409  0.2400 -0.1466
 1489TP3     H116286   3.474   4.383   8.172 -0.1281 -0.6219 -1.1102
 1489TP3     H216287   3.502   4.318   8.306 -0.2500  1.1815 -0.1894
 1490TP3      O16288   4.945   4.828   9.777  0.3514  0.2952 -0.0274
 1490TP3     H116289   4.988   4.894   9.832 -0.1236 -0.1216  0.8492
 1490TP3     H216290   4.901   4.879   9.709 -0.4903  0.9261  0.9713
 1491TP3      O16291   1.755   4.136   9.590 -0.3846  0.4707 -0.3486
 1491TP3     H116292   1.803   4.168   9.667  1.3596 -1.8777 -0.4156
 1491TP3     H216293   1.791   4.187   9.517 -0.1711  0.8546  0.0190
 1492TP3      O16294   2.969   0.484   9.072  0.0694 -1.0437  0.0709
 1492TP3     H116295   3.027   0.477   9.148  0.8989 -0.7181 -0.5263
 1492TP3     H216296   2.933   0.396   9.062 -0.8502 -0.8404  1.4624
 1493TP3      O16297   3.353   4.969   7.834 -0.4096 -0.4488  0.0063
 1493TP3     H116298   3.365   5.040   7.772 -2.5190 -1.0445 -1.1251
 1493TP3     H216299   3.294   5.005   7.901  0.0789 -0.5060  0.4678
 1494TP3      O16300   5.407   0.043   8.031 -0.0110  0.2226 -0.2386
 1494TP3     H116301   5.378  -0.021   8.096  1.2498 -0.2816 -0.1563
 1494TP3     H216302   5.441  -0.010   7.959 -0.2724  0.7886 -0.7862
 1495TP3      O16303   3.754   2.908   0.942 -0.0496  0.2868  0.3249
 1495TP3     H116304   3.817   2.854   0.895  1.6476  0.1629  2.6449
 1495TP3     H216305   3.798   2.993   0.951 -1.6675  1.3039 -1.1028
 1496TP3      O16306   4.385   5.150   9.942 -0.2637  0.0527  0.2634
 1496TP3     H116307   4.476   5.135   9.969 -0.6863 -0.7986  1.2738
 1496TP3     H216308   4.334   5.087   9.994 -1.1293 -1.5797 -2.4155
 1497TP3      O16309   3.688   3.773   7.927  0.3918 -0.0430  0.1781
 1497TP3     H116310   3.614   3.712   7.923  0.4598 -0.0770 -0.6594
 1497TP3     H216311   3.653   3.854   7.891  0.9864 -0.2906 -0.9785
 1498TP3      O16312   3.465   3.621   7.418  0.3520  0.5942  0.5087
 1498TP3     H116313   3.466   3.638   7.324  1.3079  0.9480  0.5764
 1498TP3     H216314   3.548   3.655   7.449  0.9580 -1.3888  1.1509
 1499TP3      O16315   3.562   3.059   9.939  0.4347 -0.1278 -0.4624
 1499TP3     H116316   3.590   2.970   9.960  0.1514 -0.0069  0.4560
 1499TP3     H216317   3.573   3.066   9.844 -1.2388 -1.7511 -0.8066
 1500TP3      O16318   3.403   3.187   9.140  0.1215  0.3672  0.3251
 1500TP3     H116319   3.487   3.202   9.184  0.2002  0.9420 -0.0094
 1500TP3     H216320   3.338   3.195   9.209  0.2797  0.8254  0.4239
 1501TP3      O16321   1.296   0.185   9.202 -0.0146 -0.2307  0.0974
 1501TP3     H116322   1.387   0.198   9.178 -0.0881 -2.3067 -1.3718
 1501TP3     H216323   1.255   0.270   9.187  1.9170  1.1036  2.0466
 1502TP3      O16324   2.751   2.012   8.537  0.2991  0.1949  0.0778
 1502TP3     H116325   2.810   1.937   8.536  0.7240  0.5284  0.0742
 1502TP3     H216326   2.776   2.062   8.459 -0.1505  0.2079 -0.0579
 1503TP3      O16327   3.243   5.159   7.655 -0.6785 -0.1532  0.6053
 1503TP3     H116328   3.150   5.178   7.642 -0.7968  0.6482  2.5047
 1503TP3     H216329   3.288   5.225   7.602 -1.1808  0.5277  1.0123
 1504TP3      O16330   4.642   3.191   8.663 -0.1401  0.4611 -0.1018
 1504TP3     H116331   4.594   3.128   8.608 -0.0719  0.1689  0.1739
 1504TP3     H216332   4.722   3.145   8.687 -0.4952  0.3207  0.8348
 1505TP3      O16333   3.224   4.739   7.749  0.6211 -0.2501  0.8909
 1505TP3     H116334   3.140   4.779   7.772 -0.0731 -1.0808 -0.1673
 1505TP3     H216335   3.285   4.813   7.742  0.6093  0.1228  4.2349
 1506TP3      O16336   3.350   3.556   9.030  0.1854 -0.4554 -0.1441
 1506TP3     H116337   3.374   3.649   9.029 -0.5679 -0.2591 -1.1954
 1506TP3     H216338   3.298   3.544   8.950 -3.1018 -0.9003  1.9855
 1507TP3      O16339   3.377   5.189   8.312  0.4980 -0.5533 -0.4602
 1507TP3     H116340   3.456   5.241   8.292 -0.5594  0.3017 -2.5699
 1507TP3     H216341   3.331   5.240   8.379 -0.4658  1.2218 -2.4263
 1508TP3      O16342   3.486   2.768  10.090  0.6390  0.0587 -0.2786
 1508TP3     H116343   3.574   2.806  10.090  0.5720  0.2557  2.2430
 1508TP3     H216344   3.500   2.675  10.105  0.4247  0.0130 -0.3604
 1509TP3      O16345   3.616   2.747   9.312  0.3892 -0.0429  0.0234
 1509TP3     H116346   3.676   2.688   9.357 -0.4958 -1.4386 -0.5944
 1509TP3     H216347   3.629   2.832   9.354  0.5017 -1.0383  2.0263
 1510TP3      O16348   3.779   3.940   9.614  0.1597  0.0666 -0.1892
 1510TP3     H116349   3.817   3.899   9.537 -0.0144  0.0388 -0.2599
 1510TP3     H216350   3.690   3.964   9.587 -0.1161 -0.4990  0.1923
 1511TP3      O16351   3.931   3.989   7.464 -0.4333  0.0367  0.0350
 1511TP3     H116352   4.006   4.002   7.522 -0.2840  0.1919 -0.1930
 1511TP3     H216353   3.955   4.034   7.383 -0.3601 -0.7498 -0.3833
 1512TP3      O16354   1.290   3.149   8.525  0.2815  0.7690 -0.1537
 1512TP3     H116355   1.226   3.152   8.597  0.9553  1.1829  0.4391
 1512TP3     H216356   1.373   3.129   8.569  0.9593  2.4778 -0.6361
 1513TP3      O16357   4.104   4.949   7.981 -0.3983 -0.1760  0.0335
 1513TP3     H116358   4.054   5.030   7.990 -1.5288 -1.1121  3.0186
 1513TP3     H216359   4.193   4.977   7.961 -1.2366  1.7053 -1.1279
 1514TP3      O16360   3.651   4.282   7.502  0.2288 -0.4380  0.3935
 1514TP3     H116361   3.647   4.221   7.428 -0.9096 -0.4496  0.4501
 1514TP3     H216362   3.694   4.232   7.571  1.3682 -0.4009 -0.2793
 1515TP3      O16363   3.695   0.489   7.376  0.5835 -0.6349 -0.3860
 1515TP3     H116364   3.712   0.583   7.374 -1.9148 -0.0820  1.6365
 1515TP3     H216365   3.740   0.458   7.455  0.1431 -0.8646 -0.2239
 1516TP3      O16366   2.806   3.983   7.196 -0.0972  0.6471 -0.4052
 1516TP3     H116367   2.864   3.907   7.191  0.2287  0.7043  1.9670
 1516TP3     H216368   2.724   3.948   7.229 -0.1756  1.2064 -0.0032
 1517TP3      O16369   3.919   0.312   8.050  0.4023  0.4791  0.2546
 1517TP3     H116370   3.838   0.305   8.000  1.1046 -2.9842 -0.5510
 1517TP3     H216371   3.988   0.303   7.984  1.3631 -0.9820  1.4280
 1518TP3      O16372   1.761   2.757   8.813  0.0358 -1.2589  0.5524
 1518TP3     H116373   1.687   2.705   8.845 -0.6321 -0.6526  0.0053
 1518TP3     H216374   1.762   2.834   8.870 -1.0477 -0.2606 -0.7313
 1519TP3      O16375   2.195   2.470   9.582  0.1824 -0.1289  0.1807
 1519TP3     H116376   2.100   2.466   9.574  0.2177 -1.5171  0.2136
 1519TP3     H216377   2.211   2.515   9.665 -0.3871  2.3511 -1.0131
 1520TP3      O16378   3.696   5.439   7.636  0.4367 -0.1404  0.6041
 1520TP3     H116379   3.749   5.365   7.609  0.0232 -0.4726  0.6920
 1520TP3     H216380   3.675   5.485   7.555  0.6048 -0.1842  0.5373
 1521TP3      O16381   2.019   3.438   9.390 -0.0929  0.2524  0.1578
 1521TP3     H116382   2.050   3.427   9.300  1.0368  1.0905  0.4388
 1521TP3     H216383   2.095   3.469   9.438 -1.0023  0.9701  1.1572
 1522TP3      O16384   3.632   3.954   9.880  0.9947  0.5889  0.5904
 1522TP3     H116385   3.578   4.019   9.836  0.8254 -0.0107 -0.1055
 1522TP3     H216386   3.700   3.932   9.816  0.2685 -0.8948  0.2872
 1523TP3      O16387   5.486   4.844   7.694 -0.5589 -0.5204 -0.0700
 1523TP3     H116388   5.534   4.782   7.638  0.1087 -1.0164  1.0232
 1523TP3     H216389   5.513   4.930   7.663  1.7112 -0.7904  1.0406
 1524TP3      O16390   4.016   4.201   7.303 -0.4959  0.0498 -0.2396
 1524TP3     H116391   3.954   4.259   7.259 -1.2833 -0.7667 -0.2413
 1524TP3     H216392   4.102   4.237   7.284 -0.9417  0.8218 -0.7984
 1525TP3      O16393   4.849   4.677   7.608 -0.5835  0.1081  0.6269
 1525TP3     H116394   4.866   4.691   7.701  0.3460  0.3808  0.4128
 1525TP3     H216395   4.839   4.582   7.600 -2.6605  0.2303  1.3337
 1526TP3      O16396   4.660   0.337   7.663 -0.4317  0.5126 -0.2142
 1526TP3     H116397   4.650   0.305   7.573  1.5324  0.1419 -0.3309
 1526TP3     H216398   4.692   0.261   7.711 -0.3836  1.0226  0.5589
 1527TP3      O16399   3.287   0.511   7.288 -0.0426  0.3607  0.5112
 1527TP3     H116400   3.204   0.554   7.264  0.0099  0.0775 -0.1860
 1527TP3     H216401   3.343   0.525   7.212 -0.6671 -2.6588 -0.5581
 1528TP3      O16402   3.144   4.470   7.717 -0.4390  0.0143  0.1618
 1528TP3     H116403   3.056   4.463   7.753  0.4762 -3.1317  1.9511
 1528TP3     H216404   3.177   4.554   7.751 -2.1030  0.3818  0.9201
 1529TP3      O16405   3.507   4.488   9.643 -0.1094 -0.0444 -0.2821
 1529TP3     H116406   3.564   4.564   9.640  0.0237 -0.0518  1.5182
 1529TP3     H216407   3.483   4.479   9.735 -1.3857 -1.2472 -0.7041
 1530TP3      O16408   4.611   1.317   7.529 -0.4143 -0.0660  0.3512
 1530TP3     H116409   4.642   1.231   7.559  0.2690 -0.5003 -1.5206
 1530TP3     H216410   4.679   1.378   7.558 -1.7305  0.1547  3.2185
 1531TP3      O16411   0.307   2.214   8.315  0.2759 -0.2507  0.1798
 1531TP3     H116412   0.224   2.214   8.268 -0.0406 -0.6335  0.7433
 1531TP3     H216413   0.367   2.261   8.257 -0.3163 -0.0225 -0.2509
 1532TP3      O16414   4.166   5.510   8.537  0.8565 -0.1575 -0.1966
 1532TP3     H116415   4.172   5.533   8.630 -2.3146  0.7704 -0.1568
 1532TP3     H216416   4.193   5.590   8.491  2.0670 -0.4937 -0.0656
 1533TP3      O16417   4.302   2.642   8.524 -0.2175 -0.0825  0.3774
 1533TP3     H116418   4.362   2.590   8.472 -0.9137  0.9859 -1.5292
 1533TP3     H216419   4.228   2.661   8.466 -1.1584  0.8854  1.8290
 1534TP3      O16420   5.114   5.138   8.803 -0.4504  0.0094  0.2587
 1534TP3     H116421   5.101   5.044   8.789 -0.3459  0.0852 -0.3960
 1534TP3     H216422   5.175   5.143   8.876  0.2703 -0.4508 -0.3014
 1535TP3      O16423   3.793   4.328   7.154 -0.2199  0.5835  0.1607
 1535TP3     H116424   3.740   4.253   7.181  0.7499 -0.3873 -0.6010
 1535TP3     H216425   3.812   4.313   7.062 -0.5573  2.1067 -0.1754
 1536TP3      O16426   1.481   0.921   9.886  0.1513  0.4312  0.0221
 1536TP3     H116427   1.553   0.862   9.864 -1.1659 -1.2524  0.1095
 1536TP3     H216428   1.426   0.923   9.807  0.6806  2.3374 -0.3378
 1537TP3      O16429   4.637   3.737   8.941 -0.0633  0.2530 -0.0040
 1537TP3     H116430   4.638   3.656   8.992 -0.4535  0.4050  0.2507
 1537TP3     H216431   4.680   3.801   8.998  0.7073  0.1021 -0.4192
 1538TP3      O16432   2.896   3.870   7.440 -0.0774 -0.4585  0.3521
 1538TP3     H116433   2.862   3.828   7.361 -1.2820  0.4926  0.3536
 1538TP3     H216434   2.818   3.887   7.494  0.8748 -2.5695  2.4849
 1539TP3      O16435   3.250   5.452   7.847 -0.2104  1.1989 -0.4507
 1539TP3     H116436   3.211   5.444   7.760 -1.2404  3.6564 -0.2449
 1539TP3     H216437   3.176   5.440   7.907  0.5323 -0.6853  0.1225
 1540TP3      O16438   0.048   0.286   7.897  0.0312  0.1271 -0.3864
 1540TP3     H116439   0.045   0.192   7.880  0.4602 -0.1971  1.2325
 1540TP3     H216440  -0.030   0.304   7.950  0.4109  0.5237  0.0439
 1541TP3      O16441   5.055   3.672   8.213  0.4719  0.6113  0.1980
 1541TP3     H116442   4.984   3.616   8.243 -0.5857  1.9088  0.1336
 1541TP3     H216443   5.128   3.650   8.271  0.0017 -0.6446  0.3358
 1542TP3      O16444   2.934   3.694   8.773 -0.4556  0.0264 -0.2324
 1542TP3     H116445   2.895   3.667   8.690 -0.3380 -1.4559  0.1797
 1542TP3     H216446   3.028   3.677   8.762 -0.3172  0.6663 -0.1018
 1543TP3      O16447   4.226   4.748   8.257  0.0634  0.5541 -0.4875
 1543TP3     H116448   4.264   4.834   8.272 -0.0859  0.8506 -1.8188
 1543TP3     H216449   4.293   4.686   8.289  0.2167  1.1396  0.3570
 1544TP3      O16450   4.280   2.543   9.757  0.7643 -0.2848 -0.1829
 1544TP3     H116451   4.211   2.531   9.691  0.6705 -0.6122 -0.0271
 1544TP3     H216452   4.235   2.531   9.841  0.9636 -0.2680 -0.0756
 1545TP3      O16453   1.345   4.974   8.704 -0.2825  0.0401 -0.3256
 1545TP3     H116454   1.330   4.917   8.629  0.2362  1.4439 -1.5028
 1545TP3     H216455   1.354   4.913   8.778  2.1876 -1.5523 -1.8405
 1546TP3      O16456   4.144   3.224   8.008 -0.2979 -0.0113 -0.1220
 1546TP3     H116457   4.203   3.237   7.933 -0.7609  0.8005 -0.3547
 1546TP3     H216458   4.197   3.249   8.084  0.2739 -1.1393 -0.1430
 1547TP3      O16459   5.095   4.982   7.159  0.1345 -0.1069  0.0583
 1547TP3     H116460   5.046   5.057   7.193  1.4941  0.2851  1.2165
 1547TP3     H216461   5.181   5.017   7.137  1.5051 -1.6680  2.5656
 1548TP3      O16462   3.777   0.386   9.371 -0.3022 -0.1792 -0.4516
 1548TP3     H116463   3.753   0.371   9.462 -0.9316  0.2903 -0.5409
 1548TP3     H216464   3.740   0.471   9.350 -1.0754 -0.7546 -1.4694
 1549TP3      O16465   4.684   5.370   7.450  0.3147  0.0971  0.0071
 1549TP3     H116466   4.743   5.403   7.382 -1.4803 -1.2005 -2.2689
 1549TP3     H216467   4.713   5.281   7.466  1.5584  0.8130  1.9754
 1550TP3      O16468   5.206   0.985   8.660  0.1666  0.3378 -0.6703
 1550TP3     H116469   5.134   0.921   8.659  0.5316 -0.0891  0.0357
 1550TP3     H216470   5.246   0.978   8.574  1.1837 -1.5223 -0.0694
 1551TP3      O16471   4.603   4.162   7.555  0.5324  0.5915 -0.0597
 1551TP3     H116472   4.615   4.251   7.521  0.2150  1.3994  1.8648
 1551TP3     H216473   4.519   4.134   7.520  1.0523  0.6874 -1.4212
 1552TP3      O16474   5.388   4.320   8.006 -0.2942 -0.2710 -0.0016
 1552TP3     H116475   5.434   4.316   7.922 -0.6651  1.2818 -0.3108
 1552TP3     H216476   5.429   4.394   8.052 -0.4097 -0.8167  0.9896
 1553TP3      O16477   1.112   0.089   8.787 -0.6575  0.0772  0.2097
 1553TP3     H116478   1.018   0.085   8.801 -0.8424  1.6540 -0.3932
 1553TP3     H216479   1.125   0.169   8.736  1.2392  1.2730  2.4552
 1554TP3      O16480   4.876   4.629   7.323 -0.4566  0.1564  0.5589
 1554TP3     H116481   4.801   4.609   7.267 -0.2736  0.8352  0.0596
 1554TP3     H216482   4.839   4.681   7.394 -0.6360 -0.4290  0.8972
 1555TP3      O16483   3.158   1.445   8.430 -0.1980 -0.0927 -0.1947
 1555TP3     H116484   3.191   1.450   8.341  1.9092 -1.8472  0.4401
 1555TP3     H216485   3.236   1.433   8.484 -1.3255  2.1629  2.0389
 1556TP3      O16486   3.840   4.591   7.775  0.2021  0.2762 -0.1166
 1556TP3     H116487   3.928   4.558   7.787 -0.3259 -0.8132  0.8727
 1556TP3     H216488   3.827   4.651   7.849 -0.5706 -1.0904  0.8933
 1557TP3      O16489   0.005   5.159   8.322 -0.6504 -0.0761  0.6195
 1557TP3     H116490  -0.043   5.165   8.404  0.2067 -1.8483  1.2720
 1557TP3     H216491   0.090   5.125   8.346 -0.7118 -1.5349 -1.1154
 1558TP3      O16492   4.221   3.502   7.709  0.6055 -0.4881  0.1216
 1558TP3     H116493   4.181   3.550   7.781 -2.9180 -0.9363 -1.4041
 1558TP3     H216494   4.270   3.431   7.751  1.2606  1.1417  2.1595
 1559TP3      O16495   4.702   4.953   7.227 -0.3803  0.0522 -0.1791
 1559TP3     H116496   4.725   4.861   7.239 -2.1719 -0.3819  0.0022
 1559TP3     H216497   4.641   4.954   7.153 -1.5342  0.8928  0.7547
 1560TP3      O16498   5.201   5.222   7.470 -0.1629  0.2025 -0.7010
 1560TP3     H116499   5.142   5.260   7.406  0.9891  1.3296 -1.1031
 1560TP3     H216500   5.283   5.207   7.423 -0.0412 -1.1213 -0.0930
 1561TP3      O16501   4.341   4.737   7.317  0.2735  0.5555 -0.5677
 1561TP3     H116502   4.293   4.700   7.243  0.5546 -0.4232 -0.2637
 1561TP3     H216503   4.422   4.687   7.322  0.6256  1.1534 -0.0919
 1562TP3      O16504   4.690   0.370   8.018  0.7604  0.3679 -0.2976
 1562TP3     H116505   4.765   0.344   8.071 -1.0352 -0.3820  1.9495
 1562TP3     H216506   4.629   0.410   8.080 -1.5738 -0.8891 -1.6934
 1563TP3      O16507   3.460   4.115   9.132 -0.1822  0.8884  0.1380
 1563TP3     H116508   3.526   4.181   9.152 -0.0633  0.0806  2.5666
 1563TP3     H216509   3.443   4.072   9.215  1.0184 -3.3035 -1.6197
 1564TP3      O16510   4.391   4.779   7.752 -0.2891 -0.2626  0.4022
 1564TP3     H116511   4.460   4.844   7.765 -1.5513  1.3225 -0.6280
 1564TP3     H216512   4.430   4.696   7.780  2.1858  0.5303 -0.6059
 1565TP3      O16513   3.789   5.452   8.059 -0.4178  0.0471 -0.3364
 1565TP3     H116514   3.795   5.502   7.978 -0.3385 -0.8758 -0.9022
 1565TP3     H216515   3.822   5.511   8.126 -3.0014  1.8351 -0.5348
 1566TP3      O16516   2.119   4.510   8.536  0.3329 -0.4121 -0.1930
 1566TP3     H116517   2.156   4.593   8.567 -1.3653  0.4696 -0.4498
 1566TP3     H216518   2.182   4.443   8.565  0.9783  0.8144  1.3167
 1567TP3      O16519   2.911   0.438   7.420 -0.1204 -0.4971 -0.2154
 1567TP3     H116520   2.927   0.490   7.342  0.7323 -1.4989 -0.7154
 1567TP3     H216521   2.994   0.438   7.466 -0.9899  1.3032  1.4629
 1568TP3      O16522   4.887   0.842   7.736  0.6922 -0.2855  0.8148
 1568TP3     H116523   4.981   0.858   7.737  0.6928 -0.2907  1.3346
 1568TP3     H216524   4.862   0.842   7.829 -0.0043  0.8080  0.6341
 1569TP3      O16525   5.219   5.242   7.737  0.5446 -0.0441 -0.0128
 1569TP3     H116526   5.206   5.224   7.644 -1.9679 -0.8987  0.4536
 1569TP3     H216527   5.166   5.320   7.754 -0.2721 -0.7996  0.9955
 1570TP3      O16528   0.582   4.087   8.591 -0.5470  0.1619 -0.0171
 1570TP3     H116529   0.589   4.161   8.531 -1.6912 -0.2752 -0.7261
 1570TP3     H216530   0.520   4.028   8.547  1.5427 -1.9324 -0.2058
 1571TP3      O16531   4.337   0.014   9.283 -0.1297 -0.2483  0.1415
 1571TP3     H116532   4.372   0.103   9.272  1.5141 -0.9692 -0.7852
 1571TP3     H216533   4.251   0.017   9.242 -1.0489  1.4976  2.1471
 1572TP3      O16534   0.143   2.842   7.526  0.0164  0.0000  0.1829
 1572TP3     H116535   0.100   2.774   7.475  0.4216 -0.5967  0.6269
 1572TP3     H216536   0.141   2.919   7.469  0.3091 -0.6067 -0.6644
 1573TP3      O16537   4.588   4.601   9.044 -0.3347  0.1843 -0.3284
 1573TP3     H116538   4.525   4.530   9.027  0.3180  0.0130 -2.0873
 1573TP3     H216539   4.541   4.681   9.020 -0.6135  0.2609  0.4277
 1574TP3      O16540   5.090   4.083   8.189 -0.3891 -0.0922  0.5854
 1574TP3     H116541   5.117   4.001   8.148 -2.3615 -0.4964  0.0762
 1574TP3     H216542   5.092   4.147   8.117  0.6677  0.2172  0.8773
 1575TP3      O16543   2.739   4.914   8.436  0.4947 -0.0599  0.2788
 1575TP3     H116544   2.759   4.960   8.355 -2.0718  0.8273  0.1041
 1575TP3     H216545   2.786   4.964   8.503 -0.9156  1.8487 -0.1204
 1576TP3      O16546   3.688   3.794   7.241  0.4357 -0.1871  0.0963
 1576TP3     H116547   3.745   3.726   7.204 -0.6315 -2.7528  3.0131
 1576TP3     H216548   3.601   3.770   7.211  0.3111  1.2019 -0.6852
 1577TP3      O16549   5.022   5.269   7.216  0.0035 -0.0306  0.0858
 1577TP3     H116550   5.079   5.308   7.150 -1.6449  0.0869 -1.2857
 1577TP3     H216551   4.941   5.320   7.211 -0.8114 -1.2222  0.8984
 1578TP3      O16552   4.805   4.433   8.547 -0.1401  0.6372 -0.1098
 1578TP3     H116553   4.713   4.410   8.533 -0.0973  0.2741  0.1803
 1578TP3     H216554   4.812   4.523   8.518 -0.3602  0.3330 -1.1177
 1579TP3      O16555   0.301   4.739   7.415  0.8404  0.1059  0.2386
 1579TP3     H116556   0.342   4.820   7.384  1.3042 -0.2835 -0.1640
 1579TP3     H216557   0.286   4.688   7.336 -0.4498  0.2547  0.3792
 1580TP3      O16558   2.899   3.119   9.327  0.0292  0.8629 -0.3629
 1580TP3     H116559   2.837   3.191   9.315 -0.8565 -0.1283 -2.0032
 1580TP3     H216560   2.870   3.053   9.264  3.0804  0.5635 -1.5024
 1581TP3      O16561   4.792   3.435   8.665  0.0520 -0.2472  0.1771
 1581TP3     H116562   4.799   3.430   8.761  0.9729 -2.0189  0.0496
 1581TP3     H216563   4.752   3.351   8.641  2.9185 -1.2697 -1.2329
 1582TP3      O16564   4.004   4.608   8.933 -0.0315  0.7873 -0.1189
 1582TP3     H116565   4.064   4.625   8.860  0.3189  0.8512  0.1786
 1582TP3     H216566   4.006   4.689   8.985  0.4787  0.3973  0.4853
 1583TP3      O16567   1.290   0.968   7.531 -0.0975 -0.2632 -0.6152
 1583TP3     H116568   1.357   0.913   7.490 -0.5932 -0.0096 -1.7512
 1583TP3     H216569   1.245   0.909   7.591  2.0793 -0.1088  1.2601
 1584TP3      O16570   4.715   5.077   7.467  0.3132 -0.0957  0.0456
 1584TP3     H116571   4.789   5.043   7.518  0.7085  0.2808 -0.2779
 1584TP3     H216572   4.702   5.012   7.398  0.7219  0.1321 -0.2492
 1585TP3      O16573   3.443   4.230   6.780 -0.3966  0.3615  0.7374
 1585TP3     H116574   3.377   4.188   6.724 -0.2425  0.2971  0.6028
 1585TP3     H216575   3.469   4.163   6.842 -0.0565  0.2180  0.4402
 1586TP3      O16576   3.789   1.796   7.826  0.2043  0.2746 -0.2782
 1586TP3     H116577   3.829   1.777   7.742  0.2431 -0.6759 -0.0493
 1586TP3     H216578   3.701   1.759   7.820  0.3087 -0.0634  0.1982
 1587TP3      O16579   4.082   2.426   9.538  0.1162  0.4008  0.4820
 1587TP3     H116580   3.994   2.423   9.575 -0.1549 -0.1733 -0.1943
 1587TP3     H216581   4.102   2.335   9.517 -0.2398  0.8466 -1.9216
 1588TP3      O16582   5.086   0.267   9.916 -0.3965  0.1729 -0.0568
 1588TP3     H116583   5.084   0.346   9.861  1.5928 -0.0933 -0.5412
 1588TP3     H216584   5.131   0.202   9.863  3.3751  0.4716  2.5638
 1589TP3      O16585   4.109   4.064   7.630 -0.2650 -0.8352  0.2032
 1589TP3     H116586   4.190   4.033   7.669 -0.1521 -0.2778  0.4152
 1589TP3     H216587   4.129   4.151   7.596 -0.6177 -0.9279 -0.2570
 1590TP3      O16588   3.997   5.373   9.772  0.4294 -0.4247 -0.3704
 1590TP3     H116589   3.987   5.292   9.822  1.0991 -0.6297 -0.5672
 1590TP3     H216590   4.003   5.442   9.839 -0.4296 -0.5057 -0.2099
 1591TP3      O16591   2.368   4.844   9.239 -0.0989 -0.6334  0.1920
 1591TP3     H116592   2.357   4.757   9.277 -1.3549 -0.8640 -0.6813
 1591TP3     H216593   2.285   4.888   9.255 -0.5502 -0.6311 -2.0139
 1592TP3      O16594   4.077   3.838   7.927  0.1409 -0.4050 -0.2525
 1592TP3     H116595   4.024   3.891   7.986 -0.0631 -0.2711 -0.5570
 1592TP3     H216596   4.142   3.898   7.892  0.7746 -0.6648  0.4531
 1593TP3      O16597   4.969   5.520   8.747 -0.7983 -0.1986  0.0645
 1593TP3     H116598   4.982   5.534   8.841 -1.3633 -0.7489  0.2260
 1593TP3     H216599   4.928   5.434   8.741 -1.0753 -0.0177 -0.6627
 1594TP3      O16600   3.479   0.013   8.209 -0.0679 -0.1266 -0.6282
 1594TP3     H116601   3.464  -0.008   8.117 -0.4189  0.4217 -0.7001
 1594TP3     H216602   3.506  -0.070   8.249 -1.2225 -0.6678 -0.9459
 1595TP3      O16603   5.398   3.064   7.621  0.9742 -0.2820 -0.0812
 1595TP3     H116604   5.407   3.127   7.550  0.5925  0.5725  0.6224
 1595TP3     H216605   5.476   3.075   7.674  1.5278 -1.3115 -0.6683
 1596TP3      O16606   4.280   4.899   7.550  0.2401 -0.5563  0.2673
 1596TP3     H116607   4.317   4.854   7.626  1.3858 -1.3036 -0.7073
 1596TP3     H216608   4.313   4.850   7.475 -1.3809 -0.2007 -0.6967
 1597TP3      O16609   3.673   5.352   8.975  0.5706 -0.6963 -0.5728
 1597TP3     H116610   3.648   5.414   9.043 -0.0681 -2.0172  0.4212
 1597TP3     H216611   3.709   5.277   9.023  0.9563 -1.2655 -1.7275
 1598TP3      O16612   4.007   4.358   7.742 -0.4657 -0.0810 -0.3302
 1598TP3     H116613   3.987   4.315   7.826  0.8411  2.6122  1.4199
 1598TP3     H216614   4.102   4.350   7.733 -0.4620  0.6872 -0.9790
 1599TP3      O16615   4.337   4.515   8.623 -0.3158  0.2106  0.3004
 1599TP3     H116616   4.374   4.572   8.555 -1.3705 -0.5794 -0.9659
 1599TP3     H216617   4.306   4.438   8.576  1.2178 -1.5155  2.0211
 1600TP3      O16618   3.455   5.298   7.528  0.1631  0.1776  0.1930
 1600TP3     H116619   3.497   5.225   7.573  1.1662  0.0377 -0.9376
 1600TP3     H216620   3.517   5.370   7.535 -0.2997  0.5783  0.2580
 1601TP3      O16621   0.270   4.906   7.140  0.1185 -0.5441 -0.3431
 1601TP3     H116622   0.219   4.958   7.201 -0.2345 -0.7274 -0.4818
 1601TP3     H216623   0.343   4.962   7.115  0.7740 -0.8068  0.9659
 1602TP3      O16624   5.153   0.925   7.743 -0.4977 -0.3632 -0.6400
 1602TP3     H116625   5.246   0.948   7.746 -0.5811  0.1772 -1.9954
 1602TP3     H216626   5.125   0.948   7.655 -2.5301  1.7972  0.5188
 1603TP3      O16627   1.432   4.513   9.212 -0.0276  0.4298  0.1811
 1603TP3     H116628   1.387   4.436   9.247 -2.3459  2.2763  1.4648
 1603TP3     H216629   1.362   4.575   9.193  1.9496  3.5637  2.5632
 1604TP3      O16630   2.831   5.056   7.962 -0.0563  0.2978  0.2027
 1604TP3     H116631   2.798   5.059   8.052 -2.0201  0.5335 -0.5018
 1604TP3     H216632   2.822   5.146   7.931 -1.3393 -0.1952 -0.8934
 1605TP3      O16633   4.417   0.864   7.571 -0.3859  0.0880  0.1191
 1605TP3     H116634   4.489   0.843   7.632 -0.6997 -0.2574  0.3717
 1605TP3     H216635   4.381   0.946   7.606  0.2324  0.5581 -0.3233
 1606TP3      O16636   4.149   4.875   6.674  0.1455 -0.2933  0.0388
 1606TP3     H116637   4.214   4.854   6.740  1.3603  0.7112 -0.8175
 1606TP3     H216638   4.072   4.902   6.724  0.5282 -1.0452  1.0481
 1607TP3      O16639   0.452   0.058   9.957  0.1519 -0.3353  0.5027
 1607TP3     H116640   0.434  -0.033   9.931 -0.4193 -0.0493 -0.1252
 1607TP3     H216641   0.376   0.084  10.009 -0.8074  0.5381 -1.2899
 1608TP3      O16642   5.496   0.542   9.075 -0.0698  0.3720 -0.5629
 1608TP3     H116643   5.406   0.567   9.057 -0.3774 -0.2355  0.1287
 1608TP3     H216644   5.508   0.459   9.029 -0.3091 -0.2726  0.5119
 1609TP3      O16645   4.016   4.338   8.031  0.1159  0.5132  0.1106
 1609TP3     H116646   4.052   4.404   8.091  0.1417  1.4059 -0.8887
 1609TP3     H216647   3.922   4.339   8.048  0.4885 -1.7931  2.6985
 1610TP3      O16648   0.025   4.806   7.397  0.0796  0.0710 -0.3126
 1610TP3     H116649   0.111   4.784   7.432  0.0848 -1.1090 -1.0133
 1610TP3     H216650   0.035   4.894   7.360  0.9400  0.0020 -0.2415
 1611TP3      O16651   4.412   1.092   7.264  0.1376  0.1090 -0.3056
 1611TP3     H116652   4.352   1.041   7.318 -0.3743 -0.5304 -1.4519
 1611TP3     H216653   4.498   1.058   7.285  0.0114  0.3708  0.6468
 1612TP3      O16654   5.513   2.605   7.668  0.5576  0.3137 -0.3576
 1612TP3     H116655   5.590   2.588   7.722  0.1731 -2.9324 -0.7022
 1612TP3     H216656   5.543   2.593   7.578  0.5573  3.0177 -0.7550
 1613TP3      O16657   3.708   3.911   9.292 -0.8068  0.1572  0.0337
 1613TP3     H116658   3.714   3.817   9.272 -0.4574 -0.0323  1.0332
 1613TP3     H216659   3.779   3.951   9.242 -0.3862 -0.2265  0.3253
 1614TP3      O16660   3.865   4.670   8.385  0.1817 -0.2981 -0.3041
 1614TP3     H116661   3.882   4.737   8.320 -0.9808 -1.0676 -1.4278
 1614TP3     H216662   3.793   4.618   8.348  0.1040 -1.2859  1.1785
 1615TP3      O16663   5.357   3.729   8.312 -0.0598 -0.6552  0.2291
 1615TP3     H116664   5.344   3.789   8.238 -1.2177 -0.7010  0.3863
 1615TP3     H216665   5.387   3.648   8.272 -0.6512 -0.6702 -0.1931
 1616TP3      O16666   3.425   0.306   7.833  0.2013  0.4172 -0.7867
 1616TP3     H116667   3.453   0.217   7.853 -2.2414 -0.2102  0.0338
 1616TP3     H216668   3.429   0.311   7.737  1.8165 -0.0476 -0.7587
 1617TP3      O16669   4.513   5.424   8.462  0.0880  0.2425 -0.2867
 1617TP3     H116670   4.469   5.444   8.545  1.5637  0.4490  0.4603
 1617TP3     H216671   4.483   5.493   8.402  0.4717  1.2024  0.6084
 1618TP3      O16672   0.745   0.495   8.218  0.3032 -0.2493  0.1070
 1618TP3     H116673   0.717   0.457   8.135 -0.6643  1.7031 -0.4856
 1618TP3     H216674   0.803   0.567   8.193 -0.6718  0.8926  1.0865
 1619TP3      O16675   2.999   3.583   8.038 -0.5228 -0.6576  0.2594
 1619TP3     H116676   3.013   3.607   8.130  3.6708  0.3852 -0.5577
 1619TP3     H216677   3.007   3.666   7.991  0.5988 -1.6711 -1.3535
 1620TP3      O16678   3.286   0.193   7.521  0.5114 -0.6573 -0.2322
 1620TP3     H116679   3.230   0.265   7.550  0.4649 -0.4514 -0.8306
 1620TP3     H216680   3.237   0.114   7.544  0.2273 -0.4875 -0.2527
 1621TP3      O16681   5.425   5.130   8.608  0.1358 -0.1590  0.3811
 1621TP3     H116682   5.368   5.200   8.577 -0.2590 -0.7021 -0.1303
 1621TP3     H216683   5.365   5.066   8.646  0.5462  0.0690  1.4307
 1622TP3      O16684   5.213   4.611   7.691  0.2305  0.1719 -0.5700
 1622TP3     H116685   5.221   4.706   7.681 -1.6482  0.5367  1.0890
 1622TP3     H216686   5.180   4.581   7.606  0.0225  1.1148 -0.8354
 1623TP3      O16687   4.034   0.097   7.679  0.0297 -0.4385  0.2310
 1623TP3     H116688   4.123   0.065   7.668 -0.2091 -0.8207 -0.5754
 1623TP3     H216689   3.993   0.085   7.594 -1.1246 -1.2682  0.8927
 1624TP3      O16690   3.191   3.897   9.226 -0.0887 -0.3906 -0.3555
 1624TP3     H116691   3.259   3.877   9.162 -0.8080 -1.4906 -0.7983
 1624TP3     H216692   3.185   3.818   9.280 -0.5554 -0.0511  0.0941
 1625TP3      O16693   3.311   1.890   9.755 -0.4409  0.0562 -0.4419
 1625TP3     H116694   3.315   1.796   9.770 -1.7006  0.1639  0.6153
 1625TP3     H216695   3.314   1.899   9.659 -0.4812 -1.0578 -0.5525
 1626TP3      O16696   3.106   2.235   8.425  0.4002 -0.6455  0.2900
 1626TP3     H116697   3.095   2.312   8.480 -0.2154  1.6441 -2.9007
 1626TP3     H216698   3.199   2.233   8.404  0.1529  0.1488 -0.8979
 1627TP3      O16699   4.252   0.881   9.933  0.4743 -0.2970 -0.7199
 1627TP3     H116700   4.314   0.812   9.909  0.6175 -0.6006  0.4877
 1627TP3     H216701   4.166   0.844   9.912  0.5832 -0.6609 -0.5299
 1628TP3      O16702   2.648   1.815   9.153 -0.7003 -0.2534 -0.3105
 1628TP3     H116703   2.723   1.855   9.110 -1.0039  0.8060  0.1426
 1628TP3     H216704   2.577   1.821   9.089 -0.7299 -0.1336 -0.2652
 1629TP3      O16705   4.144   0.042   8.808  0.5228 -0.2193  0.0610
 1629TP3     H116706   4.149   0.069   8.900 -0.7498  0.8554 -0.1847
 1629TP3     H216707   4.075   0.095   8.770 -0.1524 -1.8897 -1.1125
 1630TP3      O16708   4.932   4.267   7.748  0.0254  0.0509 -0.1941
 1630TP3     H116709   4.846   4.277   7.788  0.7882  0.4817  1.3425
 1630TP3     H216710   4.992   4.314   7.805  1.6483 -2.1655  0.0079
 1631TP3      O16711   3.637   0.405   8.004  0.0108  0.6335 -0.5477
 1631TP3     H116712   3.592   0.489   8.004  0.8040  1.0602 -0.3252
 1631TP3     H216713   3.608   0.363   7.923 -1.7859  0.3536  0.2162
 1632TP3      O16714   4.249   4.608   7.088  0.3149 -0.2551  0.7005
 1632TP3     H116715   4.331   4.560   7.081  0.1076 -0.6318  0.8273
 1632TP3     H216716   4.236   4.646   7.002  1.3743  1.0411  1.0939
 1633TP3      O16717   4.766   5.465   9.454  0.0848  0.1248 -0.0013
 1633TP3     H116718   4.673   5.463   9.478  0.1307  3.0128  0.5977
 1633TP3     H216719   4.766   5.484   9.360  0.0870  0.8773  0.1529
 1634TP3      O16720   1.249   0.684   8.780  0.0648  0.0918 -0.4029
 1634TP3     H116721   1.219   0.594   8.792  0.4232 -0.1580 -1.3386
 1634TP3     H216722   1.170   0.733   8.757 -0.6990  0.6456  3.1575
 1635TP3      O16723   0.321   4.754   6.929 -0.3333  0.0541 -0.5369
 1635TP3     H116724   0.407   4.733   6.965 -0.5226  0.9977  0.4788
 1635TP3     H216725   0.282   4.814   6.993 -2.0130 -0.9007 -0.6364
 1636TP3      O16726   1.013   1.543   8.934 -0.2853 -0.4168 -0.0185
 1636TP3     H116727   1.013   1.448   8.944  1.7340 -0.6415 -1.8203
 1636TP3     H216728   0.968   1.559   8.851  0.1956  0.1314 -0.1828
 1637TP3      O16729   4.803   3.494   9.327 -0.0213 -0.1920  0.1491
 1637TP3     H116730   4.844   3.411   9.304  1.0527  1.2076 -3.1635
 1637TP3     H216731   4.709   3.473   9.335  0.1777 -1.6031 -1.1363
 1638TP3      O16732   4.820   1.961   7.867 -0.0789 -0.0051 -0.3997
 1638TP3     H116733   4.876   2.026   7.910 -0.4108  1.0411 -1.5034
 1638TP3     H216734   4.854   1.956   7.777 -0.2509 -1.1376 -0.4062
 1639TP3      O16735   3.881   4.818   9.139 -0.3905  0.2335 -0.3159
 1639TP3     H116736   3.859   4.905   9.172  0.5945  0.2409  0.3590
 1639TP3     H216737   3.843   4.758   9.203 -1.0445  0.1689 -0.7650
 1640TP3      O16738   0.286   4.610   9.220  0.0318 -0.4231  0.1936
 1640TP3     H116739   0.334   4.615   9.137 -2.1477  0.5319 -1.0401
 1640TP3     H216740   0.309   4.691   9.266  1.8924 -1.3338  0.9206
 1641TP3      O16741   0.122   2.943   9.515 -0.7308 -0.1023 -0.2242
 1641TP3     H116742   0.172   2.926   9.595 -1.7399 -0.9139  0.2480
 1641TP3     H216743   0.088   2.857   9.489 -1.4453  0.3551 -0.8201
 1642TP3      O16744   0.584   3.244   7.820 -0.4059 -0.0888  0.1150
 1642TP3     H116745   0.520   3.179   7.849 -0.1064 -0.1619  0.6282
 1642TP3     H216746   0.565   3.322   7.873 -0.2106 -0.0421  0.1180
 1643TP3      O16747   4.965   4.038   9.246  0.3864  0.4768  0.3626
 1643TP3     H116748   5.010   4.118   9.221  0.9702 -0.7396 -2.7580
 1643TP3     H216749   4.891   4.031   9.185  0.0624 -1.1056  0.8874
 1644TP3      O16750   3.692   2.828   6.951 -0.0050  0.4937 -0.9240
 1644TP3     H116751   3.623   2.787   7.003  0.1752  0.0266 -1.0458
 1644TP3     H216752   3.685   2.921   6.971  1.1938  0.1256  1.2618
 1645TP3      O16753   3.798   4.916   9.971 -0.2109  0.9327 -0.6581
 1645TP3     H116754   3.803   4.820   9.976  4.4145  0.9429 -2.7815
 1645TP3     H216755   3.756   4.933   9.887 -0.8594  0.8134 -0.3666
 1646TP3      O16756   3.778   0.608  10.315 -0.4310  0.0752  0.1727
 1646TP3     H116757   3.740   0.563  10.390  0.0237 -0.2304  0.2239
 1646TP3     H216758   3.741   0.562  10.239 -2.1143  1.3902  0.1739
 1647TP3      O16759   3.768   4.345   8.391 -0.5103 -0.3203  0.2320
 1647TP3     H116760   3.799   4.299   8.469  3.1597  0.1999 -0.8251
 1647TP3     H216761   3.717   4.419   8.425  0.7038 -0.3320  2.1398
 1648TP3      O16762   3.797   0.415   7.612 -0.4183 -0.1884  0.3613
 1648TP3     H116763   3.858   0.452   7.676  0.2772 -2.0919  0.8629
 1648TP3     H216764   3.759   0.339   7.657 -1.2542 -0.4965 -0.8462
 1649TP3      O16765   4.064   0.626   8.996  0.2448 -0.4914  0.2001
 1649TP3     H116766   4.084   0.557   9.059  0.6405 -1.3604 -0.8636
 1649TP3     H216767   4.030   0.580   8.920 -0.5183  0.5720 -0.1183
 1650TP3      O16768   5.074   4.870   8.793  0.2885 -0.0512  0.3767
 1650TP3     H116769   5.003   4.844   8.735  0.4154  0.3786  0.0203
 1650TP3     H216770   5.048   4.838   8.879 -0.6710  0.7129  0.3827
 1651TP3      O16771   0.094   2.837   0.142  0.2571 -0.5211 -0.0665
 1651TP3     H116772   0.150   2.791   0.204 -1.6606 -0.1169  2.0431
 1651TP3     H216773   0.044   2.768   0.098  0.7060 -0.7224 -0.2666
 1652TP3      O16774   4.792   4.672   8.437 -0.0530  0.4607 -0.8266
 1652TP3     H116775   4.852   4.721   8.380 -1.5603  2.7260 -0.5373
 1652TP3     H216776   4.731   4.629   8.376  1.2203 -1.0265 -1.0800
 1653TP3      O16777   0.998   4.789   7.557  0.4784  0.1859  0.3222
 1653TP3     H116778   0.990   4.879   7.587  2.3156 -0.1468  1.8892
 1653TP3     H216779   1.018   4.796   7.463 -0.9638  1.3391  0.0835
 1654TP3      O16780   4.210   4.939   6.994 -0.3009 -0.5443 -0.1653
 1654TP3     H116781   4.128   4.941   6.945  0.7058  2.1665 -1.8165
 1654TP3     H216782   4.182   4.923   7.085 -2.4488 -1.9881 -1.0400
 1655TP3      O16783   5.272   3.653   9.837  0.1432  0.3290 -0.1779
 1655TP3     H116784   5.177   3.668   9.828  0.2488  1.2935  0.2932
 1655TP3     H216785   5.307   3.736   9.868  0.8890 -0.5727  1.4627
 1656TP3      O16786   4.995   3.626   7.736  0.5626 -0.2681  0.8323
 1656TP3     H116787   5.058   3.661   7.799 -0.3910  0.5337  1.3500
 1656TP3     H216788   4.913   3.671   7.756 -0.3093 -1.6647  0.4893
 1657TP3      O16789   0.610   4.046   7.114 -0.1513  0.3814  0.0722
 1657TP3     H116790   0.643   3.971   7.163  0.0305  0.2568 -0.2422
 1657TP3     H216791   0.551   4.090   7.175 -0.2551 -0.0141  0.2560
 1658TP3      O16792   4.926   4.756   9.023  0.4392 -0.2426 -0.6563
 1658TP3     H116793   4.974   4.689   9.072 -0.4630 -0.0285  0.5291
 1658TP3     H216794   4.891   4.710   8.947  0.0463 -1.0482  0.0114
 1659TP3      O16795   3.589   2.940   7.756  0.0212  0.1057 -0.2489
 1659TP3     H116796   3.681   2.928   7.734  0.2591  2.7541 -0.9139
 1659TP3     H216797   3.542   2.880   7.697  1.2987 -1.5036  0.3297
 1660TP3      O16798   4.325   4.234   8.311 -0.1168  0.3743 -0.0838
 1660TP3     H116799   4.245   4.183   8.319 -0.3939  0.7873 -0.1636
 1660TP3     H216800   4.363   4.234   8.399  0.9104 -1.6050 -0.5175
 1661TP3      O16801   0.638   4.530   8.474 -0.3934  0.2582  0.3038
 1661TP3     H116802   0.566   4.534   8.537 -1.6198 -0.8818 -0.9922
 1661TP3     H216803   0.628   4.446   8.430  1.9216 -0.0445  0.2928
 1662TP3      O16804   1.410   1.236   9.490 -0.3476  1.2672  0.0637
 1662TP3     H116805   1.479   1.271   9.546  0.5782  1.5466 -1.2241
 1662TP3     H216806   1.435   1.144   9.476 -0.0145  1.4612 -0.6901
 1663TP3      O16807   4.305   4.263   7.024  0.0251 -0.2345 -0.2708
 1663TP3     H116808   4.370   4.327   7.052  2.0321 -2.0633 -0.5793
 1663TP3     H216809   4.263   4.303   6.947  0.2616  1.2714  0.3702
 1664TP3      O16810   5.442   3.429   7.656 -0.1582 -0.1015 -0.1856
 1664TP3     H116811   5.385   3.373   7.603 -0.1557  0.2845 -0.5996
 1664TP3     H216812   5.421   3.406   7.747  0.1086 -1.0377 -0.3507
 1665TP3      O16813   2.823   2.671   9.839 -0.3413 -0.0248  0.0805
 1665TP3     H116814   2.806   2.577   9.839 -1.1637  0.1244  0.7399
 1665TP3     H216815   2.747   2.709   9.795 -0.7936  0.4758  1.3016
 1666TP3      O16816   3.346   5.197   9.204  0.1697 -0.0102 -0.4066
 1666TP3     H116817   3.335   5.211   9.110 -4.0583 -2.0664 -0.3266
 1666TP3     H216818   3.320   5.279   9.245 -1.4625 -0.2693 -0.9076
 1667TP3      O16819   0.430   1.045   8.123 -0.3567 -0.0748 -0.5644
 1667TP3     H116820   0.402   0.976   8.183  1.9869  0.1199  0.8416
 1667TP3     H216821   0.369   1.040   8.050 -2.6049 -1.0548  1.3274
 1668TP3      O16822   0.040   4.280   8.531  0.4637  0.6191 -0.0705
 1668TP3     H116823  -0.037   4.314   8.486 -0.1450  1.9586  1.8868
 1668TP3     H216824   0.025   4.186   8.538 -0.4181  0.7065 -0.7435
 1669TP3      O16825   4.453   5.115   7.559 -0.3337  0.2139  0.1917
 1669TP3     H116826   4.397   5.039   7.576 -0.7120  0.5710  0.5947
 1669TP3     H216827   4.536   5.079   7.530  0.4463 -0.4669  3.1112
 1670TP3      O16828   3.098   0.077   8.994 -0.4133 -0.3755  0.4311
 1670TP3     H116829   3.030   0.129   9.038 -0.3310  0.2353 -0.1588
 1670TP3     H216830   3.165   0.141   8.971 -0.5325 -0.6663 -0.7292
 1671TP3      O16831   4.499   0.054   7.448  0.3476  0.0363  0.1900
 1671TP3     H116832   4.566  -0.013   7.437  0.7089  0.2368  1.1364
 1671TP3     H216833   4.534   0.131   7.402 -0.2937 -0.5623 -1.3274
 1672TP3      O16834   3.034   0.471   7.979  0.5328  0.3031 -0.1199
 1672TP3     H116835   2.966   0.450   8.043  0.0535  1.0501 -0.3636
 1672TP3     H216836   3.061   0.560   8.002  0.5063  0.4950 -0.8090
 1673TP3      O16837   3.414   3.806   8.734 -0.2766 -0.0833 -0.3602
 1673TP3     H116838   3.466   3.781   8.657 -2.0515  0.1949 -1.6565
 1673TP3     H216839   3.356   3.875   8.703  0.0372  1.1092  1.6261
 1674TP3      O16840   1.425   0.586   8.071  0.2054  0.2609  0.5956
 1674TP3     H116841   1.452   0.641   7.998  2.1786  0.9885  1.8366
 1674TP3     H216842   1.489   0.514   8.072 -1.4100 -1.2031 -0.0452
 1675TP3      O16843   0.578   3.544   6.894  0.2460  0.0230  0.1739
 1675TP3     H116844   0.655   3.520   6.842  1.5002  1.1221  1.4957
 1675TP3     H216845   0.595   3.510   6.981 -0.5822  0.6209  0.5793
 1676TP3      O16846   3.927   4.921   8.238  0.5121 -0.3244  0.3794
 1676TP3     H116847   4.017   4.896   8.220  0.5142 -0.4155  0.5166
 1676TP3     H216848   3.918   5.008   8.200  0.0657 -1.1379 -1.4518
 1677TP3      O16849   4.134   2.841   7.900  0.1366  0.4105 -0.2966
 1677TP3     H116850   4.043   2.825   7.873  0.0038  2.1443 -0.8984
 1677TP3     H216851   4.127   2.868   7.992  0.0175  0.9142 -0.4556
 1678TP3      O16852   0.138   4.381   8.857  0.2485  0.3390 -0.2102
 1678TP3     H116853   0.052   4.365   8.895  0.1589 -1.7775 -1.2334
 1678TP3     H216854   0.200   4.351   8.924  0.2480  2.3694  0.7547
 1679TP3      O16855   1.826   3.376   8.739 -0.4839  0.5245  0.1476
 1679TP3     H116856   1.784   3.336   8.663  0.7355  0.1919 -0.3652
 1679TP3     H216857   1.889   3.438   8.702  1.1310 -0.6483  0.8258
 1680TP3      O16858   5.176   4.427   7.469 -0.0505  0.2724  0.3333
 1680TP3     H116859   5.266   4.457   7.459  0.2704  0.2074  2.8074
 1680TP3     H216860   5.181   4.332   7.471 -0.1871  0.2643  0.3482
 1681TP3      O16861   4.207   5.511   7.002  0.2038 -0.5005 -0.1272
 1681TP3     H116862   4.123   5.513   7.048 -0.5760 -3.0871 -1.3484
 1681TP3     H216863   4.203   5.586   6.943 -0.0689  1.0276  1.7844
 1682TP3      O16864   3.554   4.043   6.957  0.3518 -0.3165 -0.5455
 1682TP3     H116865   3.489   4.006   7.017  1.4291  0.0361  0.8673
 1682TP3     H216866   3.635   3.997   6.978  0.7056 -0.2854 -1.8449
 1683TP3      O16867   4.332   4.052   7.196 -0.1686 -0.1928 -0.8222
 1683TP3     H116868   4.306   4.099   7.117 -0.6457  1.7649  0.4611
 1683TP3     H216869   4.422   4.025   7.179 -0.6240 -0.7498 -2.4503
 1684TP3      O16870   0.191   4.420   7.896  0.0500 -0.7898  0.0711
 1684TP3     H116871   0.165   4.413   7.804  1.1901 -0.4516 -0.2836
 1684TP3     H216872   0.167   4.509   7.921  1.4268 -0.2603 -0.4442
 1685TP3      O16873   5.435   5.470   8.469 -0.5594  0.1330  0.6319
 1685TP3     H116874   5.529   5.451   8.459 -0.5237  0.1276  0.9745
 1685TP3     H216875   5.393   5.423   8.397 -0.2154  0.7797 -0.0076
 1686TP3      O16876   5.164   3.056   9.689 -0.1190 -0.2006  0.4365
 1686TP3     H116877   5.169   3.087   9.780  1.1516  2.5114 -0.5028
 1686TP3     H216878   5.103   3.116   9.647 -3.1734 -3.3797  0.1921
 1687TP3      O16879   3.772   1.028   6.816  0.2765 -0.3192  0.2736
 1687TP3     H116880   3.762   0.936   6.840  0.1503  0.1805  2.2005
 1687TP3     H216881   3.704   1.042   6.750 -2.4723 -0.6139  2.9099
 1688TP3      O16882   4.039   4.120   8.506 -0.0075 -0.1485  0.1310
 1688TP3     H116883   3.976   4.120   8.579  1.4367 -1.5549  1.4160
 1688TP3     H216884   4.018   4.041   8.456 -0.3341  0.2758 -0.4104
 1689TP3      O16885   4.430   2.250   8.571  0.0516  0.2199 -0.4466
 1689TP3     H116886   4.359   2.297   8.614 -1.1048 -0.5379 -1.5190
 1689TP3     H216887   4.490   2.319   8.541 -0.8679  0.9149 -0.6851
 1690TP3      O16888   0.184   1.130   0.282 -0.4620  0.2788  0.3150
 1690TP3     H116889   0.195   1.173   0.366  1.9078 -0.2968  0.3312
 1690TP3     H216890   0.214   1.193   0.217 -1.8049  0.5326 -0.0861
 1691TP3      O16891   2.133   0.192   8.687 -0.0635  0.6462  0.0990
 1691TP3     H116892   2.088   0.137   8.622  0.9335  1.0032 -0.9252
 1691TP3     H216893   2.199   0.134   8.724 -0.5352  0.4876  0.6982
 1692TP3      O16894   0.716   5.382   9.274  0.4308  0.6689 -0.6876
 1692TP3     H116895   0.706   5.298   9.228 -1.0306  0.2825  0.2790
 1692TP3     H216896   0.628   5.419   9.274  0.3453  0.5461  1.9689
 1693TP3      O16897   2.869   3.065   9.637  0.5440 -0.0882 -0.1080
 1693TP3     H116898   2.864   3.062   9.542  0.6369  1.1179 -0.1621
 1693TP3     H216899   2.783   3.098   9.664 -0.0365 -1.8851  0.3249
 1694TP3      O16900   3.023   1.471   9.976  0.7140  0.1382  0.1694
 1694TP3     H116901   3.018   1.529  10.051 -0.4523  0.5997 -0.2463
 1694TP3     H216902   2.938   1.479   9.934  0.8219 -1.2621 -0.3552
 1695TP3      O16903   0.575   1.383   7.524 -0.5332 -0.1300 -0.3906
 1695TP3     H116904   0.482   1.406   7.519 -0.8860 -1.1243  1.2009
 1695TP3     H216905   0.612   1.448   7.584 -0.1263  0.4462 -1.2545
 1696TP3      O16906   2.396   0.801   8.550 -0.2419  0.3457 -0.3160
 1696TP3     H116907   2.386   0.832   8.460  1.4095 -2.4405 -1.5169
 1696TP3     H216908   2.366   0.710   8.548  1.9009 -0.4556  1.4230
 1697TP3      O16909   0.113   3.507   7.820 -0.2261 -0.0744 -0.1434
 1697TP3     H116910   0.043   3.463   7.772  0.4588 -0.8783 -0.4112
 1697TP3     H216911   0.187   3.510   7.759 -0.3967  1.8749 -0.3046
 1698TP3      O16912   0.390   5.263   8.359  0.0945  0.4750  1.0774
 1698TP3     H116913   0.441   5.190   8.396 -1.2325 -0.6273  0.7636
 1698TP3     H216914   0.316   5.273   8.419  0.9022  2.3855  1.7886
 1699TP3      O16915   4.019   1.819   9.065 -0.3936 -0.8529  0.6189
 1699TP3     H116916   4.003   1.830   8.971  2.3140  0.0860  0.2000
 1699TP3     H216917   4.039   1.908   9.096 -1.2774 -1.1561  2.0857
 1700TP3      O16918   1.815   2.244   9.124 -0.0948  0.4313  0.4787
 1700TP3     H116919   1.815   2.169   9.064 -0.5365  0.2576  0.6979
 1700TP3     H216920   1.738   2.294   9.100 -1.0969 -0.4169  1.8762
 1701TP3      O16921   1.572   0.039   9.491  0.1269  0.6630  0.2457
 1701TP3     H116922   1.594  -0.010   9.412 -2.7102 -1.3005  0.5673
 1701TP3     H216923   1.477   0.049   9.487 -0.1524  0.0067  3.6771
 1702TP3      O16924   1.022   0.817   8.639  1.1350 -0.7465  0.1733
 1702TP3     H116925   0.943   0.837   8.689 -0.0103  0.6966 -2.1237
 1702TP3     H216926   1.006   0.730   8.603  0.3046 -0.1854 -0.8239
 1703TP3      O16927   4.759   0.580   9.912  0.3318 -0.0989 -0.2139
 1703TP3     H116928   4.765   0.656   9.971  0.2154  0.1954 -0.5741
 1703TP3     H216929   4.789   0.506   9.965 -3.0767 -0.4834  1.3855
 1704TP3      O16930   0.323   1.822   7.897  0.1039  0.6501 -0.4870
 1704TP3     H116931   0.326   1.855   7.987  0.4102  0.4015 -0.4042
 1704TP3     H216932   0.341   1.899   7.843  0.8043  0.6235 -0.2954
 1705TP3      O16933   2.880   0.823   1.354  0.0879  0.2309 -0.3893
 1705TP3     H116934   2.784   0.821   1.357  0.1619 -2.0775  1.4461
 1705TP3     H216935   2.902   0.910   1.386 -1.3556  0.0169  1.2757
 1706TP3      O16936   3.670   2.493   7.566  0.1095  0.7432 -0.3474
 1706TP3     H116937   3.755   2.537   7.561  0.5270 -0.2291 -2.7204
 1706TP3     H216938   3.680   2.428   7.635  1.4289  0.3944 -0.8528
 1707TP3      O16939   3.361   1.542   0.090 -0.0004  0.5568 -0.2851
 1707TP3     H116940   3.442   1.586   0.064  1.5970 -2.6265 -0.8798
 1707TP3     H216941   3.297   1.568   0.024  1.4788  0.3193 -1.8412
 1708TP3      O16942   0.481   2.517   8.274 -0.1678  0.1929  0.0974
 1708TP3     H116943   0.549   2.580   8.297 -0.7616  0.3680  1.4398
 1708TP3     H216944   0.528   2.443   8.236  0.8021  0.1124  1.4562
 1709TP3      O16945   0.020   1.088   9.713  0.4737  0.3231  0.0195
 1709TP3     H116946  -0.003   1.180   9.702  0.3519  0.1658 -1.0847
 1709TP3     H216947   0.029   1.054   9.624 -0.7324 -1.0488  0.3892
 1710TP3      O16948   4.243   2.215   0.152 -0.5329  0.0757 -0.1343
 1710TP3     H116949   4.174   2.150   0.136 -0.8031  0.1642  0.6301
 1710TP3     H216950   4.320   2.164   0.176 -0.4167 -0.0085 -0.6714
 1711TP3      O16951   3.061   0.678  10.098  0.3143  0.2505 -0.0116
 1711TP3     H116952   3.055   0.586  10.070  0.1933 -0.0017  0.8206
 1711TP3     H216953   3.045   0.728  10.019  0.5669 -0.4551 -0.5161
 1712TP3      O16954   1.144   2.475   0.237  0.5879 -0.3100  0.0003
 1712TP3     H116955   1.212   2.454   0.174  0.3963  0.0468 -0.3301
 1712TP3     H216956   1.087   2.398   0.237 -1.1073  0.8424 -2.5244
 1713TP3      O16957   2.331   3.506   7.557  0.3043  0.1236  0.1758
 1713TP3     H116958   2.369   3.461   7.482  0.4564  1.4865 -0.5863
 1713TP3     H216959   2.394   3.575   7.577 -0.8997  1.2847  0.0290
 1714TP3      O16960   1.559   4.648   8.911  0.2342 -0.1342 -0.3921
 1714TP3     H116961   1.626   4.683   8.852 -0.7783 -0.1895 -1.5953
 1714TP3     H216962   1.609   4.603   8.979  1.4650  1.3880 -0.2688
 1715TP3      O16963   0.487   1.159   0.188 -0.0881  0.1779  0.0986
 1715TP3     H116964   0.548   1.155   0.114  0.6480  0.3688  0.6917
 1715TP3     H216965   0.511   1.084   0.242 -0.0249  0.5650  0.6096
 1716TP3      O16966   0.023   0.379   0.016  0.3751 -0.5047 -0.3291
 1716TP3     H116967   0.103   0.404   0.063 -0.6995  0.6756  0.9336
 1716TP3     H216968   0.036   0.412  -0.072  0.6430  1.0387  0.2770
 1717TP3      O16969   2.514   3.338   8.362 -0.7252  0.2311  0.0760
 1717TP3     H116970   2.491   3.395   8.435  0.4213 -0.3904  0.9470
 1717TP3     H216971   2.606   3.314   8.378 -0.6072 -0.3085 -1.3042
 1718TP3      O16972   2.329   2.014   8.096  0.1321  0.3181 -0.0345
 1718TP3     H116973   2.402   2.032   8.155 -1.3207  0.1273  1.8920
 1718TP3     H216974   2.367   2.017   8.008  2.4235  0.2585  0.9236
 1719TP3      O16975   4.420   0.961   8.519  0.1489  0.6539 -0.3265
 1719TP3     H116976   4.403   0.886   8.463  0.4884 -0.1994  0.7047
 1719TP3     H216977   4.507   0.991   8.494  0.8407 -0.5253  0.6285
 1720TP3      O16978   0.586   2.277   8.734  0.5053  0.1792  0.6551
 1720TP3     H116979   0.633   2.356   8.708  1.9101 -0.4154  1.3775
 1720TP3     H216980   0.645   2.232   8.795 -0.2240 -1.4850  0.1626
 1721TP3      O16981   0.544   5.147   8.968 -0.3473  0.6695 -0.2481
 1721TP3     H116982   0.638   5.144   8.951 -0.2690 -1.8172  0.4588
 1721TP3     H216983   0.535   5.128   9.061 -1.6547 -1.3483 -0.7523
 1722TP3      O16984   1.293   2.215   9.342  0.0902  0.0244 -0.0677
 1722TP3     H116985   1.248   2.252   9.419  1.6107  2.3536 -0.2499
 1722TP3     H216986   1.230   2.153   9.306 -0.8211 -0.8490  2.8334
 1723TP3      O16987   1.555   1.986   9.379  0.3192  0.4376 -0.0241
 1723TP3     H116988   1.468   1.959   9.350  1.1019 -1.7131 -0.4599
 1723TP3     H216989   1.561   1.954   9.470  1.3225 -1.1322 -0.6096
 1724TP3      O16990   1.176   2.451   8.326 -0.3060 -0.1621  0.0349
 1724TP3     H116991   1.215   2.368   8.353 -0.7973 -0.4516 -0.1265
 1724TP3     H216992   1.151   2.494   8.408  1.5894  0.6557  0.2179
 1725TP3      O16993   4.658   0.878   8.270 -0.0738 -0.0398  0.0765
 1725TP3     H116994   4.686   0.954   8.220  1.2103 -0.2456  0.4518
 1725TP3     H216995   4.708   0.884   8.352  1.2945 -2.1537 -0.5686
 1726TP3      O16996   1.366   0.739   9.079  0.0861  0.8281 -0.1433
 1726TP3     H116997   1.385   0.661   9.130  1.4785  1.6742  0.6773
 1726TP3     H216998   1.284   0.719   9.034 -0.0941 -0.7135  0.8255
 1727TP3      O16999   0.651   3.072   8.970  0.6299  0.1914 -0.0273
 1727TP3     H117000   0.686   3.160   8.980 -1.2091  0.9129  0.3050
 1727TP3     H217001   0.561   3.085   8.939  0.8353 -1.6124 -1.4780
 1728TP3      O17002   0.720   4.755   8.294 -0.1025 -0.1116  1.0391
 1728TP3     H117003   0.758   4.773   8.208 -0.6612 -0.1870  0.7763
 1728TP3     H217004   0.746   4.665   8.313  2.1102  0.6903  2.0515
 1729TP3      O17005   0.701   3.640   8.172  0.6874  0.8102 -0.4094
 1729TP3     H117006   0.703   3.591   8.255 -0.7595 -1.0812 -1.4512
 1729TP3     H217007   0.614   3.681   8.172  0.6609  0.7520 -1.0147
 1730TP3      O17008   5.124   0.002   9.760  0.4915 -0.3681  0.3358
 1730TP3     H117009   5.068   0.044   9.694  0.1356 -0.2483  0.7182
 1730TP3     H217010   5.122  -0.091   9.738  1.6956 -0.1407 -0.8368
 1731TP3      O17011   5.504   2.342   9.471 -0.2412  0.4333 -0.1059
 1731TP3     H117012   5.418   2.385   9.472 -0.1996  0.4789  1.7567
 1731TP3     H217013   5.563   2.408   9.435 -0.6467  1.0321  0.3267
 1732TP3      O17014   0.223   3.952   9.627 -0.4681  0.0881  0.1563
 1732TP3     H117015   0.300   3.972   9.574 -0.7467 -0.8363 -0.6140
 1732TP3     H217016   0.149   3.965   9.567 -0.8440  0.0290  0.6089
 1733TP3      O17017   1.111   0.048   9.345 -0.0973  0.3923  0.7710
 1733TP3     H117018   1.166   0.107   9.294 -0.3798 -1.1149 -1.3299
 1733TP3     H217019   1.169   0.017   9.416  1.1488  0.3677 -0.2378
 1734TP3      O17020   0.281   2.170   9.038  0.2762 -0.2859 -0.0664
 1734TP3     H117021   0.314   2.104   8.977 -0.9137 -0.9363 -0.0292
 1734TP3     H217022   0.195   2.137   9.064 -0.4312  1.3951 -0.2189
 1735TP3      O17023   0.415   1.232   9.983 -0.0154 -0.2206 -0.0186
 1735TP3     H117024   0.380   1.238  10.071  2.1510  1.4762  0.7997
 1735TP3     H217025   0.352   1.278   9.928 -2.2275 -2.7622  0.3298
 1736TP3      O17026   4.150   1.104   8.005 -0.4154  0.0492  0.4079
 1736TP3     H117027   4.130   1.198   7.999 -0.2746  0.4087  3.9375
 1736TP3     H217028   4.238   1.101   8.043 -1.0980 -1.4538  1.9807
 1737TP3      O17029   2.297   1.903   1.628 -0.3177  0.1220 -0.3453
 1737TP3     H117030   2.375   1.849   1.638  0.3805  1.2473  0.3782
 1737TP3     H217031   2.229   1.841   1.602  1.1264 -0.6621 -2.4600
 1738TP3      O17032   2.870   0.213   9.075  0.2431  0.3715 -0.3682
 1738TP3     H117033   2.819   0.163   9.011 -1.7017  1.0394  0.6285
 1738TP3     H217034   2.820   0.207   9.156  1.0613  2.1535  0.3053
 1739TP3      O17035   4.253   2.370   7.888 -0.0479 -0.6094 -0.5055
 1739TP3     H117036   4.222   2.309   7.822  0.6310 -0.6727 -0.7705
 1739TP3     H217037   4.219   2.336   7.971 -1.9393  0.1571 -0.9516
 1740TP3      O17038   1.364   3.507   9.923 -0.4202  0.2916 -0.2744
 1740TP3     H117039   1.288   3.564   9.935  0.2363  0.8830  1.1807
 1740TP3     H217040   1.438   3.567   9.914  0.1399 -0.2940  0.3066
 1741TP3      O17041   4.929   0.200   8.179  0.1536 -0.0497  0.3193
 1741TP3     H117042   4.956   0.144   8.251 -0.9862 -1.1735 -0.1091
 1741TP3     H217043   4.913   0.140   8.106 -3.1930  0.5400  0.4921
 1742TP3      O17044   0.506   0.652   9.024  0.0276  0.1115  0.3049
 1742TP3     H117045   0.599   0.629   9.024  0.0849  0.3118 -0.2897
 1742TP3     H217046   0.469   0.600   8.952 -0.5882 -0.9793  1.3810
 1743TP3      O17047   2.048   0.913   8.579  0.2418  0.0463 -0.0515
 1743TP3     H117048   2.007   0.972   8.642  1.3633  1.9885 -1.0960
 1743TP3     H217049   2.006   0.828   8.594 -0.0537  0.6614  2.7554
 1744TP3      O17050   0.329   1.773  10.204  0.3451 -0.1247 -0.2597
 1744TP3     H117051   0.385   1.712  10.156 -0.1208 -0.2533 -0.6428
 1744TP3     H217052   0.316   1.731  10.289  2.3679  0.7939  0.5208
 1745TP3      O17053   1.051   4.715   9.884  0.4477  0.4908 -0.6276
 1745TP3     H117054   1.101   4.772   9.825  2.5664 -0.5360  0.1313
 1745TP3     H217055   1.018   4.645   9.828  5.1279 -2.2625 -0.2165
 1746TP3      O17056   2.308   3.308   9.314 -0.9852 -0.1766  0.1617
 1746TP3     H117057   2.269   3.338   9.232 -0.3756  0.4068  0.0847
 1746TP3     H217058   2.316   3.387   9.368 -0.6473 -0.4242  0.4779
 1747TP3      O17059   2.351   0.293   9.104  0.1972 -0.0865 -0.0278
 1747TP3     H117060   2.408   0.361   9.139 -1.0211  0.8297  0.2187
 1747TP3     H217061   2.374   0.287   9.011  1.1255 -0.1724  0.2059
 1748TP3      O17062   1.713   5.378   7.674 -0.4609  0.1183 -0.2485
 1748TP3     H117063   1.768   5.308   7.710  0.2188  0.9705  0.4180
 1748TP3     H217064   1.650   5.397   7.743  0.6307  1.5257  0.3892
 1749TP3      O17065   4.368   5.147   9.575  0.4541  0.0456 -0.5194
 1749TP3     H117066   4.434   5.182   9.515  1.2720 -2.1960 -0.9850
 1749TP3     H217067   4.413   5.077   9.623 -0.5134  1.0536  1.9242
 1750TP3      O17068   2.972   1.901   8.103 -0.2983  0.1878  0.1067
 1750TP3     H117069   2.986   1.813   8.068  0.6738  0.0556  0.8146
 1750TP3     H217070   2.922   1.887   8.184 -0.8602  0.3474 -0.2127
 1751TP3      O17071   3.121   0.075   9.433 -0.3433 -0.1028 -0.0737
 1751TP3     H117072   3.029   0.048   9.429 -0.3555 -0.0972  0.1579
 1751TP3     H217073   3.119   0.164   9.469 -0.5954  1.7894 -4.5197
 1752TP3      O17074   2.085   4.138   9.299  0.2657  0.4136  0.4462
 1752TP3     H117075   2.112   4.098   9.382 -0.2237 -1.4867 -0.2864
 1752TP3     H217076   1.992   4.156   9.310  0.2815  0.4949  0.4448
 1753TP3      O17077   2.577   5.435   9.415 -0.0771 -0.5986  0.1665
 1753TP3     H117078   2.578   5.458   9.322 -2.6150  2.6828  0.9040
 1753TP3     H217079   2.565   5.340   9.415 -1.2066 -0.5148 -2.8254
 1754TP3      O17080   4.906   3.095   8.710 -0.2359  0.3421  0.0519
 1754TP3     H117081   4.991   3.052   8.706  0.2839  1.3442  0.1631
 1754TP3     H217082   4.918   3.176   8.661  0.1582  2.6359  3.7882
 1755TP3      O17083   2.795   1.382   8.245  0.1292  0.4680  0.2499
 1755TP3     H117084   2.876   1.387   8.194  0.6484 -1.5831  0.8400
 1755TP3     H217085   2.823   1.389   8.336 -0.1247 -2.0562  0.5623
 1756TP3      O17086   1.366   4.047   9.516 -0.0648 -0.2392  0.0828
 1756TP3     H117087   1.397   4.136   9.533  1.1918 -0.5448 -0.5691
 1756TP3     H217088   1.290   4.059   9.459  0.0687  0.4231  0.0386
 1757TP3      O17089   1.053   0.308   8.400  0.0435  0.8085 -0.1458
 1757TP3     H117090   1.047   0.213   8.409  1.6279  0.6385 -0.7635
 1757TP3     H217091   1.064   0.322   8.306 -1.6948  1.7012 -0.2330
 1758TP3      O17092   4.724   2.352   8.543 -0.5718  0.2094 -0.0461
 1758TP3     H117093   4.816   2.378   8.536 -0.9565  1.4046 -0.8682
 1758TP3     H217094   4.719   2.306   8.627  0.6487  0.6555  0.2893
 1759TP3      O17095   2.744   1.469   9.412  0.3740 -0.6569  0.1316
 1759TP3     H117096   2.650   1.484   9.416  0.2230 -1.3387 -0.9087
 1759TP3     H217097   2.781   1.556   9.395 -0.4292 -1.1271 -4.6501
 1760TP3      O17098   1.286   4.819   8.474  0.6687  0.9399 -0.2260
 1760TP3     H117099   1.312   4.885   8.409  1.7810  2.2665  1.5319
 1760TP3     H217100   1.271   4.740   8.422  1.2130  2.0479 -2.1469
 1761TP3      O17101   3.228   1.919   7.248  0.4781  0.2493  0.2732
 1761TP3     H117102   3.279   1.872   7.314  0.1526 -3.2893 -1.8444
 1761TP3     H217103   3.293   1.950   7.186  0.3819 -1.8896 -0.9725
 1762TP3      O17104   1.751   1.228   0.012  0.0610 -0.1184 -0.3724
 1762TP3     H117105   1.740   1.302  -0.048  1.6008  0.5431  0.1391
 1762TP3     H217106   1.757   1.151  -0.046 -1.3733  0.1523 -0.9083
 1763TP3      O17107   2.889   1.918   9.098 -0.0768 -0.3304  0.2162
 1763TP3     H117108   2.934   1.938   9.180  1.1301  2.1665 -0.9967
 1763TP3     H217109   2.959   1.893   9.038 -0.6923 -0.0061 -0.6525
 1764TP3      O17110   3.890   1.653   7.600  0.2173  0.0710 -0.1969
 1764TP3     H117111   3.961   1.683   7.543 -0.0290 -2.6545 -2.0317
 1764TP3     H217112   3.811   1.670   7.549 -0.1612 -0.4390  0.2317
 1765TP3      O17113   1.221   0.049   8.039  0.2119 -0.2812 -0.0812
 1765TP3     H117114   1.253  -0.041   8.031 -0.8425 -0.5502 -1.5180
 1765TP3     H217115   1.233   0.087   7.952 -0.1091  0.7188  0.2933
 1766TP3      O17116   3.163   2.867   8.138  0.3906 -0.5249  0.0492
 1766TP3     H117117   3.208   2.941   8.097 -0.4724 -0.2654 -0.4258
 1766TP3     H217118   3.231   2.825   8.191  1.4594 -0.6874 -1.3950
 1767TP3      O17119   1.376   4.580   8.700  0.3199  0.1605 -0.1218
 1767TP3     H117120   1.297   4.629   8.721  0.2447 -0.3902  0.9232
 1767TP3     H217121   1.439   4.608   8.766  0.8640  0.2495 -0.6690
 1768TP3      O17122   3.568   5.225   0.600 -0.0799  0.1219  0.3537
 1768TP3     H117123   3.549   5.314   0.571 -0.0031  0.4552  1.3274
 1768TP3     H217124   3.527   5.218   0.686 -0.9662 -1.1123 -0.1521
 1769TP3      O17125   2.711   1.718   0.093 -0.7411 -0.0053 -0.4325
 1769TP3     H117126   2.735   1.659   0.165 -0.1802 -0.9668 -1.3936
 1769TP3     H217127   2.718   1.806   0.131 -1.9870 -0.5517  1.1413
 1770TP3      O17128   3.851   2.533   8.374 -0.9563  0.2968  0.4513
 1770TP3     H117129   3.823   2.443   8.392 -0.0032  0.0244  0.6325
 1770TP3     H217130   3.791   2.564   8.306 -0.3980 -0.9863 -0.6644
 1771TP3      O17131   3.681   0.631   9.351 -0.0880  0.2304 -0.4153
 1771TP3     H117132   3.710   0.701   9.410  1.1620 -0.4759 -0.1624
 1771TP3     H217133   3.617   0.673   9.294  0.9140  1.6896 -0.5081
 1772TP3      O17134   3.841   2.434   9.321  0.2485 -0.4745  0.7115
 1772TP3     H117135   3.869   2.511   9.370 -0.5870  0.2534  0.0641
 1772TP3     H217136   3.798   2.378   9.386 -0.3521  0.2266  0.9213
 1773TP3      O17137   2.970   2.605   9.099 -0.0785 -0.0852 -0.0019
 1773TP3     H117138   3.005   2.531   9.149 -0.6832  0.9213  1.9461
 1773TP3     H217139   2.889   2.572   9.060  1.0635 -1.2730 -1.4562
 1774TP3      O17140   3.568   4.552   7.510 -0.4800 -0.0616 -0.3969
 1774TP3     H117141   3.602   4.465   7.489  1.1564  0.7412 -1.1723
 1774TP3     H217142   3.556   4.551   7.605 -0.4100 -1.1080 -0.3977
 1775TP3      O17143   4.145   2.722  10.276  0.1944 -0.3423  0.1166
 1775TP3     H117144   4.233   2.748  10.250  0.3859 -1.8523 -0.7802
 1775TP3     H217145   4.159   2.653  10.342 -0.3085  1.3041  1.9836
 1776TP3      O17146   2.910   5.055   8.591  0.4930  0.7881 -0.6498
 1776TP3     H117147   2.919   5.145   8.560  0.3755  0.3842 -1.9105
 1776TP3     H217148   2.958   5.053   8.674  0.5809  1.9801 -0.6645
 1777TP3      O17149   0.592   1.083   8.871 -0.2194 -0.4040 -0.2717
 1777TP3     H117150   0.534   1.160   8.875 -0.5989 -0.7517  0.9177
 1777TP3     H217151   0.539   1.011   8.905  0.7531 -0.8252  0.3534
 1778TP3      O17152   0.988   0.739   0.292 -0.1161 -0.2231 -0.1043
 1778TP3     H117153   1.033   0.785   0.221 -1.5794  0.3934 -0.6606
 1778TP3     H217154   1.057   0.719   0.355  0.5485  2.8711  0.2283
 1779TP3      O17155   1.290   1.528  10.286  0.1922  0.1106  0.5646
 1779TP3     H117156   1.310   1.540  10.379  0.0483 -0.2463  0.6425
 1779TP3     H217157   1.340   1.596  10.241 -1.2831  1.5789  1.0717
 1780TP3      O17158   0.994   0.827   1.031 -0.0260 -0.0772  0.2510
 1780TP3     H117159   0.933   0.786   1.093 -0.5365  1.5614  0.8868
 1780TP3     H217160   0.938   0.857   0.960 -0.0037  1.5106  0.8756
 1781TP3      O17161   4.887   1.559   8.774 -0.6719 -0.0659 -0.4025
 1781TP3     H117162   4.884   1.628   8.840 -1.8942 -0.0369 -0.4810
 1781TP3     H217163   4.807   1.570   8.723 -1.1839 -1.9027 -0.0533
 1782TP3      O17164   4.820   0.349  10.055 -0.4462  0.0116  0.0056
 1782TP3     H117165   4.882   0.345   9.983 -0.2139 -0.4137  0.2290
 1782TP3     H217166   4.835   0.269  10.105 -0.2142  0.5774  0.8469
 1783TP3      O17167   3.685   0.837   0.281  0.3125  0.0071 -0.2162
 1783TP3     H117168   3.628   0.908   0.253  0.2609  0.3394  0.7270
 1783TP3     H217169   3.755   0.836   0.216  0.5563  1.2147  0.0146
 1784TP3      O17170   5.106   5.516   7.843 -0.2656  0.1579  0.2455
 1784TP3     H117171   5.138   5.570   7.916 -2.1564  0.7103  0.6945
 1784TP3     H217172   5.129   5.566   7.765 -1.1260  1.1604  0.6159
 1785TP3      O17173   5.379   1.609   8.728 -0.4721  0.0034 -0.1841
 1785TP3     H117174   5.392   1.660   8.808 -0.0936 -2.1777  1.1720
 1785TP3     H217175   5.284   1.613   8.713 -0.2276  2.8695 -1.3319
 1786TP3      O17176   4.505   0.264  10.048  1.1119  0.2795 -0.2429
 1786TP3     H117177   4.543   0.329  10.107  1.3981  2.0055 -2.2773
 1786TP3     H217178   4.572   0.250   9.981 -0.0912  0.0535 -1.4210
 1787TP3      O17179   0.214   0.115   9.612  0.2792 -0.0636 -0.3707
 1787TP3     H117180   0.120   0.129   9.607  0.2065 -0.2540  0.4990
 1787TP3     H217181   0.242   0.161   9.691  0.9820  0.3341 -0.8376
 1788TP3      O17182   3.203   4.970   9.137 -0.1483  0.2269 -0.2034
 1788TP3     H117183   3.150   5.004   9.065 -0.5671  0.8064  0.3635
 1788TP3     H217184   3.250   5.046   9.170 -0.7269  0.1770  0.7768
 1789TP3      O17185   4.142   0.702   9.336  0.4267  0.8444 -0.2409
 1789TP3     H117186   4.225   0.748   9.327  0.3942  0.4318 -2.9572
 1789TP3     H217187   4.077   0.762   9.300 -0.4066  0.8881  1.2516
 1790TP3      O17188   1.993   0.545   8.285 -0.1242 -0.1502 -0.2033
 1790TP3     H117189   2.068   0.605   8.276 -0.5211  0.6606  1.6208
 1790TP3     H217190   2.009   0.478   8.219  1.3376  0.9240 -0.9968
 1791TP3      O17191   3.025   1.684   8.314  0.6382 -0.1668  0.1479
 1791TP3     H117192   3.009   1.631   8.393  2.0270 -0.4430  0.2521
 1791TP3     H217193   3.087   1.632   8.262 -0.1330  0.0994 -1.0518
 1792TP3      O17194   5.116   0.544   8.150 -0.0479 -0.8060 -0.4656
 1792TP3     H117195   5.141   0.606   8.082 -1.0478 -2.2021 -2.1453
 1792TP3     H217196   5.077   0.597   8.219 -0.1929  0.4838 -1.5378
 1793TP3      O17197   0.193   1.309  10.163 -0.6129 -0.0615 -0.2581
 1793TP3     H117198   0.138   1.231  10.167 -2.3865  1.2151  0.6347
 1793TP3     H217199   0.225   1.320  10.253  3.6105 -2.4824 -1.2803
 1794TP3      O17200   3.153   0.358   9.956  0.2234  0.0557 -0.7627
 1794TP3     H117201   3.242   0.329   9.933  1.5566  2.2115  1.4297
 1794TP3     H217202   3.145   0.337  10.049 -1.0576  1.1519 -0.6158
 1795TP3      O17203   3.855   2.935   8.929 -0.2214  0.5844  0.2466
 1795TP3     H117204   3.837   2.848   8.894  1.0428  0.1243  0.7054
 1795TP3     H217205   3.836   2.927   9.023  2.5693 -0.0140  0.8089
 1796TP3      O17206   3.168   0.934   8.710  0.5023  0.0940 -0.1262
 1796TP3     H117207   3.177   0.876   8.785  0.9795  0.0343 -0.2291
 1796TP3     H217208   3.133   0.878   8.640 -1.7317  0.5639  0.5777
 1797TP3      O17209   0.787   3.606   9.765 -0.0682  0.1723 -0.3637
 1797TP3     H117210   0.802   3.550   9.841 -2.0021  0.5038  0.2829
 1797TP3     H217211   0.787   3.546   9.690  0.1951 -0.3779  0.0755
 1798TP3      O17212   5.256   1.899   0.163 -0.1566 -0.3614  0.0005
 1798TP3     H117213   5.291   1.852   0.088 -0.7122 -0.7240 -0.0371
 1798TP3     H217214   5.231   1.831   0.225 -3.1276 -0.2808 -0.9953
 1799TP3      O17215   3.714   0.128   0.121  0.8957  0.3431 -0.7231
 1799TP3     H117216   3.655   0.110   0.194 -0.7658 -0.0590 -2.1269
 1799TP3     H217217   3.731   0.222   0.127  1.8104  0.1061  0.9052
 1800TP3      O17218   4.931   1.319  10.201  0.6198  0.8526 -1.3389
 1800TP3     H117219   4.852   1.371  10.217 -0.2147 -0.8747  0.3268
 1800TP3     H217220   4.991   1.345  10.272  0.6263  0.3741 -1.1708
 1801TP3      O17221   2.468   1.630   8.186  0.2383 -0.4444  0.2110
 1801TP3     H117222   2.506   1.549   8.151 -0.2482 -0.6615  0.1696
 1801TP3     H217223   2.490   1.630   8.279  1.6742  0.2130 -0.1239
 1802TP3      O17224   1.898   1.424   7.777  0.1037 -0.0035 -0.2206
 1802TP3     H117225   1.937   1.337   7.763  0.5311  0.1148  0.2476
 1802TP3     H217226   1.804   1.409   7.768  0.2762 -0.1885 -1.9313
 1803TP3      O17227   5.247   1.757   9.751  0.1337  0.2415 -0.4319
 1803TP3     H117228   5.329   1.736   9.796  0.0616  0.3287 -0.2589
 1803TP3     H217229   5.269   1.754   9.658  0.6353  1.5257 -0.3658
 1804TP3      O17230   4.839   1.643   8.258  0.9450  0.3102  0.0427
 1804TP3     H117231   4.827   1.667   8.166  1.1256 -0.8088 -0.2834
 1804TP3     H217232   4.783   1.704   8.306  0.2306  0.3887 -0.8683
 1805TP3      O17233   3.675   1.054   8.965 -0.3886  0.2695  0.8917
 1805TP3     H117234   3.743   1.040   8.899 -0.9871  1.4613 -0.0081
 1805TP3     H217235   3.722   1.087   9.041  0.0573  1.0644  0.2861
 1806TP3      O17236   4.291   1.527   8.156 -0.1653 -0.0347  0.0643
 1806TP3     H117237   4.332   1.489   8.079 -1.0792 -0.5401 -0.1767
 1806TP3     H217238   4.199   1.538   8.132 -1.1378 -3.1152  2.1150
 1807TP3      O17239   4.288   0.584   8.647 -0.3996  0.1798 -0.5289
 1807TP3     H117240   4.285   0.612   8.556 -0.6891 -1.3921 -1.0101
 1807TP3     H217241   4.233   0.647   8.694  1.1662  2.0564 -1.1410
 1808TP3      O17242   3.794   2.259   1.052  0.1872  0.6927  0.3828
 1808TP3     H117243   3.809   2.279   0.959  2.3385  0.3768  0.6235
 1808TP3     H217244   3.718   2.312   1.076 -0.2837  0.9139 -1.5115
 1809TP3      O17245   0.087   2.679   9.976  0.3197 -0.3350  0.4577
 1809TP3     H117246   0.086   2.774   9.982  1.0843 -0.3520  1.0500
 1809TP3     H217247   0.057   2.659   9.888 -0.7095  0.4213  0.6343
 1810TP3      O17248   4.315   1.047   7.775  0.1175  0.8454  0.1269
 1810TP3     H117249   4.392   1.087   7.817  1.0370 -0.5951 -0.1686
 1810TP3     H217250   4.244   1.059   7.839  0.8814  1.0455  0.9441
 1811TP3      O17251   2.784   1.109   8.141 -0.4826 -0.8635 -0.7527
 1811TP3     H117252   2.737   1.054   8.204 -0.8026 -1.5222 -1.5507
 1811TP3     H217253   2.781   1.197   8.178 -1.6760 -1.0397 -0.4221
 1812TP3      O17254   1.062   1.828   9.305 -0.0372 -0.4978 -0.0384
 1812TP3     H117255   1.094   1.793   9.222  0.4243 -1.4861  0.5376
 1812TP3     H217256   0.979   1.782   9.319 -0.5480  0.3165 -0.3776
 1813TP3      O17257   0.090   5.396   9.893 -0.5281 -0.3117  0.0462
 1813TP3     H117258   0.082   5.492   9.900 -1.4073 -0.2977 -0.9244
 1813TP3     H217259   0.008   5.363   9.929  0.1362 -0.7395  1.1543
 1814TP3      O17260   3.945   0.313  10.127  0.0947  0.3531  0.3248
 1814TP3     H117261   3.999   0.320  10.206  1.2062 -1.5486 -0.2086
 1814TP3     H217262   3.855   0.326  10.157  0.4328 -1.0606  2.0479
 1815TP3      O17263   4.311   1.088   0.148  0.0399 -0.4240 -0.5102
 1815TP3     H117264   4.301   1.147   0.223 -0.4104 -1.1452  0.0072
 1815TP3     H217265   4.390   1.038   0.168 -0.1370 -0.6865 -0.4701
 1816TP3      O17266   0.728   1.055   8.620  0.1218 -0.2141 -0.3272
 1816TP3     H117267   0.672   1.004   8.561 -0.2005 -1.2141  0.8091
 1816TP3     H217268   0.684   1.049   8.705 -0.4478  2.7821 -0.3342
 1817TP3      O17269   2.604   1.984   8.811 -0.4883  0.4054 -0.8091
 1817TP3     H117270   2.647   1.929   8.746  1.3410 -0.1759  0.8606
 1817TP3     H217271   2.557   1.923   8.867 -0.4438  0.7548 -0.3939
 1818TP3      O17272   1.062   1.230   8.263 -0.1031 -0.3528  0.1100
 1818TP3     H117273   0.990   1.265   8.211 -0.2204 -2.1781 -0.9950
 1818TP3     H217274   1.099   1.160   8.209  3.1806  1.2303  0.1796
 1819TP3      O17275   2.503   4.864   8.988 -0.4228  0.0820  0.3668
 1819TP3     H117276   2.441   4.929   8.955  0.0203  1.0015  1.3359
 1819TP3     H217277   2.471   4.842   9.075 -0.6341 -1.1050  0.0109
 1820TP3      O17278   5.031   5.241   1.326  0.5052 -0.0289 -0.0150
 1820TP3     H117279   5.118   5.264   1.359  0.4468 -0.1278  0.2083
 1820TP3     H217280   5.039   5.150   1.298  0.1054 -0.4958  1.3139
 1821TP3      O17281   5.225   1.486   9.041 -0.2593  0.0435  0.0692
 1821TP3     H117282   5.139   1.446   9.054 -1.0120  1.7031  0.3152
 1821TP3     H217283   5.258   1.500   9.130 -0.4954  1.0142  0.0039
 1822TP3      O17284   3.984   1.178   9.709 -0.1601  0.1874 -0.7713
 1822TP3     H117285   3.979   1.194   9.803 -1.5045 -0.0901 -0.7812
 1822TP3     H217286   3.923   1.240   9.670  0.2249  0.1525 -1.4455
 1823TP3      O17287   3.515   2.740   7.586 -0.0145 -0.1252  0.2157
 1823TP3     H117288   3.456   2.734   7.511 -0.7673  0.5604  0.7422
 1823TP3     H217289   3.538   2.650   7.606  1.8512 -0.2234 -2.1212
 1824TP3      O17290   2.849   5.469   0.706 -0.4281  0.3312 -0.0722
 1824TP3     H117291   2.898   5.543   0.670 -1.9846  1.3090 -0.2382
 1824TP3     H217292   2.817   5.501   0.790  2.3444 -1.5939  1.8257
 1825TP3      O17293   1.452   2.750   7.835  0.0299 -0.1708  0.2055
 1825TP3     H117294   1.485   2.795   7.913  0.5677  1.7180 -1.0847
 1825TP3     H217295   1.520   2.763   7.769 -0.3988 -1.7877 -0.5788
 1826TP3      O17296   3.890   2.705   8.570 -0.3858  0.1172  0.4725
 1826TP3     H117297   3.968   2.666   8.611  0.7969  1.2383 -0.6385
 1826TP3     H217298   3.870   2.648   8.496 -0.0965  0.2826  0.2630
 1827TP3      O17299   3.361   1.334   7.625  0.1888 -0.1423 -0.4178
 1827TP3     H117300   3.289   1.274   7.603  0.1431  0.4235 -1.8967
 1827TP3     H217301   3.356   1.344   7.720 -1.9755  0.2561 -0.5571
 1828TP3      O17302   1.123   3.793   9.714 -0.4824  0.0607  0.5714
 1828TP3     H117303   1.190   3.782   9.645 -1.9103 -1.0767 -0.6758
 1828TP3     H217304   1.136   3.882   9.746  1.0295  0.1770 -0.2938
 1829TP3      O17305   2.818   4.162   8.848  0.4256 -0.2903  0.0780
 1829TP3     H117306   2.754   4.096   8.874 -0.6584  0.3423 -0.8759
 1829TP3     H217307   2.849   4.200   8.930  0.1254 -1.1333  0.5806
 1830TP3      O17308   1.306   2.085   7.827 -0.5576 -0.2577  0.3306
 1830TP3     H117309   1.248   2.065   7.754 -1.0779  1.2095  0.3125
 1830TP3     H217310   1.246   2.110   7.898  0.0249  1.7767  0.1528
 1831TP3      O17311   4.774   2.555  10.279 -0.0416  0.2484 -0.3033
 1831TP3     H117312   4.789   2.624  10.344  0.8123 -0.3536  0.1491
 1831TP3     H217313   4.858   2.511  10.271 -0.2794 -0.0135 -1.4514
 1832TP3      O17314   1.292   2.763   0.429 -0.0304  0.5306 -0.1501
 1832TP3     H117315   1.211   2.719   0.404  1.2412 -2.1696  0.2468
 1832TP3     H217316   1.298   2.750   0.524  1.0534  0.3384 -0.2348
 1833TP3      O17317   0.699   0.463   0.494 -0.1861 -0.2998 -0.1818
 1833TP3     H117318   0.694   0.431   0.404 -0.9607  2.3528 -1.1137
 1833TP3     H217319   0.622   0.519   0.504  1.0115  1.1278  1.4422
 1834TP3      O17320   0.513   2.049   0.037 -0.0737 -0.0449  0.2551
 1834TP3     H117321   0.478   1.991   0.104  1.7691  1.7903  2.9125
 1834TP3     H217322   0.585   2.000  -0.002 -0.3010 -0.6145  0.5518
 1835TP3      O17323   0.606   3.044   9.225 -0.9169 -0.1559 -0.4360
 1835TP3     H117324   0.618   3.045   9.130  0.0135  3.3105 -0.3443
 1835TP3     H217325   0.673   2.985   9.258  0.8965  1.1532 -1.7170
 1836TP3      O17326   0.825   4.443   7.825  0.5617  0.1571 -0.5928
 1836TP3     H117327   0.895   4.377   7.818  0.6708  0.2031  0.0271
 1836TP3     H217328   0.861   4.520   7.783  0.5443 -0.0934 -1.0700
 1837TP3      O17329   1.141   2.000   9.744  0.0187  0.1987  0.2851
 1837TP3     H117330   1.236   2.016   9.749  0.2911 -1.3642  0.3663
 1837TP3     H217331   1.134   1.911   9.711 -1.3732 -0.5921  2.5770
 1838TP3      O17332   1.748   2.198   9.851 -0.8693  0.1232  0.1936
 1838TP3     H117333   1.700   2.276   9.879 -1.1000  0.5847 -1.4116
 1838TP3     H217334   1.833   2.232   9.822 -1.2164 -0.1212 -1.1386
 1839TP3      O17335   0.134   3.382   9.787  0.4956 -0.1847  0.0199
 1839TP3     H117336   0.069   3.451   9.774  0.4628 -0.4331 -1.2471
 1839TP3     H217337   0.173   3.401   9.872 -1.3742 -0.1452  0.9040
 1840TP3      O17338   5.503   4.010   8.520 -0.6637 -0.3195  0.2874
 1840TP3     H117339   5.437   3.941   8.514  1.0146 -1.8686 -0.9693
 1840TP3     H217340   5.584   3.964   8.542  0.6986  1.0850 -1.5997
 1841TP3      O17341   1.955   0.244   9.505 -0.1168  0.1200 -0.1747
 1841TP3     H117342   2.045   0.240   9.473 -0.1244 -1.4848 -0.0709
 1841TP3     H217343   1.937   0.155   9.535 -1.2649  0.7612  1.1172
 1842TP3      O17344   1.905   4.707   9.788 -0.0262  0.3198  0.2669
 1842TP3     H117345   1.989   4.672   9.759  0.3566  1.1733  0.3324
 1842TP3     H217346   1.894   4.675   9.877  0.9148  1.3962  0.7784
 1843TP3      O17347   5.516   4.127   0.275  0.6843 -0.0107 -0.4588
 1843TP3     H117348   5.551   4.200   0.223  1.8189  0.7303  1.2820
 1843TP3     H217349   5.447   4.167   0.328  0.5993 -0.4348 -0.2524
 1844TP3      O17350   2.412   0.095   9.840  1.1511 -0.7347 -0.6586
 1844TP3     H117351   2.462   0.014   9.825  1.6559  0.0618 -3.7784
 1844TP3     H217352   2.466   0.164   9.800  0.1683  0.9761  0.8821
 1845TP3      O17353   2.848   3.490   8.918  0.1231 -0.3616 -0.0522
 1845TP3     H117354   2.805   3.514   9.000  0.2314 -0.7773  0.1243
 1845TP3     H217355   2.875   3.574   8.880 -1.5855 -0.0349 -0.5836
 1846TP3      O17356   0.515   4.209   0.167  0.1985 -0.1789 -0.3223
 1846TP3     H117357   0.600   4.217   0.210  0.0394  0.8088 -0.1845
 1846TP3     H217358   0.528   4.246   0.080  0.1815 -1.0016 -0.6814
 1847TP3      O17359   5.122   1.198   9.901 -0.5363  0.6371  0.4932
 1847TP3     H117360   5.127   1.103   9.904 -2.6213  0.4814 -0.3504
 1847TP3     H217361   5.051   1.221   9.960 -0.6727  1.6116 -0.0366
 1848TP3      O17362   4.471   2.556   8.751 -0.0562  0.5292  0.3736
 1848TP3     H117363   4.432   2.469   8.764 -0.4901  1.1380  3.4485
 1848TP3     H217364   4.423   2.593   8.677 -1.6301 -0.8381  0.6767
 1849TP3      O17365   0.637   2.400   7.529  0.3008  0.6446  0.2939
 1849TP3     H117366   0.565   2.460   7.508 -0.0539 -0.4325 -1.7883
 1849TP3     H217367   0.716   2.447   7.504  0.0935  0.6714 -0.3288
 1850TP3      O17368   4.271   2.117   9.775 -0.1041 -0.2690 -0.4952
 1850TP3     H117369   4.349   2.173   9.779 -0.1806 -0.2069  0.1535
 1850TP3     H217370   4.208   2.160   9.833 -0.1700 -1.0134 -0.0088
 1851TP3      O17371   3.282   0.883   0.231 -0.0898 -0.7561 -0.0947
 1851TP3     H117372   3.305   0.829   0.306 -0.2066 -2.1957 -1.0667
 1851TP3     H217373   3.336   0.962   0.240 -0.6149 -0.6097  1.8487
 1852TP3      O17374   3.262   2.485   8.958  0.1582 -0.0501  0.3561
 1852TP3     H117375   3.289   2.542   9.030  0.1677  0.3149  0.0625
 1852TP3     H217376   3.221   2.543   8.895  0.0240 -0.3922  0.1266
 1853TP3      O17377   3.361   3.093   0.148  1.1130 -0.6139 -0.1602
 1853TP3     H117378   3.334   3.001   0.151 -1.4363  0.0777 -1.2608
 1853TP3     H217379   3.326   3.126   0.065  0.2532  1.8687  1.1438
 1854TP3      O17380   1.904   1.520   8.834 -0.5340  0.0308 -0.3784
 1854TP3     H117381   1.914   1.436   8.877 -2.4427  0.0851  0.2288
 1854TP3     H217382   1.944   1.583   8.894 -0.8476 -0.2161  0.0940
 1855TP3      O17383   1.168   0.293   8.648  0.1546  0.4056 -0.1132
 1855TP3     H117384   1.136   0.296   8.558  0.4150  0.6993 -0.1942
 1855TP3     H217385   1.262   0.306   8.640  0.3525 -0.8515  0.0937
 1856TP3      O17386   3.487   0.744   9.919  0.5303 -0.0057 -0.2494
 1856TP3     H117387   3.426   0.759   9.847  0.1690 -1.3176 -0.2344
 1856TP3     H217388   3.440   0.776   9.997  0.3719  0.1554 -0.4108
 1857TP3      O17389   0.805   3.744   0.708 -0.2657 -0.6019  0.3797
 1857TP3     H117390   0.843   3.657   0.702  0.2073 -0.5200  2.0509
 1857TP3     H217391   0.716   3.734   0.673  0.0516 -1.5617 -0.1833
 1858TP3      O17392   0.289   4.640   8.772  0.5334 -0.4903 -0.0916
 1858TP3     H117393   0.209   4.684   8.799  0.6982  0.2928 -0.8953
 1858TP3     H217394   0.350   4.655   8.844  0.4548  0.2332 -0.1747
 1859TP3      O17395   1.152   1.757   9.580 -0.5486  0.4581 -0.5777
 1859TP3     H117396   1.148   1.769   9.485  1.8141 -0.4927 -0.8309
 1859TP3     H217397   1.094   1.684   9.598  0.6368 -0.7536 -1.5828
 1860TP3      O17398   2.317   4.103   9.177  0.2745 -0.1077  0.4798
 1860TP3     H117399   2.367   4.104   9.259  0.0521 -1.5928  0.6509
 1860TP3     H217400   2.226   4.108   9.204  0.1197 -2.3031  0.4274
 1861TP3      O17401   1.186   3.948   8.876  0.0854  0.2448  0.6660
 1861TP3     H117402   1.125   4.000   8.823  0.6486 -1.6741 -1.9809
 1861TP3     H217403   1.150   3.952   8.965 -0.8953  3.5515  0.1640
 1862TP3      O17404   1.953   1.969  10.200 -0.2009  0.1536  0.4525
 1862TP3     H117405   1.971   2.052  10.155  2.5915 -0.2966  0.6146
 1862TP3     H217406   1.930   1.995  10.289 -1.0153  0.8348  0.0497
 1863TP3      O17407   0.717   2.534   8.665  0.1258 -0.5140  0.1843
 1863TP3     H117408   0.791   2.579   8.705 -0.5727  0.2143  0.6764
 1863TP3     H217409   0.704   2.578   8.582  1.2426 -1.6837 -0.6323
 1864TP3      O17410   4.401   4.336   0.128  0.2139  0.2798  0.1146
 1864TP3     H117411   4.360   4.298   0.050 -0.2880 -0.1793  0.5903
 1864TP3     H217412   4.328   4.346   0.190  0.5950  0.7123  0.4945
 1865TP3      O17413   1.019   3.019  10.293  0.1941 -0.4350 -0.5453
 1865TP3     H117414   0.967   2.954  10.342 -0.2693 -1.2966 -2.1427
 1865TP3     H217415   1.108   3.008  10.326 -0.0370 -1.3174 -0.2043
 1866TP3      O17416   0.764   1.307   0.336  0.4714 -0.1995  0.5181
 1866TP3     H117417   0.676   1.334   0.359  0.4629 -0.1808  0.4651
 1866TP3     H217418   0.813   1.311   0.418  0.5976  0.4796  0.4159
 1867TP3      O17419   1.665   2.345   2.271  0.1094  0.1154  0.4452
 1867TP3     H117420   1.655   2.320   2.179 -1.6490 -0.3492  0.7532
 1867TP3     H217421   1.650   2.264   2.320  2.4244  0.0317  1.1184
 1868TP3      O17422   0.135   3.177   8.466  0.2934  0.0073 -0.4490
 1868TP3     H117423   0.132   3.245   8.533  3.2578 -0.4476  0.1977
 1868TP3     H217424   0.054   3.127   8.480 -0.8841  2.1004  0.4156
 1869TP3      O17425   2.088   1.290   9.887  0.0234 -0.0979  0.1982
 1869TP3     H117426   2.102   1.343   9.965  1.8634 -0.6755  0.2778
 1869TP3     H217427   2.155   1.320   9.825 -1.8451  0.8397 -1.4335
 1870TP3      O17428   1.397   1.006   9.080  0.0152  0.0847  0.1221
 1870TP3     H117429   1.339   1.031   9.152  0.2409 -0.7519  0.5926
 1870TP3     H217430   1.379   0.914   9.065  0.3761  0.1144 -0.5242
 1871TP3      O17431   3.994   2.170   7.461  0.3530  0.0940  0.8981
 1871TP3     H117432   3.957   2.207   7.380  0.1967  0.4185  1.1160
 1871TP3     H217433   3.951   2.085   7.470  0.5563 -0.0523  0.5066
 1872TP3      O17434   5.345   3.061  10.086  0.5193  0.4614 -0.0154
 1872TP3     H117435   5.420   3.101  10.041  0.3223  0.8582  0.0020
 1872TP3     H217436   5.363   2.967  10.084  0.0526  0.3905 -1.7906
 1873TP3      O17437   3.148   3.430   9.170 -0.1873 -0.6116 -0.0436
 1873TP3     H117438   3.242   3.429   9.152  0.0152 -1.1868  0.9657
 1873TP3     H217439   3.111   3.487   9.103  0.9857  0.2452  0.0103
 1874TP3      O17440   5.229   3.687   8.770 -0.9080 -0.1047 -0.1421
 1874TP3     H117441   5.318   3.721   8.783  0.2675 -2.6744 -1.0387
 1874TP3     H217442   5.203   3.719   8.684 -0.4497 -0.1611 -0.3024
 1875TP3      O17443   2.079   0.238   9.084  0.6623  0.9405 -0.3924
 1875TP3     H117444   2.173   0.230   9.097  0.9695  1.2482 -2.2876
 1875TP3     H217445   2.062   0.333   9.085  0.4916  0.9171 -0.7480
 1876TP3      O17446   1.782   3.685   7.853  0.0531  0.1744  0.0359
 1876TP3     H117447   1.850   3.745   7.882 -1.0814  2.8460 -2.5657
 1876TP3     H217448   1.788   3.686   7.757 -1.3479 -2.2933 -0.1151
 1877TP3      O17449   2.309   2.543   7.951  0.2983 -0.4894 -0.8929
 1877TP3     H117450   2.355   2.473   7.906  1.8417 -0.2341  0.2484
 1877TP3     H217451   2.252   2.582   7.885  1.8911 -0.6582 -2.3729
 1878TP3      O17452   3.407   1.802   8.632  0.5915 -0.2494 -0.2818
 1878TP3     H117453   3.423   1.896   8.646 -0.4470 -0.2236  0.8130
 1878TP3     H217454   3.374   1.797   8.543  0.8725  0.3961 -0.4288
 1879TP3      O17455   4.256   3.740   0.132 -0.0387 -0.2481  0.6299
 1879TP3     H117456   4.328   3.800   0.113  1.5241 -2.3213 -0.0883
 1879TP3     H217457   4.252   3.683   0.055 -2.4939 -0.1321  0.6308
 1880TP3      O17458   4.076   2.337   9.212 -0.1507 -0.0436  0.4346
 1880TP3     H117459   3.985   2.356   9.236 -0.0286 -0.2756  1.0662
 1880TP3     H217460   4.124   2.416   9.238 -0.3008  0.4467 -0.7038
 1881TP3      O17461   2.768   1.796   8.292  0.1518 -0.0407 -0.1595
 1881TP3     H117462   2.687   1.745   8.299 -0.0201  0.2481  0.0060
 1881TP3     H217463   2.837   1.738   8.323  0.1570 -0.6521 -1.2767
 1882TP3      O17464   1.978   3.369   8.513 -0.0787  0.1052  0.5819
 1882TP3     H117465   1.956   3.337   8.426 -1.0833  1.0766  0.4638
 1882TP3     H217466   2.061   3.326   8.535  1.4190  1.6383 -1.8406
 1883TP3      O17467   1.772   2.610   0.683 -0.0010 -0.3114  1.0095
 1883TP3     H117468   1.798   2.637   0.595  0.2468  0.8046  1.4098
 1883TP3     H217469   1.701   2.547   0.669 -0.8674  0.8572  0.0512
 1884TP3      O17470   3.231   1.116   0.403 -0.2027 -0.1816 -0.3996
 1884TP3     H117471   3.146   1.085   0.370  0.5140 -1.1789 -1.3335
 1884TP3     H217472   3.218   1.125   0.497 -1.3030 -0.4696 -0.5120
 1885TP3      O17473   3.053   3.220   8.605  0.5685  0.2585 -0.2856
 1885TP3     H117474   3.082   3.305   8.637 -1.3042  1.3969 -1.5210
 1885TP3     H217475   3.074   3.159   8.676 -1.1311  2.2871  2.0124
 1886TP3      O17476   2.625   2.267   9.135  0.0070  0.5621 -0.4752
 1886TP3     H117477   2.697   2.226   9.183  0.6062 -0.1138 -1.9525
 1886TP3     H217478   2.627   2.228   9.048 -1.8420  0.9012 -0.6966
 1887TP3      O17479   3.469   4.456   8.519 -0.4524  0.0042  0.1380
 1887TP3     H117480   3.376   4.466   8.501 -0.0850  2.0354 -0.8375
 1887TP3     H217481   3.490   4.367   8.492 -1.9394 -0.1775 -0.4137
 1888TP3      O17482   1.926   3.430   7.777 -0.9629 -0.0964  0.1422
 1888TP3     H117483   1.911   3.508   7.723  0.1207  1.1236  1.5345
 1888TP3     H217484   1.838   3.395   7.793 -1.3577  0.0639 -1.6059
 1889TP3      O17485   3.769   0.457   9.711 -0.4852  0.1564  0.1061
 1889TP3     H117486   3.828   0.497   9.647 -0.2769 -2.3588 -1.3515
 1889TP3     H217487   3.821   0.388   9.751 -0.9830  0.9895  2.2315
 1890TP3      O17488   1.894   5.213   8.780 -0.1440  0.5056  0.4793
 1890TP3     H117489   1.928   5.125   8.763 -1.3177  0.2352 -0.5113
 1890TP3     H217490   1.968   5.271   8.763  0.6898 -0.2932  1.3194
 1891TP3      O17491   3.078   2.380   9.268  0.4256 -0.5903  0.2036
 1891TP3     H117492   3.043   2.295   9.240 -3.4887  1.3617 -1.2468
 1891TP3     H217493   3.048   2.390   9.358 -0.7831  0.0137 -0.2438
 1892TP3      O17494   1.201   5.002   9.502 -0.3755 -0.2940  0.2581
 1892TP3     H117495   1.286   5.028   9.466  1.0295 -1.3330  2.6746
 1892TP3     H217496   1.139   5.064   9.464  1.6684  1.3820 -0.4477
 1893TP3      O17497   2.528   0.157   0.411  0.0785 -0.1171 -0.0896
 1893TP3     H117498   2.505   0.065   0.418 -1.4590  0.2725  0.1933
 1893TP3     H217499   2.563   0.166   0.322 -2.0635 -0.5140 -1.0173
 1894TP3      O17500   4.145   1.719   8.771 -0.1869 -0.1274 -0.0601
 1894TP3     H117501   4.081   1.791   8.776  0.5308  0.5593 -0.5938
 1894TP3     H217502   4.092   1.640   8.776 -1.1370  0.4247 -1.0612
 1895TP3      O17503   0.870   2.070   9.437 -0.0218  0.0185 -0.7574
 1895TP3     H117504   0.787   2.038   9.474  0.6807 -0.7658  0.1831
 1895TP3     H217505   0.919   1.990   9.417  0.5556  0.4816 -1.1952
 1896TP3      O17506   3.707   2.184   1.861 -0.3232  0.2747  0.3264
 1896TP3     H117507   3.679   2.095   1.882 -0.6023  0.7891  2.2119
 1896TP3     H217508   3.789   2.196   1.909  0.8348  0.3323 -1.5976
 1897TP3      O17509   5.008   3.209   9.529 -0.0045  0.3976  0.4938
 1897TP3     H117510   5.071   3.207   9.457  0.9802  1.7478  1.3006
 1897TP3     H217511   4.923   3.197   9.487  0.6820 -0.1533 -0.7468
 1898TP3      O17512   2.497   1.224  10.040  0.2908 -0.0366 -0.0526
 1898TP3     H117513   2.510   1.213   9.946  1.3458  1.6918 -0.1329
 1898TP3     H217514   2.412   1.268  10.047 -0.3974 -1.3344 -0.1150
 1899TP3      O17515   1.585   2.507   9.270 -0.4971  0.0886 -0.0042
 1899TP3     H117516   1.557   2.426   9.229 -1.1869  0.5117 -0.3648
 1899TP3     H217517   1.505   2.548   9.302 -0.1794  0.7557 -0.0467
 1900TP3      O17518   3.406   1.898   0.615  0.3098 -0.3692  0.1043
 1900TP3     H117519   3.488   1.887   0.663  0.1245 -0.7370  0.3445
 1900TP3     H217520   3.411   1.833   0.545  0.7603  0.4487 -0.6297
 1901TP3      O17521   2.770   3.297   8.449 -0.0716 -0.2081  0.1735
 1901TP3     H117522   2.818   3.231   8.399  0.5540  1.0567 -0.9264
 1901TP3     H217523   2.798   3.284   8.539  1.0044 -0.6193 -0.2131
 1902TP3      O17524   3.559   1.638   7.773  0.7871 -0.1558  0.3717
 1902TP3     H117525   3.505   1.684   7.837  0.9048  1.3577 -0.6204
 1902TP3     H217526   3.549   1.545   7.796 -1.9303  0.1278  0.3934
 1903TP3      O17527   4.238   1.214   8.976 -0.0013 -0.0053 -0.0560
 1903TP3     H117528   4.310   1.271   9.006 -1.2592  1.6747 -0.1377
 1903TP3     H217529   4.272   1.173   8.897  1.0889  0.3015  0.2312
 1904TP3      O17530   1.396   1.737   7.986 -0.5405  0.0663  0.0303
 1904TP3     H117531   1.351   1.654   7.969  0.2154 -0.0332 -1.5763
 1904TP3     H217532   1.351   1.773   8.062 -2.3056 -0.7808 -0.5771
 1905TP3      O17533   5.455   4.557   7.417  0.0860  0.0045 -0.0830
 1905TP3     H117534   5.543   4.534   7.447  0.0558 -1.6760 -1.1968
 1905TP3     H217535   5.464   4.644   7.378  1.3792 -0.3954 -0.6997
 1906TP3      O17536   4.730   2.962  10.136  0.0229  0.2599  0.5412
 1906TP3     H117537   4.696   2.884  10.181  0.5540  0.5162  1.3819
 1906TP3     H217538   4.661   3.027  10.147 -0.2037  0.0704  0.2651
 1907TP3      O17539   2.403   0.116   9.503  0.1890  0.5216 -0.1891
 1907TP3     H117540   2.436   0.045   9.449  0.4067  1.5512 -1.4472
 1907TP3     H217541   2.318   0.138   9.464  0.0045  0.7690  0.3468
 1908TP3      O17542   4.621   3.475   9.023  0.3954 -0.5115 -0.5799
 1908TP3     H117543   4.707   3.433   9.028  1.3645  1.2345 -1.8456
 1908TP3     H217544   4.569   3.416   8.967  0.7523 -1.5810  0.1979
 1909TP3      O17545   3.069   2.223  10.287  0.4094  0.4874  0.5575
 1909TP3     H117546   2.975   2.204  10.285  0.7920 -1.4963 -0.4850
 1909TP3     H217547   3.082   2.272  10.368 -1.6635  1.6327  0.2334
 1910TP3      O17548   0.842   3.909   9.814 -0.7875  0.1338  0.1765
 1910TP3     H117549   0.801   3.902   9.901 -0.4268 -0.9670  0.2739
 1910TP3     H217550   0.849   3.818   9.784  0.2116  0.4182 -0.4727
 1911TP3      O17551   3.141   0.717   8.556  0.1458 -0.8125 -0.0260
 1911TP3     H117552   3.210   0.651   8.550  2.7540  1.6153  2.1662
 1911TP3     H217553   3.163   0.782   8.490 -0.1611 -0.1308  0.5277
 1912TP3      O17554   4.562   1.413   9.530 -0.2505 -0.2094 -0.0812
 1912TP3     H117555   4.634   1.421   9.592 -0.5211 -0.8445  0.3218
 1912TP3     H217556   4.539   1.320   9.531 -0.1308 -0.2664 -1.2799
 1913TP3      O17557   4.780   3.291   0.507  0.1491 -0.4791  0.2376
 1913TP3     H117558   4.782   3.206   0.464  1.5998 -0.9132  1.1567
 1913TP3     H217559   4.749   3.272   0.596  0.9838 -0.1190  0.6045
 1914TP3      O17560   2.444   4.546  10.198 -0.1543  0.9968  1.0514
 1914TP3     H117561   2.392   4.581  10.270 -3.6315 -0.6994 -0.5298
 1914TP3     H217562   2.444   4.615  10.132 -2.2197  0.2566  0.2309
 1915TP3      O17563   0.126   4.655   1.493  0.2010 -0.6653  0.1214
 1915TP3     H117564   0.219   4.644   1.472  0.7108  3.4640 -0.3314
 1915TP3     H217565   0.083   4.656   1.407  0.2418  0.7096  0.0930
 1916TP3      O17566   1.077   2.793   7.505  0.5402 -0.5224  0.1482
 1916TP3     H117567   1.010   2.836   7.558  0.9824  0.7304 -0.2936
 1916TP3     H217568   1.094   2.710   7.550  0.5670  0.3145  1.7050
 1917TP3      O17569   1.639   1.507   8.851 -0.2028  0.6752  0.4608
 1917TP3     H117570   1.595   1.495   8.767  0.0648 -1.1236  0.5577
 1917TP3     H217571   1.730   1.523   8.829  0.3546 -2.2157  0.4337
 1918TP3      O17572   4.628   4.996   8.122  0.6938 -0.4267 -0.2885
 1918TP3     H117573   4.680   5.076   8.127 -0.6883  0.4944 -0.3770
 1918TP3     H217574   4.613   4.973   8.214 -0.8304  0.7094 -0.2309
 1919TP3      O17575   4.763   4.097   9.636 -0.0893 -0.3228 -0.3603
 1919TP3     H117576   4.769   4.165   9.703  0.4725 -0.1649 -0.5683
 1919TP3     H217577   4.854   4.070   9.621 -0.2566 -0.7001 -0.7068
 1920TP3      O17578   0.872   1.322   8.060  0.4767  0.4484 -0.3702
 1920TP3     H117579   0.907   1.265   7.992  2.2703  0.9059  0.1566
 1920TP3     H217580   0.783   1.344   8.029  1.5518  1.3572 -3.0065
 1921TP3      O17581   1.976   3.844   8.246 -0.0735 -0.3925 -0.0474
 1921TP3     H117582   2.001   3.763   8.201  2.1778  0.1919  0.1444
 1921TP3     H217583   2.022   3.840   8.329 -0.5329  0.7580  0.2630
 1922TP3      O17584   0.032   4.501   0.851 -0.8584 -0.0007  0.1033
 1922TP3     H117585  -0.056   4.469   0.870 -0.7526 -0.5040 -0.2418
 1922TP3     H217586   0.072   4.432   0.799 -1.4257  1.6884 -2.7222
 1923TP3      O17587   3.235   3.169  10.233 -0.3274 -0.0613 -0.5570
 1923TP3     H117588   3.152   3.137  10.268 -0.0799 -1.0809 -0.8738
 1923TP3     H217589   3.259   3.105  10.165  0.8493  0.0656 -0.2761
 1924TP3      O17590   0.100   1.425   8.419  0.2473 -0.1343 -0.1650
 1924TP3     H117591   0.126   1.502   8.469 -1.4641  2.1328 -2.6417
 1924TP3     H217592   0.068   1.460   8.336  0.3721 -3.5928 -1.7604
 1925TP3      O17593   4.277   3.385  10.058 -0.1080  0.4827 -0.8928
 1925TP3     H117594   4.251   3.404   9.968 -3.3537  0.3177 -0.0701
 1925TP3     H217595   4.295   3.291  10.058  1.3321  0.7527 -1.6810
 1926TP3      O17596   5.128   1.999   9.794  0.2797  0.4056  0.1476
 1926TP3     H117597   5.193   2.061   9.827 -0.0989  0.2791  1.1557
 1926TP3     H217598   5.179   1.926   9.760  0.6963  0.7581  0.0119
 1927TP3      O17599   5.055   4.113   8.829  0.3192 -0.1616  0.0230
 1927TP3     H117600   5.025   4.133   8.740 -0.2886 -1.3859 -0.0525
 1927TP3     H217601   5.148   4.090   8.817  0.1847 -0.5393 -0.3332
 1928TP3      O17602   4.899   4.182   8.566 -0.6098  0.0051 -0.0791
 1928TP3     H117603   4.934   4.160   8.480 -1.8511 -0.2139 -0.5400
 1928TP3     H217604   4.883   4.277   8.562  0.6511  0.2480  0.4043
 1929TP3      O17605   5.113   2.405   9.270  0.2029 -0.1943 -0.5261
 1929TP3     H117606   5.066   2.487   9.288  0.5910 -0.1775  0.4275
 1929TP3     H217607   5.068   2.368   9.195 -1.1402 -0.0218  0.1895
 1930TP3      O17608   0.099   2.885   7.164  0.1455  0.1448  0.0798
 1930TP3     H117609   0.176   2.828   7.158 -1.1173 -1.6338  0.2738
 1930TP3     H217610   0.040   2.839   7.225 -0.3575  2.3121  1.2563
 1931TP3      O17611   0.809   3.332   7.684 -0.5397  0.4491  0.2343
 1931TP3     H117612   0.863   3.352   7.760  0.6248 -0.9205 -0.2146
 1931TP3     H217613   0.724   3.309   7.720  0.5724 -2.2131  1.3141
 1932TP3      O17614   0.322   2.718   9.263  0.2069  0.2827 -0.0793
 1932TP3     H117615   0.321   2.778   9.338 -1.4286 -0.2195  0.3154
 1932TP3     H217616   0.314   2.631   9.302  0.3597 -0.0475 -0.7804
 1933TP3      O17617   4.060   2.772   9.844  0.3761 -0.1365  0.3116
 1933TP3     H117618   4.124   2.839   9.868  1.7676 -1.8689  1.4801
 1933TP3     H217619   4.018   2.748   9.927  2.2124 -3.0632  0.4678
 1934TP3      O17620   5.135   4.125  10.113 -0.1202 -0.1570 -0.3150
 1934TP3     H117621   5.075   4.095  10.045 -0.2069 -1.0077  0.1362
 1934TP3     H217622   5.097   4.094  10.195 -0.6709  1.9279  0.2506
 1935TP3      O17623   0.373   1.908   0.234  0.4331  0.0951  0.0294
 1935TP3     H117624   0.277   1.914   0.235  0.4310 -0.0766  1.3775
 1935TP3     H217625   0.401   1.955   0.312  1.4164 -0.5779  0.0893
 1936TP3      O17626   4.692   1.725   9.189 -0.0023  0.0611  0.1954
 1936TP3     H117627   4.644   1.710   9.270 -2.0346  0.7131 -0.8593
 1936TP3     H217628   4.729   1.813   9.199  0.4703 -0.1977  0.7567
 1937TP3      O17629   5.302   3.860   8.050  0.1000  0.4107  0.4556
 1937TP3     H117630   5.251   3.780   8.036  0.7225  0.0187  0.4321
 1937TP3     H217631   5.285   3.913   7.972  1.5753 -0.7060 -0.6519
 1938TP3      O17632   4.398   2.000   8.439  0.3654 -0.4571 -0.2385
 1938TP3     H117633   4.340   1.939   8.485 -1.4968  0.5109 -1.2518
 1938TP3     H217634   4.392   2.081   8.489  2.9723 -1.1089  1.2016
 1939TP3      O17635   3.900   4.396   8.824  0.0522  0.4850 -0.3035
 1939TP3     H117636   3.915   4.484   8.858 -0.4459  0.4213  0.0942
 1939TP3     H217637   3.811   4.401   8.786  0.9023  0.7886 -2.3397
 1940TP3      O17638   0.080   2.127  10.057  0.3012 -0.2536  0.5336
 1940TP3     H117639   0.145   2.103   9.990  1.2730  0.5539  1.1620
 1940TP3     H217640   0.129   2.182  10.118 -0.9684  0.2990  1.0648
 1941TP3      O17641   1.739   0.971  10.192 -0.4286 -0.2003 -0.1623
 1941TP3     H117642   1.803   0.927  10.248  0.1023  0.2922 -0.3735
 1941TP3     H217643   1.667   0.909  10.183 -0.0602 -0.6821  0.2304
 1942TP3      O17644   2.078   2.224   8.707  0.3570 -0.1126  0.2023
 1942TP3     H117645   1.988   2.198   8.687  0.5156 -0.9300  0.5297
 1942TP3     H217646   2.072   2.318   8.725 -0.7623 -0.5125  2.0651
 1943TP3      O17647   4.046   4.320   0.034  0.3954 -0.1410  0.1737
 1943TP3     H117648   3.997   4.356  -0.040 -1.1094 -1.4739  0.4955
 1943TP3     H217649   4.128   4.290  -0.005  0.1982  0.4341 -0.7124
 1944TP3      O17650   4.251   1.643   9.057 -0.6490 -0.3887 -0.0178
 1944TP3     H117651   4.302   1.704   9.003 -0.4021  0.1726  0.8369
 1944TP3     H217652   4.181   1.697   9.094 -0.2278 -0.5312  1.0158
 1945TP3      O17653   0.255   3.319   0.129 -0.5645 -0.5644  0.4964
 1945TP3     H117654   0.337   3.304   0.082  0.6433  0.2876  2.2830
 1945TP3     H217655   0.188   3.274   0.077  0.9100 -0.5766 -1.4016
 1946TP3      O17656   5.384   1.621   7.768  0.1262 -0.5232 -0.4184
 1946TP3     H117657   5.447   1.620   7.841  0.0763 -0.5795 -0.3754
 1946TP3     H217658   5.433   1.657   7.694 -0.2683  1.0189  0.0437
 1947TP3      O17659   0.164   3.659   9.573 -0.0344 -0.6484 -0.1305
 1947TP3     H117660   0.215   3.659   9.654  1.1176 -1.4592 -0.8430
 1947TP3     H217661   0.079   3.624   9.599  0.0301 -0.0825  0.9000
 1948TP3      O17662   0.608   2.723   8.058 -0.0405  0.7433  0.0322
 1948TP3     H117663   0.703   2.723   8.062 -0.0579 -0.8855  0.8936
 1948TP3     H217664   0.582   2.797   8.114  0.6911  0.3693  0.8764
 1949TP3      O17665   1.596   5.335   9.700 -0.0255 -0.5446  0.0056
 1949TP3     H117666   1.617   5.412   9.647  0.6376 -2.3037 -2.3468
 1949TP3     H217667   1.650   5.345   9.779  0.9345  0.8112 -0.8021
 1950TP3      O17668   0.423   0.919   9.687  0.6779 -0.5257 -0.3940
 1950TP3     H117669   0.377   0.849   9.640 -1.0755 -0.8697  1.7617
 1950TP3     H217670   0.395   1.000   9.643 -1.2818 -0.8073  0.3011
 1951TP3      O17671   2.836   1.069   9.733 -0.2142  0.1741 -0.8363
 1951TP3     H117672   2.754   1.098   9.694 -0.6763 -1.6439 -1.2480
 1951TP3     H217673   2.887   1.150   9.745 -1.5656  1.1642 -1.6971
 1952TP3      O17674   3.093   2.420   0.167 -0.5693  0.3515 -0.0075
 1952TP3     H117675   3.153   2.480   0.212 -0.8185  0.4070  0.2582
 1952TP3     H217676   3.012   2.427   0.217  0.3069 -2.5179  1.9244
 1953TP3      O17677   5.084   2.198   7.823  0.0795 -0.1400  0.0425
 1953TP3     H117678   5.009   2.224   7.876 -0.6928 -1.0618 -0.5859
 1953TP3     H217679   5.048   2.139   7.758  1.7961 -2.9087  1.5084
 1954TP3      O17680   0.215   2.195   1.017  0.3168 -0.1330 -0.2894
 1954TP3     H117681   0.297   2.174   1.062 -0.3979 -0.6431  0.7954
 1954TP3     H217682   0.165   2.113   1.017  0.0152  0.0382 -1.4049
 1955TP3      O17683   4.843   1.454   7.663 -0.2603  0.2632 -0.4966
 1955TP3     H117684   4.899   1.379   7.639  0.4848  0.4643  0.5993
 1955TP3     H217685   4.890   1.530   7.628  0.8984  0.5717  1.6484
 1956TP3      O17686   5.323   3.277   8.623  0.3328 -0.3670 -0.1506
 1956TP3     H117687   5.378   3.205   8.655 -1.0702  0.2796  3.9950
 1956TP3     H217688   5.255   3.235   8.570  1.5787 -1.6736 -0.7435
 1957TP3      O17689   0.183   4.511   7.552 -0.3567  0.3564  0.1600
 1957TP3     H117690   0.208   4.428   7.511 -2.7156  0.2478 -1.1293
 1957TP3     H217691   0.248   4.574   7.519  0.1926 -0.5550 -0.5145
 1958TP3      O17692   0.019   3.479   8.876  0.3133  0.2101  0.1355
 1958TP3     H117693  -0.026   3.563   8.865  0.6462  0.4390  0.5132
 1958TP3     H217694   0.070   3.489   8.956 -0.1396 -0.5789  0.5282
 1959TP3      O17695   1.261   5.282   8.348 -0.1805 -0.1338  0.0321
 1959TP3     H117696   1.232   5.335   8.274  0.2305 -0.1109 -0.1152
 1959TP3     H217697   1.274   5.345   8.419  1.2047  0.0964 -0.4082
 1960TP3      O17698   0.998   4.933  10.045  0.6456  0.1070 -0.4897
 1960TP3     H117699   1.044   4.999   9.994 -1.1777  0.8389 -1.2482
 1960TP3     H217700   1.003   4.854   9.993  2.7729 -0.3522  0.3854
 1961TP3      O17701   1.831   4.691   1.233 -0.4972 -0.4465 -0.8080
 1961TP3     H117702   1.839   4.779   1.196 -0.8497 -0.0190  0.1278
 1961TP3     H217703   1.908   4.645   1.201  0.1089  0.4408 -0.6475
 1962TP3      O17704   1.231   3.685   9.007  0.0782 -0.3313 -0.0175
 1962TP3     H117705   1.264   3.773   9.026  1.1776 -0.9793  1.1443
 1962TP3     H217706   1.172   3.698   8.932  1.3216  1.1921 -0.7874
 1963TP3      O17707   4.785   4.100   8.091  0.6268  0.7605  0.1841
 1963TP3     H117708   4.841   4.154   8.147  1.8307  1.1010 -1.2956
 1963TP3     H217709   4.831   4.017   8.084  0.3668  0.6368 -0.0918
 1964TP3      O17710   5.237   3.657   1.779  0.2848 -0.4256  0.1615
 1964TP3     H117711   5.182   3.589   1.741 -0.3719 -0.0684  0.4691
 1964TP3     H217712   5.215   3.736   1.730 -1.1905  0.2304  1.8177
 1965TP3      O17713   2.177   4.249   8.905 -0.0420 -0.7486 -0.2899
 1965TP3     H117714   2.093   4.205   8.915 -0.5169  0.4241  1.1195
 1965TP3     H217715   2.235   4.206   8.968  0.5127 -1.7400 -1.4527
 1966TP3      O17716   0.083   0.850   8.487 -0.1354  0.0417 -0.0029
 1966TP3     H117717   0.055   0.916   8.551  2.7582  0.4772  0.8446
 1966TP3     H217718   0.002   0.804   8.465 -1.9942  2.9417  0.4307
 1967TP3      O17719   2.143   0.151   2.464 -0.5229 -0.7727  0.0946
 1967TP3     H117720   2.069   0.108   2.506 -1.7128 -0.4643 -1.6160
 1967TP3     H217721   2.154   0.105   2.381  1.6335 -1.2186  0.5837
 1968TP3      O17722   0.522   3.216   8.710  0.5476  0.5317  0.3282
 1968TP3     H117723   0.483   3.180   8.630  1.9804 -1.3313  0.4170
 1968TP3     H217724   0.502   3.151   8.778  0.5461  1.4147  1.1830
 1969TP3      O17725   0.861   5.417   7.480  0.3822  0.5596  0.2823
 1969TP3     H117726   0.859   5.378   7.392 -0.0757 -0.2827  0.6651
 1969TP3     H217727   0.802   5.363   7.532 -1.5463  2.7698  0.4337
 1970TP3      O17728   4.585   0.623   9.347 -0.5068 -0.5411  0.3979
 1970TP3     H117729   4.622   0.604   9.261 -0.0890  0.1591  0.4232
 1970TP3     H217730   4.652   0.675   9.391 -0.6028 -1.1216  1.2447
 1971TP3      O17731   2.586   4.026   8.886 -0.3921 -0.0349  0.1367
 1971TP3     H117732   2.564   4.004   8.976  0.7592  0.7850  0.6265
 1971TP3     H217733   2.502   4.046   8.845 -0.7939  0.9042  1.3801
 1972TP3      O17734   1.834   4.960   1.923 -0.1971  0.5573 -0.1402
 1972TP3     H117735   1.845   5.019   1.848  0.2176 -1.2289 -1.5195
 1972TP3     H217736   1.749   4.984   1.960  0.4842  2.8155  0.0652
 1973TP3      O17737   3.071   3.001   0.401 -0.1504  0.3954  0.2325
 1973TP3     H117738   3.134   2.929   0.399 -1.1884 -0.4973 -3.0178
 1973TP3     H217739   3.124   3.080   0.397  0.8822 -0.2340  1.2190
 1974TP3      O17740   1.205   1.138   0.075  0.4534  0.5407 -0.2987
 1974TP3     H117741   1.301   1.136   0.079  0.4640 -0.8944 -0.9629
 1974TP3     H217742   1.184   1.147  -0.018 -0.0636 -1.0209 -0.3448
 1975TP3      O17743   2.055   1.212   8.597 -0.4420  0.1914  0.1077
 1975TP3     H117744   2.020   1.140   8.651  0.5913 -0.5537 -0.1975
 1975TP3     H217745   2.131   1.174   8.554  0.3300  1.5946  0.2149
 1976TP3      O17746   3.179   4.550   9.257 -0.2482  0.2408  0.2085
 1976TP3     H117747   3.124   4.477   9.284  0.2382 -0.5252 -0.8124
 1976TP3     H217748   3.263   4.534   9.300 -0.2937  0.4515  0.3728
 1977TP3      O17749   4.290   5.034   8.934  0.2682  0.3042 -0.1481
 1977TP3     H117750   4.244   5.113   8.962 -0.6896  0.2531 -1.5131
 1977TP3     H217751   4.220   4.972   8.911  1.0093 -0.5491 -0.1257
 1978TP3      O17752   0.442   1.752   9.402  0.2588  0.0361 -0.1692
 1978TP3     H117753   0.387   1.806   9.346 -1.2854 -2.4142 -1.0762
 1978TP3     H217754   0.504   1.710   9.343  1.0179  0.2410  0.4565
 1979TP3      O17755   4.844   1.081  10.299  0.4628  0.3452  0.0524
 1979TP3     H117756   4.865   1.152  10.239  2.7735 -0.1915  0.1554
 1979TP3     H217757   4.895   1.100  10.378 -1.1553  0.1048  1.1816
 1980TP3      O17758   1.589   2.959   1.618  0.0987 -0.6611 -0.7556
 1980TP3     H117759   1.519   2.990   1.677 -1.7368 -1.8851 -2.2234
 1980TP3     H217760   1.558   2.982   1.530  1.1012 -2.0900 -1.4964
 1981TP3      O17761   1.010   0.848   1.407  0.5991 -0.1216  0.3217
 1981TP3     H117762   1.074   0.916   1.384 -0.6212  1.3067  0.9827
 1981TP3     H217763   0.966   0.883   1.485  0.8809 -2.3268  1.4997
 1982TP3      O17764   1.552   3.664   0.937  0.1651  0.7486  0.2287
 1982TP3     H117765   1.474   3.641   0.988  0.5770  1.0476  1.0000
 1982TP3     H217766   1.603   3.721   0.995  1.8876 -0.9756  0.4623
 1983TP3      O17767   4.591   3.920   7.143  0.5306 -0.7256 -0.4028
 1983TP3     H117768   4.544   3.840   7.119  0.1077 -0.9956  1.3016
 1983TP3     H217769   4.682   3.891   7.156  0.7025 -0.6310 -1.3067
 1984TP3      O17770   2.028   0.786   7.904  0.1635  0.3140 -0.9867
 1984TP3     H117771   2.003   0.726   7.834 -1.1729 -1.8587  1.2710
 1984TP3     H217772   1.945   0.822   7.936  0.4482 -1.3661  1.7408
 1985TP3      O17773   3.125   4.609   8.235 -0.2928 -0.5649 -0.3431
 1985TP3     H117774   3.051   4.634   8.180  0.8482  0.1454 -1.5731
 1985TP3     H217775   3.128   4.513   8.229 -1.0789 -0.5906 -0.3312
 1986TP3      O17776   1.078   3.648  10.163 -0.5037 -0.2595 -0.0268
 1986TP3     H117777   1.014   3.718  10.172 -2.7256 -2.1762 -0.3286
 1986TP3     H217778   1.090   3.638  10.068  2.6225  2.1184  0.0475
 1987TP3      O17779   0.743   4.812   8.860 -0.2977  0.2663  0.2804
 1987TP3     H117780   0.779   4.901   8.853  0.4014 -0.2545 -3.5876
 1987TP3     H217781   0.816   4.754   8.839 -1.6257 -1.0919 -0.6949
 1988TP3      O17782   1.854   0.982   8.051  0.5761 -0.5164 -0.3743
 1988TP3     H117783   1.885   0.946   8.134 -0.1162  0.0778  0.1418
 1988TP3     H217784   1.928   1.033   8.018  0.9902 -1.0745 -0.3202
 1989TP3      O17785   3.548   3.288   8.098  0.0746  0.0941 -0.3413
 1989TP3     H117786   3.520   3.218   8.040  0.2878  0.1181 -0.4729
 1989TP3     H217787   3.490   3.361   8.077 -0.7775 -0.3380  0.4590
 1990TP3      O17788   0.488   0.910   8.487 -0.1927 -0.5355 -0.1900
 1990TP3     H117789   0.456   0.969   8.555  1.4301 -0.9057  0.9076
 1990TP3     H217790   0.475   0.959   8.405  0.7226  1.1771  0.6580
 1991TP3      O17791   2.677   4.658  10.253 -0.5173  0.2698 -0.0615
 1991TP3     H117792   2.620   4.581  10.248 -1.3685  0.8547  0.5840
 1991TP3     H217793   2.631   4.724  10.201 -0.1837  0.5959  0.0599
 1992TP3      O17794   1.716   4.539   7.588  0.2930 -0.3396  0.4010
 1992TP3     H117795   1.664   4.477   7.638 -2.3133  1.9788  0.6838
 1992TP3     H217796   1.750   4.488   7.515 -1.1742 -2.2757  1.0291
 1993TP3      O17797   3.811   1.268   8.721  0.0331 -0.3056 -0.2586
 1993TP3     H117798   3.859   1.217   8.787 -1.2945 -0.4806  0.5840
 1993TP3     H217799   3.777   1.202   8.660  1.1616 -0.1526 -1.0725
 1994TP3      O17800   2.047   4.886   8.667 -0.6923  0.0065  0.3425
 1994TP3     H117801   2.036   4.948   8.595  2.0950 -0.0103 -0.1524
 1994TP3     H217802   2.126   4.838   8.645 -1.8115 -2.5011  1.6384
 1995TP3      O17803   4.391   4.646   9.626 -0.1095 -0.0921 -0.8059
 1995TP3     H117804   4.392   4.705   9.702  1.0835  0.1723 -1.0273
 1995TP3     H217805   4.476   4.658   9.585  0.1071 -1.8962 -0.9202
 1996TP3      O17806   1.571   1.424   7.505 -1.2516 -0.3967  0.4638
 1996TP3     H117807   1.636   1.375   7.455  0.2556 -0.7974  2.7563
 1996TP3     H217808   1.554   1.502   7.452  0.8741 -0.4345 -0.3134
 1997TP3      O17809   2.597   4.676   8.422  0.4183  0.6260  0.1439
 1997TP3     H117810   2.636   4.760   8.400 -0.8273  0.8665 -1.2429
 1997TP3     H217811   2.529   4.697   8.486  1.4223  0.4004  1.3246
 1998TP3      O17812   0.235   5.270   8.604  0.1736 -0.7040  0.7873
 1998TP3     H117813   0.163   5.332   8.619  0.8323  0.3492 -0.2876
 1998TP3     H217814   0.308   5.305   8.654  0.5920 -0.5336  0.0618
 1999TP3      O17815   0.885   5.039   0.174 -0.5561  0.0936  0.2795
 1999TP3     H117816   0.950   5.051   0.104 -1.4012  1.5122 -0.2909
 1999TP3     H217817   0.935   5.002   0.247  0.5704 -0.3266 -0.6909
 2000TP3      O17818   4.582   1.151   9.654 -0.2109 -0.1544 -0.1376
 2000TP3     H117819   4.585   1.186   9.743 -1.0047 -0.7666  0.1385
 2000TP3     H217820   4.592   1.057   9.666  0.2154 -0.1854 -0.7439
 2001TP3      O17821   2.834   3.554   8.547  0.2905 -0.2125 -0.0075
 2001TP3     H117822   2.770   3.608   8.501  0.4369  0.0419  0.0889
 2001TP3     H217823   2.814   3.465   8.519 -0.5213 -0.2023  0.5091
 2002TP3      O17824   2.446   3.878   0.288  0.0138  0.1888  0.5704
 2002TP3     H117825   2.449   3.958   0.234  1.0002 -0.4393 -0.3202
 2002TP3     H217826   2.402   3.906   0.368 -2.2640  0.9465 -0.8836
 2003TP3      O17827   2.415   0.325   7.139  0.8180  0.2059  0.0236
 2003TP3     H117828   2.344   0.359   7.085 -0.1923 -2.2364 -0.2726
 2003TP3     H217829   2.436   0.396   7.198 -2.2340  0.8399  0.4471
 2004TP3      O17830   3.095   0.194   7.803  0.1493  0.5034  0.8138
 2004TP3     H117831   3.158   0.123   7.816 -0.1539  0.2628  0.9822
 2004TP3     H217832   3.014   0.149   7.779  0.1376  0.8303  0.2402
 2005TP3      O17833   4.401   2.266   9.450  0.1288 -0.2831  0.4447
 2005TP3     H117834   4.450   2.190   9.418  0.0996  0.3620 -1.1568
 2005TP3     H217835   4.319   2.230   9.484  0.4620 -1.0461  0.4443
 2006TP3      O17836   2.614   3.888   7.364 -0.8075 -0.2148 -0.3577
 2006TP3     H117837   2.534   3.905   7.314 -0.6075 -1.5358 -1.1515
 2006TP3     H217838   2.618   3.792   7.371 -0.1691 -0.0972  1.1128
 2007TP3      O17839   3.349   4.747   9.059 -0.2339 -0.0177  0.3889
 2007TP3     H117840   3.308   4.712   8.980 -0.1644  1.0776 -0.1424
 2007TP3     H217841   3.286   4.811   9.092  1.1324  1.9092 -0.6078
 2008TP3      O17842   2.325   2.552   0.259 -0.1666  0.1357  0.1265
 2008TP3     H117843   2.236   2.538   0.228 -0.8347 -0.9968  2.4260
 2008TP3     H217844   2.371   2.472   0.236 -0.3426 -0.1970  0.9045
 2009TP3      O17845   3.932   3.547   9.629  0.2111  0.3661 -0.2013
 2009TP3     H117846   3.872   3.560   9.703 -0.8991 -1.6861 -0.6939
 2009TP3     H217847   3.897   3.603   9.560 -0.1701  0.4502  0.0559
 2010TP3      O17848   4.382   4.824   9.840 -0.6877 -0.2377 -0.5826
 2010TP3     H117849   4.287   4.838   9.845 -0.9069 -1.3392 -1.4594
 2010TP3     H217850   4.418   4.878   9.910 -1.9341  0.4807 -0.4785
 2011TP3      O17851   4.067   4.313   9.627  0.2390  0.0627 -0.7125
 2011TP3     H117852   4.055   4.362   9.545  0.9687  1.2976 -0.0863
 2011TP3     H217853   4.159   4.286   9.626  0.5293  0.9924  0.1967
 2012TP3      O17854   2.658   3.717   8.425  0.1095  0.2508 -0.4189
 2012TP3     H117855   2.652   3.781   8.496 -0.5896 -0.5176  0.2250
 2012TP3     H217856   2.694   3.766   8.351  0.3194  1.1900  0.3001
 2013TP3      O17857   4.854   0.690   8.210 -0.2557 -0.0532 -0.1516
 2013TP3     H117858   4.844   0.596   8.224  0.5482  0.1350  1.7683
 2013TP3     H217859   4.773   0.728   8.243 -0.6963 -0.0862 -1.1802
 2014TP3      O17860   3.920   2.392  10.080 -0.2084 -0.1976  0.3907
 2014TP3     H117861   3.885   2.337  10.150 -2.3164  0.5191 -0.0424
 2014TP3     H217862   3.857   2.382  10.008  1.0754  0.3076 -0.8269
 2015TP3      O17863   3.634   0.273   9.169 -0.0951 -0.4772  0.1840
 2015TP3     H117864   3.684   0.294   9.248  0.5089 -1.4708  0.0683
 2015TP3     H217865   3.553   0.324   9.178  0.0765 -0.3931  1.3163
 2016TP3      O17866   3.325   3.505   7.689 -0.4781 -0.0131  0.1705
 2016TP3     H117867   3.371   3.571   7.741 -0.2101 -0.1619  0.1252
 2016TP3     H217868   3.314   3.431   7.748 -2.4654  0.7582  0.8108
 2017TP3      O17869   1.171   0.440   9.209 -0.0036  0.1614  0.1586
 2017TP3     H117870   1.131   0.428   9.295 -0.8496 -0.2724 -0.2928
 2017TP3     H217871   1.103   0.415   9.147  0.5806  0.5393 -0.6420
 2018TP3      O17872   2.889   5.307   9.273  0.5947 -0.1990 -0.1240
 2018TP3     H117873   2.851   5.220   9.268  0.6578 -0.1461 -1.8947
 2018TP3     H217874   2.942   5.315   9.194  2.3028  0.6677  1.0523
 2019TP3      O17875   1.184   4.590   7.950 -0.4614 -0.2182 -0.3304
 2019TP3     H117876   1.244   4.516   7.940  0.5251  0.5613 -0.2382
 2019TP3     H217877   1.153   4.608   7.861 -1.4339 -1.3265 -0.2340
 2020TP3      O17878   2.909   0.882   1.034 -0.1173 -0.0374 -0.5597
 2020TP3     H117879   2.855   0.929   0.970  0.8597 -0.4799 -1.7202
 2020TP3     H217880   2.901   0.933   1.114 -3.1633 -0.6743 -0.3798
 2021TP3      O17881   1.612   4.271   9.824 -0.3051 -0.3291 -0.3300
 2021TP3     H117882   1.707   4.280   9.824 -0.2419 -0.7759  1.1290
 2021TP3     H217883   1.586   4.294   9.913 -1.6029  0.1740 -0.8250
 2022TP3      O17884   1.442   5.104  10.014  0.0137  0.0424  0.3075
 2022TP3     H117885   1.433   5.177  10.075  0.4379 -2.0347  2.9717
 2022TP3     H217886   1.534   5.079  10.021  0.4589  0.7687 -2.4445
 2023TP3      O17887   0.406   1.642   0.180  0.1349 -0.7421  0.2941
 2023TP3     H117888   0.482   1.632   0.237 -0.0130 -0.3178  0.5638
 2023TP3     H217889   0.375   1.731   0.196 -0.0624 -0.7084 -0.2568
 2024TP3      O17890   4.380   2.923   0.418 -0.0717  0.1042 -0.2678
 2024TP3     H117891   4.388   2.847   0.475 -0.9958 -0.4379 -0.8423
 2024TP3     H217892   4.310   2.975   0.458 -0.9452 -0.4357 -1.0553
 2025TP3      O17893   1.844   4.760   8.202  0.2863 -0.2280  0.2680
 2025TP3     H117894   1.881   4.841   8.234 -1.9732  1.9968 -2.4251
 2025TP3     H217895   1.918   4.701   8.193  2.0240  1.6672  1.9276
 2026TP3      O17896   0.849   5.175   9.558 -0.1799 -0.5559 -0.1122
 2026TP3     H117897   0.809   5.095   9.524  0.2477 -1.2646  0.9926
 2026TP3     H217898   0.913   5.200   9.492 -0.5187 -0.9647 -0.6006
 2027TP3      O17899   4.385   0.353   9.327 -0.1168  0.6176  0.5687
 2027TP3     H117900   4.306   0.380   9.280 -0.6147 -1.0973  0.3593
 2027TP3     H217901   4.455   0.406   9.289 -0.7361  0.2520 -1.1408
 2028TP3      O17902   4.372   2.782   7.677  0.4198 -0.2563 -0.4670
 2028TP3     H117903   4.304   2.805   7.740  1.0233 -0.7728  0.3893
 2028TP3     H217904   4.414   2.705   7.714  0.8821 -0.4842 -1.4386
 2029TP3      O17905   4.540   4.487   0.514  0.1855 -0.3698 -0.8560
 2029TP3     H117906   4.448   4.496   0.490  0.2794  0.4886 -0.9213
 2029TP3     H217907   4.539   4.471   0.608  0.0144  0.9857 -0.6100
 2030TP3      O17908   3.427   5.289   9.959  0.5458 -0.5685  0.2687
 2030TP3     H117909   3.509   5.290   9.909  0.3991  2.1213  0.0144
 2030TP3     H217910   3.404   5.197   9.964  1.8051 -1.1056 -2.6077
 2031TP3      O17911   1.438   5.062   9.394  0.5409 -0.0469  0.4169
 2031TP3     H117912   1.485   5.143   9.414  0.6773 -0.6268  2.5847
 2031TP3     H217913   1.493   4.993   9.433 -1.3466 -0.8638  1.7201
 2032TP3      O17914   4.066   2.877   0.452  0.0753  0.3865 -0.5403
 2032TP3     H117915   3.983   2.898   0.410 -1.0385 -1.8647  0.4174
 2032TP3     H217916   4.044   2.870   0.545  1.8337  2.0680  0.0310
 2033TP3      O17917   2.233   5.271   0.038  0.0305 -0.1091 -0.2337
 2033TP3     H117918   2.198   5.295  -0.047 -1.2359 -0.9446  0.0460
 2033TP3     H217919   2.189   5.329   0.100  1.5736  1.0898 -0.2112
 2034TP3      O17920   2.689   4.137   7.591  0.1693  0.0533 -0.2750
 2034TP3     H117921   2.734   4.198   7.533 -0.9047  0.9865 -0.1436
 2034TP3     H217922   2.600   4.171   7.598 -0.4703 -1.5765 -0.2547
 2035TP3      O17923   5.230   2.827   9.516  0.5201  0.3554  0.5073
 2035TP3     H117924   5.229   2.921   9.498  2.6597  0.3490  0.2145
 2035TP3     H217925   5.159   2.813   9.580 -0.8478  1.8926 -0.6523
 2036TP3      O17926   4.004   3.162   9.341  0.2665 -0.1683  0.3091
 2036TP3     H117927   3.938   3.191   9.405  2.2263  0.6725  2.0012
 2036TP3     H217928   4.047   3.088   9.383  1.2493  0.0820 -0.2424
 2037TP3      O17929   2.613   5.221  10.006 -0.0205  0.2595  0.3052
 2037TP3     H117930   2.525   5.193   9.983  0.8735 -1.6912 -0.8817
 2037TP3     H217931   2.636   5.285   9.938  0.2881 -0.8485 -0.6351
 2038TP3      O17932   4.266   5.419   9.688 -0.5761 -0.4931  0.2537
 2038TP3     H117933   4.171   5.424   9.700 -0.7009 -2.3624  0.2842
 2038TP3     H217934   4.282   5.329   9.658  1.3188 -0.7057  1.7443
 2039TP3      O17935   1.907   2.434   8.348  0.4015 -0.3028 -0.3050
 2039TP3     H117936   1.872   2.490   8.417  1.8106  0.8580 -0.4927
 2039TP3     H217937   1.880   2.345   8.372 -0.1404  0.2285  1.0859
 2040TP3      O17938   3.195   4.131   9.025 -0.0049  0.0519 -0.9149
 2040TP3     H117939   3.289   4.142   9.015 -0.0598  2.2660  0.8100
 2040TP3     H217940   3.185   4.059   9.088  0.5033 -0.0808 -0.9863
 2041TP3      O17941   1.683   4.602   9.709  0.2359 -0.2408 -0.2316
 2041TP3     H117942   1.669   4.572   9.799  1.3836  2.2099  0.8195
 2041TP3     H217943   1.757   4.663   9.716  0.6780 -0.4105 -2.9313
 2042TP3      O17944   4.410   3.692   8.613  0.1484  0.8770  0.1750
 2042TP3     H117945   4.357   3.707   8.535  0.2275  0.2348 -0.0058
 2042TP3     H217946   4.364   3.622   8.660  0.3125  0.9921  0.5082
 2043TP3      O17947   2.492   4.654   8.764 -0.5039 -0.0578  0.6755
 2043TP3     H117948   2.477   4.684   8.854  0.6684  0.2389  0.7735
 2043TP3     H217949   2.587   4.642   8.758 -0.6829 -1.1017 -0.2001
 2044TP3      O17950   5.401   1.493   8.251 -0.2425  0.1684 -0.5319
 2044TP3     H117951   5.382   1.581   8.283  1.7885 -0.2914  2.0902
 2044TP3     H217952   5.333   1.438   8.291 -0.9752  0.3644 -1.4644
 2045TP3      O17953   4.352   4.474   9.225  0.4929 -0.7264  0.7553
 2045TP3     H117954   4.428   4.529   9.205 -0.4603 -0.0980 -1.2169
 2045TP3     H217955   4.295   4.483   9.149 -2.0638 -0.3356  2.6677
 2046TP3      O17956   4.415   3.920   8.840  0.4682 -0.5692  0.6151
 2046TP3     H117957   4.406   3.963   8.925 -0.5050 -0.3797  0.4184
 2046TP3     H217958   4.352   3.965   8.784  0.4827 -1.2833  0.0277
 2047TP3      O17959   5.403   0.427   8.362 -0.0606 -0.0364  0.0424
 2047TP3     H117960   5.469   0.364   8.393 -1.4729 -0.7327  1.6645
 2047TP3     H217961   5.323   0.375   8.355 -0.4376  0.7809 -2.0602
 2048TP3      O17962   0.773   4.142   8.149 -0.5007  0.3468  0.8309
 2048TP3     H117963   0.800   4.056   8.180  0.7659 -0.0397 -1.2256
 2048TP3     H217964   0.695   4.126   8.096 -0.4319  0.5019  0.6808
 2049TP3      O17965   4.879   5.291   9.643 -0.1747  0.2697  0.4810
 2049TP3     H117966   4.818   5.362   9.626  1.4250  1.4922 -0.1956
 2049TP3     H217967   4.905   5.260   9.557  1.5042  0.9258  0.7400
 2050TP3      O17968   5.464   3.767   8.842  0.1222  0.3985 -0.1083
 2050TP3     H117969   5.515   3.814   8.909 -0.1510  2.7339 -1.4702
 2050TP3     H217970   5.510   3.786   8.760 -1.4787  0.3744 -1.0146
 2051TP3      O17971   3.540   4.016   9.490 -0.1348  0.1466 -0.5183
 2051TP3     H117972   3.605   3.996   9.423  0.7870  0.7179  0.1903
 2051TP3     H217973   3.495   3.934   9.506  2.9314 -1.2367  1.6568
 2052TP3      O17974   4.435   3.379   8.745  0.4700 -0.4748 -0.0189
 2052TP3     H117975   4.398   3.330   8.818  0.9803  0.8450  1.1515
 2052TP3     H217976   4.519   3.337   8.727  1.1507  0.2969  1.3339
 2053TP3      O17977   4.715   0.614   7.871 -0.4535  0.3078 -0.2402
 2053TP3     H117978   4.733   0.530   7.913  1.2865  0.7385 -0.0631
 2053TP3     H217979   4.717   0.595   7.777 -0.3736  0.0897 -0.1944
 2054TP3      O17980   5.324   3.826   9.539  0.2936 -0.2310  0.4010
 2054TP3     H117981   5.231   3.820   9.521  0.0712  0.5316  1.2719
 2054TP3     H217982   5.361   3.745   9.503 -0.8179 -0.9196  0.8078
 2055TP3      O17983   5.050   4.306   1.512  0.1226 -0.4833  0.3350
 2055TP3     H117984   5.058   4.388   1.561  1.8708 -0.2913 -0.2236
 2055TP3     H217985   5.078   4.238   1.574 -0.9402 -0.6268  0.6699
 2056TP3      O17986   4.514   1.166   9.126 -0.0287  0.1786  0.0499
 2056TP3     H117987   4.493   1.254   9.094 -1.2973 -0.1966 -0.1755
 2056TP3     H217988   4.465   1.107   9.069  0.5288 -0.6659  0.4319
 2057TP3      O17989   0.219   0.046   8.453  0.4073  0.2252 -0.0963
 2057TP3     H117990   0.306   0.018   8.479  0.9199  0.7394 -1.2562
 2057TP3     H217991   0.187  -0.023   8.395 -0.5781 -0.7200  1.5222
 2058TP3      O17992   4.055   4.087   8.125 -0.7956 -0.3273 -1.0004
 2058TP3     H117993   3.976   4.083   8.179 -0.0367 -0.2948  0.1307
 2058TP3     H217994   4.051   4.174   8.084  0.3839  1.1616  1.8163
 2059TP3      O17995   1.590   0.364   8.088  0.3714 -0.1486 -0.1135
 2059TP3     H117996   1.639   0.282   8.075 -0.9371 -0.9510 -0.0324
 2059TP3     H217997   1.658   0.431   8.095  1.5473 -1.4767  1.6792
 2060TP3      O17998   0.997   5.022   1.017  0.7177 -0.5854 -0.3437
 2060TP3     H117999   0.944   5.040   1.095  2.8383 -0.3714  1.0888
 2060TP3     H218000   0.936   5.034   0.944 -1.0164  0.4134  1.2031
 2061TP3      O18001   4.036   4.715   0.189  0.0078 -0.3341  0.3125
 2061TP3     H118002   3.967   4.781   0.178  0.7071  0.1177 -1.5239
 2061TP3     H218003   3.988   4.635   0.210 -0.8264  0.8158  3.0004
 2062TP3      O18004   4.392   0.441   0.372  0.9779 -0.5448 -0.0578
 2062TP3     H118005   4.348   0.461   0.290  1.6703  0.2273 -0.2507
 2062TP3     H218006   4.325   0.454   0.439  0.4752 -0.9607 -0.4758
 2063TP3      O18007   0.128   1.045   9.196  0.0804 -0.3621  0.3925
 2063TP3     H118008   0.056   1.081   9.145 -0.6767 -1.0376  0.9646
 2063TP3     H218009   0.127   0.951   9.176  0.3944 -0.4757  0.8984
 2064TP3      O18010   0.274   2.884   9.804 -0.5373  0.0896  0.6759
 2064TP3     H118011   0.290   2.975   9.778  0.0586  0.2200  1.4738
 2064TP3     H218012   0.362   2.848   9.818 -0.8272 -0.1431  1.9304
 2065TP3      O18013   3.609   1.598   9.082  0.2992 -0.1360  0.2195
 2065TP3     H118014   3.671   1.528   9.062  0.0046 -0.2213 -0.4093
 2065TP3     H218015   3.548   1.559   9.145  1.2395  0.1379  1.3121
 2066TP3      O18016   4.429   0.951   8.970 -0.0783  0.0673  0.2988
 2066TP3     H118017   4.340   0.930   8.997 -0.6892  2.3618  0.1371
 2066TP3     H218018   4.419   0.995   8.886  1.2439 -0.0942  0.0449
 2067TP3      O18019   0.573   1.621   9.188 -0.2089  0.3572  0.0735
 2067TP3     H118020   0.526   1.544   9.157 -1.4736  0.4414  1.7300
 2067TP3     H218021   0.600   1.666   9.107 -0.4443 -1.2080 -0.8994
 2068TP3      O18022   2.193   0.315   9.403 -0.3007  0.2193  0.2155
 2068TP3     H118023   2.224   0.374   9.334  0.5383  0.1335  0.5111
 2068TP3     H218024   2.199   0.367   9.483  0.9457 -0.4370  0.5523
 2069TP3      O18025   0.209   4.549   9.609 -0.0354 -0.0792  0.2250
 2069TP3     H118026   0.141   4.488   9.582 -0.0814 -0.0114  0.1870
 2069TP3     H218027   0.181   4.633   9.572  1.1921 -0.4724 -1.6505
 2070TP3      O18028   0.057   4.807   8.850  0.3749  0.0171 -0.5908
 2070TP3     H118029   0.043   4.902   8.849  0.5862  0.0499 -1.7903
 2070TP3     H218030   0.012   4.776   8.929 -0.3550  1.0155 -0.6093
 2071TP3      O18031   0.058   5.494   8.726 -0.4327 -0.3613  0.6765
 2071TP3     H118032  -0.019   5.462   8.772  0.3134 -1.4533  1.1965
 2071TP3     H218033   0.028   5.572   8.680 -2.0759 -1.2977  0.1112
 2072TP3      O18034   4.534   0.667   8.062  0.5061 -0.1985 -0.2473
 2072TP3     H118035   4.584   0.650   7.982 -0.0586  0.1699 -0.6900
 2072TP3     H218036   4.572   0.747   8.097 -1.2106  1.3367 -1.7915
 2073TP3      O18037   4.483   2.565   7.812 -0.0690  0.6786 -0.7202
 2073TP3     H118038   4.444   2.479   7.827 -0.8240  1.0594 -0.4847
 2073TP3     H218039   4.536   2.580   7.890 -0.0120  0.4692 -0.7167
 2074TP3      O18040   0.824   3.630   8.653 -0.1829 -0.7463  0.1643
 2074TP3     H118041   0.805   3.722   8.673  0.5268 -0.7972  1.0910
 2074TP3     H218042   0.792   3.582   8.729 -2.2044 -1.4701 -1.0837
 2075TP3      O18043   4.484   5.293   1.076  0.2841  0.0343 -0.6897
 2075TP3     H118044   4.420   5.248   1.020  0.0933  0.7204 -1.0259
 2075TP3     H218045   4.437   5.309   1.158 -0.2154  1.1978 -1.1989
 2076TP3      O18046   0.598   3.404  10.206 -0.2749  0.7462  0.2626
 2076TP3     H118047   0.523   3.352  10.234  0.1682  0.8107  1.5603
 2076TP3     H218048   0.652   3.342  10.156 -0.7283  0.4753  0.0995
 2077TP3      O18049   0.135   2.663   8.729  0.5357  0.7651 -0.0367
 2077TP3     H118050   0.207   2.673   8.792  0.5931  1.8660 -0.2677
 2077TP3     H218051   0.161   2.589   8.675  0.8243  0.2545  0.7912
 2078TP3      O18052   3.206   4.210   8.750 -0.2302 -0.4485  0.1568
 2078TP3     H118053   3.179   4.187   8.839 -1.5820  1.1802  0.1908
 2078TP3     H218054   3.129   4.253   8.712  0.8463  0.2489 -1.2699
 2079TP3      O18055   3.728   4.410   9.941  0.4824 -0.3581  0.4806
 2079TP3     H118056   3.646   4.398   9.893  0.6192  0.9191 -0.0886
 2079TP3     H218057   3.789   4.347   9.901 -0.0268 -0.8468  0.4684
 2080TP3      O18058   3.731   4.686   9.321 -0.2448 -0.0292 -0.1131
 2080TP3     H118059   3.671   4.709   9.393  0.0056 -0.6770  0.3085
 2080TP3     H218060   3.673   4.655   9.252 -0.5533  1.4401 -0.5287
 2081TP3      O18061   3.603   4.012   7.816  0.1000  0.4713  0.2902
 2081TP3     H118062   3.582   3.994   7.724 -2.7998  1.4975  0.7131
 2081TP3     H218063   3.665   4.084   7.813  0.2586  0.2945 -0.8582
 2082TP3      O18064   0.253   1.692   9.197  0.1899  0.1861 -0.5231
 2082TP3     H118065   0.299   1.703   9.114  0.5214  0.4412 -0.3083
 2082TP3     H218066   0.268   1.602   9.223 -1.7664 -0.5577 -1.8456
 2083TP3      O18067   1.186   1.821   8.474  0.2627  0.4794  0.5898
 2083TP3     H118068   1.175   1.914   8.494 -4.3176  0.2195 -0.1361
 2083TP3     H218069   1.192   1.779   8.559  2.4675  1.3981  0.9221
 2084TP3      O18070   1.671   1.269   7.741 -0.5950 -0.1972  0.1271
 2084TP3     H118071   1.609   1.322   7.691  1.0916 -0.5330 -2.4196
 2084TP3     H218072   1.699   1.201   7.679  2.1657 -0.1626  1.2791
 2085TP3      O18073   0.927   1.264   8.643  0.1230  0.2717  0.1830
 2085TP3     H118074   0.880   1.181   8.646  0.0785  0.3363  1.4631
 2085TP3     H218075   0.963   1.268   8.554  0.0829 -1.0784  0.1011
 2086TP3      O18076   1.434   2.029   0.240  0.1243 -0.5403 -0.1653
 2086TP3     H118077   1.450   2.002   0.149  0.7612  0.4227 -0.3535
 2086TP3     H218078   1.445   1.949   0.291  0.5798 -0.9260 -0.8589
 2087TP3      O18079   0.235   4.563   8.442  0.3935  0.4871 -0.4795
 2087TP3     H118080   0.307   4.626   8.432 -0.8569  1.9714 -0.2814
 2087TP3     H218081   0.167   4.594   8.382 -0.9078  0.3278  0.8920
 2088TP3      O18082   5.401   5.393   9.671  0.0474  0.2629  0.1199
 2088TP3     H118083   5.413   5.477   9.626 -0.1877  0.2783  0.0844
 2088TP3     H218084   5.319   5.403   9.720  0.6425  0.4712  1.0783
 2089TP3      O18085   1.763   3.887   9.720 -0.5524 -0.0946 -0.8032
 2089TP3     H118086   1.671   3.863   9.713  0.0103 -1.9205 -2.4256
 2089TP3     H218087   1.768   3.974   9.679 -1.4369 -0.2979 -1.3507
 2090TP3      O18088   1.131   2.865   8.555 -0.0607  0.9489  0.1494
 2090TP3     H118089   1.085   2.938   8.596  0.3717  1.4263 -0.2190
 2090TP3     H218090   1.219   2.898   8.538  0.3517  0.1111  0.6333
 2091TP3      O18091   0.712   0.788   1.108  0.1521 -0.0597  0.2659
 2091TP3     H118092   0.629   0.745   1.086 -0.7146  1.5950  0.2110
 2091TP3     H218093   0.735   0.752   1.194  0.2100 -1.7049 -0.4141
 2092TP3      O18094   3.578   0.007   1.054 -0.0368 -0.4156  0.1587
 2092TP3     H118095   3.627   0.087   1.074  0.3425 -1.0213  1.7497
 2092TP3     H218096   3.635  -0.064   1.085 -2.5793 -1.0864  3.6349
 2093TP3      O18097   1.542   2.002   9.923  0.0875  0.3158  0.3715
 2093TP3     H118098   1.571   1.934   9.985  1.8802 -0.5309 -1.3569
 2093TP3     H218099   1.619   2.055   9.907 -0.5569  0.9969 -0.5602
 2094TP3      O18100   0.869   1.146   9.846  0.0151  0.1255  0.1418
 2094TP3     H118101   0.814   1.097   9.907 -0.3772 -1.8319 -1.7223
 2094TP3     H218102   0.811   1.213   9.809 -0.2908 -0.0125  0.3739
 2095TP3      O18103   1.001   0.924   0.013 -0.1163  0.2824  0.2149
 2095TP3     H118104   1.085   0.904   0.056 -0.2757  0.2095  0.4956
 2095TP3     H218105   0.949   0.967   0.081 -0.6956 -0.6349  0.3599
 2096TP3      O18106   3.954   3.758   9.401 -0.2362  0.6328  0.0849
 2096TP3     H118107   3.957   3.786   9.309  0.2724  1.8932  0.4860
 2096TP3     H218108   4.036   3.790   9.439  0.0447 -0.7903  0.7340
 2097TP3      O18109   1.145   1.801  10.165 -0.2814  0.7378  0.5372
 2097TP3     H118110   1.187   1.885  10.149  0.4296  0.1123 -0.9986
 2097TP3     H218111   1.218   1.740  10.177 -0.7381 -0.1478 -1.0291
 2098TP3      O18112   3.403   5.520   0.551 -0.5039 -0.0998 -0.4118
 2098TP3     H118113   3.345   5.589   0.582 -1.1784 -0.4526 -0.8637
 2098TP3     H218114   3.351   5.440   0.556 -0.2443 -0.3425 -1.3255
 2099TP3      O18115   5.041   2.004   1.510  0.0441  0.3465 -0.3354
 2099TP3     H118116   5.061   1.933   1.449 -1.1005 -2.4825  2.4350
 2099TP3     H218117   4.973   2.055   1.466 -1.8428 -2.5077 -0.9158
 2100TP3      O18118   4.793   4.568   8.871 -0.5303 -0.3388 -0.2989
 2100TP3     H118119   4.732   4.560   8.944  0.9866  0.8002  1.1462
 2100TP3     H218120   4.819   4.478   8.850 -1.1703 -0.6858  0.3893
 2101TP3      O18121   3.596   5.058   7.578  0.0307 -0.1282 -0.6404
 2101TP3     H118122   3.581   4.979   7.526 -0.8752 -0.1801 -0.2976
 2101TP3     H218123   3.583   5.030   7.669  1.4712 -0.0001 -0.3885
 2102TP3      O18124   0.930   3.495   1.481 -0.1392  0.1150  0.6805
 2102TP3     H118125   0.880   3.554   1.425 -0.6341 -0.7285  0.2200
 2102TP3     H218126   1.009   3.477   1.432  0.0568  0.4662  0.8644
 2103TP3      O18127   2.514   1.365   9.776  0.6550 -0.1075  0.5117
 2103TP3     H118128   2.547   1.306   9.709  0.0579  1.4568 -1.1786
 2103TP3     H218129   2.592   1.399   9.820  1.1405  0.5314 -0.8385
 2104TP3      O18130   4.361   5.115   1.741  0.2122 -0.6207  0.7444
 2104TP3     H118131   4.335   5.026   1.715 -2.6357  0.1631  0.7562
 2104TP3     H218132   4.353   5.166   1.661 -0.0240  0.0003  1.1641
 2105TP3      O18133   0.316   0.199   1.183 -0.0822 -0.5376  0.5388
 2105TP3     H118134   0.371   0.140   1.131 -1.0182 -0.7206 -0.2679
 2105TP3     H218135   0.341   0.182   1.273  2.2721  0.4938  0.0985
 2106TP3      O18136   0.444   3.401   9.881 -0.3103 -0.4567  0.5278
 2106TP3     H118137   0.376   3.458   9.917 -0.1479 -0.3217  0.6219
 2106TP3     H218138   0.482   3.358   9.958 -0.6770 -0.9655  0.4276
 2107TP3      O18139   0.981   4.064   1.738  0.4663  0.3670 -0.2373
 2107TP3     H118140   1.074   4.058   1.719  0.3918  0.6363 -0.6956
 2107TP3     H218141   0.957   4.154   1.713  0.1150  0.3440  0.0089
 2108TP3      O18142   2.621   1.163   0.361 -0.1189  0.0866  0.3161
 2108TP3     H118143   2.672   1.221   0.418 -0.0412 -0.4504  0.8004
 2108TP3     H218144   2.531   1.195   0.369  0.3024  1.7515 -1.4300
 2109TP3      O18145   0.617   4.485   9.300 -0.5201 -0.4025  0.1452
 2109TP3     H118146   0.690   4.447   9.349 -0.7482 -0.3103  0.5561
 2109TP3     H218147   0.543   4.429   9.321 -0.7052 -0.1315  0.2147
 2110TP3      O18148   1.684   5.402  10.011  0.1277  0.5485  0.4664
 2110TP3     H118149   1.774   5.416  10.038 -0.1559 -0.8492  2.2079
 2110TP3     H218150   1.665   5.311  10.035 -1.4073  0.4738 -0.8613
 2111TP3      O18151   0.963   3.508   9.401  0.1840 -0.1445  0.3562
 2111TP3     H118152   0.902   3.450   9.357 -0.4195 -0.3575  1.4614
 2111TP3     H218153   1.033   3.522   9.337 -0.0925 -1.3794 -0.2303
 2112TP3      O18154   0.357   4.029   9.402  0.0033  0.3925 -0.6992
 2112TP3     H118155   0.389   4.109   9.444 -1.2434  0.6991 -0.3186
 2112TP3     H218156   0.345   4.053   9.310  0.8535  0.2668 -0.8526
 2113TP3      O18157   3.780   4.784   7.969  0.2682  0.5336  0.5125
 2113TP3     H118158   3.850   4.823   8.021 -0.9340  0.1353  2.4735
 2113TP3     H218159   3.702   4.832   7.993 -0.7165 -1.1861  0.8250
 2114TP3      O18160   1.277   4.388   1.105  0.4397 -0.0191 -0.4612
 2114TP3     H118161   1.262   4.327   1.177  0.8171  0.4790  0.0384
 2114TP3     H218162   1.366   4.420   1.118 -0.9685  3.4076  1.4066
 2115TP3      O18163   1.188   0.543   2.561  0.6134 -0.1963  0.2426
 2115TP3     H118164   1.238   0.594   2.624  1.0669 -0.6019  0.2214
 2115TP3     H218165   1.254   0.514   2.497  0.0654  0.7190 -0.7517
 2116TP3      O18166   3.931   0.935   1.738 -0.5255 -0.1939  0.0363
 2116TP3     H118167   3.866   0.957   1.805 -0.5929  0.0109 -0.0994
 2116TP3     H218168   3.898   0.854   1.699 -0.6386 -0.1542  0.0489
 2117TP3      O18169   0.290   5.423   0.711  0.0070 -0.1558  0.0917
 2117TP3     H118170   0.368   5.447   0.660  0.8799 -1.5260  0.7404
 2117TP3     H218171   0.245   5.360   0.656  0.6896 -1.2621  0.7811
 2118TP3      O18172   0.974   2.258   7.905 -0.1681  0.3744  0.0236
 2118TP3     H118173   0.880   2.243   7.902 -0.7130  3.2449  1.0057
 2118TP3     H218174   1.001   2.258   7.813 -1.4104  1.1037 -0.3505
 2119TP3      O18175   4.427   1.927   9.942  0.6772 -0.0117  0.3028
 2119TP3     H118176   4.335   1.903   9.952  0.4622 -0.4840 -2.4397
 2119TP3     H218177   4.424   2.016   9.905  1.2816 -0.5012 -0.9442
 2120TP3      O18178   0.853   5.090   9.188 -0.0489 -0.1466  0.1878
 2120TP3     H118179   0.888   5.164   9.138 -1.6392 -0.5529 -1.5705
 2120TP3     H218180   0.923   5.024   9.185  1.0037  0.8901  0.9900
 2121TP3      O18181   5.470   2.628   1.432  0.5603 -0.2455  0.3183
 2121TP3     H118182   5.476   2.553   1.492  0.6858 -0.4108  0.1000
 2121TP3     H218183   5.414   2.597   1.361  0.1965  0.0403  0.4804
 2122TP3      O18184   0.639   2.400   7.961  0.1466  0.4745 -0.1169
 2122TP3     H118185   0.566   2.460   7.977  0.1477  0.6662 -0.8065
 2122TP3     H218186   0.712   2.457   7.935  0.9523  0.4048  1.9102
 2123TP3      O18187   0.334   2.164   0.753  0.3315 -0.0734 -0.2152
 2123TP3     H118188   0.309   2.145   0.843 -0.3212  1.1123 -0.1445
 2123TP3     H218189   0.428   2.147   0.750 -0.4184 -4.8967 -0.5620
 2124TP3      O18190   3.070   3.249   9.737  0.0313 -0.4246  0.3005
 2124TP3     H118191   2.991   3.195   9.733  0.2026 -0.6204 -0.4461
 2124TP3     H218192   3.142   3.188   9.719  0.0741  0.4038 -2.6478
 2125TP3      O18193   1.099   2.183   9.535 -0.1004 -0.0502 -0.2622
 2125TP3     H118194   1.107   2.125   9.610 -1.1841  0.2990  0.1362
 2125TP3     H218195   1.016   2.157   9.494 -0.0098  0.4303 -0.7525
 2126TP3      O18196   2.651   0.967   8.321  0.0117 -0.0581  0.0953
 2126TP3     H118197   2.654   0.996   8.413  1.2259 -0.7962  0.3055
 2126TP3     H218198   2.561   0.936   8.308 -0.6623  1.6878  0.5166
 2127TP3      O18199   4.071   5.319   0.681  0.3967 -0.5435  0.3299
 2127TP3     H118200   4.095   5.296   0.591  0.0521 -0.0083  0.1046
 2127TP3     H218201   4.091   5.412   0.688 -1.1990 -0.2004  0.2878
 2128TP3      O18202   2.683   2.263   7.564 -0.0061 -0.0110 -0.0259
 2128TP3     H118203   2.596   2.276   7.602 -0.1569 -1.7046  0.2723
 2128TP3     H218204   2.671   2.194   7.499  1.5761 -2.1452  1.8585
 2129TP3      O18205   3.091   0.590   2.188  0.0495 -0.0381  0.0040
 2129TP3     H118206   3.157   0.656   2.208  0.5611 -0.6426  0.3469
 2129TP3     H218207   3.140   0.508   2.182 -0.8494 -0.7306  1.6309
 2130TP3      O18208   0.812   2.816   2.062 -0.5242 -0.3558  0.2685
 2130TP3     H118209   0.881   2.879   2.083 -1.4075  0.9412 -0.6083
 2130TP3     H218210   0.741   2.870   2.027 -1.1297 -1.8952 -0.9367
 2131TP3      O18211   0.797   3.368   0.836  0.0190 -0.2089 -0.2046
 2131TP3     H118212   0.769   3.335   0.750  0.2892  0.5698 -0.6026
 2131TP3     H218213   0.882   3.409   0.818  2.1733 -3.7830  1.2323
 2132TP3      O18214   1.409   2.262   2.168 -0.5015 -0.2603 -0.3138
 2132TP3     H118215   1.330   2.307   2.136  1.1231  1.5337 -1.9261
 2132TP3     H218216   1.427   2.303   2.252  0.1177  1.1183 -1.0969
 2133TP3      O18217   2.017   1.393   8.049  0.2364  0.1339  0.4264
 2133TP3     H118218   1.958   1.389   8.124  0.3756 -0.5160  0.5080
 2133TP3     H218219   1.972   1.447   7.985 -0.7179 -0.8301  0.2640
 2134TP3      O18220   3.342   2.223   0.049 -0.2967 -0.5256  0.1815
 2134TP3     H118221   3.367   2.308   0.012 -0.4417 -0.4534  0.2493
 2134TP3     H218222   3.250   2.212   0.024 -0.2037 -0.7838 -0.0506
 2135TP3      O18223   2.194   2.080   9.326  0.2662 -0.0681 -0.2534
 2135TP3     H118224   2.187   2.060   9.419 -0.1352  0.3042 -0.1974
 2135TP3     H218225   2.131   2.151   9.312 -0.2083 -0.6079 -0.9496
 2136TP3      O18226   2.986   4.350   8.675  0.2318  0.2633  0.1737
 2136TP3     H118227   2.925   4.412   8.636  2.2538  0.6687 -2.5059
 2136TP3     H218228   2.931   4.292   8.728 -2.0181  2.6520  0.5598
 2137TP3      O18229   0.434   3.713   8.873  0.6197 -0.4372 -0.2135
 2137TP3     H118230   0.434   3.765   8.792 -0.8524 -1.5545 -0.9567
 2137TP3     H218231   0.490   3.638   8.853 -1.6861 -1.9695 -1.0546
 2138TP3      O18232   4.097   2.545   8.087  0.1629  0.3669 -0.1120
 2138TP3     H118233   4.158   2.517   8.019 -0.1978  0.5999 -0.5362
 2138TP3     H218234   4.040   2.608   8.043 -0.7854 -0.3229  0.1151
 2139TP3      O18235   5.288   0.505   0.444  0.0520 -0.0927 -0.0387
 2139TP3     H118236   5.329   0.550   0.518 -0.2178  1.2710 -0.6952
 2139TP3     H218237   5.207   0.554   0.429  0.3459 -0.0374 -1.5466
 2140TP3      O18238   1.783   0.331   1.038  0.4081  0.2039  0.8181
 2140TP3     H118239   1.819   0.308   0.953  1.9170  0.7300  1.2921
 2140TP3     H218240   1.855   0.316   1.100 -0.0897  1.5060  1.7573
 2141TP3      O18241   0.967   1.499   0.205 -0.3679  0.7000 -0.0306
 2141TP3     H118242   0.917   1.419   0.219  0.8671 -0.1100 -0.1288
 2141TP3     H218243   0.997   1.524   0.292  0.7674  0.0193 -0.2054
 2142TP3      O18244   0.777   2.226   8.282 -0.0864  0.6773  0.8066
 2142TP3     H118245   0.823   2.299   8.241 -0.4897  1.6431  2.0489
 2142TP3     H218246   0.780   2.245   8.376 -3.2296  0.9070  0.9199
 2143TP3      O18247   2.103   3.260   9.644 -0.3422 -0.6671 -0.0065
 2143TP3     H118248   2.066   3.201   9.710 -0.8296 -1.3781 -0.9149
 2143TP3     H218249   2.119   3.204   9.568 -0.0176  0.2106 -0.5855
 2144TP3      O18250   0.718   1.832   1.630 -0.2702 -0.1455 -0.0638
 2144TP3     H118251   0.643   1.825   1.572  0.5956  1.2639 -1.3759
 2144TP3     H218252   0.791   1.854   1.573  0.7326  0.6020  1.4733
 2145TP3      O18253   0.343   1.081   1.163  0.4197 -0.4413 -0.1181
 2145TP3     H118254   0.415   1.129   1.122  0.5383 -0.6653 -0.1729
 2145TP3     H218255   0.325   1.008   1.103  0.4063 -0.6084  0.0870
 2146TP3      O18256   1.465   2.853   9.118 -0.0793 -0.1772 -0.4754
 2146TP3     H118257   1.442   2.937   9.078 -1.1170 -0.7367 -1.0829
 2146TP3     H218258   1.470   2.792   9.045 -0.4346 -0.8773  0.0695
 2147TP3      O18259   1.591   3.083   1.200 -0.0097 -0.2064 -0.1995
 2147TP3     H118260   1.670   3.032   1.218 -0.8152 -0.8567  1.5718
 2147TP3     H218261   1.537   3.073   1.278 -1.2277  1.4257 -0.7896
 2148TP3      O18262   2.445   0.584   1.594 -0.1966  0.1887  0.3472
 2148TP3     H118263   2.422   0.492   1.607 -0.3643  0.0390 -0.9663
 2148TP3     H218264   2.428   0.624   1.679  0.7009 -1.1532  1.1754
 2149TP3      O18265   0.477   1.318   1.133  0.0672  0.2578  0.4789
 2149TP3     H118266   0.405   1.378   1.115 -1.5595 -1.1785  1.9893
 2149TP3     H218267   0.532   1.365   1.196 -0.3053  0.8148  0.3970
 2150TP3      O18268   5.345   4.266   9.253 -0.1547 -0.5730 -0.4751
 2150TP3     H118269   5.348   4.171   9.251 -1.7196 -0.6182 -1.1366
 2150TP3     H218270   5.253   4.288   9.241 -0.0166  1.0079  1.1781
 2151TP3      O18271   0.465   1.379   9.109  0.0775  0.1947 -0.0898
 2151TP3     H118272   0.472   1.305   9.169  2.1541  0.1769 -0.3099
 2151TP3     H218273   0.436   1.339   9.027  1.2077 -0.4146 -0.2146
 2152TP3      O18274   1.767   4.563   7.072 -0.2952  0.5385 -0.1903
 2152TP3     H118275   1.695   4.547   7.132  0.2682 -1.0046  0.0884
 2152TP3     H218276   1.845   4.530   7.117  0.6852  2.6182 -0.2768
 2153TP3      O18277   2.710   2.487   0.563 -0.2047 -0.1545  0.0193
 2153TP3     H118278   2.625   2.444   0.550 -0.1112 -0.1841 -0.5259
 2153TP3     H218279   2.688   2.575   0.591 -0.4376  0.1422 -1.0686
 2154TP3      O18280   1.229   2.868   0.704  0.3466 -0.0060  0.0568
 2154TP3     H118281   1.296   2.935   0.715  0.6642 -0.3418  0.1969
 2154TP3     H218282   1.248   2.804   0.773 -0.1671 -0.0601  0.1488
 2155TP3      O18283   0.619   3.830   1.347  0.0626  0.3449 -0.3182
 2155TP3     H118284   0.536   3.794   1.377  0.5586 -0.1356  0.4811
 2155TP3     H218285   0.623   3.809   1.253 -0.4407 -0.1473 -0.2260
 2156TP3      O18286   0.362   0.494   7.692  0.2036  0.0144 -0.0272
 2156TP3     H118287   0.407   0.411   7.677 -0.2640 -0.5841  1.8147
 2156TP3     H218288   0.272   0.470   7.711 -0.2203  1.0301 -0.6984
 2157TP3      O18289   1.488   0.142   0.534 -0.3128 -0.1147  0.1516
 2157TP3     H118290   1.417   0.120   0.474  0.2116 -1.1364 -0.0895
 2157TP3     H218291   1.467   0.094   0.615 -0.7374  0.8414  0.6240
 2158TP3      O18292   0.737   0.425   8.696  0.7677  0.4976 -0.1596
 2158TP3     H118293   0.700   0.425   8.608  1.0289  1.7547 -0.2776
 2158TP3     H218294   0.664   0.448   8.753  0.4515 -0.9178  0.0353
 2159TP3      O18295   2.504   2.254   2.077 -0.4768 -0.5453 -0.0342
 2159TP3     H118296   2.436   2.190   2.058 -0.8018 -0.0507 -0.5684
 2159TP3     H218297   2.525   2.291   1.991 -1.5797  1.3626  0.5056
 2160TP3      O18298   1.951   1.255   2.177  0.5504  0.0269  0.4259
 2160TP3     H118299   1.866   1.298   2.183  0.5220  0.1413 -0.6166
 2160TP3     H218300   2.003   1.294   2.247  0.5670  1.8788 -0.5778
 2161TP3      O18301   0.887   0.570  10.162  0.1529 -0.2805 -0.0599
 2161TP3     H118302   0.848   0.525  10.086 -0.2154  1.2860 -0.8155
 2161TP3     H218303   0.981   0.559  10.150  0.0621 -1.1399 -0.0535
 2162TP3      O18304   4.528   2.031   9.378  0.3408  0.2501  0.0281
 2162TP3     H118305   4.555   2.028   9.469 -1.1614 -0.0668  0.4677
 2162TP3     H218306   4.599   1.988   9.330  0.0936 -1.5988  1.2891
 2163TP3      O18307   5.185   0.214   1.679 -0.8578  0.4440 -0.1476
 2163TP3     H118308   5.201   0.136   1.626  1.1830  0.9315 -0.3141
 2163TP3     H218309   5.269   0.229   1.723 -1.3067  2.3916  0.0648
 2164TP3      O18310   1.685   2.450   9.582  0.3719  0.6053 -0.1265
 2164TP3     H118311   1.693   2.542   9.557  1.3488  0.5325 -0.0969
 2164TP3     H218312   1.692   2.403   9.499  0.1170  0.5452 -0.1128
 2165TP3      O18313   0.173   3.828   8.287  0.2757 -0.1884 -0.2065
 2165TP3     H118314   0.110   3.779   8.339 -0.6770  1.8957  0.6390
 2165TP3     H218315   0.123   3.859   8.211  0.6977  0.0647 -0.3856
 2166TP3      O18316   1.148   2.091  10.079  0.3839  0.3398 -0.1060
 2166TP3     H118317   1.216   2.128  10.022  0.9155 -0.4145  0.0166
 2166TP3     H218318   1.068   2.094  10.026  1.0595 -1.2509 -1.2891
 2167TP3      O18319   1.151   5.267   0.945  0.3867 -0.0992 -0.0933
 2167TP3     H118320   1.070   5.311   0.920  0.0594  0.1503  1.3345
 2167TP3     H218321   1.123   5.182   0.978  0.6586  0.1223  0.7289
 2168TP3      O18322   5.349   5.496   8.913  0.0549  0.0039  0.6556
 2168TP3     H118323   5.273   5.437   8.920 -0.0472  0.1576  0.8593
 2168TP3     H218324   5.334   5.561   8.982  0.0782  0.3720  0.3096
 2169TP3      O18325   0.617   5.021   8.045 -0.2748  0.1056 -0.1960
 2169TP3     H118326   0.601   4.994   7.955  1.0106 -0.1375 -0.3650
 2169TP3     H218327   0.583   4.950   8.099 -0.4797 -0.0317 -0.5084
 2170TP3      O18328   4.144   1.944   9.989 -0.3535  0.6635 -0.0907
 2170TP3     H118329   4.064   1.935   9.938 -0.1505  1.8945 -0.6370
 2170TP3     H218330   4.125   1.902  10.072 -1.0667 -0.3679 -0.7667
 2171TP3      O18331   5.424   2.857   2.072  0.0674 -0.3110  0.1148
 2171TP3     H118332   5.362   2.918   2.114 -0.2669 -1.2898  1.0781
 2171TP3     H218333   5.499   2.854   2.131  0.7086  0.2759 -0.6632
 2172TP3      O18334   0.306   5.262   1.668 -0.4427 -0.2943 -0.4143
 2172TP3     H118335   0.358   5.336   1.699 -2.3256  0.5517  0.8385
 2172TP3     H218336   0.248   5.300   1.602 -0.0579 -1.0719 -1.2120
 2173TP3      O18337   1.905   1.071   0.184 -0.0889 -0.1859  0.6613
 2173TP3     H118338   1.834   1.128   0.153 -0.4522 -1.5012 -0.9683
 2173TP3     H218339   1.975   1.132   0.209 -0.5240  0.9826 -0.9258
 2174TP3      O18340   2.007   0.007   9.204  0.0210  0.3987  0.1101
 2174TP3     H118341   2.011   0.003   9.300  1.6369 -0.2516  0.0237
 2174TP3     H218342   2.038   0.095   9.183  0.8107  0.1235  0.1238
 2175TP3      O18343   3.169   4.787   8.576  0.2245  0.0232 -0.4799
 2175TP3     H118344   3.187   4.808   8.485 -1.1487 -1.0435 -1.0312
 2175TP3     H218345   3.119   4.861   8.609  0.1963  0.1378 -0.7824
 2176TP3      O18346   1.421   1.344   8.460 -0.3735  0.0149 -0.2357
 2176TP3     H118347   1.420   1.261   8.507  0.5619  0.8251  1.2600
 2176TP3     H218348   1.400   1.321   8.370 -0.7487 -1.7597  0.2901
 2177TP3      O18349   0.476   0.519   8.777  0.3746 -0.3771  0.7482
 2177TP3     H118350   0.452   0.557   8.692 -0.4750  2.0141  1.9938
 2177TP3     H218351   0.399   0.470   8.804 -0.5002  1.3573  1.4757
 2178TP3      O18352   2.475   0.846   9.273  0.0018 -0.3248  0.3819
 2178TP3     H118353   2.475   0.912   9.204 -0.1659  0.9958  1.6034
 2178TP3     H218354   2.399   0.792   9.255  0.0755 -0.1026 -0.5800
 2179TP3      O18355   0.780   1.415   8.309  0.0857  0.1014 -0.0803
 2179TP3     H118356   0.837   1.414   8.232  1.5199 -0.9885  0.9838
 2179TP3     H218357   0.723   1.339   8.298 -0.8835  0.9267 -0.9088
 2180TP3      O18358   1.683   5.148  10.275 -0.0735 -0.3880 -0.1098
 2180TP3     H118359   1.670   5.112  10.363 -1.2724  0.5866  0.1275
 2180TP3     H218360   1.718   5.236  10.290 -1.0017  0.0722 -0.5688
 2181TP3      O18361   0.928   1.287   1.200  0.2668  0.4522 -0.4376
 2181TP3     H118362   0.923   1.360   1.262  2.4134  0.1742  0.0906
 2181TP3     H218363   0.888   1.214   1.248  1.4591  0.3630  0.4351
 2182TP3      O18364   0.826   2.409   0.440 -0.0425  0.1580  0.1614
 2182TP3     H118365   0.756   2.399   0.375  0.1239  1.5002 -0.2386
 2182TP3     H218366   0.780   2.410   0.524 -0.2496 -1.6819  0.0845
 2183TP3      O18367   1.503   0.075   1.121 -0.0195 -0.4559  0.0685
 2183TP3     H118368   1.478  -0.016   1.135  1.7165 -0.9663 -0.1051
 2183TP3     H218369   1.519   0.110   1.209  1.9407 -1.0978 -0.0019
 2184TP3      O18370   1.705   0.958   2.255  0.0852 -0.1429 -0.2535
 2184TP3     H118371   1.650   0.996   2.186 -2.6085 -1.3426  1.1763
 2184TP3     H218372   1.684   1.010   2.332 -1.4821 -2.6065  1.0443
 2185TP3      O18373   3.968   1.099   2.019  0.4616  0.3571 -0.0942
 2185TP3     H118374   4.020   1.143   1.952 -0.7947 -0.8743 -1.9199
 2185TP3     H218375   3.901   1.164   2.043  0.7497  0.7048 -0.2295
 2186TP3      O18376   3.650   2.063   9.994  0.4394  0.5912  0.0939
 2186TP3     H118377   3.559   2.055   9.963 -0.1190  0.9055  1.5936
 2186TP3     H218378   3.642   2.102  10.081  1.9751 -0.1318  0.5736
 2187TP3      O18379   5.146   0.286   0.596  0.2370  0.6201  0.0179
 2187TP3     H118380   5.066   0.302   0.546 -0.9750 -0.5679  1.5373
 2187TP3     H218381   5.212   0.341   0.553 -0.8665 -0.0016 -2.5845
 2188TP3      O18382   1.164   0.572  10.127  0.0261 -0.4751 -0.0187
 2188TP3     H118383   1.144   0.579  10.034  0.5607 -0.4763 -0.1369
 2188TP3     H218384   1.235   0.635  10.141 -0.1029 -0.4211  0.4011
 2189TP3      O18385   0.080   4.355  10.149  0.7554 -0.3653 -0.2401
 2189TP3     H118386   0.006   4.321  10.099 -0.3920  1.6425  0.0219
 2189TP3     H218387   0.146   4.377  10.084 -0.4043  1.4556 -0.8366
 2190TP3      O18388   1.370   2.756   8.471 -0.4498  0.2180  0.0481
 2190TP3     H118389   1.326   2.686   8.519 -0.3515  1.0795  1.4598
 2190TP3     H218390   1.313   2.775   8.397 -2.8944  1.7864  2.2151
 2191TP3      O18391   0.372   1.533   9.859  0.4258 -0.5759  0.5365
 2191TP3     H118392   0.428   1.592   9.910 -1.0121  1.0602  0.2947
 2191TP3     H218393   0.398   1.547   9.768  1.4559 -1.8258  0.6307
 2192TP3      O18394   2.479   2.487   9.627  0.2803 -0.0747  0.3816
 2192TP3     H118395   2.394   2.507   9.587 -0.3797 -2.2152  0.6030
 2192TP3     H218396   2.486   2.548   9.700 -1.1993 -0.0520  0.5227
 2193TP3      O18397   0.473   4.532   0.525 -0.0399  0.1864  0.1760
 2193TP3     H118398   0.471   4.446   0.483 -2.3481  0.4257 -0.2892
 2193TP3     H218399   0.544   4.526   0.589 -1.2925 -2.6757  1.3674
 2194TP3      O18400   4.771   1.470   9.717 -0.2442 -0.4607  0.0339
 2194TP3     H118401   4.836   1.433   9.658  0.0147 -0.6798  0.4559
 2194TP3     H218402   4.817   1.540   9.762 -0.1144 -1.0359  0.8004
 2195TP3      O18403   2.886   2.024   1.937 -0.2554  0.2037  0.5021
 2195TP3     H118404   2.931   2.108   1.950 -1.4875  1.0417 -0.6295
 2195TP3     H218405   2.817   2.023   2.003 -0.6717  0.3902  0.0740
 2196TP3      O18406   4.969   2.501   0.831  0.5111  0.2248 -0.6026
 2196TP3     H118407   5.061   2.517   0.809  0.5508  0.4931 -0.2470
 2196TP3     H218408   4.935   2.586   0.859  0.0296  0.2178 -1.1594
 2197TP3      O18409   0.611   3.055  10.223  0.2063  0.4279 -0.0476
 2197TP3     H118410   0.672   3.107  10.275  0.2263  0.2547  0.1028
 2197TP3     H218411   0.602   3.104  10.141  1.0639  0.1259 -0.3388
 2198TP3      O18412   2.628   3.295   9.644  0.3675  0.6757 -0.0214
 2198TP3     H118413   2.650   3.257   9.729  2.1916  0.7605 -0.4180
 2198TP3     H218414   2.592   3.222   9.594  1.0378  0.1778  0.2145
 2199TP3      O18415   5.386   1.468   0.159  0.3663  0.2033  0.6661
 2199TP3     H118416   5.435   1.462   0.077  0.8427 -0.7132  0.9996
 2199TP3     H218417   5.295   1.451   0.135  0.5874 -0.6324  0.4071
 2200TP3      O18418   0.946   4.136   9.922  0.0050  0.2993  0.3451
 2200TP3     H118419   0.919   4.208   9.865  0.4341  0.1263 -0.0766
 2200TP3     H218420   0.909   4.058   9.880 -1.6373  0.4121  1.5354
 2201TP3      O18421   0.128   5.012   1.318  0.3810 -0.3188 -0.5524
 2201TP3     H118422   0.113   5.084   1.257  2.0717  0.5440  0.0251
 2201TP3     H218423   0.082   4.938   1.279 -0.7650  0.8688 -1.5239
 2202TP3      O18424   2.625   2.107   0.919  0.3431  0.0418 -0.2542
 2202TP3     H118425   2.666   2.048   0.855  0.3606 -0.7397  0.4734
 2202TP3     H218426   2.621   2.056   1.000 -1.5845  0.2842 -0.1678
 2203TP3      O18427   1.148   0.706   0.578  0.0722 -0.0578 -0.3228
 2203TP3     H118428   1.191   0.722   0.662  0.5833 -0.7361 -0.4510
 2203TP3     H218429   1.191   0.628   0.544 -1.2035 -0.7019 -0.4934
 2204TP3      O18430   2.980   1.381   9.241  0.1457  0.1713  0.0040
 2204TP3     H118431   2.897   1.398   9.285  0.2139  1.0092 -0.1985
 2204TP3     H218432   2.959   1.316   9.174 -0.1587 -0.3364  0.5877
 2205TP3      O18433   5.184   0.706   0.138 -0.4437  0.1348 -0.2254
 2205TP3     H118434   5.218   0.620   0.115 -1.9280 -0.2437 -1.0110
 2205TP3     H218435   5.165   0.700   0.232  1.9759  0.4787  0.3357
 2206TP3      O18436   5.065   2.468   0.117 -0.4637 -0.3574 -0.0056
 2206TP3     H118437   5.079   2.556   0.083 -1.1408  1.1937  3.5291
 2206TP3     H218438   5.154   2.432   0.127  0.0533  1.3156  1.8744
 2207TP3      O18439   5.494   1.180   1.913 -0.1613  0.0803  0.1109
 2207TP3     H118440   5.440   1.259   1.904  0.7279  0.5310 -1.5445
 2207TP3     H218441   5.435   1.115   1.950 -1.0754  1.3528  0.9310
 2208TP3      O18442   2.085   2.070   1.780 -0.5361  0.3747  0.1178
 2208TP3     H118443   2.044   2.146   1.819 -0.0129  0.1891  1.0407
 2208TP3     H218444   2.020   2.037   1.717 -1.5351  0.4555  1.0878
 2209TP3      O18445   2.473   0.659   9.769 -0.0322  0.0962  0.0341
 2209TP3     H118446   2.537   0.730   9.766 -0.5082  0.5649  0.9290
 2209TP3     H218447   2.455   0.646   9.862 -0.8411 -0.3884 -0.1849
 2210TP3      O18448   3.344   2.823   0.090 -0.0008  0.5379  0.2821
 2210TP3     H118449   3.281   2.773   0.038 -0.4227  1.8195 -0.4529
 2210TP3     H218450   3.429   2.788   0.064 -0.2473  0.7367 -0.8051
 2211TP3      O18451   1.156   0.595   7.640 -0.0225  0.5845  0.3721
 2211TP3     H118452   1.076   0.544   7.629  1.1241 -0.8402 -1.8740
 2211TP3     H218453   1.144   0.670   7.582  0.7437 -0.3053 -0.9928
 2212TP3      O18454   0.629   2.137   0.766 -0.2612  0.1749 -0.4965
 2212TP3     H118455   0.639   2.189   0.846 -1.0678 -0.1442 -0.1766
 2212TP3     H218456   0.662   2.051   0.789 -0.6537  0.0355 -0.4550
 2213TP3      O18457   0.790   0.702   0.054 -0.0692  0.0927 -0.8409
 2213TP3     H118458   0.807   0.631  -0.007 -0.4485  0.3202 -1.2147
 2213TP3     H218459   0.872   0.751   0.057 -0.2364  0.4306 -1.6339
 2214TP3      O18460   0.568   0.397   2.736 -1.0444 -0.6437 -0.1676
 2214TP3     H118461   0.478   0.408   2.768 -1.7847  0.3144 -2.4499
 2214TP3     H218462   0.623   0.427   2.808 -2.6093  0.3466  0.6463
 2215TP3      O18463   1.338   0.737   9.468  0.4341 -0.1542 -0.2555
 2215TP3     H118464   1.367   0.706   9.554  1.0086  0.2646 -0.2986
 2215TP3     H218465   1.257   0.784   9.486  1.0422  0.7365  0.1860
 2216TP3      O18466   1.686   0.522   9.346 -0.0785 -0.2993 -0.6217
 2216TP3     H118467   1.692   0.428   9.363  0.4733  0.0020  0.8752
 2216TP3     H218468   1.593   0.537   9.330 -0.1547 -1.1149 -0.9735
 2217TP3      O18469   0.360   4.810   8.503 -0.3897  0.1918  0.5154
 2217TP3     H118470   0.447   4.797   8.540 -0.5805 -1.0070  0.5514
 2217TP3     H218471   0.304   4.827   8.579 -0.1921  0.9344  0.4954
 2218TP3      O18472   5.118   4.937   9.526  0.7342  0.0065 -0.0921
 2218TP3     H118473   5.075   4.852   9.516  3.6923 -1.4739 -0.9150
 2218TP3     H218474   5.179   4.941   9.453  1.5467  2.2892  0.6802
 2219TP3      O18475   5.470   5.236   7.863  0.0645  0.2368 -0.5183
 2219TP3     H118476   5.439   5.197   7.944  0.5931 -0.6448 -0.7335
 2219TP3     H218477   5.390   5.253   7.813 -0.2784  1.0000  0.2712
 2220TP3      O18478   2.481   1.785   0.358 -0.2055 -0.4444  0.3007
 2220TP3     H118479   2.554   1.846   0.349 -0.2107 -0.4649  0.1145
 2220TP3     H218480   2.456   1.764   0.267 -1.0194  0.2512  0.3624
 2221TP3      O18481   0.249   1.433   9.563  0.3260 -0.0102 -0.6010
 2221TP3     H118482   0.176   1.491   9.540 -0.2073  0.0452  1.1637
 2221TP3     H218483   0.309   1.489   9.612  0.2466 -0.7313  0.3219
 2222TP3      O18484   3.206   2.390   1.187  0.5957  0.0935 -0.5976
 2222TP3     H118485   3.238   2.444   1.260  0.8836 -1.4882  0.4747
 2222TP3     H218486   3.139   2.444   1.145  0.8431  1.2644  0.4721
 2223TP3      O18487   1.352   1.543   0.225 -0.0767  0.6171 -0.2136
 2223TP3     H118488   1.443   1.574   0.229 -0.5579  2.0217  0.3450
 2223TP3     H218489   1.301   1.614   0.264 -1.4266 -0.1443 -0.5511
 2224TP3      O18490   4.669   1.594   0.312 -0.2708 -0.4269  0.6777
 2224TP3     H118491   4.747   1.541   0.295 -0.0702  0.5065 -1.4490
 2224TP3     H218492   4.674   1.614   0.406  2.7429  0.6807  0.3467
 2225TP3      O18493   0.580   0.365   1.862  0.3340 -0.3578  0.3961
 2225TP3     H118494   0.599   0.284   1.815  0.2793  0.4082 -0.9594
 2225TP3     H218495   0.662   0.385   1.907  1.3192  0.4093 -1.6594
 2226TP3      O18496   5.440   2.277   1.117  0.3636 -0.1878  0.1098
 2226TP3     H118497   5.428   2.183   1.099 -1.2513 -0.0505  0.3452
 2226TP3     H218498   5.472   2.280   1.207 -1.2970 -0.4621  0.7348
 2227TP3      O18499   4.388   1.360   8.569  0.3850 -0.3007  0.0385
 2227TP3     H118500   4.297   1.369   8.597 -0.1025  0.7009 -1.7740
 2227TP3     H218501   4.399   1.428   8.502  2.7501  0.2148  0.9310
 2228TP3      O18502   1.582   0.952   0.456 -0.0181 -0.5524  0.0304
 2228TP3     H118503   1.654   0.890   0.447 -0.2751 -1.2419  2.2658
 2228TP3     H218504   1.539   0.926   0.538 -0.6142  2.0765  0.5986
 2229TP3      O18505   2.039   4.733   0.667  0.4754 -0.0869 -0.5745
 2229TP3     H118506   1.971   4.745   0.733  0.6038  0.4784 -0.5383
 2229TP3     H218507   2.014   4.654   0.620  0.6672 -0.8077  0.5016
 2230TP3      O18508   0.738   0.099   1.326  0.0364 -0.4588  0.0977
 2230TP3     H118509   0.767   0.190   1.318  2.0648 -0.9949  0.9076
 2230TP3     H218510   0.817   0.052   1.351 -1.5539 -2.0421  2.2523
 2231TP3      O18511   0.733   3.158   9.534 -0.2224  0.1129 -0.1077
 2231TP3     H118512   0.703   3.152   9.625  3.4864 -0.0747  1.1772
 2231TP3     H218513   0.750   3.067   9.509 -0.2479  0.2590 -0.6520
 2232TP3      O18514   4.463   4.659   8.421  0.0547 -0.1541  0.4852
 2232TP3     H118515   4.532   4.599   8.394  0.7454  1.2136 -0.8492
 2232TP3     H218516   4.491   4.745   8.389 -0.9743  0.8764  2.2427
 2233TP3      O18517   1.139   0.621   9.840 -0.0463  0.0762  0.1611
 2233TP3     H118518   1.059   0.571   9.853 -0.1499 -0.3169 -1.8507
 2233TP3     H218519   1.110   0.702   9.798  0.4406  0.6686  0.9391
 2234TP3      O18520   0.431   0.627   0.788 -0.2042 -0.6405  0.2050
 2234TP3     H118521   0.359   0.678   0.751  0.2886  0.2013  0.3982
 2234TP3     H218522   0.432   0.651   0.881  0.1977 -0.8049  0.2453
 2235TP3      O18523   2.018   3.961  10.081 -0.0991 -0.4647  0.5841
 2235TP3     H118524   1.989   4.033  10.137  0.3513 -0.4146  0.7559
 2235TP3     H218525   1.980   3.882  10.120  0.0767 -0.4105  0.8581
 2236TP3      O18526   4.554   0.215   8.618  0.1865  0.0250  0.0532
 2236TP3     H118527   4.511   0.277   8.677  0.0201  1.2189 -1.2713
 2236TP3     H218528   4.496   0.209   8.542  1.0441 -0.4094 -0.5897
 2237TP3      O18529   2.997   0.281   2.305 -0.0304  0.0100  0.3902
 2237TP3     H118530   2.943   0.350   2.267  0.9608  0.4623 -0.2305
 2237TP3     H218531   3.008   0.218   2.233 -0.1032 -0.2959  0.6475
 2238TP3      O18532   4.880   1.776   1.203  0.0620  0.3067  0.3906
 2238TP3     H118533   4.886   1.726   1.121 -2.6733 -1.7643  1.4018
 2238TP3     H218534   4.811   1.840   1.186 -0.0874  0.2733  0.8736
 2239TP3      O18535   1.929   1.909   2.325  0.0031 -0.2763 -0.0606
 2239TP3     H118536   2.003   1.970   2.329  0.3091 -0.6327 -0.3130
 2239TP3     H218537   1.870   1.940   2.394  0.4222 -0.0396  0.1957
 2240TP3      O18538   2.528   2.258   9.793 -0.1409  0.2692  0.2566
 2240TP3     H118539   2.530   2.166   9.767 -0.4454 -0.3410  2.3660
 2240TP3     H218540   2.524   2.306   9.710  0.3875 -1.5935 -0.8710
 2241TP3      O18541   0.981   3.116   0.943  0.3481 -0.8657 -0.0714
 2241TP3     H118542   1.032   3.129   0.863 -0.2706  0.0390 -0.3354
 2241TP3     H218543   0.960   3.205   0.972 -2.4800 -1.2476 -0.8796
 2242TP3      O18544   2.220   0.590   7.940 -0.0790  0.3687  0.0314
 2242TP3     H118545   2.156   0.660   7.925  1.3555  1.4339 -1.2752
 2242TP3     H218546   2.229   0.547   7.855 -2.0360 -2.4111  1.1455
 2243TP3      O18547   1.457   3.963   0.649 -0.1214 -0.3266  0.1530
 2243TP3     H118548   1.392   3.979   0.718 -0.2421 -0.4828  0.0763
 2243TP3     H218549   1.525   4.029   0.664 -0.4454  0.0378  0.0480
 2244TP3      O18550   2.377   0.297   2.222 -0.4077  0.6499  0.0313
 2244TP3     H118551   2.409   0.207   2.225 -3.9124 -0.6747  2.6703
 2244TP3     H218552   2.422   0.341   2.295  0.0756  0.5472 -0.2090
 2245TP3      O18553   1.942   2.528   9.615 -0.3733  0.3790  0.5781
 2245TP3     H118554   1.857   2.486   9.601  1.0293 -2.0413 -1.1219
 2245TP3     H218555   1.948   2.594   9.547 -0.5764  0.0163  0.2049
 2246TP3      O18556   2.979   1.991   9.361  0.1983 -0.6372  0.5787
 2246TP3     H118557   3.058   1.956   9.401  1.2510  2.5417  1.4221
 2246TP3     H218558   2.965   2.075   9.404 -1.6847  0.4609 -1.9996
 2247TP3      O18559   3.848   5.276   0.850  0.3078  0.0712 -0.1267
 2247TP3     H118560   3.787   5.205   0.833  1.9733 -1.4898  0.2413
 2247TP3     H218561   3.919   5.262   0.787  0.1097  2.1241 -0.8639
 2248TP3      O18562   0.875   0.897   9.287  0.3499 -0.3536  0.4093
 2248TP3     H118563   0.809   0.898   9.357  0.7855 -1.1396  0.8449
 2248TP3     H218564   0.858   0.977   9.237 -0.6105 -0.2908  0.8135
 2249TP3      O18565   4.790   1.964   9.221 -0.7578 -0.2065 -0.3854
 2249TP3     H118566   4.834   2.010   9.292 -1.5718  0.5184 -0.3431
 2249TP3     H218567   4.829   1.999   9.141 -0.9807  0.1519 -0.3374
 2250TP3      O18568   5.380   3.122   1.354 -0.2656 -0.6447  0.0557
 2250TP3     H118569   5.286   3.137   1.351  0.0086  1.2847  0.2015
 2250TP3     H218570   5.411   3.145   1.266  0.1518 -0.6624  0.1952
 2251TP3      O18571   0.703   0.967   9.460 -0.3437 -0.1590 -0.0048
 2251TP3     H118572   0.668   1.049   9.495  1.9507  0.3567  1.1674
 2251TP3     H218573   0.716   0.912   9.537  1.4991 -0.2930 -0.3913
 2252TP3      O18574   1.433   1.649   9.652  0.5644 -0.0630  0.2847
 2252TP3     H118575   1.350   1.673   9.611  0.5384  2.2871  1.6071
 2252TP3     H218576   1.408   1.607   9.734  0.6457  1.1481  0.9506
 2253TP3      O18577   0.607   1.213   9.533 -0.2113  0.0852 -0.5468
 2253TP3     H118578   0.516   1.187   9.544 -0.2021 -0.0220 -0.7259
 2253TP3     H218579   0.625   1.270   9.608 -0.5050  0.3255 -0.6592
 2254TP3      O18580   0.305   0.366   9.225  0.4952  0.4106 -0.1565
 2254TP3     H118581   0.245   0.411   9.285  1.4446  0.3687  0.8419
 2254TP3     H218582   0.322   0.282   9.267  0.8074  0.1901 -0.7241
 2255TP3      O18583   2.991   5.036   9.745 -0.2231 -0.1415 -0.4693
 2255TP3     H118584   3.078   5.066   9.771 -0.1787 -0.9008  0.2415
 2255TP3     H218585   3.007   4.962   9.686 -0.4111 -2.0363  1.7797
 2256TP3      O18586   2.069   0.690   2.042 -0.4501 -0.0690  0.4868
 2256TP3     H118587   2.064   0.764   2.104 -0.3634  1.6657 -1.5243
 2256TP3     H218588   1.977   0.663   2.032 -0.7471  1.2166 -0.4396
 2257TP3      O18589   1.176   1.086   8.471 -0.5164 -0.2893 -0.3861
 2257TP3     H118590   1.141   0.998   8.453 -0.1759 -0.3134 -0.9638
 2257TP3     H218591   1.128   1.143   8.411 -0.1189 -0.2102 -0.6303
 2258TP3      O18592   3.678   4.946   8.415 -0.4715 -0.1681  0.0470
 2258TP3     H118593   3.637   4.979   8.335 -1.7431 -0.1761  0.6773
 2258TP3     H218594   3.757   4.901   8.385  0.3680  1.9075 -0.9766
 2259TP3      O18595   2.086   2.015   8.456  0.0545 -0.2493  0.0394
 2259TP3     H118596   2.168   1.966   8.459  0.4907  0.5124  0.7509
 2259TP3     H218597   2.103   2.093   8.509 -0.7129  0.5427 -0.8646
 2260TP3      O18598   2.006   0.635   0.763  0.4014 -0.0721  0.8336
 2260TP3     H118599   1.963   0.718   0.743  1.5763  0.5126  0.6836
 2260TP3     H218600   1.984   0.578   0.690 -0.8142 -0.0443  1.1749
 2261TP3      O18601   5.263   0.165   9.081 -0.1904  0.2440  0.2863
 2261TP3     H118602   5.329   0.214   9.032 -0.8611 -1.6041 -2.6115
 2261TP3     H218603   5.191   0.227   9.092  0.6078  1.1786  0.4082
 2262TP3      O18604   0.982   1.276   8.934 -0.3777  0.1354  0.4796
 2262TP3     H118605   0.977   1.254   8.841  0.6347 -2.0533  0.9247
 2262TP3     H218606   0.947   1.199   8.979  2.5539 -0.3530  2.0409
 2263TP3      O18607   1.129   1.060   0.882  0.8837  0.0478  0.3723
 2263TP3     H118608   1.203   1.033   0.827 -0.9337 -1.7946 -1.2269
 2263TP3     H218609   1.112   0.984   0.937 -0.7765 -0.0958 -0.3203
 2264TP3      O18610   4.807   0.071   0.037  0.9453  0.4214 -0.2989
 2264TP3     H118611   4.758   0.065   0.119  2.0051  0.4557  0.3481
 2264TP3     H218612   4.829   0.164   0.029  1.1177  0.3675 -0.4511
 2265TP3      O18613   4.454   1.381   2.348 -0.2802 -0.0580 -0.4413
 2265TP3     H118614   4.374   1.347   2.387 -1.1275  1.0445 -1.1841
 2265TP3     H218615   4.426   1.460   2.302  1.3455  0.6828 -0.1851
 2266TP3      O18616   0.629   2.472   9.850  0.3297  0.1420 -0.1138
 2266TP3     H118617   0.635   2.560   9.887 -0.4224 -0.3776  1.2815
 2266TP3     H218618   0.719   2.449   9.828  0.7118  0.7173  0.8152
 2267TP3      O18619   4.612   3.356   9.946  0.3171  0.5617  0.1907
 2267TP3     H118620   4.584   3.415   9.875  0.7675  1.6995  0.9337
 2267TP3     H218621   4.683   3.305   9.907 -2.5236 -2.1573 -1.6217
 2268TP3      O18622   1.968   0.674   1.057 -0.9096 -0.3972  0.5606
 2268TP3     H118623   1.965   0.667   0.961 -0.3395  0.1899  0.4913
 2268TP3     H218624   2.061   0.670   1.078 -1.0743 -1.1533  1.1464
 2269TP3      O18625   0.539   1.859   0.496  0.2577  0.5151  0.2487
 2269TP3     H118626   0.574   1.880   0.410 -0.0903  1.0351  0.2345
 2269TP3     H218627   0.580   1.776   0.519  0.6349  0.5619 -0.2580
 2270TP3      O18628   5.103   3.825   1.559  0.0998 -0.4533  0.2488
 2270TP3     H118629   5.102   3.791   1.470  2.5203  0.1624 -0.0733
 2270TP3     H218630   5.035   3.892   1.560  2.0477  1.6729 -2.0967
 2271TP3      O18631   0.305   0.874   1.795  0.2036  0.2262  0.3453
 2271TP3     H118632   0.336   0.788   1.767 -0.0798  0.3403 -0.3392
 2271TP3     H218633   0.384   0.926   1.807  0.4071 -0.2869  1.3007
 2272TP3      O18634   5.447   1.424   9.287  0.2527  0.3261 -0.0461
 2272TP3     H118635   5.541   1.417   9.269  0.1998 -0.2700 -0.1042
 2272TP3     H218636   5.405   1.384   9.211 -0.0851  1.6964 -0.5979
 2273TP3      O18637   1.010   4.724   2.252  0.1125 -0.2658 -0.8332
 2273TP3     H118638   0.918   4.736   2.276  0.8813  0.7258  1.8689
 2273TP3     H218639   1.045   4.813   2.246  1.3186 -0.6567  0.0669
 2274TP3      O18640   1.168   2.243   1.697  0.3405  0.2247  0.1784
 2274TP3     H118641   1.176   2.180   1.769 -2.2748 -1.4596 -0.9123
 2274TP3     H218642   1.107   2.309   1.730 -1.5398 -1.0040 -0.7109
 2275TP3      O18643   0.008   1.522  10.202 -0.2841 -0.4789 -0.7961
 2275TP3     H118644   0.062   1.443  10.201 -1.3424 -1.2106 -1.1134
 2275TP3     H218645   0.016   1.557  10.113  0.0610 -0.3216 -0.7024
 2276TP3      O18646   5.193   0.905  10.176 -0.4677 -0.5585 -0.2743
 2276TP3     H118647   5.166   0.813  10.177 -1.2543 -0.3287 -0.5393
 2276TP3     H218648   5.164   0.940  10.260 -1.2738 -0.2342 -0.6825
 2277TP3      O18649   4.831   0.106   7.710  0.2827  0.0020 -0.0618
 2277TP3     H118650   4.925   0.094   7.727  0.6121 -0.3837 -2.0783
 2277TP3     H218651   4.790   0.029   7.749  1.0671 -1.0904 -1.3685
 2278TP3      O18652   2.398   5.411   2.323 -0.0964  0.0306  0.8520
 2278TP3     H118653   2.463   5.354   2.282 -0.6388 -1.0708  1.4914
 2278TP3     H218654   2.450   5.475   2.372  0.5214  0.3945 -0.2723
 2279TP3      O18655   1.199   5.296   0.045 -0.2412 -0.5579 -0.3827
 2279TP3     H118656   1.170   5.206   0.032 -0.9413 -0.5325  0.8951
 2279TP3     H218657   1.168   5.318   0.133 -0.2149  0.9802 -0.7544
 2280TP3      O18658   0.480   0.002   9.015 -0.1393 -0.0453 -0.0219
 2280TP3     H118659   0.397   0.019   8.970  0.0234 -2.1266 -1.2170
 2280TP3     H218660   0.477   0.057   9.094 -0.7968  3.0485 -2.1268
 2281TP3      O18661   0.091   0.495   9.317  0.2118  0.3594 -0.3980
 2281TP3     H118662   0.018   0.442   9.350 -0.4924  1.0599 -0.7969
 2281TP3     H218663   0.065   0.517   9.227  0.7709  0.8906 -0.4339
 2282TP3      O18664   0.147   0.780   9.139  0.1038  0.6709  0.0696
 2282TP3     H118665   0.208   0.727   9.188  2.3681  2.1022 -1.1113
 2282TP3     H218666   0.074   0.722   9.119 -0.3741 -0.2294  4.1145
 2283TP3      O18667   1.015   4.697   1.095 -0.0787  0.5391  0.0927
 2283TP3     H118668   0.934   4.649   1.075  0.7587 -1.1140  0.5138
 2283TP3     H218669   1.020   4.696   1.190  0.6239  0.2757  0.0606
 2284TP3      O18670   2.595   0.854   1.329 -0.1905 -0.4238 -0.2555
 2284TP3     H118671   2.557   0.772   1.298 -0.2731 -0.9426  1.1567
 2284TP3     H218672   2.529   0.921   1.308  0.2990 -0.5617 -2.2733
 2285TP3      O18673   1.048   4.931   0.662 -0.6518  0.2774 -0.7493
 2285TP3     H118674   1.104   5.008   0.658 -1.4054  0.9476  1.3366
 2285TP3     H218675   0.992   4.945   0.738  0.3483 -3.0756  0.7033
 2286TP3      O18676   0.375   2.102   7.456 -0.8269 -0.6313 -0.1199
 2286TP3     H118677   0.309   2.067   7.397 -1.0315  1.7061 -1.3221
 2286TP3     H218678   0.458   2.087   7.411 -0.8513 -0.3735 -0.2564
 2287TP3      O18679   0.305   4.390   9.954 -0.1653  0.1576 -0.1439
 2287TP3     H118680   0.268   4.344   9.879  1.0272  0.3653 -0.8573
 2287TP3     H218681   0.349   4.466   9.917  4.6559 -2.2649  0.1870
 2288TP3      O18682   0.384   5.468   2.141  0.1806 -0.2817  0.4281
 2288TP3     H118683   0.467   5.443   2.183  1.3556  2.7715  0.0581
 2288TP3     H218684   0.409   5.489   2.051 -1.1065  0.1602  0.1706
 2289TP3      O18685   1.519   2.942   8.024 -0.1040  0.5494  0.0870
 2289TP3     H118686   1.462   3.018   8.012  0.7655  1.0398 -1.0264
 2289TP3     H218687   1.600   2.979   8.059 -0.5606 -0.1849  1.9961
 2290TP3      O18688   1.112   1.464   8.539  0.5738  0.2316  0.1588
 2290TP3     H118689   1.093   1.392   8.599 -1.4972  0.9854  0.4362
 2290TP3     H218690   1.207   1.474   8.543  0.4662  0.3663  3.4404
 2291TP3      O18691   0.210   5.006   9.965 -0.1736 -0.1775 -0.1417
 2291TP3     H118692   0.171   5.029  10.050 -0.1454 -0.2701 -0.1044
 2291TP3     H218693   0.256   5.085   9.939  1.8777 -0.9451  1.0881
 2292TP3      O18694   0.172   0.392   1.423  0.3880 -0.8359  0.0724
 2292TP3     H118695   0.209   0.390   1.334 -0.1362 -0.4020 -0.1594
 2292TP3     H218696   0.224   0.459   1.468 -0.3218  0.0226 -0.3550
 2293TP3      O18697   0.116   0.987   9.475 -0.0979 -0.2106 -0.0542
 2293TP3     H118698   0.123   1.013   9.383  2.2505  2.2048  0.7552
 2293TP3     H218699   0.147   0.896   9.476 -2.0310 -0.9361 -1.9110
 2294TP3      O18700   1.702   4.535   1.697  0.1294  0.4786 -0.2496
 2294TP3     H118701   1.724   4.456   1.746  0.3598  0.4868 -0.3411
 2294TP3     H218702   1.697   4.505   1.606  1.8585  0.9087 -0.4922
 2295TP3      O18703   0.596   4.210   0.521  0.1389 -0.5959 -0.2880
 2295TP3     H118704   0.686   4.222   0.492  0.0755  0.3608 -0.1226
 2295TP3     H218705   0.594   4.247   0.610 -0.3822 -0.7418 -0.2312
 2296TP3      O18706   3.919   5.084   1.640 -0.3388 -0.2904 -0.2879
 2296TP3     H118707   3.947   5.046   1.723  2.7268 -1.0722 -1.6325
 2296TP3     H218708   3.999   5.117   1.601 -1.8344  0.5547 -2.7169
 2297TP3      O18709   1.650   0.191   0.242  0.2686 -0.0356 -0.3523
 2297TP3     H118710   1.557   0.196   0.264  0.1732  0.8989 -0.9641
 2297TP3     H218711   1.692   0.256   0.299  0.6735 -1.0933  0.5751
 2298TP3      O18712   2.844   1.665   0.348  0.3903 -0.2401 -0.2195
 2298TP3     H118713   2.895   1.745   0.334 -0.8251  0.3041 -1.8014
 2298TP3     H218714   2.905   1.603   0.388  1.2734  1.5842  1.3622
 2299TP3      O18715   4.407   5.526   0.625  0.5211  0.3074  0.2202
 2299TP3     H118716   4.374   5.613   0.599 -0.9077  0.0155  0.9837
 2299TP3     H218717   4.379   5.468   0.554 -0.7325  0.0367  0.9307
 2300TP3      O18718   0.710   1.825   2.008  0.0358 -0.0710 -0.0365
 2300TP3     H118719   0.804   1.815   2.021  0.0808 -0.7370 -0.8660
 2300TP3     H218720   0.702   1.887   1.936 -0.1819  1.0341  0.9204
 2301TP3      O18721   5.354   3.989   9.192 -0.1995 -0.0591 -0.3393
 2301TP3     H118722   5.427   3.928   9.183  0.5592  0.7966 -0.0707
 2301TP3     H218723   5.295   3.946   9.254 -0.5000 -1.2914 -1.4647
 2302TP3      O18724   3.984   0.018   0.117 -0.3135  0.6902 -0.3855
 2302TP3     H118725   3.905   0.054   0.076  0.1603  0.4572 -1.5249
 2302TP3     H218726   4.056   0.068   0.077  0.0413  2.0115  1.8002
 2303TP3      O18727   2.882   1.592   1.135 -0.0542  0.5437  0.1391
 2303TP3     H118728   2.906   1.578   1.043 -0.3405  0.8859  0.0135
 2303TP3     H218729   2.936   1.529   1.183  0.6397  0.8702 -0.1994
 2304TP3      O18730   1.495   1.292   1.502 -0.7423  0.2227 -0.1852
 2304TP3     H118731   1.555   1.220   1.524  2.4492  2.1574 -2.1365
 2304TP3     H218732   1.528   1.366   1.553 -0.5256  1.6912 -2.4218
 2305TP3      O18733   4.011   4.579   9.869 -0.3365  0.0318  0.2798
 2305TP3     H118734   3.976   4.587   9.781  1.8497  2.4849 -0.4202
 2305TP3     H218735   4.041   4.488   9.875 -0.5207 -0.1595 -1.4951
 2306TP3      O18736   1.650   5.449   9.246  0.1841  0.0514 -0.3648
 2306TP3     H118737   1.713   5.478   9.180 -0.4559  1.8994 -0.1969
 2306TP3     H218738   1.573   5.423   9.195  0.2091  0.1173 -0.4367
 2307TP3      O18739   3.106   4.561   9.657 -0.1406 -0.2079 -0.6807
 2307TP3     H118740   3.099   4.465   9.658 -1.9790 -0.0953  0.5011
 2307TP3     H218741   3.111   4.585   9.750  0.9887  0.8088 -0.9963
 2308TP3      O18742   1.840   0.400   9.698  0.5476 -0.2021 -0.2068
 2308TP3     H118743   1.920   0.378   9.745 -0.8836 -3.1291  1.0119
 2308TP3     H218744   1.842   0.343   9.621 -0.5569 -0.6328  0.0739
 2309TP3      O18745   0.970   4.567   9.240 -0.1787  0.0247 -0.8320
 2309TP3     H118746   0.985   4.518   9.321  0.6105  0.5816 -0.6345
 2309TP3     H218747   0.954   4.500   9.174  1.5451 -0.5397 -0.7021
 2310TP3      O18748   2.103   1.256   9.176  0.0292 -0.1537 -0.1397
 2310TP3     H118749   2.035   1.189   9.174 -0.4507  0.3271  0.0858
 2310TP3     H218750   2.177   1.213   9.219  0.1005 -0.8829 -0.9725
 2311TP3      O18751   3.257   0.311   2.118  0.3354  0.2135 -0.6077
 2311TP3     H118752   3.186   0.252   2.144  1.1380 -0.8198 -0.7320
 2311TP3     H218753   3.301   0.265   2.047  1.7465  0.3956  0.1313
 2312TP3      O18754   2.731   3.245   1.506 -0.2415  0.5745 -0.2596
 2312TP3     H118755   2.654   3.291   1.541  0.1273  1.4286 -0.5559
 2312TP3     H218756   2.730   3.264   1.413  0.0986  0.2464 -0.3302
 2313TP3      O18757   3.948   1.620   9.952  0.5718  0.0472  0.5731
 2313TP3     H118758   3.939   1.627   9.857  1.9153 -2.2042  0.2272
 2313TP3     H218759   3.868   1.657   9.987  0.4443  1.7302 -1.4056
 2314TP3      O18760   3.594   1.469   8.811  0.2666  0.8231 -0.1113
 2314TP3     H118761   3.666   1.422   8.853  1.3863  1.1119 -1.6858
 2314TP3     H218762   3.586   1.550   8.861  1.4040  1.0505 -0.3007
 2315TP3      O18763   2.781   2.933   9.941 -0.0146  0.2282  0.0172
 2315TP3     H118764   2.848   2.897   9.883 -0.2284  1.8010 -1.2448
 2315TP3     H218765   2.730   2.857   9.969  0.4232 -0.6143 -1.4369
 2316TP3      O18766   3.307   1.484   9.571 -0.1993  0.5509 -0.6057
 2316TP3     H118767   3.235   1.516   9.517 -1.0546 -2.0638 -1.0864
 2316TP3     H218768   3.284   1.511   9.660 -0.4630  1.9605 -1.0900
 2317TP3      O18769   1.588   1.352   9.637 -0.4761  0.3959  0.6768
 2317TP3     H118770   1.632   1.327   9.718 -1.7499  0.7935  1.5126
 2317TP3     H218771   1.622   1.438   9.616  0.4596 -0.0516  0.3421
 2318TP3      O18772   1.903   0.075   2.269 -0.3548 -0.3162  0.7154
 2318TP3     H118773   1.857   0.024   2.202 -0.7944  0.3086  0.5300
 2318TP3     H218774   1.991   0.038   2.272 -0.2827 -0.2500 -0.3347
 2319TP3      O18775   3.662   1.617   2.900  0.4958 -0.0772 -0.5805
 2319TP3     H118776   3.616   1.699   2.881  0.9181  0.3906  0.4019
 2319TP3     H218777   3.600   1.549   2.875 -0.4569  0.5512  0.0727
 2320TP3      O18778   3.780   4.863   0.067  0.5194 -0.3624 -0.0377
 2320TP3     H118779   3.743   4.920   0.135  0.4940 -0.4917  0.0567
 2320TP3     H218780   3.741   4.778   0.083  2.2855 -0.9623  1.2412
 2321TP3      O18781   0.654   0.860   9.793 -0.6567 -0.0376 -0.6398
 2321TP3     H118782   0.567   0.867   9.756 -0.1627  0.7673 -1.6628
 2321TP3     H218783   0.656   0.927   9.862  0.1248  2.0162 -2.5910
 2322TP3      O18784   4.245   0.214   9.992 -0.2017 -0.9561  0.2913
 2322TP3     H118785   4.248   0.189   9.900 -0.1799 -2.7277  0.7531
 2322TP3     H218786   4.336   0.230  10.016 -0.1426 -1.1003  0.1655
 2323TP3      O18787   4.494   3.077   8.453 -0.1766  0.6808  0.0854
 2323TP3     H118788   4.519   3.138   8.384 -0.4661  0.5828 -0.1039
 2323TP3     H218789   4.399   3.084   8.458 -0.2222  0.1093 -0.0548
 2324TP3      O18790   2.845   0.622   2.880  0.2873  0.3816 -0.3408
 2324TP3     H118791   2.883   0.553   2.826 -0.3117 -0.1368 -0.1135
 2324TP3     H218792   2.920   0.674   2.909  0.9199 -1.0818  0.7329
 2325TP3      O18793   3.412   2.224   9.484  0.5820 -0.3583 -0.1983
 2325TP3     H118794   3.362   2.165   9.428  0.4456  0.1601 -0.6221
 2325TP3     H218795   3.432   2.299   9.429  1.0023 -0.1327  0.2555
 2326TP3      O18796   4.109   1.519   1.192  0.3332 -0.3664  0.6732
 2326TP3     H118797   4.088   1.447   1.133  3.4128 -0.3093 -0.5746
 2326TP3     H218798   4.064   1.595   1.155  1.3809 -0.5549 -1.0106
 2327TP3      O18799   1.225   0.943   0.489  0.0594  0.1229 -0.2893
 2327TP3     H118800   1.182   0.860   0.507 -1.6262  0.9707 -0.3684
 2327TP3     H218801   1.233   0.947   0.394 -1.5270  0.8747 -0.3973
 2328TP3      O18802   2.104   3.399   9.133 -0.4677 -0.5255  0.2538
 2328TP3     H118803   2.148   3.456   9.069 -0.0090 -0.4628  0.6168
 2328TP3     H218804   2.082   3.320   9.084  0.0653 -0.5624  0.0613
 2329TP3      O18805   2.437   0.905   1.867  0.0608 -0.1720 -0.0120
 2329TP3     H118806   2.473   0.818   1.884 -0.4273 -0.4732 -0.5220
 2329TP3     H218807   2.420   0.906   1.773  3.1847  1.6446 -0.6252
 2330TP3      O18808   4.106   4.211   9.982  0.0994  0.3941  0.4818
 2330TP3     H118809   4.168   4.221   9.910  0.7561 -1.7684  0.7302
 2330TP3     H218810   4.025   4.183   9.940  0.5234 -1.0081  0.5948
 2331TP3      O18811   2.704   0.486  10.017 -0.4138  0.3132  0.3637
 2331TP3     H118812   2.623   0.501   9.968 -0.4395 -0.8239  0.0393
 2331TP3     H218813   2.750   0.418   9.967 -0.0625 -0.2814  1.4786
 2332TP3      O18814   1.168   2.180   0.271  0.0783  0.0538  0.0992
 2332TP3     H118815   1.223   2.124   0.217  0.4453  0.1273  0.3934
 2332TP3     H218816   1.183   2.149   0.361 -0.6362 -0.1654  0.1468
 2333TP3      O18817   3.423   4.523   9.380  0.9821  0.3632 -0.0189
 2333TP3     H118818   3.488   4.474   9.329  1.1171 -0.5345  0.9886
 2333TP3     H218819   3.449   4.508   9.471 -0.5346  0.1477  0.3883
 2334TP3      O18820   0.894   0.122   2.534 -0.5351 -0.0059 -0.4278
 2334TP3     H118821   0.957   0.192   2.547  0.8018 -1.1678 -0.5779
 2334TP3     H218822   0.885   0.081   2.620 -1.2880  0.3072 -0.3481
 2335TP3      O18823   5.082   0.728   8.655  0.5350  0.5626  0.1582
 2335TP3     H118824   5.003   0.705   8.703  0.6248  0.7509  0.3981
 2335TP3     H218825   5.093   0.658   8.590 -0.6454  1.3058 -0.8576
 2336TP3      O18826   1.345   0.292   0.173 -0.4158  0.0757 -0.2579
 2336TP3     H118827   1.349   0.386   0.193 -0.2062  0.1552 -0.6606
 2336TP3     H218828   1.343   0.289   0.077  1.5622 -0.4022 -0.2951
 2337TP3      O18829   2.946   1.635  10.165  0.2781 -0.1332 -0.3093
 2337TP3     H118830   2.997   1.679  10.234  0.6811 -0.1254 -0.6168
 2337TP3     H218831   2.861   1.617  10.207  0.0190  1.1525 -0.2453
 2338TP3      O18832   2.841   2.439   1.091 -0.2384 -0.1383 -0.0845
 2338TP3     H118833   2.783   2.423   1.165 -1.2334  0.1278 -0.8082
 2338TP3     H218834   2.794   2.404   1.015  0.0572  1.0710 -0.8330
 2339TP3      O18835   3.494   3.469   9.254 -0.1900 -0.0655  0.0715
 2339TP3     H118836   3.454   3.471   9.167 -1.9149  0.7600  0.8439
 2339TP3     H218837   3.545   3.388   9.256  0.1007  0.0565 -1.7992
 2340TP3      O18838   1.285   0.480   0.516 -0.5543  0.3107 -0.4417
 2340TP3     H118839   1.334   0.401   0.493  2.1837  1.6482  0.5782
 2340TP3     H218840   1.245   0.459   0.601 -0.7231 -0.3319 -0.6740
 2341TP3      O18841   5.137   1.409   1.456 -0.6031  0.1328 -0.6456
 2341TP3     H118842   5.153   1.380   1.365  1.9579  0.0778 -0.2255
 2341TP3     H218843   5.120   1.502   1.449  0.3139  0.2711 -1.1293
 2342TP3      O18844   1.904   3.757  10.234 -0.1237  0.3231 -0.4035
 2342TP3     H118845   1.907   3.757  10.329  0.5744 -1.7544 -0.3922
 2342TP3     H218846   1.834   3.694  10.213 -0.3994  0.9084 -1.2678
 2343TP3      O18847   2.560   2.366   1.191  0.2916  0.3037  0.4184
 2343TP3     H118848   2.475   2.341   1.226  0.3730  0.7735  0.9518
 2343TP3     H218849   2.556   2.341   1.098 -0.8222  1.3195  0.1784
 2344TP3      O18850   5.211   1.581   0.953 -0.0068  0.2247 -0.5493
 2344TP3     H118851   5.279   1.519   0.929 -0.7848  0.0757 -2.5448
 2344TP3     H218852   5.233   1.610   1.041  1.0717 -1.9088 -0.1073
 2345TP3      O18853   1.472   1.019   0.215 -0.2010 -0.2815 -0.3949
 2345TP3     H118854   1.480   0.948   0.152 -1.4889 -0.1389 -0.7456
 2345TP3     H218855   1.500   0.981   0.298  2.2151 -0.2582 -1.1776
 2346TP3      O18856   4.066   0.681   8.404 -0.1180 -0.0349  0.0348
 2346TP3     H118857   3.976   0.702   8.376 -0.4382 -2.0484 -0.5185
 2346TP3     H218858   4.102   0.631   8.331  0.5989 -1.4103  1.2996
 2347TP3      O18859   1.570   0.393   0.643  0.3889 -0.0914  0.7670
 2347TP3     H118860   1.542   0.321   0.587  0.5195  0.7040 -0.3239
 2347TP3     H218861   1.512   0.387   0.719  0.3251 -1.2750  0.6366
 2348TP3      O18862   3.213   3.107   0.673  0.5115 -0.1764 -0.0517
 2348TP3     H118863   3.170   3.192   0.683 -0.2797 -0.8129  2.3290
 2348TP3     H218864   3.306   3.127   0.677  0.3165  0.5196  1.2370
 2349TP3      O18865   2.884   2.605  10.254 -0.8659 -0.1400  0.4510
 2349TP3     H118866   2.865   2.681  10.310 -1.7117  3.0063 -3.8321
 2349TP3     H218867   2.823   2.538  10.283 -1.4007  1.4254  3.1170
 2350TP3      O18868   3.319   4.962   0.290 -0.5728  0.1649 -0.1323
 2350TP3     H118869   3.307   4.900   0.362 -0.1579 -0.3535 -0.5073
 2350TP3     H218870   3.312   5.048   0.331 -1.6568 -0.1269  0.3113
 2351TP3      O18871   1.855   2.527   9.263 -0.0564  0.0729  0.5569
 2351TP3     H118872   1.877   2.455   9.204 -0.6665  1.1492 -1.0138
 2351TP3     H218873   1.759   2.527   9.266 -0.0382  0.0098  1.5980
 2352TP3      O18874   2.924   0.011   8.385 -0.9727  0.4424  0.3030
 2352TP3     H118875   3.005   0.051   8.354 -1.1062  0.4660 -0.0199
 2352TP3     H218876   2.869   0.006   8.307 -1.3888  0.6882  0.5791
 2353TP3      O18877   4.723   1.089   8.560  0.3660  0.0131  0.1470
 2353TP3     H118878   4.742   1.093   8.654 -0.8924 -0.5014  0.4262
 2353TP3     H218879   4.809   1.074   8.520  0.6606 -1.6958  1.3509
 2354TP3      O18880   2.832   3.576   1.773  0.2580 -0.0055 -0.2144
 2354TP3     H118881   2.748   3.600   1.733 -0.2837 -1.1522  0.1971
 2354TP3     H218882   2.848   3.646   1.837 -0.3476  0.2606 -0.3475
 2355TP3      O18883   0.964   2.764   9.211  0.1050 -0.0411  0.4723
 2355TP3     H118884   1.003   2.851   9.220  2.5947 -1.1004  0.4691
 2355TP3     H218885   0.919   2.767   9.126  1.3016  0.8364 -0.1546
 2356TP3      O18886   2.022   5.398   0.228 -0.2266  0.6884  0.2115
 2356TP3     H118887   2.059   5.473   0.275 -0.7783  0.6874  0.6486
 2356TP3     H218888   1.939   5.380   0.272  0.2334 -0.6364  0.5599
 2357TP3      O18889   1.816   0.835   0.362  0.4223  0.1631 -0.5513
 2357TP3     H118890   1.878   0.834   0.435  0.5223  2.5145 -0.5507
 2357TP3     H218891   1.849   0.904   0.304 -1.9146  1.1220 -0.7819
 2358TP3      O18892   0.648   1.115  10.015 -0.8314  0.2901 -0.0098
 2358TP3     H118893   0.563   1.159  10.024 -1.1487 -0.3259 -0.0044
 2358TP3     H218894   0.658   1.066  10.097  0.4586  1.9596  0.8813
 2359TP3      O18895   1.718   1.804   8.632  0.4696 -0.1509  0.5814
 2359TP3     H118896   1.811   1.788   8.649  0.9583  1.7890 -0.1524
 2359TP3     H218897   1.703   1.769   8.544  0.1906 -1.5434  1.1569
 2360TP3      O18898   3.047   0.014   0.046  0.6414 -0.4386  0.4122
 2360TP3     H118899   3.047  -0.060   0.107  1.7113 -1.1614 -0.4255
 2360TP3     H218900   3.010   0.087   0.095 -1.0393 -1.7037  1.0603
 2361TP3      O18901   2.070   1.251  10.267 -0.3479 -0.3362  0.2576
 2361TP3     H118902   2.076   1.346  10.277  0.4998 -0.2853 -0.7433
 2361TP3     H218903   1.978   1.235  10.243 -0.1510  0.3587 -0.9908
 2362TP3      O18904   1.615   5.109   0.415  0.1054  0.3577  0.3892
 2362TP3     H118905   1.645   5.020   0.434 -0.2948  0.1023 -0.1645
 2362TP3     H218906   1.522   5.108   0.438 -0.2586  0.2006 -1.0633
 2363TP3      O18907   2.797   1.842   9.927 -0.0196  0.0551  0.4073
 2363TP3     H118908   2.792   1.772   9.862 -1.7635 -1.0280  1.6434
 2363TP3     H218909   2.830   1.800  10.006 -3.1477  0.0626  1.8096
 2364TP3      O18910   3.655   4.583   0.553  0.0410 -0.0639  0.8239
 2364TP3     H118911   3.658   4.492   0.584  1.5255 -0.2199  0.2779
 2364TP3     H218912   3.709   4.631   0.616 -0.1905  0.3273  0.7243
 2365TP3      O18913   1.727   4.256   8.799 -0.1402  0.4238  0.2905
 2365TP3     H118914   1.741   4.319   8.728 -2.1346  0.5317 -0.0359
 2365TP3     H218915   1.807   4.204   8.801  0.0991  0.6686 -1.7904
 2366TP3      O18916   4.659   5.437   0.636 -0.1849  0.5165  0.4740
 2366TP3     H118917   4.582   5.492   0.650 -1.3879 -0.3737 -2.4187
 2366TP3     H218918   4.715   5.487   0.578  0.6841  0.4571  1.2448
 2367TP3      O18919   2.363   2.990   9.817  0.0978  0.1449  0.7072
 2367TP3     H118920   2.269   2.973   9.826 -0.4909  2.0141 -1.4283
 2367TP3     H218921   2.379   3.067   9.871  0.1710  0.4657  0.2340
 2368TP3      O18922   2.666   1.092   7.853  0.8629  0.1978 -0.0866
 2368TP3     H118923   2.702   1.117   7.938  2.5494  1.2344 -1.0778
 2368TP3     H218924   2.728   1.129   7.789  0.5010 -1.9348 -1.7222
 2369TP3      O18925   1.584   4.702   8.165 -0.2010  0.3891  0.5135
 2369TP3     H118926   1.571   4.672   8.255 -0.6934 -1.6552 -0.2014
 2369TP3     H218927   1.676   4.727   8.161  0.1247 -0.6468  1.2950
 2370TP3      O18928   3.730   2.142   0.220  0.0041 -0.2601  1.2074
 2370TP3     H118929   3.793   2.079   0.257  0.3828 -0.2569  0.5835
 2370TP3     H218930   3.652   2.133   0.275  0.4077 -0.5570  1.7408
 2371TP3      O18931   4.998   1.409   9.554 -0.0176 -0.6211 -0.1933
 2371TP3     H118932   5.008   1.501   9.529  0.1233 -0.1634  1.5120
 2371TP3     H218933   5.058   1.362   9.495  1.9540  0.6682  0.7483
 2372TP3      O18934   3.016   1.942   1.540 -0.3688 -0.2544 -0.2854
 2372TP3     H118935   3.078   2.012   1.521  0.4657 -1.0993 -0.6634
 2372TP3     H218936   3.004   1.897   1.457  0.7578 -1.9079  0.4219
 2373TP3      O18937   2.633   0.226   0.663 -0.2132 -0.3978  0.8728
 2373TP3     H118938   2.620   0.178   0.582 -1.4196 -1.0994  1.4651
 2373TP3     H218939   2.571   0.298   0.660 -0.7734 -0.8456  1.4883
 2374TP3      O18940   2.990   5.319   1.591 -0.1011  0.0322 -0.1692
 2374TP3     H118941   2.917   5.258   1.601  0.1357  0.2198  3.1261
 2374TP3     H218942   2.948   5.402   1.567 -0.8309 -0.2171  0.2496
 2375TP3      O18943   2.112   1.645   9.860  0.4453  0.0593 -0.0933
 2375TP3     H118944   2.167   1.588   9.807 -1.3440 -1.2327 -0.5875
 2375TP3     H218945   2.091   1.719   9.802  2.0325  0.8107  0.2612
 2376TP3      O18946   4.938   1.023   8.466 -0.1496  0.1838 -0.3259
 2376TP3     H118947   4.994   1.098   8.488  0.8705 -0.6179 -0.1211
 2376TP3     H218948   4.997   0.961   8.424 -0.9484 -0.5795 -0.3311
 2377TP3      O18949   2.439   1.978   8.550 -0.5880  0.7138  0.1969
 2377TP3     H118950   2.534   1.990   8.559 -0.4058  0.3639 -1.2201
 2377TP3     H218951   2.401   2.059   8.584  0.1993  0.7601  0.9885
 2378TP3      O18952   3.792   1.719   8.173 -0.5045 -0.3301 -0.3930
 2378TP3     H118953   3.730   1.762   8.114  0.6742  0.9217 -0.7404
 2378TP3     H218954   3.746   1.641   8.203 -2.0435  0.3059 -1.0588
 2379TP3      O18955   4.138   4.694   8.726  0.0651 -0.0319  0.1998
 2379TP3     H118956   4.087   4.686   8.645  0.3726  0.2090 -0.0177
 2379TP3     H218957   4.227   4.668   8.701 -0.3507 -2.3770  1.0288
 2380TP3      O18958   2.386   3.883  10.260  0.0092 -0.0818 -0.0119
 2380TP3     H118959   2.461   3.895  10.202  2.1011 -1.2312  2.3464
 2380TP3     H218960   2.363   3.971  10.289  1.8565  0.1459  0.8857
 2381TP3      O18961   4.566   1.568  10.142  0.2831 -0.2740 -0.0913
 2381TP3     H118962   4.493   1.507  10.133  0.6885 -0.8526  0.5148
 2381TP3     H218963   4.610   1.567  10.057 -0.0297 -0.4189 -0.2476
 2382TP3      O18964   1.127   0.383   0.715  0.0130  0.0386  0.0191
 2382TP3     H118965   1.139   0.388   0.810 -0.8294  0.4433  0.1020
 2382TP3     H218966   1.036   0.407   0.701 -0.1147 -0.9256 -0.8182
 2383TP3      O18967   4.170   0.156  10.282 -0.2111  0.0534 -0.4012
 2383TP3     H118968   4.242   0.093  10.280  0.6617  1.0455 -0.9582
 2383TP3     H218969   4.173   0.198  10.196 -1.0249  0.5826 -0.1779
 2384TP3      O18970   5.323   0.692   9.747 -0.1436 -0.7758  0.6905
 2384TP3     H118971   5.333   0.711   9.654  0.1085 -4.4006 -0.1089
 2384TP3     H218972   5.409   0.707   9.785  0.0219 -0.3575  0.1439
 2385TP3      O18973   2.269   0.233  10.274 -0.4210  0.4690  0.2022
 2385TP3     H118974   2.232   0.175  10.208  1.3617  0.2537 -0.6380
 2385TP3     H218975   2.195   0.259  10.328 -1.6570 -0.5045 -1.0138
 2386TP3      O18976   1.874   1.197   1.056  0.0626 -0.6375  0.1363
 2386TP3     H118977   1.908   1.141   1.125  1.9329  0.0269 -0.2100
 2386TP3     H218978   1.950   1.215   1.000 -0.3636  2.6373  0.5211
 2387TP3      O18979   2.351   1.427   9.170 -0.1771  0.1561  0.2728
 2387TP3     H118980   2.354   1.455   9.079 -2.0666  2.0052  0.7350
 2387TP3     H218981   2.258   1.425   9.191  0.1748 -1.6964  1.7390
 2388TP3      O18982   4.377   0.802   9.296 -0.0024  0.4557 -0.2528
 2388TP3     H118983   4.438   0.868   9.327  0.8026  0.6882 -2.2674
 2388TP3     H218984   4.430   0.724   9.280 -0.9241 -0.6763  1.9834
 2389TP3      O18985   4.629   4.338   9.573  0.6407 -0.0322  0.4496
 2389TP3     H118986   4.661   4.248   9.581 -0.2391 -0.4465 -0.5232
 2389TP3     H218987   4.542   4.329   9.534  1.0250  1.3132 -0.7557
 2390TP3      O18988   1.297   5.322   2.025  0.5498 -0.5573  0.0110
 2390TP3     H118989   1.241   5.293   2.097  1.0088 -1.0144  0.1906
 2390TP3     H218990   1.380   5.276   2.039  1.2066  0.6327  0.1437
 2391TP3      O18991   4.921   2.627   2.282  0.7000  0.1542  0.4284
 2391TP3     H118992   4.834   2.647   2.317  0.0536 -0.6236 -0.6995
 2391TP3     H218993   4.904   2.573   2.205  2.1488  0.7596 -0.3389
 2392TP3      O18994   0.852   0.361   0.689 -0.0446  0.1120  0.2992
 2392TP3     H118995   0.821   0.388   0.602  0.9851 -0.6567 -0.3206
 2392TP3     H218996   0.850   0.266   0.686  1.0412  0.0654  0.7224
 2393TP3      O18997   2.015   1.360   1.709  0.0265  0.4431 -0.2514
 2393TP3     H118998   2.067   1.345   1.788  0.1797 -1.8019 -0.7329
 2393TP3     H218999   1.925   1.370   1.740  0.0959 -0.3756  0.2090
 2394TP3      O19000   2.468   0.453   0.701  0.2695 -0.8279  0.0981
 2394TP3     H119001   2.482   0.537   0.658  0.2376 -1.4244 -1.1096
 2394TP3     H219002   2.373   0.446   0.709  0.2886 -0.5636  0.5941
 2395TP3      O19003   4.534   1.530   0.848  0.9113 -0.0841 -0.0940
 2395TP3     H119004   4.465   1.580   0.804  1.6149  0.2158 -0.8585
 2395TP3     H219005   4.498   1.512   0.935 -0.7661 -1.2424 -0.9875
 2396TP3      O19006   3.755   0.029   9.858  0.3084  0.7326  0.2791
 2396TP3     H119007   3.832   0.046   9.911  1.0279  0.7909 -0.7740
 2396TP3     H219008   3.767   0.082   9.780 -0.2375 -0.1432 -0.4096
 2397TP3      O19009   1.349   0.785  10.146 -0.2768 -0.2402  0.5591
 2397TP3     H119010   1.284   0.847  10.114  0.7117  0.5394  0.0178
 2397TP3     H219011   1.421   0.791  10.082  0.8094 -0.2342  1.7675
 2398TP3      O19012   4.712   1.640   0.573  0.6415  0.5477 -0.4728
 2398TP3     H119013   4.777   1.587   0.620 -0.0504 -0.3148 -0.4715
 2398TP3     H219014   4.642   1.653   0.637  0.1605  0.2461 -0.9378
 2399TP3      O19015   4.406   0.443   7.712  0.0461 -0.0116 -0.0378
 2399TP3     H119016   4.382   0.385   7.784 -0.5493  1.2617  0.7954
 2399TP3     H219017   4.495   0.416   7.688  0.5541  0.0846  1.6829
 2400TP3      O19018   3.437   0.626   0.687 -0.2088 -0.0001  0.3661
 2400TP3     H119019   3.495   0.603   0.760 -0.9876  1.4935  1.4736
 2400TP3     H219020   3.352   0.640   0.727 -0.0964  3.3785 -0.4544
 2401TP3      O19021   3.914   1.623   9.668  0.1256  0.2763 -0.3656
 2401TP3     H119022   3.886   1.534   9.649 -2.8811  1.1767 -0.5032
 2401TP3     H219023   3.993   1.636   9.617  0.5970 -2.3030 -0.3147
 2402TP3      O19024   3.978   0.767   9.819 -0.1633  0.5125 -0.1937
 2402TP3     H119025   3.970   0.713   9.740  2.1663  0.7192 -0.6041
 2402TP3     H219026   3.984   0.703   9.891 -2.1727  0.3241 -0.1661
 2403TP3      O19027   2.314   2.746   9.295 -0.0330 -0.5634 -0.1132
 2403TP3     H119028   2.292   2.827   9.248  0.3364 -1.1885 -1.3762
 2403TP3     H219029   2.239   2.731   9.352 -0.9122 -0.2832 -1.1726
 2404TP3      O19030   0.748   3.851   8.819 -0.3296 -0.1711 -0.2438
 2404TP3     H119031   0.716   3.937   8.844  1.0950 -0.0945  1.4794
 2404TP3     H219032   0.725   3.795   8.893  2.8038 -0.2525  0.7345
 2405TP3      O19033   2.380   0.446  10.170 -0.3149  0.1369 -0.0440
 2405TP3     H119034   2.335   0.364  10.193  0.9817 -0.7321 -0.5852
 2405TP3     H219035   2.310   0.502  10.135 -1.1693 -0.8120  0.1159
 2406TP3      O19036   2.618   0.899   8.962 -0.1493  0.1100 -0.3499
 2406TP3     H119037   2.667   0.823   8.993 -0.1975 -0.2821 -1.2220
 2406TP3     H219038   2.532   0.891   9.003 -0.2756 -0.5088 -0.7253
 2407TP3      O19039   4.505   1.868   7.686  0.0924 -0.2620 -0.4121
 2407TP3     H119040   4.560   1.878   7.763  0.0627 -0.1111 -0.4102
 2407TP3     H219041   4.501   1.774   7.671 -1.5117 -0.4341  0.9275
 2408TP3      O19042   2.888   1.286   7.868 -0.0284 -0.0072 -0.1906
 2408TP3     H119043   2.948   1.298   7.942 -0.3539  0.2206  0.0357
 2408TP3     H219044   2.828   1.359   7.874 -0.5385 -0.4215 -0.2236
 2409TP3      O19045   2.696   1.884   2.577 -0.0057 -0.1485  0.1798
 2409TP3     H119046   2.675   1.814   2.515  0.3200 -0.1131  0.0311
 2409TP3     H219047   2.710   1.839   2.660  0.1937 -0.2583  0.0867
 2410TP3      O19048   2.250   3.630   9.001  0.4309 -0.0085  0.3874
 2410TP3     H119049   2.314   3.694   9.032  0.4371 -0.4526  1.3263
 2410TP3     H219050   2.165   3.669   9.020  0.3982  0.7218 -1.1473
 2411TP3      O19051   4.749   4.146   0.374  0.3998 -0.2452 -0.5124
 2411TP3     H119052   4.815   4.155   0.306  1.4948  2.4732  0.8195
 2411TP3     H219053   4.666   4.141   0.327  1.3771 -1.7403 -2.1310
 2412TP3      O19054   3.127   3.924  10.035 -0.7584  0.3878 -0.2582
 2412TP3     H119055   3.075   3.982   9.979 -0.2742 -0.2839 -1.4154
 2412TP3     H219056   3.084   3.839  10.027 -1.2466  0.4889  1.1442
 2413TP3      O19057   1.740   0.368   0.414  0.0744 -0.1669  0.0975
 2413TP3     H119058   1.784   0.294   0.456 -1.0473 -1.9022 -1.6998
 2413TP3     H219059   1.668   0.389   0.473 -0.6539 -1.6773 -0.2427
 2414TP3      O19060   3.316   0.023   8.646  0.1536  0.2444  0.0973
 2414TP3     H119061   3.281   0.035   8.734  0.6349  1.3754  0.1419
 2414TP3     H219062   3.396  -0.028   8.658 -0.6143 -0.9723  0.1479
 2415TP3      O19063   4.782   1.045   9.964 -0.0099  0.2321  0.1705
 2415TP3     H119064   4.741   1.016   9.883  0.1687  1.5298 -0.3930
 2415TP3     H219065   4.754   1.137   9.974  0.2299  0.1853  1.3996
 2416TP3      O19066   1.056   0.553   1.487 -0.4557  0.3808  0.0825
 2416TP3     H119067   1.060   0.639   1.444 -1.6617  1.1428  1.4518
 2416TP3     H219068   0.980   0.559   1.544  0.5632 -0.9470  1.5934
 2417TP3      O19069   4.216   2.222   8.130 -0.0692  0.1156 -0.1522
 2417TP3     H119070   4.307   2.242   8.152 -0.0436 -0.4815  0.3239
 2417TP3     H219071   4.214   2.126   8.126 -0.7770  0.1062  0.2967
 2418TP3      O19072   1.455   4.807   9.612  0.1264 -0.9486 -0.2767
 2418TP3     H119073   1.509   4.728   9.615  1.2080 -0.1804  1.6816
 2418TP3     H219074   1.518   4.879   9.612 -0.8527 -0.0212  2.6686
 2419TP3      O19075   0.649   1.352   9.788  0.3007  0.7306 -0.1345
 2419TP3     H119076   0.580   1.299   9.829  0.0453 -0.1599 -1.6867
 2419TP3     H219077   0.679   1.410   9.858 -1.1635  0.2685  0.9045
 2420TP3      O19078   2.721   2.386   1.925 -0.8424 -0.4613 -0.0180
 2420TP3     H119079   2.766   2.468   1.945 -2.1897  0.4997 -0.8374
 2420TP3     H219080   2.778   2.318   1.961  0.2266  0.8346  0.7895
 2421TP3      O19081   0.175   5.299   2.149 -0.0242 -0.1411  0.1303
 2421TP3     H119082   0.154   5.270   2.060 -1.6806 -2.0899  1.0923
 2421TP3     H219083   0.256   5.349   2.140 -0.4835  0.2044 -2.5472
 2422TP3      O19084   0.481   0.435  10.306  0.4357 -0.2492 -0.0513
 2422TP3     H119085   0.502   0.353  10.261  1.7718 -0.5883  1.1512
 2422TP3     H219086   0.481   0.501  10.236  0.0267 -1.1598 -0.9198
 2423TP3      O19087   3.491   1.659   0.442  0.0370 -0.3907 -0.2436
 2423TP3     H119088   3.564   1.635   0.499  0.7184 -0.0285 -0.9657
 2423TP3     H219089   3.532   1.690   0.362 -0.9157 -0.3241 -0.7083
 2424TP3      O19090   3.688   1.285   7.799 -0.1799 -0.0354  0.2408
 2424TP3     H119091   3.669   1.370   7.759 -1.1383 -0.7518 -0.8767
 2424TP3     H219092   3.643   1.287   7.883  0.4839  0.8675  0.5820
 2425TP3      O19093   0.008   1.123   1.490  0.0847 -0.0969 -0.2527
 2425TP3     H119094   0.031   1.070   1.567  1.4756  1.0136  0.1273
 2425TP3     H219095   0.042   1.210   1.511 -0.1038  0.3667 -1.8601
 2426TP3      O19096   1.789   4.784   8.708  0.1542  0.3592  0.0679
 2426TP3     H119097   1.880   4.815   8.705  0.7081 -1.1422  0.8557
 2426TP3     H219098   1.780   4.729   8.631 -0.0064  0.3163  0.1183
 2427TP3      O19099   1.493   2.538   1.996 -0.0003  0.4634 -0.2068
 2427TP3     H119100   1.464   2.468   2.054  0.3254 -0.0174 -0.6166
 2427TP3     H219101   1.426   2.605   2.004 -0.5019 -0.0500 -0.0751
 2428TP3      O19102   1.264   2.213   8.413  0.2489 -0.1847 -0.1639
 2428TP3     H119103   1.198   2.181   8.475 -0.2873  0.3668 -0.4587
 2428TP3     H219104   1.347   2.200   8.460 -0.0828 -0.5829  0.3287
 2429TP3      O19105   0.771   5.337   1.124  0.0401  0.3318  0.6362
 2429TP3     H119106   0.783   5.405   1.190  0.9156 -0.1781  1.0185
 2429TP3     H219107   0.806   5.258   1.166  1.6649  0.2238 -0.8617
 2430TP3      O19108   2.853   5.433   2.060 -0.2351 -0.0420  0.4812
 2430TP3     H119109   2.804   5.456   2.139 -1.2139  0.2541 -0.2130
 2430TP3     H219110   2.894   5.349   2.082 -0.7867 -0.1331  1.1758
 2431TP3      O19111   1.442   1.495   0.899  0.0129 -0.5785 -0.3453
 2431TP3     H119112   1.465   1.429   0.964 -1.0773 -1.4160 -0.7969
 2431TP3     H219113   1.411   1.445   0.823 -2.4639  0.4356 -0.0781
 2432TP3      O19114   4.229   4.070   8.712 -0.3397  0.4959  0.2462
 2432TP3     H119115   4.178   4.055   8.632  0.6878 -0.4242 -0.2368
 2432TP3     H219116   4.195   4.153   8.746 -0.6793  0.9722 -1.2193
 2433TP3      O19117   3.306   3.690   1.844  0.0394 -0.0963  0.3558
 2433TP3     H119118   3.285   3.753   1.912  0.1988  0.5915 -0.2249
 2433TP3     H219119   3.251   3.614   1.864 -1.4189  0.8746  0.0930
 2434TP3      O19120   3.643   5.017   9.766  0.4619  0.6071 -0.3890
 2434TP3     H119121   3.550   4.995   9.772  1.1976 -2.0917  2.1506
 2434TP3     H219122   3.646   5.111   9.781 -1.8747  0.8131 -0.9413
 2435TP3      O19123   0.996   0.339   2.636 -1.0465 -0.3665  0.0968
 2435TP3     H119124   0.992   0.346   2.732 -1.7774  0.3826  0.0149
 2435TP3     H219125   1.062   0.403   2.610 -0.6503 -0.7638  0.1176
 2436TP3      O19126   3.352   1.165   9.525  0.6775  0.2719 -0.0748
 2436TP3     H119127   3.325   1.248   9.564  1.2633 -0.4229  1.8380
 2436TP3     H219128   3.429   1.139   9.574  0.2090 -1.6631 -0.3226
 2437TP3      O19129   0.992   1.141   9.612  0.9856  0.3586  0.5773
 2437TP3     H119130   0.990   1.054   9.572  1.2007  1.1055 -1.1230
 2437TP3     H219131   0.950   1.130   9.697 -1.3042 -0.8878 -0.6751
 2438TP3      O19132   3.024   0.249   1.411  0.4309 -0.1476  0.2007
 2438TP3     H119133   2.976   0.242   1.494  1.9085 -1.0380  1.0033
 2438TP3     H219134   3.072   0.331   1.418 -1.2578  0.9454 -0.7723
 2439TP3      O19135   3.748   3.681   0.915 -0.2501  0.2215 -0.5722
 2439TP3     H119136   3.769   3.587   0.919 -0.1449  0.2745  0.3953
 2439TP3     H219137   3.660   3.687   0.953 -0.1097  0.5556 -0.2964
 2440TP3      O19138   4.280   1.002   1.725  0.3340 -0.2995 -0.2197
 2440TP3     H119139   4.374   0.992   1.738  0.3868 -0.7780 -0.9811
 2440TP3     H219140   4.246   0.913   1.726  0.0433 -0.2010 -1.1571
 2441TP3      O19141   2.922   1.012   2.168  0.2342 -0.2841 -0.1134
 2441TP3     H119142   2.913   1.000   2.263 -0.6613  0.9526 -0.0414
 2441TP3     H219143   2.950   0.926   2.137  1.7611 -0.3809  1.4192
 2442TP3      O19144   1.317   1.384   1.332  0.2350  0.1738  0.0765
 2442TP3     H119145   1.367   1.343   1.403  2.0245 -0.0851 -1.2771
 2442TP3     H219146   1.262   1.314   1.299  2.3855 -0.8682 -1.4220
 2443TP3      O19147   2.477   0.524   2.921  0.7690  0.5286 -0.2370
 2443TP3     H119148   2.492   0.456   2.987 -1.5812 -1.1461 -1.3710
 2443TP3     H219149   2.448   0.600   2.972 -0.0078 -0.4171  0.7714
 2444TP3      O19150   1.621   5.029   8.691 -0.2974  0.6398  0.3829
 2444TP3     H119151   1.532   5.006   8.720  0.2118 -1.2654  0.5345
 2444TP3     H219152   1.676   4.959   8.727  0.9070  0.4030 -1.8319
 2445TP3      O19153   1.706   0.986   8.495 -0.0727  0.8295  0.5786
 2445TP3     H119154   1.761   1.056   8.460  1.4602  0.8336  2.9114
 2445TP3     H219155   1.644   1.031   8.552  0.3967  0.3837  1.4494
 2446TP3      O19156   3.905   5.138   2.545 -0.2521 -0.0936 -0.4773
 2446TP3     H119157   3.897   5.119   2.639 -1.1371  1.2222 -0.2817
 2446TP3     H219158   3.902   5.052   2.504 -3.4974 -0.4678  0.4486
 2447TP3      O19159   3.149   0.761   9.809 -0.6099 -0.7522  0.6478
 2447TP3     H119160   3.184   0.688   9.759 -0.6187 -1.0272  1.0467
 2447TP3     H219161   3.176   0.839   9.760  0.4071 -0.9653  0.8645
 2448TP3      O19162   2.138   1.765  10.165 -0.4098 -0.1548  0.1154
 2448TP3     H119163   2.068   1.831  10.168  1.2809  1.6881 -0.2696
 2448TP3     H219164   2.196   1.795  10.094 -0.2845 -2.7569 -0.9374
 2449TP3      O19165   1.236   4.672   9.459 -0.0293  0.1460 -0.0328
 2449TP3     H119166   1.297   4.600   9.446 -0.1410  0.1743 -0.7343
 2449TP3     H219167   1.290   4.743   9.493  0.7483  0.8921 -2.7501
 2450TP3      O19168   2.381   2.869   0.638 -0.2658 -1.0763  0.1962
 2450TP3     H119169   2.461   2.822   0.661  0.5641 -0.6938 -1.7738
 2450TP3     H219170   2.323   2.802   0.603 -0.3060 -1.1358  0.3748
 2451TP3      O19171   3.013   1.455   0.445 -0.3696 -0.0723  0.1233
 2451TP3     H119172   2.961   1.379   0.470  0.9091 -0.7055  0.8846
 2451TP3     H219173   3.078   1.421   0.384  0.4131  0.3431  0.7219
 2452TP3      O19174   2.740   3.269   1.220 -0.1987 -0.3251 -0.8009
 2452TP3     H119175   2.781   3.268   1.133  0.3200 -2.0080 -0.5657
 2452TP3     H219176   2.649   3.294   1.204  0.6639  2.6005 -1.4334
 2453TP3      O19177   2.961   1.005   0.376  0.2015  0.1032 -0.3485
 2453TP3     H119178   2.950   1.009   0.281 -3.4263  1.4782  0.0312
 2453TP3     H219179   2.924   0.920   0.401  1.1517 -0.2573 -0.1705
 2454TP3      O19180   2.225   1.051   0.840  0.3550  0.0456  0.1112
 2454TP3     H119181   2.151   1.008   0.797  0.4419 -1.0646  1.0580
 2454TP3     H219182   2.303   1.014   0.798  0.4325 -0.7818  0.9820
 2455TP3      O19183   3.897   1.063   8.500 -0.1486 -0.4727 -0.3478
 2455TP3     H119184   3.917   1.093   8.411  1.4474  1.4923  0.6475
 2455TP3     H219185   3.982   1.044   8.539 -0.6532  1.1401  1.6071
 2456TP3      O19186   2.788   0.982   0.745  0.3327  0.0032  0.7640
 2456TP3     H119187   2.708   1.016   0.785  0.5774 -0.1854  1.4104
 2456TP3     H219188   2.757   0.932   0.669 -0.0572  1.3047  0.0558
 2457TP3      O19189   3.234   0.270   1.805  0.3816  0.0420  0.1654
 2457TP3     H119190   3.237   0.203   1.738 -0.1548 -0.0054  0.1926
 2457TP3     H219191   3.266   0.349   1.761 -1.6026  0.4198 -0.6216
 2458TP3      O19192   3.709   5.323  10.214  0.0324 -0.0234  0.6081
 2458TP3     H119193   3.632   5.377  10.201 -0.4100 -0.2930  2.0703
 2458TP3     H219194   3.681   5.234  10.191  0.1786  0.0309  0.2168
 2459TP3      O19195   4.504   2.735   1.359 -0.1267 -0.1191 -0.5363
 2459TP3     H119196   4.527   2.715   1.450  0.9163 -1.1480 -1.0056
 2459TP3     H219197   4.412   2.761   1.362 -0.3027 -0.8590  0.7158
 2460TP3      O19198   5.119   0.496   8.515 -0.5244  0.0515  0.2287
 2460TP3     H119199   5.181   0.427   8.542 -1.7212 -0.4563  1.7151
 2460TP3     H219200   5.063   0.453   8.450 -0.7733 -0.1623  0.5812
 2461TP3      O19201   2.648   0.495   7.976 -0.3338  0.9188  0.4403
 2461TP3     H119202   2.648   0.492   7.881 -0.6583  0.4780  0.4505
 2461TP3     H219203   2.715   0.430   8.002  1.2163  2.4992  0.4816
 2462TP3      O19204   2.809   0.639   9.409  0.5004  0.1270 -0.0433
 2462TP3     H119205   2.839   0.581   9.479  2.5151  1.2829  0.0956
 2462TP3     H219206   2.747   0.698   9.453  0.4128 -0.2827  0.3863
 2463TP3      O19207   1.915   0.624   7.697  0.6961 -0.1828  0.1335
 2463TP3     H119208   1.878   0.554   7.751 -0.1990 -0.1718 -0.4577
 2463TP3     H219209   1.960   0.579   7.626  2.0498 -0.2020  0.9892
 2464TP3      O19210   2.955   0.777   2.028 -0.2297 -0.3461  0.5179
 2464TP3     H119211   2.980   0.700   2.079 -0.5563 -0.2506  0.8270
 2464TP3     H219212   3.008   0.772   1.949  0.3117 -0.4777  0.8844
 2465TP3      O19213   2.716   1.948   0.281  0.3951 -0.3538 -0.0256
 2465TP3     H119214   2.811   1.944   0.278  0.3638 -1.2510  0.3287
 2465TP3     H219215   2.696   2.041   0.266  1.3746  0.1194  1.4724
 2466TP3      O19216   3.702   2.598   0.459  0.5277  0.4018  0.1846
 2466TP3     H119217   3.689   2.551   0.377  0.5281  1.9940 -0.7445
 2466TP3     H219218   3.780   2.558   0.498 -0.3047 -1.3090  0.1013
 2467TP3      O19219   3.040   0.717   0.351 -0.7273  1.0263  0.0897
 2467TP3     H119220   3.037   0.695   0.258 -0.5894 -1.7247  0.6751
 2467TP3     H219221   3.133   0.729   0.370 -0.7042  0.9991 -0.0067
 2468TP3      O19222   1.601   5.054   9.617  0.3670  0.0000 -0.1279
 2468TP3     H119223   1.663   5.021   9.682  1.3226  1.6908 -0.1552
 2468TP3     H219224   1.578   5.142   9.648 -1.3319 -0.2633 -0.5938
 2469TP3      O19225   4.347   1.129   2.090  0.1936  0.4811  0.5468
 2469TP3     H119226   4.322   1.193   2.157  0.7639  1.6563 -0.3437
 2469TP3     H219227   4.437   1.151   2.068  0.0180  0.1095 -0.5989
 2470TP3      O19228   4.748   1.135   8.822 -0.7886  0.0403  0.0438
 2470TP3     H119229   4.749   1.132   8.918 -0.4098  1.8744  0.1093
 2470TP3     H219230   4.824   1.188   8.798 -0.0867 -1.5307 -1.3384
 2471TP3      O19231   2.188   0.567   9.676 -0.4553  0.6026 -0.9435
 2471TP3     H119232   2.142   0.538   9.755  0.2519  1.5696 -0.1636
 2471TP3     H219233   2.276   0.589   9.706  0.9805 -2.4471 -2.6221
 2472TP3      O19234   0.049   5.193   9.658  0.0517 -0.1733 -0.1185
 2472TP3     H119235  -0.028   5.249   9.664 -0.4744 -0.5947 -2.4881
 2472TP3     H219236   0.121   5.249   9.687 -1.0290  0.4280  1.4957
 2473TP3      O19237   3.940   1.980   1.516  0.4725  0.3593 -0.3044
 2473TP3     H119238   3.920   2.024   1.434  0.1315  1.1234  0.1911
 2473TP3     H219239   4.018   2.025   1.549 -0.0991  0.8348  0.3896
 2474TP3      O19240   3.582   5.062  10.181  0.0929  0.5665 -0.3192
 2474TP3     H119241   3.632   4.980  10.187 -1.4500 -0.5819 -2.5806
 2474TP3     H219242   3.503   5.046  10.231  0.3061  1.0900  0.1910
 2475TP3      O19243   0.667   0.409   0.220  0.8365  0.5921  0.2167
 2475TP3     H119244   0.755   0.434   0.190  0.3729  2.1653  0.1388
 2475TP3     H219245   0.608   0.449   0.156  0.0957 -1.6955 -0.5719
 2476TP3      O19246   3.342   2.102   8.318  0.6614  0.0398 -0.2024
 2476TP3     H119247   3.297   2.026   8.355  0.9013 -0.2221 -0.4454
 2476TP3     H219248   3.404   2.129   8.385  0.9866 -0.3387 -0.3491
 2477TP3      O19249   2.705   5.264  10.255  0.3538  0.0431 -0.4880
 2477TP3     H119250   2.655   5.250  10.175 -0.1936 -2.8522  0.2872
 2477TP3     H219251   2.793   5.286  10.225 -0.0244 -0.3322 -1.9059
 2478TP3      O19252   3.444   2.187   0.301  0.0400 -0.0481 -0.1689
 2478TP3     H119253   3.394   2.234   0.367  0.2351 -0.3838  0.2172
 2478TP3     H219254   3.403   2.212   0.218 -0.9879 -0.6013  0.1708
 2479TP3      O19255   1.014   2.474   9.563 -0.0871 -0.0901  0.0570
 2479TP3     H119256   1.032   2.532   9.489 -1.0277 -0.0059 -0.1172
 2479TP3     H219257   1.046   2.388   9.535  2.1695  0.5098  0.6843
 2480TP3      O19258   2.692   2.470   1.427  0.4353 -0.7546  0.3822
 2480TP3     H119259   2.669   2.417   1.503 -0.3949 -0.4442  0.3451
 2480TP3     H219260   2.654   2.424   1.353 -1.2401  0.4535  0.4634
 2481TP3      O19261   4.100   1.294   1.034  0.2862  0.3088  0.5097
 2481TP3     H119262   4.165   1.228   1.010  0.1054 -0.7804  2.8561
 2481TP3     H219263   4.017   1.246   1.037 -0.1594  1.0611  0.3871
 2482TP3      O19264   3.803   5.008   1.413  0.4968  0.2517  0.4011
 2482TP3     H119265   3.767   4.921   1.433  0.7985  0.1868  0.6762
 2482TP3     H219266   3.839   5.038   1.497 -0.5712  1.1062  0.5780
 2483TP3      O19267   1.612   1.919   1.189  0.0549  0.4856  0.0930
 2483TP3     H119268   1.683   1.869   1.228 -0.5616 -1.0987 -0.7503
 2483TP3     H219269   1.596   1.991   1.250  0.5020 -0.7388  1.6821
 2484TP3      O19270   1.616   0.584   2.177 -0.0917 -0.3324  0.1885
 2484TP3     H119271   1.532   0.556   2.213  0.2035 -0.0496  1.0892
 2484TP3     H219272   1.668   0.611   2.253  0.5008  0.3392 -0.4470
 2485TP3      O19273   0.427   1.024   2.018  0.0623 -0.0658 -0.2305
 2485TP3     H119274   0.428   1.078   2.097 -2.2566 -1.3993  0.7705
 2485TP3     H219275   0.432   0.934   2.050 -1.0145 -0.6220 -1.5614
 2486TP3      O19276   0.761   3.982   9.239 -0.7613  0.0757 -0.0731
 2486TP3     H119277   0.760   3.932   9.157  0.1722 -1.0027  0.5587
 2486TP3     H219278   0.690   3.945   9.290 -0.2760 -0.3960  0.2657
 2487TP3      O19279   3.732   2.750   9.825 -0.1844  0.3468  0.1880
 2487TP3     H119280   3.801   2.687   9.801  0.8542  1.8412 -0.8887
 2487TP3     H219281   3.776   2.814   9.881 -0.8742  0.9172  0.0910
 2488TP3      O19282   1.408   2.264   1.565  0.0487 -0.0286 -0.6932
 2488TP3     H119283   1.321   2.266   1.602  0.3342  1.4650 -0.0359
 2488TP3     H219284   1.467   2.284   1.638  0.8552 -0.1351 -1.2948
 2489TP3      O19285   1.699   3.331   0.642  0.6908  0.3504  0.0654
 2489TP3     H119286   1.647   3.358   0.717 -2.2657 -4.1441 -0.1467
 2489TP3     H219287   1.667   3.385   0.570 -1.7527 -0.4135  0.5356
 2490TP3      O19288   1.880   1.770   0.593 -0.0587  0.7566 -0.2308
 2490TP3     H119289   1.823   1.826   0.645 -1.3100 -1.0207  0.3627
 2490TP3     H219290   1.828   1.691   0.576  1.5798 -0.1627 -1.2054
 2491TP3      O19291   1.440   4.246   0.773  0.3345  0.4123  0.0733
 2491TP3     H119292   1.371   4.209   0.828  0.2032 -0.1884 -0.4971
 2491TP3     H219293   1.436   4.340   0.791 -0.8652  0.4248 -0.2266
 2492TP3      O19294   2.607   5.307   1.628 -0.3462 -0.2723 -0.2148
 2492TP3     H119295   2.594   5.366   1.554 -0.3897 -1.3841 -1.1044
 2492TP3     H219296   2.638   5.364   1.699 -1.5657  1.0165 -0.6803
 2493TP3      O19297   3.078   1.211   9.845 -0.1177 -0.0148  0.2974
 2493TP3     H119298   3.053   1.290   9.892 -1.3589 -0.8944  1.1682
 2493TP3     H219299   3.164   1.188   9.879 -0.5092 -0.0041  1.3187
 2494TP3      O19300   2.992   5.353   9.016 -0.2422 -0.1929  0.1778
 2494TP3     H119301   3.010   5.446   9.003 -0.3698  0.2733  2.9345
 2494TP3     H219302   3.073   5.309   8.991 -0.1209  0.6772 -0.9626
 2495TP3      O19303   3.023   5.009   8.870  0.0981  0.0546  0.2130
 2495TP3     H119304   2.938   5.045   8.894 -0.4892  0.5325 -2.4764
 2495TP3     H219305   3.011   4.914   8.870 -0.5500  0.1369 -0.5425
 2496TP3      O19306   2.825   0.165   8.583 -0.3538  0.0259 -0.0512
 2496TP3     H119307   2.858   0.253   8.564  1.0699 -0.1479  1.4942
 2496TP3     H219308   2.876   0.107   8.527  0.1348  0.0057  0.4101
 2497TP3      O19309   1.680   1.088   9.969 -0.2456 -0.3430 -0.3189
 2497TP3     H119310   1.615   1.034   9.924 -1.3553  0.8478 -0.1837
 2497TP3     H219311   1.684   1.053  10.058  0.4940 -1.4498 -0.7888
 2498TP3      O19312   2.007   0.526   0.517  0.2443  0.0499  0.0813
 2498TP3     H119313   1.995   0.450   0.460 -1.1591 -0.4381  1.0083
 2498TP3     H219314   2.079   0.576   0.476  0.9160 -1.5663 -0.7337
 2499TP3      O19315   5.352   2.402   0.128  0.0227 -0.0567  0.4914
 2499TP3     H119316   5.385   2.314   0.114 -0.4443 -0.1543 -0.0063
 2499TP3     H219317   5.355   2.414   0.223 -0.2200 -0.7262  0.5863
 2500TP3      O19318   2.753   4.464   9.470 -0.2976 -0.4405  0.6878
 2500TP3     H119319   2.804   4.410   9.530  2.0836  0.8509 -0.1331
 2500TP3     H219320   2.730   4.541   9.521 -1.1876 -0.8664  0.9504
 2501TP3      O19321   0.021   5.052   9.193  0.3039  0.3120 -0.0032
 2501TP3     H119322   0.059   5.063   9.281  1.2199 -0.2678 -0.3175
 2501TP3     H219323  -0.034   4.974   9.201  0.6597  0.0573 -0.0352
 2502TP3      O19324   3.327   3.113   8.679  0.3414  0.4087 -0.5029
 2502TP3     H119325   3.419   3.086   8.690  0.1201 -0.0975  0.1875
 2502TP3     H219326   3.318   3.132   8.586  0.3611 -2.5060 -1.1485
 2503TP3      O19327   3.824   2.135   8.035  0.3343 -0.4185  0.4107
 2503TP3     H119328   3.854   2.213   8.081 -1.6226  0.9132 -0.5341
 2503TP3     H219329   3.905   2.090   8.009  1.4645  0.8620  1.6461
 2504TP3      O19330   0.946   5.476   2.151  0.0270  0.1983 -0.2826
 2504TP3     H119331   0.873   5.534   2.130 -0.3694 -0.2318 -0.1053
 2504TP3     H219332   0.960   5.487   2.245 -1.1158 -1.1918  0.0734
 2505TP3      O19333   1.902   4.680   1.871  0.0123  0.1816 -0.4000
 2505TP3     H119334   1.837   4.628   1.822  0.4371  0.6971 -1.5221
 2505TP3     H219335   1.863   4.767   1.876 -0.0111  0.1377  0.1576
 2506TP3      O19336   1.993   1.489   9.233 -0.5136  0.6649 -0.2369
 2506TP3     H119337   1.902   1.469   9.254 -0.9567  1.3010 -1.5159
 2506TP3     H219338   2.028   1.407   9.196 -0.0979 -0.0619  1.7169
 2507TP3      O19339   1.627   1.609   2.415  0.2284  0.2789 -0.2595
 2507TP3     H119340   1.682   1.634   2.489 -0.9912 -1.0166  1.1293
 2507TP3     H219341   1.560   1.553   2.454 -1.4119  0.9300 -2.0838
 2508TP3      O19342   1.976   1.103   9.509 -0.1457  0.1346 -0.0558
 2508TP3     H119343   1.927   1.147   9.578  0.4114  0.4126  0.1699
 2508TP3     H219344   1.913   1.091   9.438 -0.7153 -0.1227  0.4885
 2509TP3      O19345   4.678   2.578   8.909 -0.2179  0.2718 -1.0796
 2509TP3     H119346   4.703   2.670   8.913 -2.6896  0.9199  0.0339
 2509TP3     H219347   4.595   2.578   8.861  0.3164 -1.5071 -2.0467
 2510TP3      O19348   5.282   3.353   9.355  0.3292 -0.3677  0.8164
 2510TP3     H119349   5.304   3.330   9.446  0.4711 -1.6987  0.4572
 2510TP3     H219350   5.227   3.280   9.325  1.2659 -0.5321 -0.5368
 2511TP3      O19351   4.138   5.470   0.447  0.6242 -0.2384  0.5069
 2511TP3     H119352   4.153   5.503   0.536 -0.8664  1.8592  0.0215
 2511TP3     H219353   4.061   5.518   0.416  2.3550  0.5915 -2.6886
 2512TP3      O19354   3.875   3.410   7.946  0.6089  0.1215 -0.3508
 2512TP3     H119355   3.940   3.477   7.963 -0.4012  0.9491  0.3296
 2512TP3     H219356   3.831   3.398   8.030  1.3700 -2.0344 -0.2373
 2513TP3      O19357   5.198   2.099   0.360 -0.2158  0.0485  0.0743
 2513TP3     H119358   5.197   2.061   0.272  1.1955  0.2265 -0.0322
 2513TP3     H219359   5.174   2.191   0.346 -0.1678  0.0335 -0.1167
 2514TP3      O19360   1.705   0.244   9.337  0.4398 -0.1106 -0.7691
 2514TP3     H119361   1.797   0.221   9.332  0.4276 -0.1880 -0.6249
 2514TP3     H219362   1.668   0.185   9.402  1.0229  2.2792  1.8262
 2515TP3      O19363   0.107   0.414   0.319 -0.0623 -0.4236  0.3185
 2515TP3     H119364   0.167   0.369   0.260 -1.0985 -0.1055 -1.0137
 2515TP3     H219365   0.109   0.506   0.290  1.0086  0.1428  2.1366
 2516TP3      O19366   4.948   2.246  10.170  0.5645 -0.8627 -0.2363
 2516TP3     H119367   4.949   2.267  10.263  0.1294 -0.5847 -0.2912
 2516TP3     H219368   4.953   2.151  10.166 -2.1120 -1.0721  0.1591
 2517TP3      O19369   3.234   1.300   9.147 -0.6629 -0.7444  0.0488
 2517TP3     H119370   3.262   1.246   9.073 -1.3311  0.5514 -1.1702
 2517TP3     H219371   3.139   1.297   9.145 -0.6856 -0.5957  0.7754
 2518TP3      O19372   4.352   5.496   0.040 -0.1528  0.0778  0.1920
 2518TP3     H119373   4.318   5.409   0.018  0.6706 -0.6016  1.4818
 2518TP3     H219374   4.408   5.519  -0.034 -2.7577  0.8902 -1.5957
 2519TP3      O19375   3.291   3.472   1.205 -1.1892  1.0655  0.1632
 2519TP3     H119376   3.326   3.399   1.153 -3.0242  1.5657 -1.8845
 2519TP3     H219377   3.214   3.435   1.249  0.2123  0.7145  2.3927
 2520TP3      O19378   0.318   4.358   0.909  0.1993  0.0666 -0.3444
 2520TP3     H119379   0.370   4.301   0.852  0.3679  0.6723 -0.8098
 2520TP3     H219380   0.366   4.442   0.908  0.0191  0.1810  0.4186
 2521TP3      O19381   2.460   4.532   9.526  0.2264  0.0161  0.3570
 2521TP3     H119382   2.545   4.492   9.505  0.3834  1.6761 -2.3854
 2521TP3     H219383   2.396   4.470   9.491  0.4078  0.5043 -0.8727
 2522TP3      O19384   3.506   1.427   0.894 -0.0705  0.2966  0.2082
 2522TP3     H119385   3.442   1.471   0.837 -0.2297 -0.1315  0.0567
 2522TP3     H219386   3.587   1.476   0.881 -0.6424  1.5584  1.2717
 2523TP3      O19387   0.023   5.098   1.750 -0.1863 -0.7954 -0.4166
 2523TP3     H119388   0.043   5.186   1.718  0.4151 -0.0938  1.7771
 2523TP3     H219389   0.094   5.044   1.716  1.2298  0.2053  0.8758
 2524TP3      O19390   0.919   1.295  10.306  0.3666 -0.3476  0.0815
 2524TP3     H119391   0.993   1.304  10.245  0.9743 -0.6813  0.7573
 2524TP3     H219392   0.926   1.371  10.364 -2.2681  1.8986 -2.3984
 2525TP3      O19393   1.261   0.804   1.004 -0.2587 -0.1570 -0.4364
 2525TP3     H119394   1.273   0.772   0.914  0.0524 -0.1559 -0.3957
 2525TP3     H219395   1.166   0.797   1.019 -0.3695  0.2904 -0.9295
 2526TP3      O19396   4.665   0.610   8.458  0.6678 -0.0422 -0.2408
 2526TP3     H119397   4.648   0.612   8.552 -0.4260 -2.8636 -0.3291
 2526TP3     H219398   4.735   0.546   8.447  0.9981  0.4882 -1.3154
 2527TP3      O19399   0.376   0.709   1.095  0.2338  0.0693  0.6693
 2527TP3     H119400   0.402   0.617   1.099 -0.3270 -0.0318  2.1725
 2527TP3     H219401   0.314   0.719   1.167  0.1284  1.5739  0.3686
 2528TP3      O19402   3.722   0.103   0.613 -0.1700  0.4738  0.5664
 2528TP3     H119403   3.765   0.105   0.527 -0.4298  0.3488  0.4346
 2528TP3     H219404   3.653   0.169   0.606  0.1147  0.8006  0.8387
 2529TP3      O19405   4.146   0.400   0.165 -0.7110 -0.1213 -0.8169
 2529TP3     H119406   4.152   0.308   0.137 -1.0208 -0.5390  0.4773
 2529TP3     H219407   4.052   0.417   0.171 -0.6519 -0.1133  0.1980
 2530TP3      O19408   2.400   3.476   9.684 -0.3764  0.0521  0.8297
 2530TP3     H119409   2.465   3.409   9.659 -0.9430 -1.1750  2.5485
 2530TP3     H219410   2.426   3.503   9.772 -0.4636  1.7555  0.3575
 2531TP3      O19411   1.958   2.849   0.206  0.2086 -0.3631  0.2749
 2531TP3     H119412   2.045   2.888   0.209  0.0446 -0.0819  1.7735
 2531TP3     H219413   1.908   2.907   0.149  0.8610 -0.2562 -0.1981
 2532TP3      O19414   3.641   5.285   9.533  0.5291 -0.7855  0.5413
 2532TP3     H119415   3.613   5.218   9.470  0.1709 -0.8054  0.7246
 2532TP3     H219416   3.736   5.276   9.536  0.6426 -0.1780 -0.6872
 2533TP3      O19417   3.257   1.085   8.241  0.2829  0.4078 -0.1778
 2533TP3     H119418   3.323   1.031   8.286 -0.3592 -1.0509 -0.9596
 2533TP3     H219419   3.173   1.050   8.271 -0.1573  1.8242  0.2861
 2534TP3      O19420   1.272   4.352   9.375 -0.1197  0.3342  0.3029
 2534TP3     H119421   1.315   4.387   9.453 -0.6518 -0.8509  1.1285
 2534TP3     H219422   1.191   4.314   9.407 -0.2512 -0.3394 -0.8082
 2535TP3      O19423   4.871   1.537   1.047 -0.2751 -0.3482  1.3758
 2535TP3     H119424   4.827   1.475   0.989  1.5618 -1.3449  0.9874
 2535TP3     H219425   4.899   1.484   1.121  1.2744  0.0069  1.0620
 2536TP3      O19426   4.424   1.820   0.768 -0.0026  0.2829 -0.2212
 2536TP3     H119427   4.352   1.760   0.786  0.0021  0.1394 -0.6754
 2536TP3     H219428   4.388   1.907   0.786  0.1373  0.1144  0.8940
 2537TP3      O19429   0.117   4.705   7.929  0.4138 -0.4464  0.1101
 2537TP3     H119430   0.073   4.758   7.862 -0.7909 -1.9552 -0.3266
 2537TP3     H219431   0.198   4.753   7.948 -0.5708  1.4579 -0.3750
 2538TP3      O19432   4.193   2.664   0.370  0.4984 -0.2504 -0.1353
 2538TP3     H119433   4.150   2.700   0.448 -0.0702 -0.8431 -0.1687
 2538TP3     H219434   4.230   2.740   0.325  0.4975  0.1349  0.5134
 2539TP3      O19435   4.899   4.441   1.072 -0.1391  0.1534 -0.4418
 2539TP3     H119436   4.933   4.455   0.984  0.0075  0.0290 -0.4044
 2539TP3     H219437   4.954   4.373   1.109  0.7839  1.2914  0.3012
 2540TP3      O19438   3.259   1.798   7.854  0.1230 -0.1136  0.2729
 2540TP3     H119439   3.223   1.752   7.778 -0.4210  0.2000  0.3375
 2540TP3     H219440   3.241   1.739   7.927 -2.5326  1.1364  0.6928
 2541TP3      O19441   5.183   2.665   1.489  0.4212  0.6756 -0.1965
 2541TP3     H119442   5.215   2.616   1.413  3.6700  1.4139  0.5918
 2541TP3     H219443   5.244   2.739   1.496  0.5968  0.2405  3.5267
 2542TP3      O19444   3.885   4.610   0.989  0.2315  0.0321 -0.1376
 2542TP3     H119445   3.969   4.598   1.032  0.3896 -1.3409 -0.8220
 2542TP3     H219446   3.840   4.675   1.043  0.5803 -1.3320  1.8531
 2543TP3      O19447   3.096   1.498   0.707  0.0567  0.1823  0.1925
 2543TP3     H119448   3.021   1.542   0.749  0.3810 -1.0081  2.0887
 2543TP3     H219449   3.074   1.496   0.614 -2.1735  0.0370  0.6945
 2544TP3      O19450   4.886   0.385   0.441 -0.4512  0.0275 -0.1507
 2544TP3     H119451   4.799   0.408   0.407  0.3444  0.4923 -1.9084
 2544TP3     H219452   4.947   0.416   0.374  1.0210 -1.2370  0.5793
 2545TP3      O19453   0.255   3.467   9.284 -0.5255 -0.5742  0.4507
 2545TP3     H119454   0.256   3.481   9.379  0.3541  2.1581  0.0889
 2545TP3     H219455   0.346   3.475   9.258 -0.9457  0.1436 -0.8160
 2546TP3      O19456   3.068   1.298   0.900  0.2190 -0.0345 -0.0910
 2546TP3     H119457   2.973   1.293   0.912  0.1560 -0.2428 -0.6701
 2546TP3     H219458   3.080   1.360   0.828  0.6412  2.0350  1.7096
 2547TP3      O19459   4.838   0.237   0.814 -0.5997  0.5320  0.2181
 2547TP3     H119460   4.784   0.249   0.892  0.7903  1.7180  1.0254
 2547TP3     H219461   4.885   0.155   0.829  0.7906  1.5089  1.3358
 2548TP3      O19462   5.027   3.968   1.257  0.1698  0.0011 -0.2664
 2548TP3     H119463   4.997   4.038   1.199  2.0604 -0.3401 -1.7123
 2548TP3     H219464   5.051   3.897   1.198 -0.1010 -1.2396  1.0887
 2549TP3      O19465   0.472   0.949   0.702 -0.8150  0.1096  0.7006
 2549TP3     H119466   0.390   0.978   0.664 -0.2066  1.2966  0.2593
 2549TP3     H219467   0.455   0.946   0.796 -0.9756  1.7002  0.7379
 2550TP3      O19468   4.291   4.562   0.392  0.3580 -0.3043  0.3956
 2550TP3     H119469   4.312   4.612   0.313  0.6239 -0.5465  0.3148
 2550TP3     H219470   4.203   4.592   0.416 -0.3640 -1.3630 -0.8784
 2551TP3      O19471   4.285   1.278   0.324  0.1837 -0.3596 -0.6312
 2551TP3     H119472   4.201   1.324   0.321  0.8845  0.9630 -0.4557
 2551TP3     H219473   4.299   1.259   0.416  0.5495  0.3431 -0.5340
 2552TP3      O19474   2.436   1.805   8.962 -0.1223 -0.9334 -0.9652
 2552TP3     H119475   2.405   1.721   8.929 -1.4223 -0.1913 -1.6832
 2552TP3     H219476   2.358   1.847   8.999  0.4264  0.1220 -0.9677
 2553TP3      O19477   3.634   2.148  10.274 -0.2023 -0.1854 -0.1735
 2553TP3     H119478   3.565   2.192  10.325 -0.8488 -0.2164 -1.0058
 2553TP3     H219479   3.702   2.129  10.338 -1.7616 -1.8155  1.0577
 2554TP3      O19480   3.121   4.622   9.915  0.2262  0.4224 -0.4619
 2554TP3     H119481   3.065   4.679   9.968  0.6783  1.7941 -1.4527
 2554TP3     H219482   3.194   4.600   9.973 -0.1857  0.4645  0.0819
 2555TP3      O19483   4.117   1.799   1.984  0.1664 -0.1575  0.2092
 2555TP3     H119484   4.093   1.717   2.027  1.7106 -0.0086  1.3627
 2555TP3     H219485   4.129   1.775   1.892 -0.6348 -0.9615  0.3083
 2556TP3      O19486   3.689   2.947   8.123  0.3120  0.4682 -0.3372
 2556TP3     H119487   3.626   2.988   8.064  0.3544 -0.6537 -1.1674
 2556TP3     H219488   3.761   3.009   8.128  0.5869  0.2775 -1.9559
 2557TP3      O19489   5.084   2.197   1.249 -0.8444 -0.4255  0.4645
 2557TP3     H119490   4.994   2.187   1.217 -0.9149 -1.5478  1.0086
 2557TP3     H219491   5.137   2.157   1.180 -0.7240  0.4581  0.0243
 2558TP3      O19492   1.813   4.022   1.669  0.1711  0.1313  0.3143
 2558TP3     H119493   1.743   4.054   1.725 -1.8798 -1.1101 -1.4429
 2558TP3     H219494   1.783   3.935   1.640  2.8279 -0.8029  0.2105
 2559TP3      O19495   3.924   0.904   0.425  0.0847  0.1603 -0.2948
 2559TP3     H119496   3.845   0.870   0.383  0.1011  0.0293 -0.2191
 2559TP3     H219497   3.971   0.950   0.355  0.9543 -1.5057 -0.8112
 2560TP3      O19498   4.025   1.722  10.245 -0.2425  0.3161 -0.4494
 2560TP3     H119499   3.935   1.703  10.220 -0.2297 -0.8285  0.3384
 2560TP3     H219500   4.072   1.640  10.226  0.4677  0.6447 -0.1074
 2561TP3      O19501   4.362   5.001   0.341 -0.6652  0.0907  0.3196
 2561TP3     H119502   4.307   5.067   0.299  2.0600  3.5249  1.9329
 2561TP3     H219503   4.344   5.009   0.434 -0.0470 -1.2230  0.5694
 2562TP3      O19504   3.150   0.616   0.736 -0.2768 -0.0131  0.0967
 2562TP3     H119505   3.099   0.696   0.721  0.2317  0.5535  1.3520
 2562TP3     H219506   3.161   0.578   0.649 -1.1289  0.9124 -0.4228
 2563TP3      O19507   0.816   0.627   8.993  0.7333  0.7536  0.7602
 2563TP3     H119508   0.788   0.590   9.077 -4.4684  0.9596 -0.6917
 2563TP3     H219509   0.882   0.566   8.961 -2.2820 -3.3128  1.7943
 2564TP3      O19510   5.392   0.977   8.262 -0.6822 -0.1935  0.4937
 2564TP3     H119511   5.381   1.049   8.199  0.2059 -0.5222 -0.0527
 2564TP3     H219512   5.487   0.962   8.263 -0.9170 -1.7297  0.1760
 2565TP3      O19513   1.253   1.292   9.699  1.0192  0.1668  0.2111
 2565TP3     H119514   1.204   1.210   9.710  0.0803  0.6635 -0.1979
 2565TP3     H219515   1.302   1.279   9.618 -0.0051  0.4266 -0.4664
 2566TP3      O19516   4.230   1.852   8.146 -0.1823  0.2717  0.1030
 2566TP3     H119517   4.213   1.759   8.138  0.8139  0.2041 -1.5928
 2566TP3     H219518   4.323   1.862   8.124 -0.2792  1.6473  0.2304
 2567TP3      O19519   0.086   0.441   7.679  0.4361 -0.2713 -0.4404
 2567TP3     H119520   0.025   0.394   7.621 -0.3674  0.8257 -0.4897
 2567TP3     H219521   0.075   0.398   7.764 -2.1975  1.4534  0.1498
 2568TP3      O19522   2.586   2.553   9.059  0.1334 -0.2294  0.0570
 2568TP3     H119523   2.515   2.606   9.097 -1.3353 -2.4660  0.5684
 2568TP3     H219524   2.601   2.484   9.124  2.7675  0.1610 -0.0957
 2569TP3      O19525   3.920   0.105   0.361 -0.2831 -0.5273 -0.5322
 2569TP3     H119526   3.963   0.079   0.280  1.5439 -0.5158  0.4266
 2569TP3     H219527   3.867   0.181   0.336  1.7106  0.6333 -1.3169
 2570TP3      O19528   0.013   0.926   0.460 -0.3209 -0.1607  0.2297
 2570TP3     H119529   0.068   0.968   0.394 -0.2937  1.0222  0.9808
 2570TP3     H219530  -0.035   0.999   0.501 -0.8304 -0.9448  1.0458
 2571TP3      O19531   0.790   0.812   8.788  0.2760 -0.1758 -0.1194
 2571TP3     H119532   0.787   0.739   8.849  0.5667  0.3211  0.4950
 2571TP3     H219533   0.720   0.794   8.725 -0.7897 -0.0956  1.0311
 2572TP3      O19534   2.881   4.657   0.103 -0.3692  0.3743  0.2315
 2572TP3     H119535   2.933   4.595   0.052 -2.5324 -2.3220  1.1726
 2572TP3     H219536   2.803   4.673   0.049 -0.6695  0.8581  0.8061
 2573TP3      O19537   4.170   2.388   9.970  0.2246 -0.1712  0.6188
 2573TP3     H119538   4.227   2.335  10.027  0.6325  0.0784  0.4494
 2573TP3     H219539   4.083   2.381  10.009  0.4763 -0.1266  1.1832
 2574TP3      O19540   4.306   5.257   0.450 -0.7237  0.0653 -0.4862
 2574TP3     H119541   4.305   5.263   0.355  1.2281  0.6578 -0.4911
 2574TP3     H219542   4.227   5.305   0.478 -0.9060  0.5299 -1.7594
 2575TP3      O19543   4.971   5.363   0.133  0.2944 -0.2253  0.1952
 2575TP3     H119544   4.904   5.297   0.152  0.5227 -0.7021 -0.6436
 2575TP3     H219545   4.961   5.381   0.040  1.5980 -0.6030 -0.0300
 2576TP3      O19546   2.964   4.398   9.990  1.0510  0.3687 -0.0157
 2576TP3     H119547   3.006   4.483   9.975  0.9166  0.5011  0.3524
 2576TP3     H219548   2.892   4.396   9.927  1.1442  0.4670 -0.1268
 2577TP3      O19549   5.261   1.222   8.120  0.9405 -0.4622 -0.1632
 2577TP3     H119550   5.313   1.283   8.068 -0.3213  1.1482  0.4119
 2577TP3     H219551   5.233   1.274   8.196 -2.1217 -1.0382 -0.8510
 2578TP3      O19552   2.093   1.616   9.022  0.1618  0.0359 -0.0188
 2578TP3     H119553   2.047   1.586   9.100  0.2274  0.2929  0.1210
 2578TP3     H219554   2.133   1.699   9.048  0.2739  0.0704 -0.2929
 2579TP3      O19555   3.207   0.817   1.181 -0.5041  0.8992 -0.2556
 2579TP3     H119556   3.121   0.789   1.151 -1.5493  1.6376  2.0073
 2579TP3     H219557   3.250   0.736   1.208 -1.0143  0.7020 -0.0394
 2580TP3      O19558   0.546   3.740   9.765 -0.2933 -0.1713  0.9183
 2580TP3     H119559   0.622   3.685   9.780 -0.8846 -0.8901  1.3028
 2580TP3     H219560   0.578   3.811   9.710  0.4708 -0.8956  0.4295
 2581TP3      O19561   5.456   3.445   1.146  0.3602  0.1403 -0.5891
 2581TP3     H119562   5.440   3.517   1.084 -0.4949 -0.2541 -0.8422
 2581TP3     H219563   5.482   3.488   1.227  2.4510  0.6392 -1.4854
 2582TP3      O19564   4.340   1.234   0.576  0.1458  0.3701  0.3464
 2582TP3     H119565   4.414   1.173   0.581 -0.4634 -0.3302  1.0515
 2582TP3     H219566   4.308   1.240   0.666 -2.0197 -1.0484 -0.2853
 2583TP3      O19567   3.824   0.804   0.647  0.7330 -0.3222  0.1837
 2583TP3     H119568   3.888   0.843   0.588  0.1117 -1.0602 -0.9877
 2583TP3     H219569   3.764   0.876   0.667  2.6148  0.7299  2.3346
 2584TP3      O19570   5.232   4.910   7.600  0.3441 -0.8556 -0.2908
 2584TP3     H119571   5.319   4.912   7.640 -0.3833  0.5016  1.3035
 2584TP3     H219572   5.214   5.001   7.577 -1.0439 -0.9620  0.3004
 2585TP3      O19573   0.007   2.289   0.467  0.0971  0.4824  0.5710
 2585TP3     H119574   0.062   2.265   0.393  0.7037  0.3281  1.0703
 2585TP3     H219575   0.068   2.311   0.537 -0.4641  0.0653  1.2089
 2586TP3      O19576   1.903   1.040   8.764 -0.3252 -0.1254  0.6085
 2586TP3     H119577   1.849   0.961   8.754 -0.2932 -0.1785  0.8552
 2586TP3     H219578   1.891   1.065   8.855  0.6922 -0.5935  0.8787
 2587TP3      O19579   4.386   1.838   0.376  0.4276  0.7803 -0.4458
 2587TP3     H119580   4.466   1.790   0.398 -0.8412 -1.4530 -0.5432
 2587TP3     H219581   4.382   1.835   0.280  0.8419  1.9307 -0.5013
 2588TP3      O19582   5.186   1.359   8.343 -0.4867 -0.4644  0.2919
 2588TP3     H119583   5.136   1.439   8.329 -0.6892 -0.7162 -0.4922
 2588TP3     H219584   5.163   1.331   8.431  1.2992  1.5332  1.4288
 2589TP3      O19585   3.900   2.571   9.743 -0.9419 -0.1249  0.0329
 2589TP3     H119586   3.882   2.507   9.812  0.3493 -2.2384 -1.5203
 2589TP3     H219587   3.980   2.616   9.772 -0.0934 -1.3839 -0.3432
 2590TP3      O19588   0.541   3.085   9.871 -0.0600  0.1848  0.8312
 2590TP3     H119589   0.557   2.991   9.863 -0.3177  0.2076  0.0610
 2590TP3     H219590   0.454   3.098   9.834  0.5658  0.9353 -0.3944
 2591TP3      O19591   3.010   0.375   1.107 -1.1422 -0.0673 -0.0500
 2591TP3     H119592   2.976   0.464   1.116 -0.4805  0.1913 -0.0859
 2591TP3     H219593   2.995   0.334   1.192 -0.8346  0.2926  0.1773
 2592TP3      O19594   2.190   0.696   9.447 -0.2841  0.3664  0.5041
 2592TP3     H119595   2.205   0.648   9.528 -0.5198  0.2044  0.4523
 2592TP3     H219596   2.209   0.632   9.378 -1.4178  0.1026  0.4351
 2593TP3      O19597   4.519   0.164   0.375  0.6946  0.4534 -0.1941
 2593TP3     H119598   4.531   0.246   0.326  1.0313  0.3934 -0.2155
 2593TP3     H219599   4.593   0.162   0.436  1.4946 -0.5156 -1.1608
 2594TP3      O19600   5.426   2.796   9.274  0.4109 -0.0061 -0.2639
 2594TP3     H119601   5.341   2.809   9.316 -0.3943 -0.6575 -1.6442
 2594TP3     H219602   5.478   2.748   9.338 -0.7849 -0.9602 -0.0020
 2595TP3      O19603   4.092   4.832   9.803 -0.0974  0.5124 -0.5873
 2595TP3     H119604   4.081   4.740   9.831 -0.5308  0.6952 -0.1415
 2595TP3     H219605   4.023   4.845   9.738  0.7305  0.1706 -1.5450
 2596TP3      O19606   4.669   5.279  10.213 -0.5909  0.5566  0.5229
 2596TP3     H119607   4.656   5.241  10.300  1.4246 -0.5312  0.3602
 2596TP3     H219608   4.608   5.353  10.211 -1.9933 -0.4963  2.1624
 2597TP3      O19609   4.619   1.224   1.148  0.3102 -0.2714  0.4223
 2597TP3     H119610   4.617   1.224   1.244 -0.6075  0.2646  0.4037
 2597TP3     H219611   4.588   1.311   1.123 -1.6194 -1.1653 -0.3863
 2598TP3      O19612   2.281   1.541   9.670 -0.1340 -0.1202 -0.1251
 2598TP3     H119613   2.297   1.447   9.669 -1.9008 -0.4640  1.0153
 2598TP3     H219614   2.351   1.579   9.616  0.8090 -2.0406 -0.2665
 2599TP3      O19615   5.212   1.318   0.733 -0.2599  0.2161  0.3215
 2599TP3     H119616   5.188   1.250   0.796  0.5389 -0.9925 -0.6563
 2599TP3     H219617   5.170   1.397   0.766 -0.3070 -0.5192  2.0665
 2600TP3      O19618   0.898   0.381   1.257  0.0267 -0.4948  0.3591
 2600TP3     H119619   0.916   0.470   1.288 -1.3920 -0.7282  1.8962
 2600TP3     H219620   0.894   0.390   1.162  0.3240  1.0123  0.4723
 2601TP3      O19621   4.794   3.344   1.789 -0.2343 -0.3735 -0.2227
 2601TP3     H119622   4.716   3.324   1.738 -0.2444 -0.5174 -0.1518
 2601TP3     H219623   4.761   3.377   1.872 -0.2196  0.9716 -0.7311
 2602TP3      O19624   0.283   3.087   1.963 -0.3933 -0.0456 -0.1766
 2602TP3     H119625   0.326   3.140   1.896 -0.4273 -0.5519 -0.5976
 2602TP3     H219626   0.217   3.146   2.001  0.3594  0.5817  0.1564
 2603TP3      O19627   5.076   0.661   0.396 -0.0747  1.0326 -0.4222
 2603TP3     H119628   5.002   0.618   0.351  1.0927 -1.7826  0.2385
 2603TP3     H219629   5.035   0.727   0.452 -1.9532  0.7662 -1.4338
 2604TP3      O19630   0.801   1.937  10.294  0.7005 -0.1279  0.3575
 2604TP3     H119631   0.836   2.002  10.355  1.9042  0.4000 -0.8672
 2604TP3     H219632   0.840   1.855  10.323  0.1646 -0.1176  1.1416
 2605TP3      O19633   2.228   0.661   1.052 -0.0922  0.0924 -1.0343
 2605TP3     H119634   2.239   0.586   0.993  2.4266  0.0956 -0.6585
 2605TP3     H219635   2.305   0.656   1.109 -1.5681  1.1383  1.0663
 2606TP3      O19636   5.395   0.420   9.502  0.4378 -0.0086  0.1909
 2606TP3     H119637   5.388   0.514   9.490  0.1399 -0.1690 -0.9001
 2606TP3     H219638   5.310   0.385   9.476  0.8061 -0.6529 -0.1858
 2607TP3      O19639   3.522   1.096   0.087 -0.2031 -0.2546 -0.0118
 2607TP3     H119640   3.589   1.033   0.060 -0.4288  0.1889 -1.6924
 2607TP3     H219641   3.520   1.090   0.182  0.8527 -1.6776 -0.0624
 2608TP3      O19642   0.436   0.672  10.153 -0.0827 -0.3922 -0.2709
 2608TP3     H119643   0.346   0.681  10.121  0.0040  0.2494 -0.3513
 2608TP3     H219644   0.438   0.721  10.235  0.9672  2.2671 -1.8188
 2609TP3      O19645   4.319   4.203   9.607  0.1094  0.0890 -0.2669
 2609TP3     H119646   4.358   4.118   9.627 -0.6888 -0.4863 -1.1293
 2609TP3     H219647   4.340   4.218   9.515  0.8020  1.1326  0.0505
 2610TP3      O19648   1.099   0.248   1.406 -0.2460  0.1736  0.2976
 2610TP3     H119649   1.013   0.273   1.371 -0.3223  0.2283  0.5195
 2610TP3     H219650   1.130   0.179   1.348  0.5122  1.6376 -1.0539
 2611TP3      O19651   3.547   1.388   9.461  0.4835  0.4185  0.4734
 2611TP3     H119652   3.562   1.421   9.372  0.7893 -0.2126  0.2840
 2611TP3     H219653   3.469   1.436   9.492  0.0560  0.2511 -0.3331
 2612TP3      O19654   4.840   3.050   9.380  0.5438  0.0265 -0.4558
 2612TP3     H119655   4.915   3.006   9.340  2.4644  0.1400  2.8458
 2612TP3     H219656   4.806   2.987   9.444 -0.0857  1.2557  0.4439
 2613TP3      O19657   0.381   4.765   0.623  0.1957 -0.2370  0.2518
 2613TP3     H119658   0.367   4.687   0.569  1.7145  0.2831 -0.9113
 2613TP3     H219659   0.354   4.838   0.567 -1.8076  0.0483  1.5551
 2614TP3      O19660   4.034   4.986   0.886 -0.6420 -0.3003 -0.8717
 2614TP3     H119661   4.046   4.957   0.795 -1.1342 -0.2396 -0.9595
 2614TP3     H219662   3.940   5.004   0.893 -0.3300  1.4439 -0.8719
 2615TP3      O19663   3.790   1.164   9.239 -0.5344 -0.1733  0.1321
 2615TP3     H119664   3.858   1.120   9.291 -1.4204 -1.4193  0.2531
 2615TP3     H219665   3.711   1.157   9.292 -1.0207  0.2573 -0.5276
 2616TP3      O19666   0.825   1.680   8.480 -0.6645  0.7625  0.2265
 2616TP3     H119667   0.747   1.703   8.430 -0.9557  1.1418  0.8406
 2616TP3     H219668   0.885   1.644   8.416 -2.7824 -3.2392  0.3248
 2617TP3      O19669   0.411   0.872   8.896  0.2724  0.0532 -0.1803
 2617TP3     H119670   0.329   0.844   8.938  0.0450 -1.2087 -1.4228
 2617TP3     H219671   0.478   0.817   8.937  0.1564 -0.6238 -0.8835
 2618TP3      O19672   4.372   0.640   0.733  0.1915  0.7289 -0.1371
 2618TP3     H119673   4.440   0.582   0.768  0.7388  0.5047 -1.5729
 2618TP3     H219674   4.298   0.581   0.715 -0.1114  0.8530  0.6340
 2619TP3      O19675   0.801   0.379   1.999  0.3314  0.3666 -0.2783
 2619TP3     H119676   0.874   0.430   1.962 -1.4070  2.9351 -0.2540
 2619TP3     H219677   0.794   0.409   2.089 -0.0850 -0.6496  0.0324
 2620TP3      O19678   2.309   2.174   0.001  0.3885 -0.6283 -0.5201
 2620TP3     H119679   2.296   2.137   0.088  0.7107  0.7959  0.1531
 2620TP3     H219680   2.330   2.098  -0.055  0.6165 -1.4976  0.7234
 2621TP3      O19681   0.197   1.285   0.518  0.2532 -0.2582  0.6144
 2621TP3     H119682   0.286   1.279   0.553 -0.8668  1.1317  3.9406
 2621TP3     H219683   0.190   1.375   0.486  0.5098 -0.8198 -1.0456
 2622TP3      O19684   2.303   3.042   8.890 -0.0926 -0.3238  0.5027
 2622TP3     H119685   2.287   2.948   8.890 -0.9308 -0.2062 -0.9472
 2622TP3     H219686   2.372   3.054   8.824 -0.6352  0.1560  0.0159
 2623TP3      O19687   4.595   0.207   0.983 -0.6193  0.8195  0.0981
 2623TP3     H119688   4.535   0.142   0.945 -0.6843  0.9288  0.0140
 2623TP3     H219689   4.595   0.186   1.077 -1.1811  1.1359  0.1713
 2624TP3      O19690   4.114   2.049   9.162  0.2147  0.1071 -0.3985
 2624TP3     H119691   4.206   2.025   9.149  0.3940  0.4553  0.2184
 2624TP3     H219692   4.115   2.144   9.170 -0.0087 -0.0206  1.1762
 2625TP3      O19693   5.135   3.143   9.938 -0.1564  0.3228 -0.0957
 2625TP3     H119694   5.097   3.215   9.987 -2.3161 -2.3044  2.2966
 2625TP3     H219695   5.215   3.121   9.986 -0.3335  0.1133  0.1044
 2626TP3      O19696   3.908   3.907   1.002 -0.2824 -0.0679  0.0005
 2626TP3     H119697   3.880   3.815   0.992  0.2225 -0.0467 -1.7161
 2626TP3     H219698   3.903   3.923   1.096  0.6240 -2.1863  0.4346
 2627TP3      O19699   4.117   0.895   9.036 -0.0216  0.0132 -0.0815
 2627TP3     H119700   4.065   0.902   9.116  0.4186  1.4949  0.0860
 2627TP3     H219701   4.113   0.802   9.014  1.8300 -0.9043  3.0276
 2628TP3      O19702   0.217   1.306   1.814 -0.4065 -0.1217  0.0960
 2628TP3     H119703   0.296   1.281   1.862  0.5136  0.0961 -1.2636
 2628TP3     H219704   0.145   1.274   1.868  0.5919  0.3529  1.7401
 2629TP3      O19705   3.911   0.963   8.029 -0.9149 -0.0110 -1.0568
 2629TP3     H119706   4.005   0.979   8.024 -1.2613  1.9758 -1.6847
 2629TP3     H219707   3.879   0.981   7.940 -1.9259 -0.3772 -0.7733
 2630TP3      O19708   2.543   1.284   0.122 -0.1505  0.0917  0.7385
 2630TP3     H119709   2.590   1.226   0.062  0.8624  2.8073 -1.1983
 2630TP3     H219710   2.557   1.245   0.208 -0.2875 -3.0210 -0.5660
 2631TP3      O19711   4.795   1.074   9.092 -0.5191  0.0720  0.2084
 2631TP3     H119712   4.718   1.116   9.130  0.7772  1.1437  1.7091
 2631TP3     H219713   4.832   1.021   9.163  1.1165  0.9688  0.0596
 2632TP3      O19714   5.444   2.036   2.002  0.0253 -0.1877 -0.5724
 2632TP3     H119715   5.506   1.982   1.952 -2.1633 -3.1191 -0.2194
 2632TP3     H219716   5.402   2.091   1.937 -0.7380 -1.9580 -1.6225
 2633TP3      O19717   3.474   0.776   0.021 -0.0651 -0.3511 -0.1306
 2633TP3     H119718   3.430   0.691   0.011 -0.3798  0.0457 -2.3362
 2633TP3     H219719   3.410   0.831   0.067 -0.6826 -0.6678 -0.6045
 2634TP3      O19720   1.398   5.340  10.128 -0.1572 -0.6167  0.0574
 2634TP3     H119721   1.360   5.328  10.215 -0.3298  0.3195  0.1235
 2634TP3     H219722   1.421   5.433  10.126 -0.6927 -0.5095 -1.1178
 2635TP3      O19723   1.171   1.333  10.174 -0.0763  0.2334 -0.0985
 2635TP3     H119724   1.243   1.302  10.118  0.0546  1.4018 -0.5775
 2635TP3     H219725   1.213   1.393  10.235 -0.7721  1.5999 -0.9343
 2636TP3      O19726   0.258   0.203   1.940  0.2743 -0.1675 -0.2820
 2636TP3     H119727   0.226   0.290   1.914 -1.4272 -0.4785  0.7782
 2636TP3     H219728   0.271   0.158   1.856  1.7497  1.2882 -0.8778
 2637TP3      O19729   5.099   3.308   1.106 -0.1690  0.1545  0.9460
 2637TP3     H119730   5.014   3.266   1.093 -0.0965 -0.2077  1.6213
 2637TP3     H219731   5.089   3.360   1.185  0.1916  0.2319  0.9431
 2638TP3      O19732   2.576   4.588   0.368  0.6518  0.2446  0.4012
 2638TP3     H119733   2.566   4.619   0.278  0.1285 -0.8966  0.0577
 2638TP3     H219734   2.657   4.538   0.368 -0.1389 -1.0544  0.1861
 2639TP3      O19735   3.031   4.927   0.086  0.2000 -0.5301  0.0781
 2639TP3     H119736   3.110   4.926   0.139  0.0545 -0.8333  0.2899
 2639TP3     H219737   3.017   4.836   0.061 -0.6477 -0.6312  0.8931
 2640TP3      O19738   0.133   1.513   9.964  0.4010 -0.3147 -0.1609
 2640TP3     H119739   0.146   1.430  10.010 -1.0652 -0.9120 -0.7998
 2640TP3     H219740   0.217   1.529   9.920  0.5912 -1.5928 -0.2666
 2641TP3      O19741   5.134   3.785   1.051  0.0642 -0.0357  0.4386
 2641TP3     H119742   5.079   3.782   0.973  0.7954  1.8090 -0.1813
 2641TP3     H219743   5.214   3.739   1.025 -1.7022 -4.2180  1.8689
 2642TP3      O19744   4.101   0.067   0.684  0.3200  0.4853  0.0170
 2642TP3     H119745   4.157   0.137   0.717  0.2041 -0.0831  1.4266
 2642TP3     H219746   4.022   0.072   0.737 -1.4862  2.0032 -2.6878
 2643TP3      O19747   0.189   0.407   2.707 -0.7457 -0.1007  0.0466
 2643TP3     H119748   0.117   0.352   2.737 -0.2533 -0.7280  0.0982
 2643TP3     H219749   0.236   0.430   2.787 -1.0008  0.4568  0.0321
 2644TP3      O19750   4.233   0.157   1.490 -0.0447 -0.2232  0.6328
 2644TP3     H119751   4.327   0.155   1.469 -0.1942 -1.0007 -0.0027
 2644TP3     H219752   4.230   0.156   1.586  0.5940 -1.3153  0.6548
 2645TP3      O19753   0.045   0.097   0.833  0.9181  0.2549 -0.2874
 2645TP3     H119754   0.104   0.066   0.901  0.4110  0.0256  0.0522
 2645TP3     H219755  -0.018   0.026   0.822  0.2884  0.7908 -0.1459
 2646TP3      O19756   5.345   0.975   1.992 -0.0382  0.2546 -0.0899
 2646TP3     H119757   5.261   1.020   2.001  0.3752  0.7336  1.6976
 2646TP3     H219758   5.328   0.903   1.931 -1.6036  0.6790 -0.1648
 2647TP3      O19759   4.640   1.338   2.945  0.3508  0.5726  0.2712
 2647TP3     H119760   4.598   1.424   2.947  1.5893  1.1830  0.6296
 2647TP3     H219761   4.602   1.291   3.020 -2.0452 -0.0371 -1.2949
 2648TP3      O19762   0.708   2.821   2.323 -0.2717 -0.3095  0.2794
 2648TP3     H119763   0.771   2.772   2.375 -0.9218  0.1231  1.4974
 2648TP3     H219764   0.746   2.824   2.235  0.8526 -1.0167  0.7342
 2649TP3      O19765   4.824   1.319   2.746  1.0122 -0.0961 -0.1222
 2649TP3     H119766   4.758   1.328   2.677  2.0792  0.3431 -1.0868
 2649TP3     H219767   4.775   1.331   2.828 -0.1938 -0.2899 -0.8098
 2650TP3      O19768   0.148   2.182   0.230 -0.0558  0.9074 -0.9886
 2650TP3     H119769   0.117   2.113   0.172  0.6620 -0.9713  0.8369
 2650TP3     H219770   0.229   2.148   0.268 -0.3381  2.2327  0.8836
 2651TP3      O19771   2.527   5.056   0.640  0.2726  0.2611  0.1810
 2651TP3     H119772   2.590   5.128   0.629  0.2078 -0.0277 -2.3226
 2651TP3     H219773   2.567   4.982   0.596 -0.6147 -0.6964  0.9490
 2652TP3      O19774   4.066   1.554   2.141  0.0654  0.2436  0.4303
 2652TP3     H119775   4.054   1.509   2.058  0.2152 -0.5889  0.8473
 2652TP3     H219776   3.979   1.551   2.183  0.1859 -0.0796  0.6611
 2653TP3      O19777   3.200   1.943   0.024  0.1312 -0.2142 -0.1960
 2653TP3     H119778   3.150   2.002  -0.032  1.2483  0.4962 -0.4391
 2653TP3     H219779   3.290   1.952  -0.005  0.1350 -3.1576 -1.2420
 2654TP3      O19780   4.632   3.727   9.238  0.0010 -0.2556 -0.2258
 2654TP3     H119781   4.710   3.776   9.264  0.6671 -1.4638  0.1285
 2654TP3     H219782   4.656   3.635   9.254 -0.8020 -0.7852 -1.9058
 2655TP3      O19783   4.701   1.095   0.934 -0.2116 -0.0229 -0.1195
 2655TP3     H119784   4.686   1.158   1.005  1.1856 -0.5781  0.6790
 2655TP3     H219785   4.775   1.042   0.964 -0.4797 -1.1449 -1.4034
 2656TP3      O19786   4.797   3.246   9.204 -0.5093  0.3161  0.2655
 2656TP3     H119787   4.724   3.223   9.147 -0.2133 -0.5553  0.2259
 2656TP3     H219788   4.796   3.180   9.272  1.1640 -0.6156 -0.5806
 2657TP3      O19789   0.489   4.513   9.598  0.1360  0.1128 -0.4095
 2657TP3     H119790   0.493   4.459   9.519 -0.1305 -0.3743 -0.0894
 2657TP3     H219791   0.397   4.536   9.605 -0.0972 -1.0976  0.6061
 2658TP3      O19792   4.721   2.780   1.924 -0.5485 -0.1498 -0.3323
 2658TP3     H119793   4.814   2.761   1.921 -0.4708  0.4316 -1.4735
 2658TP3     H219794   4.704   2.801   2.016  0.3086 -0.8925  0.0011
 2659TP3      O19795   1.600   0.247   9.072 -0.5072  0.4935  0.7644
 2659TP3     H119796   1.625   0.233   9.164  2.1617  0.6947  0.0955
 2659TP3     H219797   1.615   0.341   9.057  0.1731  0.2328 -0.2061
 2660TP3      O19798   3.341   0.699   9.517  0.1353 -0.4652 -0.1393
 2660TP3     H119799   3.398   0.643   9.572 -0.3732  0.5215  1.4307
 2660TP3     H219800   3.271   0.640   9.488  1.5087 -1.4984 -1.4307
 2661TP3      O19801   3.835   4.698   0.716  0.0143  0.4237  0.4113
 2661TP3     H119802   3.789   4.777   0.743 -3.7790 -2.0454  1.6752
 2661TP3     H219803   3.872   4.663   0.797  0.0989 -0.0398  0.1774
 2662TP3      O19804   1.190   4.629   9.078  0.0051  0.3864  0.0289
 2662TP3     H119805   1.172   4.552   9.025 -0.1552  0.8648 -0.6271
 2662TP3     H219806   1.118   4.632   9.142  0.3140 -0.3086  0.4179
 2663TP3      O19807   1.072   2.194   2.924  0.0338 -0.4915 -0.2241
 2663TP3     H119808   1.003   2.210   2.988  0.4656 -0.5865  0.2733
 2663TP3     H219809   1.100   2.281   2.897  1.5106 -0.3863  1.5311
 2664TP3      O19810   5.438   1.053  10.102  0.0366 -0.2546 -0.1772
 2664TP3     H119811   5.405   1.135  10.065 -1.1014 -0.2413  0.8195
 2664TP3     H219812   5.360   1.010  10.137  0.9511 -0.6421  1.4423
 2665TP3      O19813   0.290   0.306   0.154  0.2066 -0.0750  0.3229
 2665TP3     H119814   0.309   0.213   0.145 -0.1921 -0.0682 -0.7097
 2665TP3     H219815   0.362   0.349   0.109  0.2058  0.1071  0.4956
 2666TP3      O19816   2.979   0.653   1.535 -0.0641 -0.0759 -0.8150
 2666TP3     H119817   2.891   0.624   1.511 -1.0573  1.7520  0.4889
 2666TP3     H219818   2.997   0.725   1.475 -0.7978  1.6632  1.0078
 2667TP3      O19819   3.509   4.732   1.019  0.0746 -0.1626  0.5411
 2667TP3     H119820   3.492   4.812   0.970 -3.4032 -1.4525 -0.5325
 2667TP3     H219821   3.574   4.757   1.084  1.4330  2.7130 -1.8172
 2668TP3      O19822   0.700   1.092   0.002  0.8423 -0.2967  0.6233
 2668TP3     H119823   0.736   1.052   0.082  0.8659 -0.6374  0.4437
 2668TP3     H219824   0.757   1.167  -0.015  0.6286 -0.0203  1.1208
 2669TP3      O19825   1.495   2.226   8.723  0.0479  0.0890 -0.6117
 2669TP3     H119826   1.495   2.133   8.701 -0.5463  0.0554 -0.4650
 2669TP3     H219827   1.405   2.245   8.747  0.6928  0.0742  1.9650
 2670TP3      O19828   3.209   1.667   9.107  0.0332  0.1138 -0.4646
 2670TP3     H119829   3.279   1.699   9.050  1.7111 -1.9847  0.3375
 2670TP3     H219830   3.130   1.669   9.052  0.8761  1.7253 -1.6437
 2671TP3      O19831   3.217   2.214   8.941  0.1297 -0.1177  0.8825
 2671TP3     H119832   3.181   2.303   8.943 -0.6765 -0.4454  1.1575
 2671TP3     H219833   3.265   2.206   9.023  1.7795  0.6946  0.0342
 2672TP3      O19834   3.883   5.484   2.957  0.1167  0.0885 -0.0926
 2672TP3     H119835   3.823   5.541   3.003 -0.2577 -0.6527  0.3533
 2672TP3     H219836   3.950   5.462   3.021 -0.4809 -1.0544  0.1722
 2673TP3      O19837   2.561   1.136   0.791 -0.6089  0.0391 -0.5407
 2673TP3     H119838   2.496   1.194   0.749 -0.7278  1.1507  1.1527
 2673TP3     H219839   2.553   1.155   0.884  1.3319 -0.6849 -0.2166
 2674TP3      O19840   4.316   0.830   1.295 -0.0432  0.1069  0.2439
 2674TP3     H119841   4.387   0.881   1.254 -0.4789  0.7942  0.3386
 2674TP3     H219842   4.362   0.770   1.354  0.5501 -0.4494 -0.7651
 2675TP3      O19843   3.327   5.431   1.697  0.4094 -0.2747  0.1354
 2675TP3     H119844   3.413   5.455   1.733  0.2693 -0.2604  0.4597
 2675TP3     H219845   3.323   5.478   1.613  0.3785  0.3756  0.4979
 2676TP3      O19846   0.057   4.302   9.786 -0.1748  0.0066 -0.4352
 2676TP3     H119847   0.065   4.264   9.699 -0.7078  0.2580 -0.5956
 2676TP3     H219848  -0.032   4.281   9.813  0.5182 -1.5370  0.7486
 2677TP3      O19849   0.012   1.861   1.823 -0.5332 -0.1956  0.6252
 2677TP3     H119850   0.072   1.890   1.754 -1.2489 -1.5400 -0.5942
 2677TP3     H219851  -0.064   1.826   1.776 -1.6990  0.2500  2.1242
 2678TP3      O19852   3.987   1.487   0.885  0.2169 -0.0908  0.1447
 2678TP3     H119853   3.954   1.460   0.799  1.8326  0.7326 -0.7641
 2678TP3     H219854   4.028   1.408   0.921 -0.6264 -0.4862  0.2336
 2679TP3      O19855   4.631   1.841   1.569 -0.0913  0.2659  0.2790
 2679TP3     H119856   4.538   1.840   1.591 -0.3541 -0.9316 -0.8237
 2679TP3     H219857   4.634   1.878   1.480  0.6314  1.6756  0.8626
 2680TP3      O19858   1.839   1.374   0.383  0.3574 -0.1619 -0.1767
 2680TP3     H119859   1.761   1.341   0.338  1.3979 -1.8441 -0.7710
 2680TP3     H219860   1.804   1.435   0.448 -1.2884  1.0449 -2.1144
 2681TP3      O19861   5.260   0.284  10.115 -0.1517 -0.1261  0.8625
 2681TP3     H119862   5.193   0.274  10.047 -1.1148 -0.3327  1.8416
 2681TP3     H219863   5.277   0.378  10.117 -1.1854  0.0570  1.3437
 2682TP3      O19864   0.270   2.083   0.466 -0.4353  0.0247  0.2112
 2682TP3     H119865   0.300   2.130   0.543  0.6699  0.7981 -0.6732
 2682TP3     H219866   0.179   2.059   0.486 -0.1262  0.0949  1.7863
 2683TP3      O19867   3.958   1.864   1.250 -0.0795  0.0619 -0.1626
 2683TP3     H119868   3.980   1.864   1.343 -0.1284  1.6263 -0.1476
 2683TP3     H219869   3.920   1.950   1.234 -2.8471 -1.2679 -0.9820
 2684TP3      O19870   1.994   1.825   8.688  0.8073 -0.5239  0.2225
 2684TP3     H119871   2.029   1.745   8.650  1.2409  0.3543 -1.2691
 2684TP3     H219872   2.069   1.886   8.689  0.3706  0.0050  0.8904
 2685TP3      O19873   4.770   1.940   0.327 -0.3807  0.8092 -0.2730
 2685TP3     H119874   4.699   1.879   0.306 -0.0992  1.0058 -1.8378
 2685TP3     H219875   4.778   1.995   0.249  1.9962  0.3157 -0.4179
 2686TP3      O19876   1.483   0.061  10.080 -0.2855 -0.4187 -0.5475
 2686TP3     H119877   1.501   0.154  10.066 -1.4977 -0.2361 -0.9500
 2686TP3     H219878   1.568   0.018  10.067 -0.1153  0.4182 -2.3962
 2687TP3      O19879   2.627   4.897   9.627  0.6449  0.2826  0.4446
 2687TP3     H119880   2.654   4.902   9.535  0.7564  0.5111  0.4890
 2687TP3     H219881   2.585   4.981   9.644 -0.3014 -0.1575  0.3111
 2688TP3      O19882   0.038   4.547   9.147 -0.2137 -0.0951 -0.6065
 2688TP3     H119883   0.129   4.571   9.158 -0.1010 -0.6824 -0.1648
 2688TP3     H219884   0.040   4.470   9.090 -0.5052  0.4579 -1.3711
 2689TP3      O19885   3.976   5.363  10.221 -0.2462 -0.4337  0.0081
 2689TP3     H119886   3.990   5.413  10.302  2.5738  1.3473 -1.5422
 2689TP3     H219887   3.886   5.331  10.229 -0.6912  1.3661  2.9491
 2690TP3      O19888   3.024   0.170  10.136 -0.5172  0.3476  0.0231
 2690TP3     H119889   3.045   0.108  10.206  1.5105 -0.0872 -0.9091
 2690TP3     H219890   2.942   0.138  10.099 -0.7311 -0.3853  1.1009
 2691TP3      O19891   1.974   5.446   0.547 -0.3227 -0.0326 -0.1421
 2691TP3     H119892   2.066   5.419   0.541 -0.3476 -0.1423 -0.0252
 2691TP3     H219893   1.924   5.364   0.546 -0.3512 -0.0478  1.1246
 2692TP3      O19894   2.138   0.590  10.144  0.2703 -0.2953  0.0317
 2692TP3     H119895   2.176   0.671  10.111  0.1776  0.5010  1.8468
 2692TP3     H219896   2.045   0.610  10.158  0.2811 -0.6604  0.6540
 2693TP3      O19897   1.946   0.563   8.990  0.4075  0.6322  0.4539
 2693TP3     H119898   1.905   0.540   9.073 -0.2159  0.2149  0.0420
 2693TP3     H219899   1.882   0.620   8.947  0.8553  1.0850  0.3908
 2694TP3      O19900   4.050   1.076   0.251 -0.3495  0.6934 -0.2346
 2694TP3     H119901   4.141   1.056   0.228  0.0057  0.1781  1.5120
 2694TP3     H219902   4.008   1.096   0.167  1.2075  0.2866 -1.1418
 2695TP3      O19903   0.471   5.317  10.083 -0.7873 -0.1159  0.5968
 2695TP3     H119904   0.505   5.389  10.136  0.1864 -0.4253  0.4035
 2695TP3     H219905   0.548   5.261  10.066 -1.8686 -2.1751  2.2943
 2696TP3      O19906   4.005   5.080   1.252  0.7305  0.2115  0.0944
 2696TP3     H119907   3.919   5.063   1.290  0.3286  0.6676 -0.5950
 2696TP3     H219908   3.995   5.164   1.207  1.6021  0.3859  0.2144
 2697TP3      O19909   3.602   3.400   8.919 -0.3466 -0.7474  0.3022
 2697TP3     H119910   3.574   3.423   8.830 -1.9327  1.4125  1.3136
 2697TP3     H219911   3.521   3.380   8.965  0.4083 -1.1627  1.4578
 2698TP3      O19912   0.916   0.463   9.900  0.3344  0.0445  0.5327
 2698TP3     H119913   0.923   0.369   9.913 -0.1279 -0.0591  0.0619
 2698TP3     H219914   0.888   0.473   9.809  1.8843  0.6901  0.0990
 2699TP3      O19915   2.561   0.195   1.880  0.2575  0.0057  0.0432
 2699TP3     H119916   2.620   0.265   1.909 -0.2444 -0.0874  1.3328
 2699TP3     H219917   2.612   0.115   1.890 -0.2797 -0.1407  1.7680
 2700TP3      O19918   2.797   5.057   1.883  0.1193 -1.0217  0.0362
 2700TP3     H119919   2.724   5.060   1.821  1.3744  1.6139 -1.4163
 2700TP3     H219920   2.871   5.024   1.832  0.5351 -1.3766  0.8579
 2701TP3      O19921   1.362   5.350   9.832  0.1875  0.2268  0.0172
 2701TP3     H119922   1.428   5.290   9.797  0.5083 -0.7569  2.2530
 2701TP3     H219923   1.389   5.365   9.923 -0.6410  2.6987 -0.1047
 2702TP3      O19924   0.321   4.375   0.343 -0.4002  0.3254 -0.1238
 2702TP3     H119925   0.323   4.470   0.332 -0.8409  0.2268 -1.0827
 2702TP3     H219926   0.275   4.343   0.266 -1.5015 -0.5714  0.9045
 2703TP3      O19927   2.630   1.006   1.564  1.0452  0.8596 -0.3526
 2703TP3     H119928   2.541   1.024   1.535  0.5998  1.2757  1.2325
 2703TP3     H219929   2.644   0.913   1.544 -0.4917  0.2514  1.3149
 2704TP3      O19930   3.167   2.491   2.454  0.3890  0.4354  0.3904
 2704TP3     H119931   3.259   2.468   2.437  0.3696  0.2054  0.5876
 2704TP3     H219932   3.152   2.570   2.403  0.2932 -0.3089 -0.7580
 2705TP3      O19933   1.000   3.162   7.548  0.2766 -0.1151  0.3181
 2705TP3     H119934   0.930   3.213   7.591 -0.7391 -1.7422  0.6520
 2705TP3     H219935   1.037   3.222   7.484 -0.6130  1.1909  0.9930
 2706TP3      O19936   1.543   3.265   9.640  0.0729 -0.0387 -0.1397
 2706TP3     H119937   1.554   3.358   9.658 -0.6560  0.2236 -1.0650
 2706TP3     H219938   1.548   3.258   9.545 -0.8534 -0.8228 -0.1351
 2707TP3      O19939   4.694   3.985   1.761  0.6297  0.0401 -0.1847
 2707TP3     H119940   4.608   3.971   1.723  0.5290  2.2923 -0.8514
 2707TP3     H219941   4.679   4.046   1.833  1.8672  1.7712 -1.3552
 2708TP3      O19942   5.382   1.435   7.976 -0.0939 -0.1771 -0.5428
 2708TP3     H119943   5.369   1.495   7.903 -0.2935  0.5432  0.0777
 2708TP3     H219944   5.378   1.491   8.054  1.4104 -0.7340 -0.0491
 2709TP3      O19945   0.204   3.069   9.276  0.1345  0.3482  0.0910
 2709TP3     H119946   0.130   3.130   9.264 -0.5352 -0.3096  0.7782
 2709TP3     H219947   0.169   3.002   9.334  1.0694 -0.3567 -0.1604
 2710TP3      O19948   5.345   4.084   8.880 -0.0996 -0.3565 -0.4826
 2710TP3     H119949   5.332   4.040   8.963 -1.3229 -0.9647 -0.9933
 2710TP3     H219950   5.385   4.018   8.823 -0.9730 -0.4937 -0.9367
 2711TP3      O19951   3.123   1.591   9.357 -0.1598 -0.0646 -0.3150
 2711TP3     H119952   3.156   1.629   9.276  1.4471 -0.5785  0.0729
 2711TP3     H219953   3.090   1.505   9.332 -2.2672  0.8760 -0.8982
 2712TP3      O19954   1.911   4.291   9.812  0.0771 -0.3661  0.1533
 2712TP3     H119955   1.941   4.352   9.879 -2.3154 -0.6059  1.4769
 2712TP3     H219956   1.965   4.311   9.736  1.3027  1.4234  1.4586
 2713TP3      O19957   3.101   1.420   1.145 -0.1694 -0.2562 -0.5957
 2713TP3     H119958   3.147   1.353   1.196 -0.6716  0.3586  0.6749
 2713TP3     H219959   3.074   1.375   1.065 -0.4213 -1.5454  0.2031
 2714TP3      O19960   0.498   1.838   1.468  0.1225 -0.6950 -0.1865
 2714TP3     H119961   0.458   1.752   1.479 -1.8027  0.2611  0.4547
 2714TP3     H219962   0.453   1.876   1.392  0.8225 -0.1566 -0.3403
 2715TP3      O19963   1.577   2.623   8.953  0.2191  0.5275  0.5922
 2715TP3     H119964   1.571   2.538   8.908 -0.0255  0.8912 -0.0688
 2715TP3     H219965   1.607   2.601   9.041  1.7743 -0.1123 -0.0645
 2716TP3      O19966   1.081   3.002   9.216  0.1853  0.5274  0.5165
 2716TP3     H119967   1.162   3.046   9.241  0.3092  0.4411  0.2684
 2716TP3     H219968   1.054   3.044   9.135  1.0182 -0.7411 -0.4435
 2717TP3      O19969   0.808   3.209   0.005 -0.5976  0.6147 -0.3711
 2717TP3     H119970   0.873   3.174  -0.057 -0.6862 -0.9074  0.3666
 2717TP3     H219971   0.849   3.202   0.090 -1.4910  0.1995  0.0382
 2718TP3      O19972   1.089   2.576   8.590 -0.6713  0.2942 -0.1885
 2718TP3     H119973   1.048   2.654   8.628  1.2060  0.3034  1.8767
 2718TP3     H219974   1.140   2.538   8.661  0.3112 -1.5379 -1.8202
 2719TP3      O19975   2.632   5.080   1.138  0.4422 -0.3633 -0.3607
 2719TP3     H119976   2.584   5.116   1.063  1.2105  0.8809 -0.2594
 2719TP3     H219977   2.679   5.154   1.174 -0.0207 -0.9310  1.4579
 2720TP3      O19978   4.894   1.770   0.063  0.0443  0.0323  0.0398
 2720TP3     H119979   4.865   1.680   0.053  0.5212  0.0802 -1.9703
 2720TP3     H219980   4.902   1.782   0.158 -3.4602 -0.9210  0.5514
 2721TP3      O19981   4.849   4.087   1.019  0.3990 -0.2124  0.3746
 2721TP3     H119982   4.780   4.099   1.084  1.6400  0.4635  1.5973
 2721TP3     H219983   4.814   4.021   0.959 -1.0775 -0.2857  1.2870
 2722TP3      O19984   1.904   2.750   1.049 -0.5938 -0.1980 -0.6126
 2722TP3     H119985   1.889   2.664   1.010  0.2308 -0.5401 -0.1800
 2722TP3     H219986   1.927   2.806   0.976  2.7931 -1.2559 -0.4301
 2723TP3      O19987   0.070   2.875   0.777  0.0539 -0.3896  0.3642
 2723TP3     H119988   0.056   2.930   0.853 -0.9964  1.4477 -1.1412
 2723TP3     H219989   0.131   2.807   0.808 -0.8269 -0.0311  2.9705
 2724TP3      O19990   1.958   2.887   0.806  0.7812  0.0047  0.3145
 2724TP3     H119991   1.904   2.964   0.788 -0.4105 -0.9010 -0.0393
 2724TP3     H219992   1.959   2.838   0.724  1.8898 -0.1560  0.4120
 2725TP3      O19993   1.476   3.842  10.002 -0.3831  0.8916  0.3975
 2725TP3     H119994   1.464   3.921   9.949 -0.5646  1.4560  1.2654
 2725TP3     H219995   1.550   3.798   9.961 -0.9634  0.9569 -0.7473
 2726TP3      O19996   0.079   2.462   9.004 -0.2196 -0.3019  0.2825
 2726TP3     H119997   0.156   2.425   8.961 -0.6584 -1.4907  0.4863
 2726TP3     H219998   0.005   2.418   8.962 -0.8718  1.8386 -0.8846
 2727TP3      O19999   2.153   3.317   0.698  0.1936  0.1384 -1.1916
 2727TP3     H120000   2.212   3.253   0.739 -0.1325  0.6942  0.1595
 2727TP3     H220001   2.068   3.272   0.694  0.6130 -0.5576 -2.8815
 2728TP3      O20002   3.347   0.762   1.832  1.0177 -0.0492  0.1776
 2728TP3     H120003   3.402   0.829   1.792  2.2755  0.2630  2.3730
 2728TP3     H220004   3.408   0.706   1.881 -0.2396 -1.6134  0.0090
 2729TP3      O20005   4.161   1.264   9.509 -0.0913  0.0047 -0.2119
 2729TP3     H120006   4.099   1.224   9.569  1.7867  0.5453  2.1363
 2729TP3     H220007   4.163   1.356   9.533 -1.9515  0.9934 -3.4629
 2730TP3      O20008   0.852   4.620  10.061 -0.1516  0.3136  0.1990
 2730TP3     H120009   0.813   4.593   9.978  1.8801 -0.8355 -0.3977
 2730TP3     H220010   0.855   4.716  10.056  0.2249  0.2409 -1.1770
 2731TP3      O20011   2.560   1.058   8.600  0.0625 -0.0588 -0.1447
 2731TP3     H120012   2.558   1.151   8.625 -0.0964 -0.3974  1.1277
 2731TP3     H220013   2.485   1.020   8.645  0.1486 -0.8176 -0.6392
 2732TP3      O20014   0.996   5.301   1.571 -0.4988  0.2678 -0.2085
 2732TP3     H120015   0.967   5.213   1.546 -0.3703  0.7678 -2.1352
 2732TP3     H220016   1.070   5.285   1.630 -1.3841 -0.9251  0.5983
 2733TP3      O20017   0.810   3.331   9.069 -0.3781  0.3409  0.1947
 2733TP3     H120018   0.875   3.287   9.014 -1.2686 -1.4294  0.5153
 2733TP3     H220019   0.835   3.308   9.159 -0.8315  0.5234  0.3711
 2734TP3      O20020   5.246   3.225   0.496 -0.2675 -0.3850  0.0045
 2734TP3     H120021   5.219   3.211   0.586  1.8491 -2.2334  0.3832
 2734TP3     H220022   5.173   3.194   0.443 -1.1091 -0.2098  1.0704
 2735TP3      O20023   1.982   1.949   0.925  0.6619 -0.1801  0.3522
 2735TP3     H120024   1.891   1.977   0.938  0.7386  0.4274 -0.3734
 2735TP3     H220025   1.987   1.865   0.970 -0.0209  0.1921  1.1476
 2736TP3      O20026   2.761   4.179  10.211 -0.3370  0.8462  0.3722
 2736TP3     H120027   2.676   4.220  10.192 -0.0702  0.6492 -1.2627
 2736TP3     H220028   2.807   4.244  10.264 -1.1131  1.3876  0.3955
 2737TP3      O20029   1.346   4.478   0.077  0.2110 -0.3005  0.2182
 2737TP3     H120030   1.387   4.539   0.015  0.8708 -0.0599  0.8842
 2737TP3     H220031   1.398   4.487   0.157 -1.4076  0.3492  1.2344
 2738TP3      O20032   1.664   3.363   7.784  0.4430 -0.0729 -0.6323
 2738TP3     H120033   1.613   3.298   7.736  0.7970 -0.5971 -0.3034
 2738TP3     H220034   1.621   3.446   7.765 -1.2951 -0.6644  0.6471
 2739TP3      O20035   0.788   3.607   0.051 -0.6530 -0.0560 -0.0760
 2739TP3     H120036   0.837   3.556   0.116 -1.8247  1.2808  1.9282
 2739TP3     H220037   0.775   3.547  -0.022  1.9124 -1.1706  0.3327
 2740TP3      O20038   2.070   4.411   9.638 -0.3388  0.2987  0.2002
 2740TP3     H120039   2.118   4.490   9.663 -2.0109  1.8979 -1.5049
 2740TP3     H220040   2.102   4.390   9.550 -0.3042 -0.5843  0.4229
 2741TP3      O20041   0.803   4.655   0.379  0.0620  0.1635  0.1311
 2741TP3     H120042   0.866   4.727   0.380  1.2890 -0.9033  2.0883
 2741TP3     H220043   0.724   4.692   0.419  0.8669  0.3052  1.6496
 2742TP3      O20044   2.337   3.269   2.144 -0.1180  0.4085 -0.2094
 2742TP3     H120045   2.322   3.258   2.238  0.2930  1.0770 -0.0630
 2742TP3     H220046   2.313   3.185   2.106 -0.9427  0.3529  0.4171
 2743TP3      O20047   0.965   4.879   0.408  0.0368 -0.2679 -0.0267
 2743TP3     H120048   0.964   4.901   0.502 -0.5476  2.5900 -0.6510
 2743TP3     H220049   1.056   4.890   0.382  0.4648 -2.4279  0.4734
 2744TP3      O20050   4.352   4.766  10.247  0.2034  0.0854 -0.1260
 2744TP3     H120051   4.315   4.683  10.220  2.1248 -0.9431  0.3126
 2744TP3     H220052   4.367   4.757  10.341  0.3933  0.9454 -0.0667
 2745TP3      O20053   2.740   3.723   9.395 -0.1403 -0.2586 -0.6365
 2745TP3     H120054   2.714   3.696   9.483 -1.5766  0.2100 -0.8919
 2745TP3     H220055   2.814   3.782   9.408 -0.1457 -0.4397  0.2317
 2746TP3      O20056   0.345   3.308   0.725  0.5148  0.4857 -0.0009
 2746TP3     H120057   0.367   3.215   0.734  0.7221  0.5917  0.6091
 2746TP3     H220058   0.327   3.319   0.632 -1.1976 -0.5444  0.1845
 2747TP3      O20059   1.786   4.444   0.724 -0.0352 -0.2696  0.4933
 2747TP3     H120060   1.871   4.402   0.738  0.6867  0.8812 -0.3417
 2747TP3     H220061   1.788   4.522   0.779 -0.4793 -0.1341  0.3178
 2748TP3      O20062   0.082   1.856  10.105 -0.0896  0.3302 -0.9281
 2748TP3     H120063   0.099   1.949  10.089  0.8067  0.2606 -0.3683
 2748TP3     H220064   0.164   1.822  10.140 -0.0743 -0.9145 -2.1583
 2749TP3      O20065   2.928   3.945   9.418 -0.5082 -0.3984 -0.7969
 2749TP3     H120066   3.001   3.992   9.377 -1.2230  0.7450 -0.8014
 2749TP3     H220067   2.962   3.916   9.502  0.2956 -0.8493 -1.2713
 2750TP3      O20068   0.836   2.619   0.023  0.0382  0.0582 -0.6216
 2750TP3     H120069   0.902   2.680   0.055 -1.9882  0.9371  2.0674
 2750TP3     H220070   0.777   2.672  -0.031 -1.2914  0.3834  1.0974
 2751TP3      O20071   1.249   3.038   8.292 -0.1131 -0.1108  0.0137
 2751TP3     H120072   1.266   3.099   8.220 -1.5444  0.4511  0.1180
 2751TP3     H220073   1.265   3.090   8.371  0.4366 -0.4161  0.1055
 2752TP3      O20074   3.382   3.793   9.550 -0.0751 -0.3597 -0.1891
 2752TP3     H120075   3.371   3.757   9.638 -2.2992  0.3445 -0.1472
 2752TP3     H220076   3.358   3.722   9.491 -1.3681  0.0469 -0.1629
 2753TP3      O20077   1.383   3.929   0.367  0.0567  0.2791  0.1665
 2753TP3     H120078   1.400   3.936   0.461 -0.4059  1.0167  0.1956
 2753TP3     H220079   1.293   3.895   0.361  0.3869 -0.5738 -0.0052
 2754TP3      O20080   0.563   5.088   8.528 -0.2554  0.2197 -1.2039
 2754TP3     H120081   0.632   5.152   8.542 -1.4371  1.0758  1.0289
 2754TP3     H220082   0.608   5.004   8.527  0.6744  0.5973  2.2676
 2755TP3      O20083   4.937   2.067   9.001 -0.3715  0.0987  0.1241
 2755TP3     H120084   4.981   2.151   8.996  0.8576 -0.5537 -0.1665
 2755TP3     H220085   4.992   2.007   8.950 -1.5990 -0.7240 -0.2701
 2756TP3      O20086   1.193   1.884   0.743 -0.6214 -0.4667 -0.4827
 2756TP3     H120087   1.191   1.795   0.778 -0.4073 -0.9745 -1.7327
 2756TP3     H220088   1.191   1.940   0.820  1.4934 -1.5684  0.4126
 2757TP3      O20089   0.329   3.780   9.102 -0.2426 -0.6205 -0.1439
 2757TP3     H120090   0.373   3.750   9.023  0.1661 -0.7086  0.1156
 2757TP3     H220091   0.290   3.701   9.139 -0.5342 -0.5589 -0.3212
 2758TP3      O20092   4.645   4.493   8.275  0.1762 -0.1972  0.4435
 2758TP3     H120093   4.562   4.474   8.231  0.0580  0.3085  0.4365
 2758TP3     H220094   4.664   4.416   8.328 -1.5542  0.6510  2.3753
 2759TP3      O20095   2.752   2.093   9.995  0.1632  0.2898 -0.0193
 2759TP3     H120096   2.662   2.103   9.967 -0.1435 -0.7989  0.5532
 2759TP3     H220097   2.774   2.002   9.974  1.5614  0.9075 -1.3934
 2760TP3      O20098   5.109   3.339   7.956  0.0705  0.1077  0.0209
 2760TP3     H120099   5.081   3.288   7.880 -0.5442 -0.0402  0.3422
 2760TP3     H220100   5.078   3.288   8.031 -0.0086  0.6407  0.3531
 2761TP3      O20101   4.084   2.770   0.726  0.0620 -0.5298  0.7947
 2761TP3     H120102   4.129   2.710   0.785 -0.3188 -0.7852  0.8300
 2761TP3     H220103   4.099   2.857   0.763  0.9459 -0.5670  0.5228
 2762TP3      O20104   3.860   2.538   1.790 -0.2114  0.3312  0.4006
 2762TP3     H120105   3.784   2.576   1.745  0.2124 -0.9230 -1.4552
 2762TP3     H220106   3.822   2.476   1.852 -0.7666  0.8272  0.5595
 2763TP3      O20107   0.283   4.595   0.138  0.3940 -0.0751  0.1468
 2763TP3     H120108   0.206   4.643   0.106  1.2992  0.6944 -0.8900
 2763TP3     H220109   0.349   4.663   0.153  1.6530 -0.9532 -1.2506
 2764TP3      O20110   2.258   4.933   9.871  0.2401  0.5518  0.3512
 2764TP3     H120111   2.230   4.891   9.790 -0.8715 -3.3743  2.6478
 2764TP3     H220112   2.347   4.902   9.886  0.5864  1.5665  0.4815
 2765TP3      O20113   0.027   2.205   1.372  0.9658 -0.1190 -0.6167
 2765TP3     H120114   0.020   2.113   1.345 -0.3612 -0.2483  0.1031
 2765TP3     H220115   0.096   2.206   1.438  2.3206 -0.2645 -1.9935
 2766TP3      O20116   1.328   3.270  10.085  0.1577  0.0879  0.8734
 2766TP3     H120117   1.366   3.297  10.169  3.0054  0.9303 -0.6123
 2766TP3     H220118   1.344   3.345  10.027 -3.4971  0.3174  0.0196
 2767TP3      O20119   1.785   3.356   1.748  0.1749 -0.3388  0.6282
 2767TP3     H120120   1.765   3.374   1.656 -0.5981  0.3656  0.9318
 2767TP3     H220121   1.836   3.431   1.777  1.5230 -1.1488  0.4428
 2768TP3      O20122   1.313   0.365  10.218 -0.2246 -0.3830  0.3688
 2768TP3     H120123   1.384   0.379  10.156 -1.5142 -0.8168 -1.2567
 2768TP3     H220124   1.241   0.420  10.185 -1.3148 -1.5270  0.7961
 2769TP3      O20125   3.806   3.748   0.660  0.9643  0.3213 -0.1515
 2769TP3     H120126   3.794   3.735   0.754  0.2915 -0.0509 -0.2879
 2769TP3     H220127   3.895   3.782   0.652  0.7248  1.1528  0.6893
 2770TP3      O20128   0.470   1.619   9.630 -0.1558 -0.3163  0.0126
 2770TP3     H120129   0.446   1.654   9.545 -0.1405  0.4777  0.3328
 2770TP3     H220130   0.557   1.655   9.648 -0.0151 -0.7491  0.2123
 2771TP3      O20131   5.424   1.969   7.521  0.1191  0.1787  0.2609
 2771TP3     H120132   5.470   1.982   7.439 -0.2873 -0.2602 -0.0354
 2771TP3     H220133   5.388   2.056   7.542  2.3469  0.8931  1.2789
 2772TP3      O20134   1.083   2.814   9.801  0.8800  0.1091  0.4423
 2772TP3     H120135   1.139   2.745   9.764  0.1800 -0.9425  1.3108
 2772TP3     H220136   1.038   2.771   9.873  0.6196  1.5664  1.1505
 2773TP3      O20137   4.627   2.398   1.188  0.2885  0.1192  0.4063
 2773TP3     H120138   4.643   2.489   1.166 -0.4062  0.1404 -0.0446
 2773TP3     H220139   4.596   2.400   1.279 -1.5387  0.5378 -0.1990
 2774TP3      O20140   2.486   1.535   2.119 -0.0490  0.3641 -0.2087
 2774TP3     H120141   2.429   1.565   2.049  0.2152 -0.7823 -0.9258
 2774TP3     H220142   2.572   1.570   2.097  0.2592 -0.9052 -1.0455
 2775TP3      O20143   2.633   2.997   8.828 -0.0972  0.7808  0.3224
 2775TP3     H120144   2.697   2.935   8.793 -0.7372 -0.1495  0.7726
 2775TP3     H220145   2.664   3.015   8.917 -0.3968  0.3991  0.5086
 2776TP3      O20146   0.856   4.220   0.383 -0.0187 -0.2386  0.3637
 2776TP3     H120147   0.912   4.198   0.308 -2.0220 -1.1252 -0.8998
 2776TP3     H220148   0.838   4.135   0.424  1.6516  0.3058  2.3199
 2777TP3      O20149   4.100   3.593   1.108 -0.7744  0.0142  0.1261
 2777TP3     H120150   4.076   3.562   1.020  1.6579  0.0777 -0.5792
 2777TP3     H220151   4.175   3.650   1.094 -0.1630 -0.2165  2.2807
 2778TP3      O20152   2.440   3.237   7.767 -0.4196  0.2305 -0.5002
 2778TP3     H120153   2.428   3.142   7.764 -1.0338  0.3084 -0.5780
 2778TP3     H220154   2.366   3.272   7.717  0.0834  0.7304 -0.8988
 2779TP3      O20155   1.547   1.291   0.294 -0.0780 -0.3320  0.4426
 2779TP3     H120156   1.537   1.205   0.252  0.1563 -1.0820  1.8695
 2779TP3     H220157   1.462   1.334   0.282 -1.4296 -2.2131  2.8113
 2780TP3      O20158   2.629   4.843   0.526 -0.1136  0.0859  0.1447
 2780TP3     H120159   2.593   4.778   0.466 -1.6894  0.1675  0.9866
 2780TP3     H220160   2.724   4.831   0.520 -0.3819 -2.4371  0.4564
 2781TP3      O20161   2.987   3.674   0.833  0.1067  0.5261 -0.3226
 2781TP3     H120162   2.912   3.642   0.883 -0.5730  1.5098 -0.6992
 2781TP3     H220163   3.012   3.601   0.777  0.7443 -0.5130  1.3102
 2782TP3      O20164   0.386   3.391   1.906 -0.2943  0.4488  0.1465
 2782TP3     H120165   0.410   3.451   1.835 -0.8575  1.7382  1.0138
 2782TP3     H220166   0.457   3.327   1.908 -1.3586 -0.9551 -3.0302
 2783TP3      O20167   0.571   3.417   9.637 -0.0652  0.2245  0.1411
 2783TP3     H120168   0.530   3.444   9.720 -0.2587 -0.2873  0.2169
 2783TP3     H220169   0.558   3.322   9.634  1.3051  0.0175  0.2620
 2784TP3      O20170   2.942   3.704  10.097  0.4717  0.6272 -0.5391
 2784TP3     H120171   2.953   3.656  10.179 -0.1653  1.3203 -0.0371
 2784TP3     H220172   2.873   3.769  10.116 -1.1811 -0.5705 -2.2227
 2785TP3      O20173   1.196   2.049   8.163  1.1135  0.7248 -0.3491
 2785TP3     H120174   1.228   2.085   8.246  1.9008  0.6037 -0.5963
 2785TP3     H220175   1.102   2.068   8.163  1.3292  1.7902  0.0148
 2786TP3      O20176   2.461   5.119   9.681 -0.2162 -0.3874  0.1292
 2786TP3     H120177   2.497   5.207   9.689  2.4413 -1.4188  0.2925
 2786TP3     H220178   2.399   5.124   9.608 -0.6711  1.7646  0.6378
 2787TP3      O20179   1.708   1.590   9.660  0.3024  0.3122 -0.1020
 2787TP3     H120180   1.731   1.635   9.578  2.3091  1.0117  0.7932
 2787TP3     H220181   1.620   1.621   9.681  0.4940  1.5608 -1.0460
 2788TP3      O20182   0.005   3.131   1.604 -0.4006  0.4531  0.0656
 2788TP3     H120183   0.053   3.050   1.590  1.6406  1.7141 -0.5160
 2788TP3     H220184  -0.051   3.140   1.527  1.1015  0.7368 -1.0328
 2789TP3      O20185   4.105   3.104  10.271 -0.0133  0.2494  0.2186
 2789TP3     H120186   4.066   3.023  10.302 -0.1349  1.0496  2.2658
 2789TP3     H220187   4.108   3.160  10.349 -0.4931  2.4184 -1.2772
 2790TP3      O20188   0.394   4.637   0.926  0.3507 -0.6901 -0.0216
 2790TP3     H120189   0.490   4.630   0.927  0.4353  0.3811  1.7153
 2790TP3     H220190   0.376   4.703   0.859  0.8362 -0.8012 -0.2663
 2791TP3      O20191   0.754   0.652   9.435 -0.0763  0.8568 -0.0721
 2791TP3     H120192   0.729   0.741   9.409  2.5840  1.5515 -0.4099
 2791TP3     H220193   0.760   0.603   9.353 -3.6062 -0.2736  0.2526
 2792TP3      O20194   5.335   3.811  10.271 -0.5023  0.3263  0.2360
 2792TP3     H120195   5.388   3.891  10.263 -0.2828  0.1846  0.2754
 2792TP3     H220196   5.270   3.819  10.201  0.5134 -0.2195 -0.7834
 2793TP3      O20197   2.995   4.914   0.675 -0.1787 -0.0822 -0.8060
 2793TP3     H120198   3.070   4.972   0.689 -0.3619 -0.3135  1.2008
 2793TP3     H220199   3.032   4.837   0.633  0.3210  0.7877 -1.9968
 2794TP3      O20200   3.182   1.592   9.766 -0.1042  0.0004  0.3013
 2794TP3     H120201   3.103   1.572   9.716 -1.2314  2.8597  0.8625
 2794TP3     H220202   3.158   1.570   9.857  0.8931 -2.2268  0.0639
 2795TP3      O20203   4.275   5.127   0.962  0.2419 -0.1514 -0.7335
 2795TP3     H120204   4.273   5.051   1.020  0.8325 -0.2403 -0.8335
 2795TP3     H220205   4.197   5.116   0.907 -0.5337  0.1374  0.2943
 2796TP3      O20206   2.300   3.649   0.117  0.4527 -0.5843 -0.2135
 2796TP3     H120207   2.242   3.658   0.041  0.3332 -1.4954 -0.2318
 2796TP3     H220208   2.355   3.727   0.114 -2.1386  1.3660  1.0023
 2797TP3      O20209   2.998   4.761   8.779 -0.0922 -0.5840 -0.1494
 2797TP3     H120210   2.996   4.691   8.844 -1.1884 -0.4941 -0.0710
 2797TP3     H220211   3.072   4.740   8.722  0.6747 -0.8301  0.9387
 2798TP3      O20212   1.675   2.865   0.598  0.3876  0.0341 -0.2401
 2798TP3     H120213   1.672   2.890   0.506  3.5355 -0.6159 -0.5561
 2798TP3     H220214   1.679   2.769   0.596 -1.9129 -0.1223  0.6823
 2799TP3      O20215   4.274   4.292  10.204 -0.0865 -0.3689 -0.0256
 2799TP3     H120216   4.285   4.376  10.160 -0.4085  0.0365  0.6532
 2799TP3     H220217   4.224   4.238  10.142 -1.0036  0.3766  0.0552
 2800TP3      O20218   0.195   1.110   7.171 -0.7086  0.2230  0.2038
 2800TP3     H120219   0.132   1.139   7.106  1.2399  0.4942 -1.6255
 2800TP3     H220220   0.201   1.015   7.157  1.5976  0.6218 -1.8021
 2801TP3      O20221   4.488   5.442   9.492  0.2179  0.1207  0.3116
 2801TP3     H120222   4.421   5.457   9.559 -0.1700  1.2086 -0.3132
 2801TP3     H220223   4.445   5.465   9.410  1.3298  0.7229 -0.1068
 2802TP3      O20224   1.767   2.800   2.038 -0.0775 -0.2472 -0.1159
 2802TP3     H120225   1.701   2.827   1.974 -0.2709  0.9587  0.5663
 2802TP3     H220226   1.718   2.752   2.105  0.1476 -1.6426 -0.9309
 2803TP3      O20227   2.030   3.217   8.836  0.2604  0.3508 -0.1690
 2803TP3     H120228   1.952   3.269   8.819 -0.2682 -0.2642  0.3723
 2803TP3     H220229   2.082   3.225   8.755  1.4549  3.9013  0.8404
 2804TP3      O20230   0.256   4.028   0.255  0.2412  0.1586  0.0856
 2804TP3     H120231   0.263   3.962   0.186 -0.6016 -1.0404  1.1058
 2804TP3     H220232   0.161   4.038   0.269  0.3847  0.9652  0.5234
 2805TP3      O20233   1.422   2.946   0.270 -0.6296  0.0675  0.1162
 2805TP3     H120234   1.383   2.871   0.316 -0.5472  0.5109  0.9255
 2805TP3     H220235   1.510   2.953   0.306  0.5478 -1.4991 -2.3842
 2806TP3      O20236   1.316   0.215   1.671 -0.1140 -0.1560 -0.4259
 2806TP3     H120237   1.367   0.159   1.611 -0.2273 -0.3329 -0.3586
 2806TP3     H220238   1.303   0.296   1.622 -0.2210 -0.3063 -0.6497
 2807TP3      O20239   2.769   4.344   9.735  0.1474 -0.2046 -0.2415
 2807TP3     H120240   2.738   4.428   9.703 -0.8335 -1.2498 -2.0728
 2807TP3     H220241   2.690   4.297   9.760  0.7582 -0.1867  1.8934
 2808TP3      O20242   2.508   3.551   0.610  0.6613  0.0115  0.1852
 2808TP3     H120243   2.569   3.616   0.642  0.6678 -0.7144  1.6682
 2808TP3     H220244   2.497   3.572   0.517  2.4136  0.7209  0.1218
 2809TP3      O20245   1.790   3.355   9.966 -0.2418  0.4509  0.1731
 2809TP3     H120246   1.712   3.393   9.927  0.3802  1.3910 -0.1837
 2809TP3     H220247   1.792   3.389  10.055  0.4547  1.4999 -0.2271
 2810TP3      O20248   2.933   3.347   0.160 -0.0598  1.0803  0.3800
 2810TP3     H120249   2.976   3.430   0.139  2.4961 -0.5496 -1.0798
 2810TP3     H220250   2.863   3.339   0.096  0.7479  1.3395 -0.5466
 2811TP3      O20251   3.053   2.630   8.831  0.1122 -0.4865 -0.1202
 2811TP3     H120252   3.034   2.716   8.794 -1.3237 -0.5320  0.4360
 2811TP3     H220253   3.062   2.646   8.925 -0.1845 -0.9264 -0.0112
 2812TP3      O20254   3.402   2.064   9.957  0.3405 -0.2033  0.3378
 2812TP3     H120255   3.330   2.114   9.995  1.4801  0.7792  1.2375
 2812TP3     H220256   3.363   2.019   9.882 -1.6077 -1.0377  1.8266
 2813TP3      O20257   1.343   0.367   1.284 -0.4352  0.3926 -0.6478
 2813TP3     H120258   1.267   0.313   1.308 -1.6909  2.3302 -0.1766
 2813TP3     H220259   1.361   0.343   1.193 -2.8061  1.2346 -1.3748
 2814TP3      O20260   0.420   2.565   7.994 -0.3914 -0.5869  0.2123
 2814TP3     H120261   0.483   2.637   7.997 -0.2654 -0.6868 -0.0227
 2814TP3     H220262   0.409   2.539   8.086  0.0088 -0.6539  0.2407
 2815TP3      O20263   3.233   4.233   9.942  0.3340 -0.0576 -0.0196
 2815TP3     H120264   3.156   4.273   9.983  0.6645  0.8971 -0.3212
 2815TP3     H220265   3.197   4.177   9.873 -0.1056  0.1894  0.0085
 2816TP3      O20266   4.289   2.073   0.857  0.2970  0.7085 -0.0730
 2816TP3     H120267   4.328   2.112   0.935 -1.1442 -0.1926  1.1371
 2816TP3     H220268   4.216   2.131   0.836 -0.5525 -0.1438  0.4722
 2817TP3      O20269   0.653   2.934   0.590 -0.0113 -0.0316 -0.0613
 2817TP3     H120270   0.697   2.923   0.675  1.3099  2.1851 -0.4312
 2817TP3     H220271   0.724   2.942   0.527 -0.9349  1.8136 -0.9114
 2818TP3      O20272   3.677   1.796   1.056  0.3438 -0.5179 -0.1420
 2818TP3     H120273   3.727   1.750   1.124  0.9326  0.5019  0.1196
 2818TP3     H220274   3.620   1.855   1.104  0.4917 -0.0632 -0.5233
 2819TP3      O20275   4.662   3.206   9.622  0.5921 -0.6269 -0.3862
 2819TP3     H120276   4.682   3.117   9.592 -1.9974 -0.2869 -3.3122
 2819TP3     H220277   4.598   3.193   9.692  0.6658 -1.0807 -0.4000
 2820TP3      O20278   1.809   5.504   9.025 -0.3072 -0.1156  0.0142
 2820TP3     H120279   1.888   5.501   9.078  0.0193 -0.6003 -0.4976
 2820TP3     H220280   1.819   5.583   8.971 -0.4811  0.1848  0.4143
 2821TP3      O20281   1.345   3.415   0.605  0.3964  0.3399  0.1621
 2821TP3     H120282   1.372   3.502   0.575  1.4780  0.4282  1.3727
 2821TP3     H220283   1.360   3.358   0.529  1.6362  0.8430  0.0150
 2822TP3      O20284   4.509   3.018   0.200  0.2227 -0.0272  0.4129
 2822TP3     H120285   4.485   2.939   0.152  0.3354  0.2786 -0.1643
 2822TP3     H220286   4.471   3.007   0.287  0.6235 -0.9109  0.4736
 2823TP3      O20287   1.932   3.514   9.635 -0.3744 -0.5176 -0.6442
 2823TP3     H120288   1.960   3.453   9.567 -1.7917 -1.6836 -0.2176
 2823TP3     H220289   1.940   3.464   9.717  0.0123  0.4168 -0.1009
 2824TP3      O20290   0.887   2.451   8.181  0.2861 -0.7915 -0.2749
 2824TP3     H120291   0.966   2.491   8.217 -0.8935  0.8491  0.5291
 2824TP3     H220292   0.862   2.508   8.108 -0.4181 -1.0240 -0.2211
 2825TP3      O20293   1.894   4.055   8.676 -0.0860 -0.0109  0.1098
 2825TP3     H120294   1.920   4.072   8.586  0.4065 -1.0892  0.0385
 2825TP3     H220295   1.806   4.018   8.669 -0.6779  1.3368  0.1888
 2826TP3      O20296   0.734   1.693   0.247 -0.3515 -0.4645 -0.1854
 2826TP3     H120297   0.735   1.642   0.328 -0.9132 -0.8142 -0.3964
 2826TP3     H220298   0.814   1.667   0.201 -0.9589 -1.6590 -0.5977
 2827TP3      O20299   4.755   3.923   0.834  0.1724  0.7977 -0.1998
 2827TP3     H120300   4.778   3.842   0.879 -0.9983  0.1119 -0.8108
 2827TP3     H220301   4.766   3.901   0.741 -2.5409  0.5549 -0.4977
 2828TP3      O20302   1.136   4.552   0.776  0.4352  0.2661 -0.3684
 2828TP3     H120303   1.068   4.511   0.722  2.5184 -3.0025 -0.6781
 2828TP3     H220304   1.108   4.537   0.866  0.0547  0.1756 -0.5032
 2829TP3      O20305   1.218   3.001   1.965  0.5872  0.0112  0.0309
 2829TP3     H120306   1.217   3.093   1.939 -0.9413 -0.4000 -1.5676
 2829TP3     H220307   1.190   2.955   1.885  0.3567 -1.7322  1.1050
 2830TP3      O20308   1.887   3.626   7.578  0.0113 -0.1024  0.9637
 2830TP3     H120309   1.930   3.689   7.521 -0.8489  0.5705  1.0528
 2830TP3     H220310   1.821   3.583   7.523  0.8070 -1.1675  0.8140
 2831TP3      O20311   1.984   4.299   1.657 -0.1378 -0.0707 -0.0160
 2831TP3     H120312   2.021   4.383   1.628  0.3804 -0.2846  0.0259
 2831TP3     H220313   1.980   4.246   1.578 -0.5949  0.0430 -0.0678
 2832TP3      O20314   0.977   3.444   8.534 -0.5552 -0.0368 -0.1466
 2832TP3     H120315   0.930   3.515   8.579 -0.8703  1.4991 -2.7382
 2832TP3     H220316   1.038   3.489   8.475  0.3508 -1.9526 -0.7220
 2833TP3      O20317   0.625   0.689   2.472  0.4300 -0.5000  0.1232
 2833TP3     H120318   0.667   0.701   2.557 -0.4736  1.3815  0.3326
 2833TP3     H220319   0.655   0.604   2.442 -0.1567 -1.7257  2.8777
 2834TP3      O20320   4.230   3.062   9.576 -0.8030 -0.2010  0.4965
 2834TP3     H120321   4.264   3.031   9.492 -0.3457 -1.3878  1.0991
 2834TP3     H220322   4.216   3.155   9.564 -2.6267 -0.7022 -1.5156
 2835TP3      O20323   1.562   2.749  10.216  0.2493  0.1611 -0.5797
 2835TP3     H120324   1.600   2.778  10.133 -0.3362  0.0831 -0.8788
 2835TP3     H220325   1.507   2.674  10.191  2.0794 -1.5066  0.2248
 2836TP3      O20326   1.380   4.528   1.346 -0.1498 -0.2662  0.3153
 2836TP3     H120327   1.388   4.433   1.343  0.0170 -0.2851  1.3469
 2836TP3     H220328   1.465   4.559   1.375 -1.0946  0.0124  2.9271
 2837TP3      O20329   0.154   2.326   2.224  0.2478  0.4382  0.3878
 2837TP3     H120330   0.093   2.303   2.295 -0.7553  0.5640 -0.4273
 2837TP3     H220331   0.235   2.349   2.270 -0.0876 -0.4284  1.4454
 2838TP3      O20332   1.526   1.740   0.897 -0.5644 -0.5289  0.1883
 2838TP3     H120333   1.472   1.783   0.963 -2.5956 -0.3298 -1.5377
 2838TP3     H220334   1.491   1.652   0.891  0.0515 -0.7559 -0.1345
 2839TP3      O20335   0.908   3.233   9.324 -0.2165 -0.6656  0.2435
 2839TP3     H120336   0.965   3.157   9.319  1.6358  0.6941  0.1935
 2839TP3     H220337   0.861   3.222   9.407  3.1918  0.2613  2.4104
 2840TP3      O20338   0.973   2.825   0.173  0.1953 -0.2598 -0.3192
 2840TP3     H120339   1.051   2.783   0.208  1.8617  2.0214 -1.1894
 2840TP3     H220340   0.925   2.855   0.251  0.6045 -0.9230  0.1891
 2841TP3      O20341   3.849   2.580   0.055 -0.2159 -0.2542 -0.5055
 2841TP3     H120342   3.861   2.630  -0.026 -0.4297  1.2641  0.3877
 2841TP3     H220343   3.937   2.557   0.083  0.0033  1.2925  0.1074
 2842TP3      O20344   3.040   2.283   0.907 -0.0631 -0.2131 -0.4069
 2842TP3     H120345   2.970   2.332   0.950  1.6383  2.3807 -0.4492
 2842TP3     H220346   3.057   2.209   0.965 -1.4626  0.2216  0.5934
 2843TP3      O20347   1.786   0.139   0.538 -0.3502 -0.2758  0.2901
 2843TP3     H120348   1.840   0.061   0.547 -0.6953 -0.8494 -2.0572
 2843TP3     H220349   1.696   0.106   0.539 -0.6203  0.4778  2.4870
 2844TP3      O20350   3.794   4.841   2.111 -0.1986  0.1159  0.5104
 2844TP3     H120351   3.809   4.934   2.123 -0.3367  0.0734  1.0231
 2844TP3     H220352   3.784   4.830   2.016 -2.9494  1.0412  0.6556
 2845TP3      O20353   2.325   2.633  10.153  0.6184  0.1774 -0.1222
 2845TP3     H120354   2.378   2.713  10.154  0.8113  0.0570 -0.7379
 2845TP3     H220355   2.243   2.660  10.111 -0.0376  0.5056  1.3458
 2846TP3      O20356   2.008   3.298   2.376 -0.5230 -0.1802  0.1028
 2846TP3     H120357   1.984   3.295   2.283 -0.2185 -0.6545  0.0369
 2846TP3     H220358   1.929   3.271   2.422 -0.1072 -1.8134 -0.1148
 2847TP3      O20359   0.909   2.696   2.463 -0.2747  0.1598  0.4208
 2847TP3     H120360   0.976   2.751   2.504  0.1041 -0.6807  0.9431
 2847TP3     H220361   0.873   2.645   2.536 -0.5067 -0.4001 -0.0892
 2848TP3      O20362   4.707   3.620   1.051 -0.4959  0.6128 -0.8467
 2848TP3     H120363   4.750   3.649   1.132 -0.9208  0.0452 -0.4116
 2848TP3     H220364   4.616   3.603   1.078 -0.5000 -0.1166 -1.3262
 2849TP3      O20365   5.208   3.409   8.840  0.0989 -0.5650  0.2127
 2849TP3     H120366   5.192   3.500   8.816  0.3059 -0.5628  0.0813
 2849TP3     H220367   5.264   3.375   8.770 -2.1843 -1.5420 -1.1846
 2850TP3      O20368   5.011   0.286   0.009 -0.5963 -0.3278 -0.0112
 2850TP3     H120369   5.086   0.226   0.005  0.7563  1.3882 -0.9690
 2850TP3     H220370   5.020   0.341  -0.068 -1.5452  1.4480  1.1039
 2851TP3      O20371   2.383   2.208   1.484 -0.2779 -0.4133  0.5373
 2851TP3     H120372   2.366   2.288   1.434 -0.4592  0.6832  2.3441
 2851TP3     H220373   2.442   2.157   1.427 -0.1243  1.0007 -0.6048
 2852TP3      O20374   1.032   3.382  10.262  0.1850 -0.6126  0.2558
 2852TP3     H120375   1.063   3.460  10.216 -0.6210  0.1138  0.9161
 2852TP3     H220376   1.048   3.310  10.201  0.1483  0.1838 -0.7126
 2853TP3      O20377   4.569   1.010   1.629  0.5926  0.4661  0.0898
 2853TP3     H120378   4.619   0.956   1.689  1.2842  0.3550 -0.5803
 2853TP3     H220379   4.609   1.097   1.635 -0.4957  0.9135  1.1398
 2854TP3      O20380   2.263   2.820   1.202  0.0371  0.3568 -0.1576
 2854TP3     H120381   2.220   2.846   1.120  2.7415  1.3007 -1.3325
 2854TP3     H220382   2.319   2.747   1.177 -0.7040 -0.7360  1.3118
 2855TP3      O20383   0.815   5.028   2.917 -0.1860  0.0600  0.9166
 2855TP3     H120384   0.821   5.075   2.833  2.6154 -0.3130  0.8633
 2855TP3     H220385   0.819   5.097   2.983 -0.4167  0.1947  0.7953
 2856TP3      O20386   5.076   5.140   1.881  0.6652 -0.1749 -0.7044
 2856TP3     H120387   5.060   5.105   1.794  0.3446  1.9327 -1.5221
 2856TP3     H220388   4.988   5.156   1.916  0.7609  3.6120 -1.9631
 2857TP3      O20389   3.818   3.671  10.011 -0.9288  0.4183 -0.2080
 2857TP3     H120390   3.905   3.709  10.021 -0.2443 -1.3950  0.9780
 2857TP3     H220391   3.759   3.738  10.045  0.1977  0.7512  1.1512
 2858TP3      O20392   4.993   5.163   0.803 -0.2173 -0.0583 -0.1991
 2858TP3     H120393   4.998   5.132   0.713 -0.4987 -0.6464 -0.0132
 2858TP3     H220394   4.924   5.230   0.801 -1.2833 -1.1415 -0.1187
 2859TP3      O20395   0.506   2.607   0.298  0.0185 -1.2219 -0.2518
 2859TP3     H120396   0.544   2.522   0.278 -0.9747 -1.8012  0.3280
 2859TP3     H220397   0.562   2.643   0.366  1.3072 -0.7688 -1.5215
 2860TP3      O20398   2.607   5.349   8.692 -0.0053  0.0439  0.5996
 2860TP3     H120399   2.595   5.275   8.633  1.3446 -0.1585  0.5664
 2860TP3     H220400   2.561   5.421   8.650  0.5780 -0.2134 -0.4912
 2861TP3      O20401   1.070   4.420   0.128 -0.6395  0.7958 -0.0774
 2861TP3     H120402   1.065   4.343   0.185  0.6368  0.4645 -0.3930
 2861TP3     H220403   1.164   4.436   0.118 -0.8302  0.3636 -2.7684
 2862TP3      O20404   2.296   3.080   0.476  0.3423  0.0631  0.2236
 2862TP3     H120405   2.329   3.003   0.522 -0.5706 -0.8306 -0.5927
 2862TP3     H220406   2.367   3.145   0.483  1.2307 -0.9479  0.6612
 2863TP3      O20407   2.761   3.181   7.451  0.1776 -0.1669 -0.2186
 2863TP3     H120408   2.738   3.264   7.492 -0.5473 -0.0851 -0.7802
 2863TP3     H220409   2.856   3.184   7.441  0.2594  0.1667  0.6748
 2864TP3      O20410   1.705   1.555   0.570  0.4932 -0.4662 -0.2001
 2864TP3     H120411   1.695   1.484   0.633 -2.2843  0.7676  0.8495
 2864TP3     H220412   1.618   1.595   0.565  1.4645  1.5004 -2.3867
 2865TP3      O20413   1.713   4.914   0.965  0.1322  0.2795  0.1522
 2865TP3     H120414   1.702   4.964   1.047 -1.9870  1.3702 -0.7518
 2865TP3     H220415   1.624   4.901   0.934  0.9161 -0.3656 -1.8500
 2866TP3      O20416   1.585   4.034   2.184 -0.2683 -0.2406 -0.2073
 2866TP3     H120417   1.509   4.086   2.157 -0.2079  1.1005  2.0802
 2866TP3     H220418   1.550   3.974   2.251  0.3735 -0.7179 -0.2927
 2867TP3      O20419   5.225   3.006   0.953 -0.1436 -0.3957 -0.0635
 2867TP3     H120420   5.279   3.085   0.950 -0.9111  0.1355  0.1110
 2867TP3     H220421   5.220   2.983   1.046 -1.7081  0.5816  0.0950
 2868TP3      O20422   5.418   1.363   8.880 -0.2086  0.1019 -0.2869
 2868TP3     H120423   5.339   1.370   8.934 -0.9254  0.0208 -1.3036
 2868TP3     H220424   5.400   1.419   8.805 -0.3280 -1.8264 -1.7357
 2869TP3      O20425   1.160   2.080   0.554 -0.2319  0.1209  0.5213
 2869TP3     H120426   1.159   2.019   0.628 -0.6561 -0.3600  0.1235
 2869TP3     H220427   1.068   2.088   0.529  0.1058 -1.3162 -1.2565
 2870TP3      O20428   0.330   1.496   7.530 -0.3886  0.5218  0.1365
 2870TP3     H120429   0.297   1.583   7.505 -0.1295  0.2961 -0.9944
 2870TP3     H220430   0.278   1.435   7.478  0.7489  0.0874 -0.4963
 2871TP3      O20431   4.120   1.786   1.705 -0.1063  0.2687 -0.6218
 2871TP3     H120432   4.091   1.716   1.646 -2.0808  0.0718  0.5416
 2871TP3     H220433   4.054   1.854   1.696  0.4893  0.9556  0.0899
 2872TP3      O20434   3.128   1.681   0.044 -0.0948  0.3633 -0.1446
 2872TP3     H120435   3.135   1.677   0.139  0.1675  0.2535 -0.1702
 2872TP3     H220436   3.159   1.769   0.022  1.9987 -0.4085 -0.3322
 2873TP3      O20437   1.892   1.987   8.250 -0.3093  0.3404  0.3333
 2873TP3     H120438   1.869   1.899   8.281  3.2320 -0.9995 -0.6619
 2873TP3     H220439   1.925   2.032   8.328 -3.2601  1.2676  1.1108
 2874TP3      O20440   4.176   2.584   9.326 -0.4531 -0.7759  0.2158
 2874TP3     H120441   4.271   2.575   9.340 -0.1565  0.7524 -0.8172
 2874TP3     H220442   4.138   2.541   9.403  1.1022  0.9335  2.0084
 2875TP3      O20443   0.115   2.590   0.824 -0.0541 -0.0153  0.5121
 2875TP3     H120444   0.094   2.541   0.903 -0.1270  0.2294  0.6439
 2875TP3     H220445   0.116   2.524   0.754 -3.5372  0.2855  0.1002
 2876TP3      O20446   0.938   0.847   0.729  0.6022 -0.1157  0.1960
 2876TP3     H120447   0.852   0.828   0.693  0.3013  2.1140 -0.3273
 2876TP3     H220448   0.999   0.825   0.658  0.3502 -0.1081 -0.0235
 2877TP3      O20449   0.918   3.152   1.390  0.6875  0.5009 -0.3014
 2877TP3     H120450   0.861   3.175   1.464  1.2265 -0.4258  0.4197
 2877TP3     H220451   0.864   3.096   1.334 -0.3001  2.6595 -1.5436
 2878TP3      O20452   1.295   3.229   0.364 -0.3307 -0.0605  0.2642
 2878TP3     H120453   1.350   3.156   0.335 -1.7486 -1.1053  0.1127
 2878TP3     H220454   1.291   3.288   0.289  0.8485  0.1894  0.3939
 2879TP3      O20455   2.693   2.057   2.132  0.6099 -0.3500 -0.5159
 2879TP3     H120456   2.636   2.134   2.129  0.6835 -0.2867 -0.2896
 2879TP3     H220457   2.714   2.046   2.224  0.8023 -0.4945 -0.5758
 2880TP3      O20458   0.400   3.821   1.881 -0.0317  0.6610 -0.0599
 2880TP3     H120459   0.337   3.750   1.877  0.5103  0.1306  0.7038
 2880TP3     H220460   0.474   3.791   1.828  0.3278  0.5260  0.5199
 2881TP3      O20461   2.829   2.966   1.290 -0.1143  0.3800 -0.0408
 2881TP3     H120462   2.808   3.039   1.348  0.2069  0.3367  0.1344
 2881TP3     H220463   2.769   2.975   1.216  0.5387  1.3395 -0.4596
 2882TP3      O20464   2.157   3.455   9.849  0.0977 -0.4133  0.8542
 2882TP3     H120465   2.232   3.509   9.824 -0.1804  0.2638  1.4478
 2882TP3     H220466   2.127   3.417   9.767  0.7633 -0.2663  0.5347
 2883TP3      O20467   0.851   3.841   8.121 -0.3880  0.0205  0.0360
 2883TP3     H120468   0.791   3.768   8.133 -1.0593  0.6916  0.7539
 2883TP3     H220469   0.837   3.869   8.030  0.8312 -1.5867 -0.6681
 2884TP3      O20470   2.145   3.071   9.399 -0.2588 -0.3045 -0.3824
 2884TP3     H120471   2.156   3.165   9.383  0.5991 -0.1269  1.1738
 2884TP3     H220472   2.173   3.030   9.317 -1.5290  0.8258 -1.4094
 2885TP3      O20473   2.748   1.330   1.837 -0.6166  0.4295 -0.3921
 2885TP3     H120474   2.812   1.264   1.811 -0.8688 -0.2213  0.5911
 2885TP3     H220475   2.793   1.414   1.824  0.9124 -0.0592  1.4953
 2886TP3      O20476   1.455   2.970   1.000 -0.1325  0.2734  0.2245
 2886TP3     H120477   1.491   2.944   0.916  1.8000 -2.2212  1.7959
 2886TP3     H220478   1.529   3.006   1.049 -0.9883  0.6048  1.3154
 2887TP3      O20479   0.176   3.569   0.036 -0.0650 -0.0692  0.1811
 2887TP3     H120480   0.115   3.529  -0.027 -1.0166  0.6235  0.6487
 2887TP3     H220481   0.213   3.495   0.084  0.9817 -0.6392 -1.4614
 2888TP3      O20482   0.737   3.471   1.677 -0.1688  0.3804 -0.3628
 2888TP3     H120483   0.788   3.499   1.753  0.1001  0.0856 -0.4326
 2888TP3     H220484   0.802   3.458   1.608 -0.5746  2.1675 -1.1085
 2889TP3      O20485   0.925   4.465   0.559 -0.1383 -0.0331 -0.1894
 2889TP3     H120486   0.887   4.421   0.483 -0.2561  0.6618 -0.5384
 2889TP3     H220487   0.954   4.550   0.525 -0.4375  0.3888  0.6048
 2890TP3      O20488   1.203   4.218   1.337  0.2585  0.0474  0.0077
 2890TP3     H120489   1.263   4.176   1.399  0.3535  0.9487  0.5281
 2890TP3     H220490   1.176   4.147   1.279 -0.0143 -0.8522  1.2216
 2891TP3      O20491   3.768   4.484   1.854 -0.3547 -0.2563  0.6058
 2891TP3     H120492   3.758   4.433   1.934 -1.3516  2.0524  1.9939
 2891TP3     H220493   3.863   4.496   1.846 -0.2197 -0.9018  1.1637
 2892TP3      O20494   1.072   3.171  10.075 -0.4291 -0.4842 -0.2471
 2892TP3     H120495   1.041   3.106  10.137 -1.1649  0.6216  0.5723
 2892TP3     H220496   1.165   3.180  10.095 -0.9867  1.0387  1.8249
 2893TP3      O20497   1.066   5.503  10.200 -0.2037 -0.3222 -0.0993
 2893TP3     H120498   1.082   5.473  10.110 -0.7015  0.8021 -0.5640
 2893TP3     H220499   1.128   5.452  10.252  1.0157 -0.0416 -1.2309
 2894TP3      O20500   0.561   1.251   8.242  0.5899 -0.1133  0.3285
 2894TP3     H120501   0.533   1.165   8.209 -0.3108  0.3219 -0.0615
 2894TP3     H220502   0.503   1.269   8.315  1.3978 -0.2520  1.0118
 2895TP3      O20503   1.059   5.505   9.060  0.3020 -0.1627 -0.0225
 2895TP3     H120504   1.112   5.555   9.123 -2.7246  1.1630  1.5717
 2895TP3     H220505   1.047   5.565   8.986 -0.6595  0.3057  0.5052
 2896TP3      O20506   0.739   2.208   8.952  0.2510 -0.1547 -0.3922
 2896TP3     H120507   0.799   2.143   8.917  0.3956 -0.9156  1.2276
 2896TP3     H220508   0.763   2.216   9.044 -1.8249 -0.1361  0.1799
 2897TP3      O20509   2.405   3.779   9.894 -0.2933  0.0956 -0.4181
 2897TP3     H120510   2.312   3.770   9.915  0.1537  0.3265  1.7744
 2897TP3     H220511   2.442   3.691   9.906 -0.1669  0.0807 -0.9204
 2898TP3      O20512   2.786   3.442   9.940 -0.6668 -0.5236  0.1972
 2898TP3     H120513   2.772   3.352   9.910 -0.6275 -1.4652  2.8113
 2898TP3     H220514   2.877   3.460   9.918 -0.7455 -1.0314 -0.5656
 2899TP3      O20515   4.568   1.569   9.866 -0.5646  0.2885 -0.0191
 2899TP3     H120516   4.645   1.523   9.833  1.4404  2.1154  1.9366
 2899TP3     H220517   4.572   1.656   9.825 -0.8872  0.8196  1.0448
 2900TP3      O20518   0.789   0.549   7.782 -0.6119 -0.0574  0.1747
 2900TP3     H120519   0.825   0.485   7.844 -2.7277  0.5487  2.0685
 2900TP3     H220520   0.815   0.516   7.696  2.9898 -0.5407  1.3665
 2901TP3      O20521   2.288   4.455   1.977  0.0592 -0.4985 -0.1906
 2901TP3     H120522   2.255   4.530   1.928  2.6719 -0.1084 -1.4280
 2901TP3     H220523   2.320   4.395   1.911  1.1452 -1.1689  0.9182
 2902TP3      O20524   1.140   2.568   9.298 -0.1256  0.1962  0.0599
 2902TP3     H120525   1.090   2.622   9.236  0.2565 -0.0912 -0.5027
 2902TP3     H220526   1.228   2.606   9.296  0.7091 -1.7623 -1.9493
 2903TP3      O20527   0.145   2.472   9.720 -0.1114  0.0547 -0.1901
 2903TP3     H120528   0.198   2.399   9.690 -0.8682  0.0261 -1.4848
 2903TP3     H220529   0.208   2.534   9.757  0.7534 -0.2960 -1.0646
 2904TP3      O20530   1.407   0.008   0.761  0.5091 -0.2829  0.0479
 2904TP3     H120531   1.360   0.071   0.815  0.5929 -0.5758  0.4710
 2904TP3     H220532   1.442  -0.055   0.824 -0.7000 -1.4936 -0.4754
 2905TP3      O20533   0.450   3.321   0.397  0.5912  0.0158  0.4086
 2905TP3     H120534   0.501   3.315   0.316  0.3152 -0.9281  0.2961
 2905TP3     H220535   0.375   3.376   0.375  0.5584 -0.1758  0.0383
 2906TP3      O20536   0.360   2.543   9.916 -0.0842  0.0187 -0.0411
 2906TP3     H120537   0.388   2.634   9.911 -0.5067  0.0919 -1.3813
 2906TP3     H220538   0.442   2.493   9.913  0.0420  0.2875 -2.0477
 2907TP3      O20539   0.043   0.337   8.897  0.3348  0.1916  0.1339
 2907TP3     H120540   0.011   0.403   8.835 -0.2350 -1.0216 -0.8969
 2907TP3     H220541   0.117   0.379   8.941 -0.2881  1.6690 -0.1811
 2908TP3      O20542   2.429   2.430  10.305  0.0143  0.5242  0.3775
 2908TP3     H120543   2.382   2.346  10.298  0.3913  0.2366  1.2480
 2908TP3     H220544   2.367   2.494  10.270  0.5067 -0.3770 -2.2422
 2909TP3      O20545   1.954   2.362   0.330  0.7774  0.1439 -0.1366
 2909TP3     H120546   2.005   2.422   0.276  2.0267 -0.2220  0.6345
 2909TP3     H220547   2.000   2.358   0.414  0.1339 -1.0717  0.1870
 2910TP3      O20548   0.325   3.343   0.988 -0.2573  0.2240  0.0406
 2910TP3     H120549   0.420   3.333   0.995 -0.1206  1.4036 -0.0433
 2910TP3     H220550   0.309   3.347   0.893 -0.5065 -0.9713  0.0236
 2911TP3      O20551   2.773   1.033   8.797 -0.0365 -0.5850  0.5407
 2911TP3     H120552   2.710   1.051   8.727 -0.5010  2.0080  1.5373
 2911TP3     H220553   2.726   0.974   8.856 -0.8089 -0.2553  0.2622
 2912TP3      O20554   0.383   3.044   0.420 -0.2339 -0.7655  0.1301
 2912TP3     H120555   0.383   3.140   0.422  0.1690 -0.7433 -0.5654
 2912TP3     H220556   0.475   3.020   0.424 -0.3870 -1.1638  1.4309
 2913TP3      O20557   4.700   1.622   2.461  0.2527 -0.0660  0.2657
 2913TP3     H120558   4.743   1.536   2.459 -2.7421 -1.6385 -1.1927
 2913TP3     H220559   4.704   1.652   2.371  0.1121  0.7159  0.5205
 2914TP3      O20560   5.226   3.984   0.745 -0.0027  0.3512  0.0160
 2914TP3     H120561   5.184   4.054   0.794 -0.6329  0.2473 -0.3677
 2914TP3     H220562   5.163   3.912   0.747  0.6307 -0.2013  0.3924
 2915TP3      O20563   0.756   3.974   1.002  0.0237  0.3812 -0.0855
 2915TP3     H120564   0.778   4.018   1.084  1.8837  1.3942 -1.1067
 2915TP3     H220565   0.839   3.938   0.971 -1.0009 -1.6223 -0.5936
 2916TP3      O20566   1.598   2.437   0.937  0.0385 -0.1776 -0.4537
 2916TP3     H120567   1.686   2.416   0.967 -0.4430 -1.3805  0.1591
 2916TP3     H220568   1.544   2.433   1.016 -0.5918  0.3685 -0.8535
 2917TP3      O20569   2.503   2.297   0.509 -0.2878 -0.1455 -0.3286
 2917TP3     H120570   2.414   2.296   0.474 -0.9769 -1.3593  1.3922
 2917TP3     H220571   2.518   2.208   0.539  0.2053  0.8325  2.5481
 2918TP3      O20572   3.495   1.061   0.360  0.9819 -0.3968  0.3557
 2918TP3     H120573   3.539   1.063   0.445 -0.2128 -3.4936  1.0844
 2918TP3     H220574   3.403   1.078   0.381  0.6725 -1.2503 -0.3026
 2919TP3      O20575   2.285   4.132  10.126 -0.3291  0.2340 -0.9695
 2919TP3     H120576   2.210   4.076  10.104 -0.6112 -0.4582  1.5861
 2919TP3     H220577   2.248   4.200  10.184  0.6389  1.0912 -1.3340
 2920TP3      O20578   3.486   2.230   1.366  0.0265  0.1320 -0.0261
 2920TP3     H120579   3.445   2.145   1.354  0.0520 -0.0094  0.8452
 2920TP3     H220580   3.518   2.228   1.456 -3.2528  2.4931  1.2393
 2921TP3      O20581   1.942   3.156   0.055  0.2089 -0.6142 -0.0645
 2921TP3     H120582   1.864   3.158  -0.001  0.4884 -2.0704 -0.5275
 2921TP3     H220583   2.015   3.145  -0.007  0.8442  1.2098  0.3195
 2922TP3      O20584   3.859   1.091   0.015  0.0422 -0.1057 -0.1138
 2922TP3     H120585   3.921   1.130  -0.046 -0.0631  1.4285  0.7333
 2922TP3     H220586   3.797   1.044  -0.041 -0.0095  1.2178 -1.1935
 2923TP3      O20587   3.036   3.453   0.688  0.0853 -0.2867 -0.1563
 2923TP3     H120588   2.975   3.380   0.700 -1.6483  1.1713  0.1240
 2923TP3     H220589   3.048   3.460   0.594  2.8368 -2.9686 -0.0829
 2924TP3      O20590   3.642   2.780   8.604 -0.1062 -0.4071  0.0464
 2924TP3     H120591   3.630   2.701   8.657 -0.5013 -0.5101 -0.2031
 2924TP3     H220592   3.737   2.783   8.588  0.1888  0.2907  1.7929
 2925TP3      O20593   0.619   2.758  10.214 -0.1069 -0.2365  0.0542
 2925TP3     H120594   0.589   2.839  10.253  0.4945 -0.2117  0.4838
 2925TP3     H220595   0.611   2.772  10.120  0.7990  0.6409  0.1001
 2926TP3      O20596   3.643   1.357   0.100  0.3987 -0.2781  0.1452
 2926TP3     H120597   3.649   1.361   0.196  0.9395 -2.5056  0.2530
 2926TP3     H220598   3.617   1.266   0.082  0.3238  0.1153 -1.8220
 2927TP3      O20599   3.670   0.915  10.206  0.5774  0.3213  0.5208
 2927TP3     H120600   3.692   0.879  10.120  2.2839  1.6924  0.3566
 2927TP3     H220601   3.617   0.847  10.247 -0.5189 -0.2267 -1.7249
 2928TP3      O20602   0.830   2.939   0.833  0.2498  0.3141  0.5554
 2928TP3     H120603   0.890   2.929   0.759 -1.2641  1.9284 -0.9279
 2928TP3     H220604   0.850   3.026   0.868 -1.8015  1.2403 -0.5176
 2929TP3      O20605   3.802   3.223   9.010 -0.3407 -0.3467 -0.3030
 2929TP3     H120606   3.823   3.155   8.947 -0.8878  0.1079 -0.9795
 2929TP3     H220607   3.726   3.267   8.973 -1.8034 -1.2380  1.5478
 2930TP3      O20608   3.673   3.551   0.137  0.9545  0.0348  0.2609
 2930TP3     H120609   3.661   3.582   0.047 -0.1695  0.4278  0.5372
 2930TP3     H220610   3.648   3.458   0.133  1.7012 -0.1632  0.0059
 2931TP3      O20611   2.878   0.080   9.707  0.2126 -0.0185 -0.4013
 2931TP3     H120612   2.972   0.065   9.718 -0.2420 -2.7958  0.0711
 2931TP3     H220613   2.860   0.054   9.616 -0.3416 -0.9084 -0.0434
 2932TP3      O20614   2.686   3.181   9.895 -0.1838  0.4274 -0.3271
 2932TP3     H120615   2.605   3.176   9.946  0.5140  1.9702  0.9506
 2932TP3     H220616   2.728   3.096   9.910 -0.5686  0.4061  0.6482
 2933TP3      O20617   4.900   1.380   0.604 -0.5948  0.3349 -0.5968
 2933TP3     H120618   4.866   1.336   0.682  0.6176 -0.6270 -0.6078
 2933TP3     H220619   4.980   1.423   0.634 -0.1993  0.0737 -1.2844
 2934TP3      O20620   3.891   4.491   9.209  0.1832 -0.0184  0.3538
 2934TP3     H120621   3.912   4.521   9.121 -5.1110 -2.1600 -1.8837
 2934TP3     H220622   3.837   4.560   9.246 -0.3375 -0.5491  0.6014
 2935TP3      O20623   2.157   2.238   1.228 -0.0387 -0.1869 -0.4274
 2935TP3     H120624   2.210   2.314   1.251 -1.1978  0.8512 -1.1347
 2935TP3     H220625   2.107   2.266   1.151 -0.3750 -1.7085 -0.7768
 2936TP3      O20626   2.403   2.848   0.164 -0.3838  0.2876 -0.3886
 2936TP3     H120627   2.322   2.892   0.188 -0.5076 -0.5660  0.8529
 2936TP3     H220628   2.386   2.755   0.183  1.4556  0.3074  1.5867
 2937TP3      O20629   3.065   1.833   8.905  0.1670  0.4634  0.2778
 2937TP3     H120630   3.128   1.766   8.879 -0.2167  1.6804 -4.1322
 2937TP3     H220631   3.117   1.914   8.910 -0.3035  0.7423  0.6950
 2938TP3      O20632   3.151   0.367   0.871 -0.2775 -0.0167  0.1450
 2938TP3     H120633   3.084   0.345   0.935  1.3280 -0.3307  1.7478
 2938TP3     H220634   3.135   0.460   0.852 -1.2625 -0.1281  0.3907
 2939TP3      O20635   2.463   3.325   0.857 -0.8531  0.3259  0.5624
 2939TP3     H120636   2.478   3.362   0.944 -2.8233 -0.8032  1.4044
 2939TP3     H220637   2.470   3.400   0.798  0.3460  1.1237  1.7048
 2940TP3      O20638   1.552   3.963   8.522 -0.1741 -0.7672  0.0114
 2940TP3     H120639   1.557   3.897   8.452  0.8938 -0.4254 -0.2464
 2940TP3     H220640   1.600   4.038   8.487 -0.8838 -0.0666  0.5396
 2941TP3      O20641   1.331   2.934   9.803 -1.0187  0.1800 -0.1851
 2941TP3     H120642   1.346   2.949   9.896 -1.3451  0.0934 -0.1183
 2941TP3     H220643   1.245   2.892   9.799 -1.0891  0.3579 -0.5396
 2942TP3      O20644   2.565   2.025   0.613 -0.3092  0.0624 -0.1071
 2942TP3     H120645   2.653   1.987   0.606  0.3002  1.6312 -1.4770
 2942TP3     H220646   2.508   1.951   0.634  1.1076 -1.2563 -0.7988
 2943TP3      O20647   3.190   4.493   8.513 -0.3732 -0.3976  0.0079
 2943TP3     H120648   3.197   4.588   8.521 -1.5880 -0.3380  0.4371
 2943TP3     H220649   3.123   4.468   8.576  0.3599 -1.6135  0.3187
 2944TP3      O20650   2.167   2.973  10.031 -0.0047  0.5736  0.1797
 2944TP3     H120651   2.253   2.967  10.074  1.2932 -2.0566 -2.5750
 2944TP3     H220652   2.131   3.057  10.060  2.5713  0.7478  3.0729
 2945TP3      O20653   3.271   4.782   0.511  0.0615  0.7396 -0.1728
 2945TP3     H120654   3.202   4.740   0.460  1.4260 -1.1677 -0.5142
 2945TP3     H220655   3.253   4.757   0.602  0.3163  0.1776 -0.2708
 2946TP3      O20656   3.324   2.366   0.608  0.4287  0.2386 -0.1105
 2946TP3     H120657   3.396   2.430   0.607  0.7306 -0.1050 -0.3735
 2946TP3     H220658   3.249   2.416   0.640  1.0597  0.2957  1.3167
 2947TP3      O20659   2.586   2.512   8.778 -0.0939  0.3322  0.2099
 2947TP3     H120660   2.637   2.432   8.771  1.0626  1.0240  0.4862
 2947TP3     H220661   2.590   2.535   8.871  0.7625  1.4546 -0.0948
 2948TP3      O20662   3.633   3.557   2.651 -0.5123 -0.2046 -0.0283
 2948TP3     H120663   3.585   3.574   2.732  0.8938  0.4904  0.6667
 2948TP3     H220664   3.654   3.644   2.617 -0.5995 -0.5001 -0.8575
 2949TP3      O20665   4.308   1.309   1.361  0.2686  0.1987  0.8750
 2949TP3     H120666   4.317   1.218   1.390 -1.1412  0.1040  1.0349
 2949TP3     H220667   4.331   1.307   1.268 -3.2573 -1.0020 -0.0473
 2950TP3      O20668   0.613   5.017   0.174  0.4889  0.6465  0.0362
 2950TP3     H120669   0.604   5.032   0.268 -0.4271  1.9972 -0.2449
 2950TP3     H220670   0.707   5.024   0.158  0.5398  1.6422  0.6748
 2951TP3      O20671   5.029   0.168   0.290 -0.3118  0.3886 -0.7856
 2951TP3     H120672   5.027   0.119   0.208  1.8664 -0.1508 -0.5523
 2951TP3     H220673   4.981   0.113   0.352  0.4252 -0.5346 -1.0204
 2952TP3      O20674   0.328   1.936   1.290 -0.2509  0.6366 -0.2513
 2952TP3     H120675   0.246   1.981   1.270 -0.0047  1.0741 -0.2803
 2952TP3     H220676   0.394   1.981   1.238  0.1257  0.7495  0.3128
 2953TP3      O20677   2.652   2.702  10.085 -0.4068  0.1901 -0.3318
 2953TP3     H120678   2.671   2.608  10.076 -1.6090  0.0533 -1.6503
 2953TP3     H220679   2.683   2.724  10.173  0.9813 -1.1711 -0.4473
 2954TP3      O20680   4.966   2.846  10.077 -0.6501  0.1624 -0.7124
 2954TP3     H120681   4.888   2.900  10.086  0.3821  1.4876  0.3676
 2954TP3     H220682   5.039   2.906  10.091  0.4699 -2.0598  3.9026
 2955TP3      O20683   0.374   4.365   9.381  0.3827  0.2118 -0.3240
 2955TP3     H120684   0.293   4.373   9.431  0.9853  0.0983  0.6923
 2955TP3     H220685   0.346   4.365   9.289 -0.8413 -0.9239  0.0430
 2956TP3      O20686   2.562   5.511   8.956 -0.3467 -0.4035  0.2948
 2956TP3     H120687   2.561   5.439   8.892 -1.4407 -0.0307 -0.1184
 2956TP3     H220688   2.640   5.561   8.933 -0.0119 -1.0083  0.0803
 2957TP3      O20689   1.173   5.439   0.562 -1.1248  0.2791 -0.0534
 2957TP3     H120690   1.137   5.527   0.571 -2.2604 -0.1599 -0.1733
 2957TP3     H220691   1.261   5.445   0.598 -0.0349  2.2164 -2.9393
 2958TP3      O20692   3.121   4.753   1.020  0.0501 -0.0069  0.0387
 2958TP3     H120693   3.117   4.839   1.061  1.5938  0.7226 -1.2994
 2958TP3     H220694   3.120   4.691   1.093 -2.8473  1.0406  0.9583
 2959TP3      O20695   3.884   3.292   2.157  0.6977 -0.2231 -0.4337
 2959TP3     H120696   3.840   3.326   2.079 -0.8287 -0.7015  0.2047
 2959TP3     H220697   3.818   3.239   2.201  1.0539  1.2281  1.9548
 2960TP3      O20698   1.333   1.649   1.335 -0.0273  0.1498  0.0191
 2960TP3     H120699   1.333   1.555   1.318 -0.1874 -0.3505  2.4908
 2960TP3     H220700   1.421   1.667   1.368 -0.1389  0.7615 -0.0130
 2961TP3      O20701   2.602   4.310   8.750  0.3668 -0.3212  0.0599
 2961TP3     H120702   2.689   4.279   8.775 -0.1883 -1.6040  0.4121
 2961TP3     H220703   2.598   4.399   8.784  0.7134 -1.0169  1.9846
 2962TP3      O20704   2.975   5.237   7.521 -0.0929  0.6010 -0.0375
 2962TP3     H120705   2.938   5.149   7.533  0.0977  0.5991  0.5472
 2962TP3     H220706   2.948   5.262   7.432 -0.6178  0.1803 -0.0012
 2963TP3      O20707   1.122   0.213   0.012 -0.3969  0.0196  0.7012
 2963TP3     H120708   1.182   0.265  -0.043  1.7692 -0.9162  2.1046
 2963TP3     H220709   1.087   0.147  -0.047 -1.5611  1.7675 -0.6041
 2964TP3      O20710   3.112   1.331   1.626  0.3571 -0.1694 -0.1817
 2964TP3     H120711   3.115   1.244   1.666  1.8583 -0.7563 -1.5516
 2964TP3     H220712   3.103   1.391   1.701 -0.7611 -1.4755  0.7648
 2965TP3      O20713   4.293   3.547   0.346 -0.2218 -0.0280 -0.8388
 2965TP3     H120714   4.386   3.556   0.365 -0.5134  2.0765 -0.1808
 2965TP3     H220715   4.279   3.601   0.268 -0.6308 -1.5610 -1.8419
 2966TP3      O20716   2.324   1.463   0.229  0.2037  0.0472  0.6666
 2966TP3     H120717   2.378   1.396   0.187  0.4259  0.5619  0.1235
 2966TP3     H220718   2.343   1.543   0.179 -0.3032  0.4394  1.1078
 2967TP3      O20719   1.685   5.353   8.418  0.6189  0.3592  0.5511
 2967TP3     H120720   1.706   5.260   8.416 -0.0404  0.2361 -1.1221
 2967TP3     H220721   1.682   5.375   8.511  2.0098 -1.0040  0.9275
 2968TP3      O20722   2.225   2.962   0.860  0.4402 -0.6002  0.0331
 2968TP3     H120723   2.275   2.935   0.783  0.6410  0.3560 -0.1720
 2968TP3     H220724   2.133   2.954   0.833  0.5181  0.5835 -0.6010
 2969TP3      O20725   1.772   4.486  10.302  0.0576  0.3919  0.6710
 2969TP3     H120726   1.739   4.396  10.304  1.8633 -0.3596 -1.2023
 2969TP3     H220727   1.853   4.480  10.251 -0.2910  3.2316 -0.2910
 2970TP3      O20728   0.651   3.758   9.075  0.3365  1.0803 -0.2463
 2970TP3     H120729   0.602   3.794   9.149 -2.0002  2.0847 -2.2086
 2970TP3     H220730   0.615   3.670   9.063 -0.2457  1.4135 -1.0026
 2971TP3      O20731   2.542   2.068   1.309  0.5700 -0.3561  0.5787
 2971TP3     H120732   2.631   2.078   1.275  0.2662 -2.0122 -0.7798
 2971TP3     H220733   2.504   1.998   1.256 -1.1579 -0.4749  1.9338
 2972TP3      O20734   4.026   3.857   9.708  0.3067  0.2342  0.7168
 2972TP3     H120735   3.936   3.879   9.683  0.1033 -0.7533  0.5653
 2972TP3     H220736   4.078   3.882   9.631 -0.2554 -2.2906 -0.5402
 2973TP3      O20737   1.487   1.786   0.318  0.0196 -0.2643 -0.1888
 2973TP3     H120738   1.547   1.729   0.270 -0.6815 -0.2437 -1.1151
 2973TP3     H220739   1.454   1.732   0.389  1.0113 -0.3260  0.2308
 2974TP3      O20740   2.860   1.207   0.525  0.5405 -1.0551  0.2066
 2974TP3     H120741   2.850   1.166   0.611  0.9840  0.0175  0.7849
 2974TP3     H220742   2.894   1.137   0.469  1.5196 -1.4298  1.2371
 2975TP3      O20743   0.955   0.352   9.028  0.2041 -0.6097  0.2464
 2975TP3     H120744   0.901   0.284   8.987 -0.1600  0.8178 -1.7310
 2975TP3     H220745   1.001   0.394   8.955  1.9998 -0.0864  1.6445
 2976TP3      O20746   4.887   3.387   8.927 -0.1229 -0.1681  0.7238
 2976TP3     H120747   4.941   3.362   9.002  2.5795  1.5858 -0.5350
 2976TP3     H220748   4.938   3.455   8.884 -2.7635  0.5529 -1.3437
 2977TP3      O20749   3.576   0.088   7.449 -0.4271 -0.3023 -0.0513
 2977TP3     H120750   3.489   0.129   7.446 -0.2042  0.4236  2.3708
 2977TP3     H220751   3.626   0.133   7.381 -1.1757  1.1336  0.3316
 2978TP3      O20752   0.173   3.086  10.133  0.2168  0.3257 -0.1312
 2978TP3     H120753   0.122   3.051  10.207  0.9448  0.9259  0.6688
 2978TP3     H220754   0.138   3.041  10.056 -1.3301  0.5280  0.4441
 2979TP3      O20755   2.848   0.678   0.544  0.5588 -0.6452  0.3186
 2979TP3     H120756   2.777   0.736   0.515 -0.8230 -2.3400  0.1895
 2979TP3     H220757   2.927   0.715   0.505 -0.1083  1.8657  1.2967
 2980TP3      O20758   3.648   2.701   8.294 -0.4394  0.5524 -0.2055
 2980TP3     H120759   3.600   2.697   8.377 -1.5427  1.1256 -0.8098
 2980TP3     H220760   3.674   2.793   8.286 -0.4427  0.5220 -0.5656
 2981TP3      O20761   3.150   0.381   0.528 -0.1704 -0.2410  0.3045
 2981TP3     H120762   3.144   0.289   0.552  0.5383 -0.1880  0.6751
 2981TP3     H220763   3.069   0.398   0.479 -1.2888 -0.5081  2.0476
 2982TP3      O20764   3.258   3.030   9.768 -0.1036 -0.1679  0.0136
 2982TP3     H120765   3.248   2.945   9.726 -0.0003 -1.3522  2.3104
 2982TP3     H220766   3.234   3.015   9.859  0.1964  2.2089  0.5257
 2983TP3      O20767   3.067   2.447   0.677 -0.3701 -0.1577  0.0097
 2983TP3     H120768   3.063   2.370   0.733  0.7496 -0.0679  0.2223
 2983TP3     H220769   3.076   2.520   0.738  1.4779 -0.1169 -0.3071
 2984TP3      O20770   3.804   0.121   7.807  0.3396 -0.1185  0.2867
 2984TP3     H120771   3.899   0.123   7.796  0.1668  0.8576 -1.1478
 2984TP3     H220772   3.772   0.067   7.735 -0.1348 -1.3131  1.3694
 2985TP3      O20773   1.027   2.379   1.369 -0.2913 -0.3116 -0.1926
 2985TP3     H120774   0.970   2.392   1.444 -0.6940 -0.5726 -0.4531
 2985TP3     H220775   1.007   2.451   1.309 -0.0992 -0.2068 -0.1343
 2986TP3      O20776   1.634   3.195   8.031  0.2358 -0.1343  0.0432
 2986TP3     H120777   1.544   3.209   8.061  0.0515 -0.3368 -0.4208
 2986TP3     H220778   1.645   3.256   7.958 -0.4140 -2.0264 -1.6814
 2987TP3      O20779   1.712   2.733   9.574  0.3115 -0.0119  0.1506
 2987TP3     H120780   1.625   2.773   9.578 -0.1596 -0.8697 -1.0723
 2987TP3     H220781   1.772   2.805   9.593 -0.6390  0.7390  0.3510
 2988TP3      O20782   3.884   3.072   9.817  0.5018  1.1178  0.3274
 2988TP3     H120783   3.961   3.051   9.870 -0.1568  0.3440  0.9941
 2988TP3     H220784   3.834   3.133   9.870 -0.6201 -0.3698  1.0167
 2989TP3      O20785   3.244   4.462   0.017 -0.6503 -0.1749 -0.5208
 2989TP3     H120786   3.226   4.389   0.076  0.1270 -0.5925 -0.7952
 2989TP3     H220787   3.312   4.513   0.061 -2.8016  1.6799  0.7429
 2990TP3      O20788   3.863   3.151  10.121 -0.6850  0.7585  0.5148
 2990TP3     H120789   3.820   3.235  10.106 -3.3797 -0.5734  0.5367
 2990TP3     H220790   3.932   3.171  10.185 -0.8042  3.0643 -0.0258
 2991TP3      O20791   2.778   2.067   1.191  0.5459 -0.2449  0.4027
 2991TP3     H120792   2.844   2.129   1.161  0.3249 -0.6627 -0.9754
 2991TP3     H220793   2.828   1.989   1.216  0.5939 -0.4914 -0.4558
 2992TP3      O20794   3.607   3.544   0.460  0.1916  0.8964  0.1896
 2992TP3     H120795   3.680   3.564   0.401 -0.3025 -1.2431 -1.1965
 2992TP3     H220796   3.529   3.571   0.411 -0.1449  0.3094  0.4015
 2993TP3      O20797   4.304   4.292   0.390 -0.4933  0.6994 -0.3852
 2993TP3     H120798   4.289   4.378   0.430  0.0086  0.2458  0.8116
 2993TP3     H220799   4.231   4.238   0.422  0.7282 -0.0695  1.1518
 2994TP3      O20800   3.954   2.305   0.361  0.1249  0.0169  0.2060
 2994TP3     H120801   4.006   2.245   0.413 -0.8795 -0.9505  0.1043
 2994TP3     H220802   3.892   2.249   0.314  0.3470  0.9594 -1.2495
 2995TP3      O20803   4.691   2.763   0.389 -0.1064  0.3877 -0.1559
 2995TP3     H120804   4.738   2.712   0.456  1.2971 -0.3946 -1.7069
 2995TP3     H220805   4.615   2.798   0.435  0.6050 -0.4966  1.7512
 2996TP3      O20806   2.894   1.220   7.600  0.2529  0.3121 -0.2073
 2996TP3     H120807   2.981   1.190   7.574 -0.8231 -2.6123 -0.6325
 2996TP3     H220808   2.904   1.247   7.692  1.6736  0.4212 -0.3835
 2997TP3      O20809   0.680   3.210   1.177 -0.0025 -0.5651 -0.2900
 2997TP3     H120810   0.656   3.169   1.261  3.1732  1.7996  1.8659
 2997TP3     H220811   0.771   3.184   1.163 -0.0831  0.1789 -2.3716
 2998TP3      O20812   4.245   0.828   0.057  0.2195 -0.2836 -0.2524
 2998TP3     H120813   4.261   0.920   0.037 -1.6293  0.1136 -0.0412
 2998TP3     H220814   4.150   0.818   0.047  0.4721 -2.3050 -0.8414
 2999TP3      O20815   4.541   4.415   1.346 -0.1829 -0.3400 -0.2543
 2999TP3     H120816   4.546   4.485   1.410  0.2573  0.1750 -0.8492
 2999TP3     H220817   4.632   4.389   1.332 -0.4465 -2.1514  1.1851
 3000TP3      O20818   2.377   2.254   8.597 -0.6022 -0.6780 -0.6149
 3000TP3     H120819   2.350   2.334   8.642 -0.5719 -0.1938 -1.4563
 3000TP3     H220820   2.329   2.256   8.514  0.2206 -1.0027 -1.0943
 3001TP3      O20821   1.749   1.944   0.131  0.1591  0.0217 -0.2864
 3001TP3     H120822   1.753   2.040   0.138 -0.1657  0.0817 -0.8295
 3001TP3     H220823   1.683   1.929   0.064  0.3474 -0.5812 -0.3334
 3002TP3      O20824   4.713   2.291  10.055 -0.1584  0.2761 -0.1959
 3002TP3     H120825   4.735   2.378  10.022  0.3332  0.2327  0.0169
 3002TP3     H220826   4.795   2.256  10.088 -0.2046 -0.5974 -1.0041
 3003TP3      O20827   3.130   2.139   0.544 -0.1614 -0.0490  0.1343
 3003TP3     H120828   3.174   2.058   0.516 -0.5700  0.7643 -3.0297
 3003TP3     H220829   3.200   2.204   0.546  0.4592 -0.6730  4.0907
 3004TP3      O20830   2.132   5.444   9.936 -0.6498 -0.3060 -0.0491
 3004TP3     H120831   2.052   5.394   9.956 -0.9954  0.1652 -0.2514
 3004TP3     H220832   2.202   5.379   9.941 -0.7198 -0.2594  2.5304
 3005TP3      O20833   2.189   3.336   1.026 -0.0778 -0.2171 -0.3101
 3005TP3     H120834   2.235   3.309   1.106  1.0780  3.5804  0.3869
 3005TP3     H220835   2.255   3.325   0.957 -0.5468 -1.8830 -0.5208
 3006TP3      O20836   5.068   1.580   0.732 -0.0330 -0.3489 -0.2887
 3006TP3     H120837   5.096   1.585   0.823 -0.4432 -0.7070 -0.1395
 3006TP3     H220838   5.077   1.670   0.699 -0.4227 -0.1031  0.2677
 3007TP3      O20839   4.240   2.276   0.574 -0.1109 -0.0989  0.1164
 3007TP3     H120840   4.298   2.215   0.529  0.8008 -1.6710  3.3038
 3007TP3     H220841   4.294   2.315   0.643 -2.1587  0.2397  1.5832
 3008TP3      O20842   4.215   2.161  10.136  0.1864 -0.5856 -0.2762
 3008TP3     H120843   4.168   2.155  10.219 -1.3258  1.5278 -0.9477
 3008TP3     H220844   4.182   2.086  10.085 -0.4496 -0.6737  0.2611
 3009TP3      O20845   4.774   2.313   2.578 -0.2020  0.2615  0.0499
 3009TP3     H120846   4.741   2.243   2.635 -1.0241  0.1097 -0.6125
 3009TP3     H220847   4.847   2.273   2.531 -1.1155 -0.3706 -0.8475
 3010TP3      O20848   3.871   3.267   0.230  0.4944 -0.2214  0.1557
 3010TP3     H120849   3.849   3.329   0.299  0.1917  0.3691 -0.4580
 3010TP3     H220850   3.805   3.283   0.162  1.5892  0.1366 -0.8350
 3011TP3      O20851   4.052   2.197   0.802 -0.1852 -0.4553  0.0765
 3011TP3     H120852   3.990   2.269   0.813 -3.1088 -2.9673  0.9691
 3011TP3     H220853   4.045   2.173   0.710  1.6669  1.1400 -0.4876
 3012TP3      O20854   2.396   2.499   2.199 -0.0694  0.0165  0.0118
 3012TP3     H120855   2.388   2.468   2.289  2.2452  0.1922  0.3019
 3012TP3     H220856   2.447   2.431   2.154  2.0920  1.7079 -0.1921
 3013TP3      O20857   2.073   2.521   0.142 -0.3680  0.2875  0.1807
 3013TP3     H120858   2.012   2.593   0.157  0.3845  1.2521 -1.2799
 3013TP3     H220859   2.067   2.504   0.047  2.7700  1.4329 -0.2578
 3014TP3      O20860   1.214   2.327  10.189  0.5229 -0.8670  0.3601
 3014TP3     H120861   1.200   2.233  10.174  0.0129 -0.9808  1.4961
 3014TP3     H220862   1.135   2.369  10.156  0.4803 -0.8922  0.4303
 3015TP3      O20863   2.715   5.254   0.612  0.4582 -1.0627 -0.6941
 3015TP3     H120864   2.770   5.322   0.653 -0.2499 -1.2494  0.5931
 3015TP3     H220865   2.774   5.209   0.552  1.8051 -1.4580  0.8959
 3016TP3      O20866   2.452   4.636   9.865 -0.7936  0.1412 -0.1036
 3016TP3     H120867   2.485   4.587   9.789  0.4177 -0.7440  0.9665
 3016TP3     H220868   2.379   4.583   9.898  1.6277 -1.9470  2.1119
 3017TP3      O20869   5.441   1.152   1.246  0.2287  0.1696  0.1916
 3017TP3     H120870   5.487   1.156   1.330 -1.0231  1.2083  0.8484
 3017TP3     H220871   5.436   1.058   1.226  0.8486 -0.0622  1.1046
 3018TP3      O20872   3.698   1.646   0.246  1.4518  0.1821 -0.3373
 3018TP3     H120873   3.674   1.564   0.202  1.7122 -0.1966  0.2218
 3018TP3     H220874   3.760   1.619   0.314 -0.4164  0.5107  1.5475
 3019TP3      O20875   5.481   2.011   0.381  0.1157 -0.4203 -0.2071
 3019TP3     H120876   5.453   2.083   0.438  0.8044 -0.0453 -0.3421
 3019TP3     H220877   5.400   1.981   0.339 -0.0398  0.9133 -0.8917
 3020TP3      O20878   4.087   2.526   0.140 -0.3678  0.4324 -0.3209
 3020TP3     H120879   4.135   2.444   0.154 -2.2379 -0.7441 -0.6449
 3020TP3     H220880   4.109   2.580   0.216 -1.0261 -1.3039  1.1265
 3021TP3      O20881   3.800   3.431  10.137 -0.0437  0.1715 -0.3138
 3021TP3     H120882   3.787   3.500  10.073 -0.7397 -0.2458 -0.6321
 3021TP3     H220883   3.880   3.456  10.183 -0.0937  0.9987 -0.6613
 3022TP3      O20884   3.196   2.625  10.270 -0.0285 -0.0242  0.6825
 3022TP3     H120885   3.120   2.585  10.314 -0.8910  0.2277 -0.5546
 3022TP3     H220886   3.160   2.662  10.189  1.2996  0.6957  0.4087
 3023TP3      O20887   2.388   4.085   0.506 -0.6121  0.2821 -0.5400
 3023TP3     H120888   2.442   4.115   0.433  1.1292 -1.1077  0.1485
 3023TP3     H220889   2.342   4.164   0.535  1.7374  1.7217 -0.5597
 3024TP3      O20890   2.596   4.183   1.212 -0.0221 -0.2045 -0.0818
 3024TP3     H120891   2.646   4.105   1.187  0.8515 -0.2120  1.6500
 3024TP3     H220892   2.543   4.154   1.286 -0.2340  0.6707  0.1060
 3025TP3      O20893   3.290   2.539   8.112  0.1786  0.0022  0.2479
 3025TP3     H120894   3.326   2.624   8.086  2.2633 -0.8449  0.3097
 3025TP3     H220895   3.196   2.548   8.095  0.0757  2.9716  2.0202
 3026TP3      O20896   1.454   0.759   2.013 -0.1810  0.0639 -0.1053
 3026TP3     H120897   1.488   0.848   2.024 -0.4478  0.3933 -1.8780
 3026TP3     H220898   1.491   0.710   2.086  0.1887  1.5674  0.7319
 3027TP3      O20899   1.104   3.238   0.705  0.3597 -0.2924 -0.2964
 3027TP3     H120900   1.089   3.318   0.755  0.2998 -0.7437  0.4022
 3027TP3     H220901   1.195   3.245   0.675  0.2481  0.1933 -0.5248
 3028TP3      O20902   2.943   3.692   9.826 -0.7173  0.1563  0.5407
 3028TP3     H120903   2.925   3.684   9.919  0.7656 -0.9604  0.7522
 3028TP3     H220904   2.989   3.611   9.803 -0.2558  0.8221 -0.9627
 3029TP3      O20905   4.899   4.392   0.001  0.0430  0.1011  0.6514
 3029TP3     H120906   4.814   4.407   0.042  0.8469  1.1622  1.9474
 3029TP3     H220907   4.962   4.397   0.073  1.1874 -0.8930 -0.2619
 3030TP3      O20908   1.230   1.978   2.213  0.8217  0.1582  0.4713
 3030TP3     H120909   1.142   2.015   2.221  0.8226  0.2328  0.1454
 3030TP3     H220910   1.251   1.986   2.120  2.0464  2.1466  0.8989
 3031TP3      O20911   1.060   0.179   9.662 -0.5073  0.4559  0.4754
 3031TP3     H120912   0.965   0.185   9.673 -0.8001 -3.2109  0.3575
 3031TP3     H220913   1.095   0.188   9.750 -1.1737 -1.4633  0.9450
 3032TP3      O20914   3.380   3.908   1.181  0.0862 -0.4434  0.1269
 3032TP3     H120915   3.316   3.894   1.112  1.0164  0.2387 -0.8802
 3032TP3     H220916   3.437   3.831   1.177  0.0596 -0.4686  0.2277
 3033TP3      O20917   5.164   0.792   0.729  0.5081 -0.0246 -0.1523
 3033TP3     H120918   5.107   0.833   0.664  0.9752 -0.2770 -0.7242
 3033TP3     H220919   5.113   0.719   0.764 -0.3834  1.1000  0.9678
 3034TP3      O20920   4.761   2.235   8.311  0.0090  0.3900  0.6609
 3034TP3     H120921   4.810   2.156   8.332 -0.7468  0.2299  1.8858
 3034TP3     H220922   4.751   2.280   8.395 -1.9973  0.3719  0.4583
 3035TP3      O20923   2.667   2.774   0.645 -0.0711  0.5130 -0.6037
 3035TP3     H120924   2.697   2.801   0.732  1.0200 -0.2554 -0.7263
 3035TP3     H220925   2.695   2.844   0.587  1.2339 -0.0613 -0.6707
 3036TP3      O20926   1.275   5.201   2.282  0.2997 -0.0857 -0.5319
 3036TP3     H120927   1.331   5.151   2.342 -0.1337 -1.3996 -1.2209
 3036TP3     H220928   1.204   5.233   2.337 -0.5259 -1.9625 -0.4922
 3037TP3      O20929   3.207   1.652   1.207 -0.2577 -0.4590 -0.0699
 3037TP3     H120930   3.269   1.635   1.278 -0.2691  0.0016  0.0516
 3037TP3     H220931   3.192   1.566   1.167 -0.0866 -0.6826  0.3478
 3038TP3      O20932   3.312   5.198   9.603  0.0190 -0.1383 -0.0765
 3038TP3     H120933   3.330   5.167   9.692  2.7654  0.6180 -0.3309
 3038TP3     H220934   3.372   5.149   9.548 -1.7480 -0.6787 -1.5423
 3039TP3      O20935   2.602   2.760   1.752  0.0612  0.3682 -0.1657
 3039TP3     H120936   2.670   2.694   1.743 -0.0118  0.2882 -0.1384
 3039TP3     H220937   2.638   2.839   1.711  0.4724  0.5447  0.5142
 3040TP3      O20938   2.210   0.462   0.884 -0.4853  0.1292  0.0067
 3040TP3     H120939   2.154   0.426   0.953 -0.8501 -2.1563 -1.4553
 3040TP3     H220940   2.149   0.505   0.824 -0.6074 -1.5048 -1.0654
 3041TP3      O20941   2.475   5.329   0.090  0.2731 -0.1604  0.1797
 3041TP3     H120942   2.395   5.289   0.057  0.7827  0.1258 -1.4727
 3041TP3     H220943   2.545   5.271   0.060  0.7439  0.0058  0.9369
 3042TP3      O20944   3.287   3.973   0.334 -0.3909  0.0211  0.0814
 3042TP3     H120945   3.312   4.011   0.250  0.3017 -0.3761  0.1056
 3042TP3     H220946   3.324   3.885   0.333 -0.6639 -0.1050  0.6622
 3043TP3      O20947   2.838   3.580   9.167  0.0290  0.1393  0.1029
 3043TP3     H120948   2.879   3.660   9.133  1.4025 -1.3066 -1.7414
 3043TP3     H220949   2.780   3.611   9.236  0.2348  2.7705 -0.8413
 3044TP3      O20950   3.853   4.591   2.502  0.2584  0.6089  0.0892
 3044TP3     H120951   3.899   4.609   2.584  0.8796 -0.0962 -0.1032
 3044TP3     H220952   3.906   4.635   2.435 -0.0887  0.9366  0.0278
 3045TP3      O20953   2.725   0.504   0.849 -0.0625  0.2623 -0.2536
 3045TP3     H120954   2.634   0.480   0.834 -0.1978  1.0260 -0.6908
 3045TP3     H220955   2.756   0.536   0.764  0.1534  1.4751  0.2719
 3046TP3      O20956   1.778   3.547   1.146  0.5559  0.5529  0.3687
 3046TP3     H120957   1.814   3.634   1.165 -1.1675  1.8976 -2.2695
 3046TP3     H220958   1.852   3.497   1.112  1.4662  1.0803  1.5222
 3047TP3      O20959   1.992   2.318   9.787 -0.1782 -0.2612 -0.5858
 3047TP3     H120960   1.970   2.396   9.737 -2.7508  1.4482  2.9522
 3047TP3     H220961   2.068   2.345   9.839 -1.2485  0.0417  0.8510
 3048TP3      O20962   3.400   2.333   2.325  0.1832 -0.0632  0.0323
 3048TP3     H120963   3.436   2.247   2.302 -0.0788  0.2617 -1.6401
 3048TP3     H220964   3.463   2.369   2.388  0.4360 -1.3555  0.5330
 3049TP3      O20965   2.395   3.076   1.028  0.4058 -0.3562  0.1790
 3049TP3     H120966   2.429   3.148   0.975 -0.8961  1.2758  1.5104
 3049TP3     H220967   2.325   3.038   0.975  0.2240  0.2051  0.0093
 3050TP3      O20968   4.184   0.577   1.273  0.8801  0.3718  0.1768
 3050TP3     H120969   4.208   0.667   1.290 -0.6688  1.4828 -3.0044
 3050TP3     H220970   4.088   0.576   1.280  0.7627 -0.6493 -1.2673
 3051TP3      O20971   2.827   2.952   0.501  0.0069 -0.1863 -0.4677
 3051TP3     H120972   2.763   2.952   0.429  0.2144  2.0017 -0.6687
 3051TP3     H220973   2.910   2.970   0.458  0.3722 -0.3946  0.1542
 3052TP3      O20974   1.996   0.890  10.280 -0.3004 -0.1749 -0.0394
 3052TP3     H120975   2.030   0.940  10.206 -0.2854  0.8947  0.6847
 3052TP3     H220976   2.029   0.936  10.357  0.3673 -1.7599  0.6318
 3053TP3      O20977   0.608   2.337   0.301 -0.4520 -0.2225  0.3397
 3053TP3     H120978   0.573   2.287   0.228 -0.2189 -0.8667  0.6692
 3053TP3     H220979   0.602   2.278   0.376  0.8671 -0.1615  0.5028
 3054TP3      O20980   1.686   0.377   1.456 -0.4719 -0.0947 -0.1089
 3054TP3     H120981   1.667   0.376   1.549 -1.0825  0.2949 -0.2288
 3054TP3     H220982   1.702   0.470   1.436  2.1785 -0.4560  0.1177
 3055TP3      O20983   3.710   1.407  10.151 -0.4620  0.0210  0.3921
 3055TP3     H120984   3.682   1.389  10.240 -0.3008  0.8064  0.6066
 3055TP3     H220985   3.718   1.502  10.147  2.3086 -0.1721  0.3807
 3056TP3      O20986   1.565   0.033   8.612 -0.3977 -0.5143 -0.0813
 3056TP3     H120987   1.605   0.095   8.673  0.6610 -0.9513 -0.3108
 3056TP3     H220988   1.582  -0.053   8.651  0.4777 -0.8082 -1.0837
 3057TP3      O20989   4.339   0.575   0.078  0.1919  0.3667  0.4413
 3057TP3     H120990   4.258   0.525   0.086  0.5798 -0.3204  0.0651
 3057TP3     H220991   4.311   0.661   0.047 -0.4867  0.4301  1.2090
 3058TP3      O20992   3.158   1.012   9.676 -0.0007  0.3992  0.1786
 3058TP3     H120993   3.185   1.065   9.601 -1.6577  0.4627 -0.3884
 3058TP3     H220994   3.110   1.073   9.732 -1.6945 -0.4212 -0.3523
 3059TP3      O20995   2.475   4.152   0.202  0.5841  0.1600  0.3360
 3059TP3     H120996   2.451   4.239   0.233  1.8054  0.7832 -0.4329
 3059TP3     H220997   2.521   4.168   0.119 -0.8717 -1.3309 -0.7914
 3060TP3      O20998   3.005   2.944   1.639 -0.5217 -0.0212 -0.7620
 3060TP3     H120999   3.038   2.893   1.565 -0.7082 -0.1005 -0.7918
 3060TP3     H221000   3.082   2.989   1.674 -0.4947  0.2808 -1.2117
 3061TP3      O21001   4.866   2.021   0.559  0.2610 -0.3652  0.0777
 3061TP3     H121002   4.833   1.980   0.479  1.3960 -2.0231  0.4358
 3061TP3     H221003   4.869   1.949   0.622 -1.7635  1.1562  1.9806
 3062TP3      O21004   4.343   2.308   2.136  0.4936 -0.3681  0.6184
 3062TP3     H121005   4.277   2.244   2.163  0.5662 -0.7879 -0.1946
 3062TP3     H221006   4.365   2.283   2.046  0.7141  0.6324  0.3879
 3063TP3      O21007   2.355   1.708   2.885  0.8557  0.2840 -0.5895
 3063TP3     H121008   2.372   1.789   2.934  2.2759  0.5993 -1.5697
 3063TP3     H221009   2.336   1.738   2.797 -0.2664 -0.3655 -0.5634
 3064TP3      O21010   2.716   1.802   2.850 -0.2462  0.2253  0.0307
 3064TP3     H121011   2.752   1.790   2.938 -1.4956  0.1810  0.5463
 3064TP3     H221012   2.637   1.853   2.863 -0.8618 -0.4487 -0.9866
 3065TP3      O21013   2.489   1.369   1.562 -0.4063 -0.2207  0.2858
 3065TP3     H121014   2.561   1.319   1.600 -1.2102 -0.4965  1.4796
 3065TP3     H221015   2.525   1.405   1.481  0.9773 -0.5886  0.7190
 3066TP3      O21016   2.843   1.535   2.746  0.1620  0.0751 -0.2427
 3066TP3     H121017   2.755   1.547   2.783 -0.4897  2.4153 -2.4421
 3066TP3     H221018   2.828   1.519   2.653  2.1236  2.0046 -0.9218
 3067TP3      O21019   1.551   5.400   0.224 -0.3417  0.2230  0.5595
 3067TP3     H121020   1.514   5.488   0.235  1.0674  0.6656  1.8549
 3067TP3     H221021   1.477   5.341   0.242 -1.3282  1.1181 -0.4391
 3068TP3      O21022   4.225   0.293   0.788  0.1369  0.4061  0.1435
 3068TP3     H121023   4.202   0.379   0.823  0.1960 -0.0132  1.2270
 3068TP3     H221024   4.320   0.286   0.802  0.2165  0.3726 -0.4030
 3069TP3      O21025   0.827   2.239   9.216  0.0093 -0.1204  0.0648
 3069TP3     H121026   0.781   2.282   9.289 -1.9272 -0.3468 -0.9748
 3069TP3     H221027   0.871   2.164   9.256  1.3985  1.4106  1.4839
 3070TP3      O21028   5.095   2.696  10.281  0.0504 -0.3138 -0.0499
 3070TP3     H121029   5.174   2.737  10.246  1.5974 -2.9161  0.2125
 3070TP3     H221030   5.024   2.734  10.231  1.7357 -0.0445 -2.3133
 3071TP3      O21031   1.513   4.496   0.318  0.0209  0.2498  0.1434
 3071TP3     H121032   1.602   4.518   0.345  0.5868 -0.3305 -1.1676
 3071TP3     H221033   1.509   4.400   0.326 -0.0538  0.1453 -1.0042
 3072TP3      O21034   2.278   2.251   9.959 -0.3615  0.1579  0.0073
 3072TP3     H121035   2.349   2.241   9.895 -1.4452  0.2353 -1.2485
 3072TP3     H221036   2.310   2.315  10.022  1.2811 -0.9612  0.3270
 3073TP3      O21037   2.271   3.019   9.167  0.5912  0.0879 -0.1334
 3073TP3     H121038   2.353   3.036   9.121  0.6511  1.0322  0.3054
 3073TP3     H221039   2.204   3.023   9.098  0.8578 -0.1557 -0.4079
 3074TP3      O21040   4.099   4.054   0.902 -0.0321  0.2818  0.2767
 3074TP3     H121041   4.092   4.028   0.810  1.7938  0.6861  0.0179
 3074TP3     H221042   4.031   4.003   0.946 -1.8946  1.1327 -1.4970
 3075TP3      O21043   5.383   3.657   0.995 -0.1562 -0.2021 -0.1003
 3075TP3     H121044   5.426   3.730   1.041 -0.5351 -0.3630  0.5162
 3075TP3     H221045   5.444   3.634   0.925  0.0329  0.6184 -0.2139
 3076TP3      O21046   4.125   4.209   1.127  0.3093  0.1081  0.3642
 3076TP3     H121047   4.118   4.166   1.041  0.9441 -0.0511  0.3869
 3076TP3     H221048   4.178   4.287   1.110 -0.8472  0.8913  0.3240
 3077TP3      O21049   2.469   3.157  10.038  0.0357 -0.0121 -0.7289
 3077TP3     H121050   2.447   3.231  10.094 -0.9338 -0.4795 -0.4896
 3077TP3     H221051   2.435   3.080  10.084  0.0027 -0.4903 -1.5323
 3078TP3      O21052   5.168   4.654   9.740  0.4491 -0.0306  0.4315
 3078TP3     H121053   5.230   4.728   9.737  1.1859 -0.6540  0.0929
 3078TP3     H221054   5.093   4.688   9.789  1.0612  0.7382  0.8583
 3079TP3      O21055   3.033   4.804   9.283  0.5837 -0.0978  0.7734
 3079TP3     H121056   3.084   4.724   9.282  1.6710  0.5697  1.9651
 3079TP3     H221057   3.072   4.859   9.214 -1.1262 -1.1457 -1.1023
 3080TP3      O21058   3.092   0.700   0.078 -0.1075  0.3222 -0.1517
 3080TP3     H121059   3.054   0.678  -0.007  2.3046 -1.3203 -0.8703
 3080TP3     H221060   3.139   0.782   0.063  1.2217 -0.5222 -0.7276
 3081TP3      O21061   3.419   1.482   9.223 -1.1520  0.5860  0.1003
 3081TP3     H121062   3.369   1.409   9.186 -1.4661  1.0583 -0.4098
 3081TP3     H221063   3.352   1.544   9.252 -0.8830  0.7166  0.4393
 3082TP3      O21064   3.443   2.588   1.058 -0.1490 -0.1049 -0.4072
 3082TP3     H121065   3.477   2.507   1.096 -0.9728 -1.7586 -3.0364
 3082TP3     H221066   3.473   2.657   1.117  2.1428 -2.1512  0.9029
 3083TP3      O21067   2.268   3.562   9.433 -0.0835 -0.5138 -0.2572
 3083TP3     H121068   2.313   3.542   9.516 -2.2646 -0.9736  0.8630
 3083TP3     H221069   2.314   3.638   9.399  1.8794 -1.2773  0.5694
 3084TP3      O21070   1.683   2.035   0.472 -0.1014  0.0459 -0.2197
 3084TP3     H121071   1.714   1.962   0.419  0.8715  0.5851 -0.3968
 3084TP3     H221072   1.632   1.994   0.541  1.1681 -0.8595  0.1892
 3085TP3      O21073   2.508   1.997   9.691 -0.1340 -0.1626  0.0339
 3085TP3     H121074   2.537   1.943   9.618  0.1686  0.3394 -0.2218
 3085TP3     H221075   2.435   1.949   9.729  0.2472 -0.8330 -0.0831
 3086TP3      O21076   2.596   0.515   9.589 -0.1506 -0.5525 -0.2261
 3086TP3     H121077   2.538   0.560   9.650  0.1566 -1.6366  0.8776
 3086TP3     H221078   2.683   0.548   9.611 -0.1519 -0.1983 -0.7482
 3087TP3      O21079   2.407   0.660   1.269 -0.7515  0.1774  0.2057
 3087TP3     H121080   2.372   0.664   1.358  0.5285  1.2561  0.6759
 3087TP3     H221081   2.484   0.604   1.276 -1.0912 -0.3729 -0.3882
 3088TP3      O21082   2.772   4.231   1.630  0.6893 -0.3229 -0.0353
 3088TP3     H121083   2.724   4.251   1.710  0.5278  0.4344 -0.3177
 3088TP3     H221084   2.846   4.176   1.659  0.2164 -0.6693  0.5260
 3089TP3      O21085   1.899   5.305   0.023 -0.4174 -0.3031  0.0834
 3089TP3     H121086   1.929   5.217   0.047 -1.3442 -0.3018  1.3353
 3089TP3     H221087   1.937   5.362   0.090  0.1164  0.2474 -0.6827
 3090TP3      O21088   2.769   5.094   1.581  0.0494 -0.3783  0.6028
 3090TP3     H121089   2.714   5.016   1.587  0.3930 -0.6956 -0.2631
 3090TP3     H221090   2.707   5.165   1.565 -0.0162 -0.9660 -2.0539
 3091TP3      O21091   5.074   2.840   8.432  0.5286  0.0100  0.1498
 3091TP3     H121092   5.095   2.748   8.416  0.9328 -0.2822  2.2576
 3091TP3     H221093   5.039   2.871   8.348  0.5810 -1.9976 -0.6507
 3092TP3      O21094   1.377   2.913  10.306 -0.0815 -0.2483  0.3165
 3092TP3     H121095   1.401   2.926  10.398  2.0665  1.1349 -0.3974
 3092TP3     H221096   1.434   2.842  10.276 -1.6611 -1.5570  0.3660
 3093TP3      O21097   1.359   1.042   0.724  0.1014 -0.2553 -0.7500
 3093TP3     H121098   1.302   1.016   0.651  0.2095 -0.8849 -0.6129
 3093TP3     H221099   1.434   0.983   0.718 -0.3408 -0.9513  0.4442
 3094TP3      O21100   4.804   5.294   9.206  0.2559  0.1849 -0.1019
 3094TP3     H121101   4.832   5.282   9.297 -2.2100  1.4916  0.8802
 3094TP3     H221102   4.779   5.207   9.177 -0.7137  0.0424  1.1129
 3095TP3      O21103   4.421   1.389   9.033 -0.2901  0.1174 -0.5463
 3095TP3     H121104   4.377   1.469   9.063  0.4394  0.6854 -0.9589
 3095TP3     H221105   4.478   1.419   8.962  1.5604 -0.4370  0.6945
 3096TP3      O21106   3.713   1.994   8.682  0.5286  0.0087  0.2181
 3096TP3     H121107   3.784   2.039   8.637 -1.4121  1.2000 -1.7556
 3096TP3     H221108   3.749   1.908   8.704  1.9480 -0.1484 -2.4879
 3097TP3      O21109   1.257   4.747   0.626  0.0323 -1.1359 -0.5089
 3097TP3     H121110   1.175   4.797   0.631  2.0103  2.0055  2.9432
 3097TP3     H221111   1.255   4.691   0.704  1.5338 -0.3602  0.1061
 3098TP3      O21112   1.710   1.881   0.759 -0.0324 -0.1189  0.2400
 3098TP3     H121113   1.751   1.946   0.816  1.0000 -0.9255  0.4451
 3098TP3     H221114   1.630   1.855   0.804  0.3234 -0.0936  0.8883
 3099TP3      O21115   2.971   4.099   1.179 -0.0683  0.1795  0.3955
 3099TP3     H121116   2.894   4.125   1.128  1.4858 -1.7933 -3.1051
 3099TP3     H221117   2.969   4.003   1.178  3.0867  0.0970 -0.8023
 3100TP3      O21118   3.770   4.187   0.746 -0.5040 -0.7072  0.4020
 3100TP3     H121119   3.784   4.243   0.822 -0.4255 -1.5627  1.0239
 3100TP3     H221120   3.682   4.208   0.716  0.3620  1.3914 -0.7499
 3101TP3      O21121   2.424   4.366   2.538  0.1272  0.5729  0.2983
 3101TP3     H121122   2.453   4.278   2.562  0.4903  0.5510 -0.2279
 3101TP3     H221123   2.367   4.393   2.611 -0.8986 -0.5407 -0.0764
 3102TP3      O21124   4.279   1.080   1.006  0.0162 -0.6352  0.1806
 3102TP3     H121125   4.278   1.005   0.947  0.6714 -1.1536  0.8223
 3102TP3     H221126   4.360   1.070   1.056 -1.0503 -0.7908  1.9173
 3103TP3      O21127   2.352   1.217   0.378  0.1737 -0.4832  0.3723
 3103TP3     H121128   2.284   1.255   0.322  0.3566 -1.3929 -0.4982
 3103TP3     H221129   2.357   1.275   0.453  1.5800  2.1623 -1.6735
 3104TP3      O21130   2.999   4.785  10.086  0.0239  0.3963 -0.0761
 3104TP3     H121131   2.917   4.832  10.070  0.2882  0.5416 -1.0805
 3104TP3     H221132   3.067   4.851  10.073  0.3476  0.0174 -0.3322
 3105TP3      O21133   2.870   4.886   0.944 -0.3212  0.2602  0.4660
 3105TP3     H121134   2.924   4.807   0.955 -2.7714 -1.5244 -0.0422
 3105TP3     H221135   2.887   4.914   0.854 -0.6706 -0.6014  0.1346
 3106TP3      O21136   1.130   3.815   0.455 -0.3367  0.0149 -0.0506
 3106TP3     H121137   1.096   3.726   0.443 -0.5563 -0.3238  2.7119
 3106TP3     H221138   1.055   3.865   0.488  1.1385 -0.2331  4.0315
 3107TP3      O21139   4.607   3.485   9.698  0.3457 -0.8865  0.2722
 3107TP3     H121140   4.639   3.405   9.656  0.8032 -0.3510 -0.4170
 3107TP3     H221141   4.672   3.552   9.675 -1.8831  0.5280 -2.2386
 3108TP3      O21142   4.293   0.892   0.790  0.0214 -0.8457 -0.1580
 3108TP3     H121143   4.298   0.803   0.756  0.3384 -1.1193  0.6054
 3108TP3     H221144   4.380   0.929   0.774 -0.0777 -0.7075 -0.3802
 3109TP3      O21145   2.244   1.994   0.362  0.3926 -0.1931 -0.2934
 3109TP3     H121146   2.176   1.938   0.325  0.0271  0.1589 -0.1567
 3109TP3     H221147   2.318   1.935   0.377 -0.3389 -0.8538  0.8095
 3110TP3      O21148   3.260   3.636   0.377  0.2143  0.3055  0.5131
 3110TP3     H121149   3.269   3.682   0.461 -1.3088 -0.8380  1.3314
 3110TP3     H221150   3.226   3.550   0.401 -0.6676  0.1309 -1.3369
 3111TP3      O21151   1.934   2.901   9.893 -0.2944  0.2962  0.3341
 3111TP3     H121152   1.912   2.992   9.872  0.1238  0.2462 -0.3267
 3111TP3     H221153   2.016   2.907   9.942 -0.3358  0.2856  0.4039
 3112TP3      O21154   3.656   0.417  10.171  0.3009  0.7664  0.0062
 3112TP3     H121155   3.619   0.468  10.099 -1.5196  0.9828  1.0545
 3112TP3     H221156   3.580   0.379  10.215  1.4932 -1.0027  0.6192
 3113TP3      O21157   2.252   2.640   0.515  0.1549  0.7657  0.2877
 3113TP3     H121158   2.278   2.572   0.576  0.2134  1.9651  1.6406
 3113TP3     H221159   2.293   2.616   0.432  0.1222 -0.8534  0.7356
 3114TP3      O21160   1.809   2.142   9.397  0.1358 -0.5640 -0.3399
 3114TP3     H121161   1.733   2.085   9.385  0.7007 -1.2811 -0.5232
 3114TP3     H221162   1.830   2.173   9.309  1.4664 -2.2021 -0.6288
 3115TP3      O21163   3.562   2.081   2.318  0.1688 -0.7480  0.5151
 3115TP3     H121164   3.543   1.989   2.335 -1.0810 -0.6979 -0.5358
 3115TP3     H221165   3.629   2.079   2.250 -0.7206 -0.8895 -0.3738
 3116TP3      O21166   1.357   1.400   8.183 -0.4478  0.2971  0.2855
 3116TP3     H121167   1.282   1.434   8.134  0.5126  2.1776  0.1049
 3116TP3     H221168   1.368   1.311   8.150 -1.2664  0.7404 -1.2248
 3117TP3      O21169   1.845   2.667   0.383 -0.1917  0.2717  0.5373
 3117TP3     H121170   1.828   2.603   0.314 -0.2523 -0.2172  1.0047
 3117TP3     H221171   1.873   2.746   0.336 -0.7575  0.1168 -0.0753
 3118TP3      O21172   5.086   0.579   0.891  0.0813  0.2956  0.3528
 3118TP3     H121173   5.012   0.550   0.838 -0.7022  0.3840  1.3748
 3118TP3     H221174   5.094   0.513   0.960 -0.0770  1.1336  1.1877
 3119TP3      O21175   3.628   2.744   7.941 -0.1647 -0.0392  0.0405
 3119TP3     H121176   3.658   2.784   8.022 -1.4909  1.5274 -0.2118
 3119TP3     H221177   3.612   2.817   7.882 -0.3656 -1.0899 -1.2414
 3120TP3      O21178   3.274   3.191   1.107 -0.0320  0.3746  1.1813
 3120TP3     H121179   3.286   3.116   1.050 -0.1660  1.6096 -0.4917
 3120TP3     H221180   3.232   3.154   1.185  0.5144 -1.3841  0.6765
 3121TP3      O21181   2.121   3.557  10.173 -0.0778 -0.7192  0.3259
 3121TP3     H121182   2.085   3.646  10.165  0.9260 -0.3074  0.3967
 3121TP3     H221183   2.130   3.527  10.083  1.1840 -0.0989  0.2317
 3122TP3      O21184   3.399   1.169   8.928 -0.2599 -0.1024 -0.4689
 3122TP3     H121185   3.485   1.134   8.953  0.1592  0.7271 -0.7352
 3122TP3     H221186   3.401   1.171   8.833 -0.9765 -1.0604 -0.5092
 3123TP3      O21187   3.288   1.678   8.840 -0.1360 -0.1204  0.3312
 3123TP3     H121188   3.275   1.585   8.819 -2.9141  0.5156 -1.0571
 3123TP3     H221189   3.346   1.710   8.771  1.4828 -0.9909  1.2767
 3124TP3      O21190   4.634   0.031   8.847  0.2575 -0.1529 -0.4382
 3124TP3     H121191   4.703  -0.028   8.817  1.9398  2.3296 -1.6651
 3124TP3     H221192   4.624   0.093   8.775 -1.8098  0.7687  0.6141
 3125TP3      O21193   4.036   1.864   0.658 -0.0616  0.3540  0.1229
 3125TP3     H121194   4.041   1.824   0.745 -0.9970 -2.7185 -1.1354
 3125TP3     H221195   3.953   1.831   0.622  0.6148  1.0534 -2.1419
 3126TP3      O21196   2.227   2.258   0.443 -0.1556 -0.1481  0.2730
 3126TP3     H121197   2.219   2.163   0.436  0.8121 -0.1624 -0.7965
 3126TP3     H221198   2.208   2.277   0.535  1.6668 -1.5673  0.9700
 3127TP3      O21199   1.043   4.265   7.799  0.2541  0.1588 -0.1029
 3127TP3     H121200   1.117   4.281   7.740 -0.2910  0.3095 -0.7633
 3127TP3     H221201   1.068   4.186   7.847  0.6084 -0.1043 -0.7080
 3128TP3      O21202   3.978   2.618   1.346  0.1941  0.0391  0.3186
 3128TP3     H121203   3.931   2.692   1.307  3.1791  1.0301 -1.5747
 3128TP3     H221204   3.967   2.547   1.283  0.7757  0.1414  0.0910
 3129TP3      O21205   2.044   5.023   2.115  0.0693  0.5242  0.2805
 3129TP3     H121206   2.044   5.115   2.139 -2.6049  0.6884 -0.1438
 3129TP3     H221207   2.006   5.020   2.027 -0.8167 -1.0385  0.6839
 3130TP3      O21208   0.195   4.295   0.110  0.7341  0.7843  0.1726
 3130TP3     H121209   0.170   4.285   0.019  1.1740  0.5133  0.0801
 3130TP3     H221210   0.212   4.389   0.120  0.0334  0.9174  0.1531
 3131TP3      O21211   5.185   4.670  10.052  0.1343  0.2676  0.0354
 3131TP3     H121212   5.244   4.689   9.979 -1.1882  1.6103 -0.7005
 3131TP3     H221213   5.228   4.710  10.128  1.5263 -1.1598  0.0257
 3132TP3      O21214   4.709   0.546   9.644  0.6589 -0.0279  0.4841
 3132TP3     H121215   4.615   0.560   9.644  0.7412  0.5705  1.0362
 3132TP3     H221216   4.736   0.566   9.734  1.1456 -1.3543  0.6363
 3133TP3      O21217   3.036   5.239   0.310  0.0929  0.5895 -0.4429
 3133TP3     H121218   2.978   5.179   0.357  3.3297 -1.2649  1.3000
 3133TP3     H221219   2.984   5.267   0.234 -2.6459 -1.8716  0.4178
 3134TP3      O21220   2.230   3.339   0.135 -0.4169  0.1532  0.4009
 3134TP3     H121221   2.239   3.352   0.229  0.3615  2.4866  0.0308
 3134TP3     H221222   2.150   3.386   0.112 -1.4634 -1.7222  0.1173
 3135TP3      O21223   5.130   3.142   9.258  0.2324  0.5648 -0.0904
 3135TP3     H121224   5.116   3.159   9.165  0.9293  0.8211 -0.1536
 3135TP3     H221225   5.130   3.047   9.266 -0.2268  0.5487 -0.2906
 3136TP3      O21226   3.931   2.954   9.582 -0.1604  0.1199 -0.2576
 3136TP3     H121227   4.019   2.915   9.573 -1.2817 -2.6067  0.0559
 3136TP3     H221228   3.934   3.000   9.666  0.9425 -0.0329 -0.1991
 3137TP3      O21229   1.788   2.902   1.273  0.3200 -0.4078 -0.5911
 3137TP3     H121230   1.826   2.860   1.350 -1.4404 -1.6373 -0.3595
 3137TP3     H221231   1.827   2.855   1.199  2.0901  0.8422 -0.4779
 3138TP3      O21232   4.524   2.467   0.548  0.3248  0.5198  0.3872
 3138TP3     H121233   4.596   2.404   0.533  0.2829  0.5681 -0.0301
 3138TP3     H221234   4.461   2.448   0.478 -0.4859 -0.1159  1.2783
 3139TP3      O21235   4.290   2.510   1.617  0.0219 -0.3231  0.9156
 3139TP3     H121236   4.356   2.576   1.638 -0.0352 -0.3681  1.2347
 3139TP3     H221237   4.310   2.484   1.527 -0.4155  0.6769  0.5117
 3140TP3      O21238   2.150   4.353  10.245  0.0759 -0.0540 -0.6325
 3140TP3     H121239   2.089   4.408  10.195 -1.1505  0.5372  1.4737
 3140TP3     H221240   2.152   4.392  10.332  0.9578 -2.0187  0.2617
 3141TP3      O21241   2.011   2.200  10.046 -0.2316  0.8443 -0.6449
 3141TP3     H121242   2.087   2.258  10.052 -1.3881  2.2373  1.0442
 3141TP3     H221243   2.003   2.181   9.953  2.1482  0.7015 -0.8620
 3142TP3      O21244   3.497   1.830   8.994 -0.4162 -0.1916 -0.4834
 3142TP3     H121245   3.431   1.798   8.932  0.1919 -0.8888 -0.7797
 3142TP3     H221246   3.533   1.750   9.033 -0.2639  0.2187  0.2223
 3143TP3      O21247   3.164   3.156   1.720  0.2196  0.4145 -0.5384
 3143TP3     H121248   3.228   3.223   1.695  0.7796  0.2605  0.4431
 3143TP3     H221249   3.079   3.198   1.706  0.5206  0.5365 -2.0706
 3144TP3      O21250   3.077   2.777   1.884  0.0603 -0.2602 -0.1901
 3144TP3     H121251   3.024   2.825   1.821  1.1885  1.7763  0.3540
 3144TP3     H221252   3.102   2.697   1.839 -1.9585 -0.3995 -1.0864
 3145TP3      O21253   4.788   3.761   1.294 -0.1201 -0.6020  0.0684
 3145TP3     H121254   4.711   3.817   1.298 -0.8313 -1.7061  2.4843
 3145TP3     H221255   4.858   3.818   1.262 -1.8402  0.4626 -1.9439
 3146TP3      O21256   4.746   3.041   0.404 -0.1752  0.5078 -0.5138
 3146TP3     H121257   4.701   3.014   0.484 -1.7086  1.5311 -1.0141
 3146TP3     H221258   4.692   3.007   0.333 -0.5073  2.2562 -1.1276
 3147TP3      O21259   0.673   0.846  10.095  0.1269  0.3778  0.2562
 3147TP3     H121260   0.719   0.785  10.153 -0.2926 -0.2769 -0.1004
 3147TP3     H221261   0.582   0.815  10.094 -0.9072  3.1228  2.9298
 3148TP3      O21262   2.339   3.156   8.210 -0.2562 -0.2909  0.6047
 3148TP3     H121263   2.406   3.147   8.142  0.1344 -2.1183  1.2140
 3148TP3     H221264   2.370   3.227   8.265  0.4317 -0.1446  0.0361
 3149TP3      O21265   4.598   4.879   0.289 -0.0748  0.1101 -0.0814
 3149TP3     H121266   4.528   4.939   0.316 -0.3793  0.0933 -0.8364
 3149TP3     H221267   4.646   4.927   0.222  0.3795 -0.0436  0.1350
 3150TP3      O21268   0.015   2.616   8.446 -0.1172 -0.2263  0.1538
 3150TP3     H121269   0.004   2.649   8.356 -1.0894 -0.2897  0.2437
 3150TP3     H221270   0.031   2.523   8.436  3.5091  0.3476 -0.1521
 3151TP3      O21271   4.496   3.134   1.021  0.4451 -0.2638  0.9945
 3151TP3     H121272   4.477   3.208   0.963 -1.5484 -0.4506  1.3652
 3151TP3     H221273   4.468   3.057   0.970 -0.4100 -0.5066  1.8213
 3152TP3      O21274   5.198   2.093   0.955  0.4040 -0.8312 -0.2231
 3152TP3     H121275   5.258   2.140   0.898 -0.9644  1.7980  0.4186
 3152TP3     H221276   5.116   2.089   0.906 -0.5033  0.6015  1.1347
 3153TP3      O21277   3.424   2.472  10.303 -0.3307  0.2412 -0.4820
 3153TP3     H121278   3.344   2.523  10.297 -0.5266  0.3484  2.3019
 3153TP3     H221279   3.486   2.530  10.347  0.5035 -0.7020 -0.3885
 3154TP3      O21280   4.739   5.127   0.406 -0.7142 -0.1923  0.1773
 3154TP3     H121281   4.683   5.149   0.480  1.5619  0.7041  1.7068
 3154TP3     H221282   4.823   5.102   0.447  0.8106  1.0133 -2.1177
 3155TP3      O21283   5.493   4.035  10.226  0.3304 -0.4373 -0.3185
 3155TP3     H121284   5.475   4.122  10.192  0.0283  0.2268  1.4845
 3155TP3     H221285   5.585   4.019  10.204  0.5171  0.5236 -0.2485
 3156TP3      O21286   0.837   2.695   1.354  0.0437  0.1067 -0.4320
 3156TP3     H121287   0.917   2.670   1.307 -0.3533  0.3398 -1.2264
 3156TP3     H221288   0.772   2.632   1.324  0.2845 -1.0262  1.3336
 3157TP3      O21289   0.416   5.116   0.587  0.0183  0.0788 -0.4740
 3157TP3     H121290   0.380   5.124   0.676 -2.1317 -1.7308 -1.1314
 3157TP3     H221291   0.339   5.113   0.531  1.3187 -0.7202 -2.2435
 3158TP3      O21292   4.465   2.775   9.712 -0.4669  0.3961 -0.0635
 3158TP3     H121293   4.408   2.712   9.755  1.2361 -0.9966  0.2180
 3158TP3     H221294   4.443   2.859   9.753 -0.1252 -0.6265  2.3023
 3159TP3      O21295   0.005   3.259   0.307 -0.0265 -0.2063  0.8642
 3159TP3     H121296  -0.061   3.325   0.288 -0.6591 -0.4662  2.0748
 3159TP3     H221297   0.088   3.305   0.297 -0.3091 -0.2570 -2.0700
 3160TP3      O21298   5.354   2.493   0.382  0.3643 -0.0748  0.0485
 3160TP3     H121299   5.311   2.549   0.447 -0.2236 -0.1836 -0.2435
 3160TP3     H221300   5.420   2.444   0.432 -1.3775 -1.5630  0.9238
 3161TP3      O21301   3.338   2.311   8.709 -0.7447  0.3087 -0.2306
 3161TP3     H121302   3.332   2.406   8.697 -2.1949  0.0939 -1.4536
 3161TP3     H221303   3.270   2.291   8.773 -0.4609  0.1068  0.0030
 3162TP3      O21304   5.327   1.400   1.918 -0.1311  0.2915 -0.1644
 3162TP3     H121305   5.385   1.475   1.934  2.0830 -1.6478  1.3081
 3162TP3     H221306   5.257   1.410   1.983  1.8152 -0.5292  2.1144
 3163TP3      O21307   4.341   3.635   8.887  1.0029 -0.4405  0.3658
 3163TP3     H121308   4.408   3.679   8.938  0.2168  0.5968  0.5223
 3163TP3     H221309   4.389   3.572   8.833  2.1936  0.8412 -0.1040
 3164TP3      O21310   0.943   4.041   8.733 -0.6022  0.5632  0.2637
 3164TP3     H121311   0.901   4.117   8.773 -1.0214  0.2949  0.3420
 3164TP3     H221312   0.889   3.967   8.761  0.5016  0.0990  1.1575
 3165TP3      O21313   0.168   3.330   1.217  0.0092 -0.5905  0.3061
 3165TP3     H121314   0.220   3.347   1.138 -1.1041 -1.1379 -0.5579
 3165TP3     H221315   0.085   3.375   1.200  0.3494  0.6652  1.8685
 3166TP3      O21316   1.216   0.853   0.186  0.8947 -0.7640  0.3416
 3166TP3     H121317   1.232   0.947   0.196  0.5100 -0.5190 -1.3050
 3166TP3     H221318   1.285   0.822   0.128 -1.8719 -0.5156 -3.2313
 3167TP3      O21319   4.426   0.491   9.745 -0.4516 -0.0111  0.0081
 3167TP3     H121320   4.450   0.407   9.706  0.4470  0.6237 -0.8269
 3167TP3     H221321   4.387   0.541   9.673  0.2545  0.7771  0.1577
 3168TP3      O21322   5.346   2.232   9.151  0.1296 -0.4051 -0.2695
 3168TP3     H121323   5.380   2.309   9.106 -0.0490  0.7141  1.4873
 3168TP3     H221324   5.276   2.265   9.207 -1.3307 -2.1358 -0.9849
 3169TP3      O21325   0.530   0.830   0.050  0.4426 -0.0869  0.5677
 3169TP3     H121326   0.601   0.772   0.075  0.5807 -0.5307 -0.7978
 3169TP3     H221327   0.573   0.904   0.008  0.1918  0.4388  1.2273
 3170TP3      O21328   4.891   0.880   9.252  0.3358 -0.2205  0.5284
 3170TP3     H121329   4.842   0.881   9.335  0.2988 -0.8544  0.5107
 3170TP3     H221330   4.936   0.796   9.252 -0.3951 -0.6116 -0.5363
 3171TP3      O21331   0.480   2.875   8.552 -0.2288 -0.3198 -0.0155
 3171TP3     H121332   0.420   2.841   8.487 -1.5202  1.6164  0.1086
 3171TP3     H221333   0.423   2.901   8.625  0.6875  1.7545  0.0060
 3172TP3      O21334   0.567   0.666   7.893 -0.3236 -0.2503 -0.1284
 3172TP3     H121335   0.497   0.609   7.862 -0.6686  1.1898 -2.0977
 3172TP3     H221336   0.648   0.624   7.864 -0.1907 -2.7003  3.4320
 3173TP3      O21337   3.585   1.148   0.874  0.1750  0.2203 -0.2591
 3173TP3     H121338   3.511   1.108   0.920 -0.3052  1.7068  0.3109
 3173TP3     H221339   3.571   1.242   0.886  0.8379  0.5797 -2.2355
 3174TP3      O21340   4.253   2.717   0.981 -0.2939  0.0932  0.1094
 3174TP3     H121341   4.332   2.748   0.936  0.0776  0.1765  0.8101
 3174TP3     H221342   4.234   2.786   1.045 -1.5536  0.5876 -0.7642
 3175TP3      O21343   3.163   0.362   9.477 -0.1218 -0.4595 -0.2109
 3175TP3     H121344   3.129   0.425   9.413  0.8957  1.2114  0.8661
 3175TP3     H221345   3.146   0.403   9.562 -3.8785 -3.7796  0.8317
 3176TP3      O21346   2.480   3.958   1.370  0.0034 -0.7946 -0.0444
 3176TP3     H121347   2.511   3.931   1.456 -0.9821 -0.0243  0.5738
 3176TP3     H221348   2.542   3.920   1.308  0.2602 -2.0187  0.9588
 3177TP3      O21349   4.174   3.652   0.589 -0.3566 -0.3210 -0.3385
 3177TP3     H121350   4.127   3.729   0.619 -1.0720 -0.3211 -1.4570
 3177TP3     H221351   4.214   3.678   0.506  2.4500 -0.0100  1.0389
 3178TP3      O21352   5.195   4.159   7.483 -0.4344 -0.3414 -0.1838
 3178TP3     H121353   5.199   4.086   7.544  0.4786 -0.2286 -0.1012
 3178TP3     H221354   5.280   4.158   7.439  0.9013  2.6887  2.1752
 3179TP3      O21355   4.338   2.896   1.831  0.3737  0.1110  0.1042
 3179TP3     H121356   4.420   2.916   1.786  2.3947 -2.9424  2.2476
 3179TP3     H221357   4.292   2.837   1.772  2.1744 -2.3967  1.1272
 3180TP3      O21358   5.435   2.682   0.048  0.0708 -0.6236  0.1504
 3180TP3     H121359   5.344   2.712   0.054  0.4295  0.3288  1.0186
 3180TP3     H221360   5.441   2.609   0.110  0.0040 -0.3981  0.4234
 3181TP3      O21361   4.207   2.846   1.602  0.0569 -0.3352 -0.5897
 3181TP3     H121362   4.239   2.821   1.515 -0.5685 -0.9374 -0.6471
 3181TP3     H221363   4.118   2.811   1.607 -0.4277  0.8990 -0.2341
 3182TP3      O21364   4.286   1.052  10.159  0.2174 -0.7307  0.1563
 3182TP3     H121365   4.381   1.045  10.152  0.0721 -0.3934 -2.4498
 3182TP3     H221366   4.253   0.998  10.088 -1.5881 -1.5340  1.5618
 3183TP3      O21367   0.283   3.159   9.762 -0.4935  0.2287  0.2135
 3183TP3     H121368   0.333   3.237   9.784 -1.7068  0.4114  2.4396
 3183TP3     H221369   0.191   3.186   9.767 -0.9331 -1.3659  1.1629
 3184TP3      O21370   4.478   3.368   0.855  0.2618  0.4499  0.3836
 3184TP3     H121371   4.455   3.443   0.800 -0.8433  0.6201  1.0625
 3184TP3     H221372   4.571   3.352   0.835  0.4312  1.7858 -0.0147
 3185TP3      O21373   4.550   2.400   9.113 -0.4469 -0.1136  0.3775
 3185TP3     H121374   4.630   2.421   9.066  0.1065  1.8241  2.1067
 3185TP3     H221375   4.504   2.338   9.057  1.1996  0.4778 -1.6586
 3186TP3      O21376   0.920   2.026   8.147 -0.2263 -0.3323  0.1437
 3186TP3     H121377   0.872   2.077   8.212  2.0943  1.0244  0.8491
 3186TP3     H221378   0.871   2.038   8.066 -0.9634  1.1665  0.7942
 3187TP3      O21379   1.425   1.764  10.174 -0.1841  0.0986  0.3006
 3187TP3     H121380   1.508   1.750  10.128  0.6602 -0.5916  2.0116
 3187TP3     H221381   1.441   1.841  10.228 -0.3366 -0.6190  1.3724
 3188TP3      O21382   2.985   3.942   2.191  0.2198 -0.2910  0.2353
 3188TP3     H121383   2.914   4.004   2.209 -0.0497 -0.9495  1.5145
 3188TP3     H221384   2.956   3.860   2.231  1.6702 -0.5945  0.6960
 3189TP3      O21385   3.804   0.364   0.264 -0.6252  0.1353 -0.5010
 3189TP3     H121386   3.884   0.381   0.312 -0.0926 -2.3227 -0.4314
 3189TP3     H221387   3.740   0.424   0.302  0.6862  0.7480  0.8006
 3190TP3      O21388   0.214   4.185   8.028  0.7377 -0.1990 -0.3448
 3190TP3     H121389   0.133   4.164   8.074  0.5714  0.5890 -0.2634
 3190TP3     H221390   0.196   4.269   7.986  2.1106  0.8727  1.1433
 3191TP3      O21391   0.550   2.638   9.546 -0.5040  0.2248 -0.0268
 3191TP3     H121392   0.505   2.716   9.514 -0.0258  0.5397  0.0625
 3191TP3     H221393   0.538   2.641   9.641  1.1292  1.2132  0.1667
 3192TP3      O21394   4.930   4.375   9.422  0.1214  0.4583  0.1820
 3192TP3     H121395   4.862   4.377   9.355  1.5138  0.8801 -1.2414
 3192TP3     H221396   4.896   4.432   9.491 -1.3737 -0.0642 -0.0921
 3193TP3      O21397   2.516   1.609   9.279  0.1739  0.2424 -0.5288
 3193TP3     H121398   2.464   1.549   9.225 -0.5552  1.0158 -0.6976
 3193TP3     H221399   2.571   1.655   9.216  3.0834 -2.5192 -0.0852
 3194TP3      O21400   0.707   2.444   9.406 -0.4945 -0.2068  0.3800
 3194TP3     H121401   0.647   2.504   9.451  1.1052  0.2819  1.8820
 3194TP3     H221402   0.761   2.500   9.350 -0.6020 -0.5246 -0.0547
 3195TP3      O21403   0.468   5.265   0.149 -0.2302 -0.2380  0.7128
 3195TP3     H121404   0.523   5.187   0.144 -1.4481 -1.0620  0.1958
 3195TP3     H221405   0.485   5.301   0.236  1.4952 -0.2089  0.3821
 3196TP3      O21406   5.131   2.326   9.980  0.3144  1.0161 -0.3024
 3196TP3     H121407   5.069   2.280  10.038  0.5625  0.3780 -0.5393
 3196TP3     H221408   5.092   2.413   9.968 -0.2750  0.7952 -0.0323
 3197TP3      O21409   3.727   2.045   9.472 -0.0194 -0.0621 -0.1967
 3197TP3     H121410   3.716   1.975   9.536  0.0072 -0.0968 -0.2304
 3197TP3     H221411   3.818   2.036   9.443  0.0742  0.1837  0.0284
 3198TP3      O21412   4.390   3.044   9.803  0.2654 -0.2205  0.1388
 3198TP3     H121413   4.373   2.990   9.880  1.4396 -0.5634  0.1698
 3198TP3     H221414   4.312   3.032   9.748 -1.5238  1.6579  2.1609
 3199TP3      O21415   3.056   3.913   0.687  0.7088  0.1419 -0.3311
 3199TP3     H121416   3.018   3.826   0.700  0.8658  0.2213  0.6272
 3199TP3     H221417   3.011   3.968   0.750  0.7545  0.7223 -0.8055
 3200TP3      O21418   4.713   4.251   9.836  0.0408  0.7009 -0.0416
 3200TP3     H121419   4.682   4.341   9.840 -0.8735  0.3743  0.3928
 3200TP3     H221420   4.731   4.228   9.927  0.8334  0.6276 -0.2078
 3201TP3      O21421   1.282   3.653   1.501 -0.3266 -0.1596  0.4725
 3201TP3     H121422   1.250   3.588   1.438 -1.1440 -0.3232  1.0582
 3201TP3     H221423   1.358   3.610   1.541  0.7876  0.3162 -1.0617
 3202TP3      O21424   2.419   2.345   7.746  0.3667  0.7432 -0.4322
 3202TP3     H121425   2.477   2.308   7.812 -0.1813 -0.3242 -0.5403
 3202TP3     H221426   2.464   2.424   7.715 -0.4533  2.6517  2.9501
 3203TP3      O21427   5.282   2.560  10.005 -0.4275  0.8440  0.4751
 3203TP3     H121428   5.248   2.471  10.016  0.8975  0.5233  2.0102
 3203TP3     H221429   5.306   2.565   9.912  0.0237 -0.5930  0.5082
 3204TP3      O21430   5.406   3.475   9.992  0.3973 -0.2874 -0.7261
 3204TP3     H121431   5.343   3.406   9.971  0.3325  0.1940 -2.1712
 3204TP3     H221432   5.376   3.550   9.942  1.5788  0.2269 -0.6679
 3205TP3      O21433   3.672   3.193   2.299  0.1569 -0.0662  0.2131
 3205TP3     H121434   3.631   3.186   2.385 -0.7690  1.3340 -0.1010
 3205TP3     H221435   3.599   3.183   2.237  0.7611 -0.6994 -0.4079
 3206TP3      O21436   4.173   2.634   7.571  0.0314 -0.2999  0.0949
 3206TP3     H121437   4.180   2.546   7.535  0.1251 -1.1840  2.2072
 3206TP3     H221438   4.259   2.652   7.608  0.3624  1.1501 -1.3098
 3207TP3      O21439   1.847   2.560   9.927  0.5630 -0.4574  0.2080
 3207TP3     H121440   1.775   2.497   9.931 -0.0286  0.2527  0.8228
 3207TP3     H221441   1.809   2.639   9.888  1.1105 -0.2209  0.1440
 3208TP3      O21442   0.081   3.743   8.575 -0.5559 -0.4579 -0.0945
 3208TP3     H121443   0.158   3.688   8.564  0.0660 -0.4344  3.4329
 3208TP3     H221444   0.009   3.681   8.588 -0.3245 -0.4855  1.1287
 3209TP3      O21445   0.403   1.470   8.547  0.8733 -0.0757 -0.2404
 3209TP3     H121446   0.361   1.396   8.503  2.2979  0.3881 -2.4357
 3209TP3     H221447   0.486   1.434   8.580 -0.6132 -0.6823  3.0425
 3210TP3      O21448   1.538   2.457   0.663  0.0198  0.0753  0.1163
 3210TP3     H121449   1.545   2.441   0.757  1.2517  0.2592  0.0712
 3210TP3     H221450   1.454   2.419   0.638  0.2706 -1.1372  1.0633
 3211TP3      O21451   4.802   3.062   0.883  0.4068  0.7222  0.7458
 3211TP3     H121452   4.776   3.067   0.975 -1.0096  1.3628  0.3302
 3211TP3     H221453   4.769   2.978   0.853  1.6504  0.1157  1.0423
 3212TP3      O21454   4.676   2.679   1.145 -0.1463  0.4016  0.0675
 3212TP3     H121455   4.616   2.691   1.219  0.7478  2.7570  0.4555
 3212TP3     H221456   4.649   2.746   1.082 -1.0838 -1.7761 -1.9210
 3213TP3      O21457   3.823   2.103   1.273  0.1254 -0.3512  0.6439
 3213TP3     H121458   3.831   2.157   1.195 -1.2843 -0.8724  0.1201
 3213TP3     H221459   3.731   2.112   1.299  0.4093 -0.7498  1.8231
 3214TP3      O21460   2.624   2.236   7.925  0.1947  0.4298  0.0356
 3214TP3     H121461   2.619   2.204   8.016  1.7492 -0.7254 -0.2590
 3214TP3     H221462   2.710   2.279   7.920  1.3979 -2.0294 -1.6285
 3215TP3      O21463   3.726   1.693  10.081  0.3420  0.0633  0.1227
 3215TP3     H121464   3.673   1.729  10.153 -1.0427 -1.8577  0.1172
 3215TP3     H221465   3.702   1.747  10.006  1.3928  1.7441  0.9668
 3216TP3      O21466   0.311   1.811   0.655 -0.2742  0.2458 -0.2483
 3216TP3     H121467   0.376   1.809   0.585 -1.0789  0.7358 -1.0125
 3216TP3     H221468   0.318   1.900   0.691  1.7472 -0.6987  1.8356
 3217TP3      O21469   4.454   2.793  10.265 -0.0824  0.0431 -0.0961
 3217TP3     H121470   4.471   2.779  10.358 -4.8619 -2.1744  0.5836
 3217TP3     H221471   4.492   2.717  10.222 -2.3395 -1.5574  0.6622
 3218TP3      O21472   4.954   3.532   9.774  0.0380  0.2229  0.0117
 3218TP3     H121473   4.911   3.558   9.693  3.5909 -0.0343 -2.0423
 3218TP3     H221474   4.968   3.614   9.821 -0.5134  0.5657 -0.4186
 3219TP3      O21475   3.718   3.664   9.208 -0.5026 -0.9356 -0.1979
 3219TP3     H121476   3.791   3.622   9.162  0.4926  0.5303  0.0099
 3219TP3     H221477   3.660   3.592   9.233  0.6143 -2.0576 -0.8266
 3220TP3      O21478   5.090   2.278   9.019  0.0319  0.6356 -0.0272
 3220TP3     H121479   5.180   2.257   8.993 -0.3889 -0.6818 -0.4742
 3220TP3     H221480   5.060   2.339   8.951 -1.3722 -3.4939 -3.3121
 3221TP3      O21481   0.119   4.683  10.159  0.0320  0.4024  0.3017
 3221TP3     H121482   0.175   4.608  10.180 -0.3307  0.4937  1.6419
 3221TP3     H221483   0.177   4.743  10.111  0.5478 -0.3605 -0.0339
 3222TP3      O21484   4.578   3.927   8.281 -0.1311 -0.1239  0.2717
 3222TP3     H121485   4.651   3.879   8.242 -1.1837 -0.3078 -1.5404
 3222TP3     H221486   4.520   3.860   8.317  0.0048 -0.0420  0.6454
 3223TP3      O21487   0.006   0.111  10.297  0.2393 -0.2528 -0.1284
 3223TP3     H121488   0.006   0.205  10.316  1.4731 -0.7014  2.2052
 3223TP3     H221489   0.064   0.073  10.363 -0.0534 -2.6374 -1.1967
 3224TP3      O21490   4.870   2.441   8.149  0.3493 -0.8330 -0.1364
 3224TP3     H121491   4.821   2.386   8.209 -0.6114  0.2631  0.0982
 3224TP3     H221492   4.959   2.443   8.185 -0.2500 -0.0847  1.3383
 3225TP3      O21493   0.038   3.084   0.950 -0.1757 -0.2107 -0.3276
 3225TP3     H121494  -0.038   3.116   0.998  0.0201 -0.1442 -0.0607
 3225TP3     H221495   0.058   3.153   0.887 -0.7780 -0.5449 -0.8892
 3226TP3      O21496   5.268   4.733   8.650  0.2172  0.3831 -0.5079
 3226TP3     H121497   5.204   4.790   8.693 -0.5692 -0.0578 -1.0770
 3226TP3     H221498   5.279   4.771   8.563 -0.8809 -0.7493 -1.1548
 3227TP3      O21499   0.346   2.028  10.024 -0.2723  0.7283  0.7070
 3227TP3     H121500   0.395   2.025   9.942 -2.2636  2.5775 -0.5934
 3227TP3     H221501   0.356   1.940  10.061 -0.2643 -0.4628 -2.0344
 3228TP3      O21502   5.194   1.845   0.718  0.1039  0.1149 -0.0183
 3228TP3     H121503   5.203   1.822   0.810  1.3632 -1.7021 -0.5698
 3228TP3     H221504   5.107   1.885   0.712  0.2059  0.7090  2.0281
 3229TP3      O21505   4.728   2.459   9.369 -0.4217  0.1040 -0.0551
 3229TP3     H121506   4.662   2.433   9.304  0.4171 -0.1891 -0.8017
 3229TP3     H221507   4.677   2.498   9.440 -1.4282 -0.3875 -0.4875
 3230TP3      O21508   3.968   3.837   9.129 -0.3674  0.2989 -0.0635
 3230TP3     H121509   3.989   3.768   9.066 -0.9155 -0.4084  0.5278
 3230TP3     H221510   4.042   3.898   9.122  0.3119 -0.5398 -0.3078
 3231TP3      O21511   3.664   1.925   0.785  0.4452 -0.3103  0.5523
 3231TP3     H121512   3.649   1.998   0.846 -1.3191 -0.5855  0.4534
 3231TP3     H221513   3.669   1.848   0.841 -0.2270 -0.4396  0.4363
 3232TP3      O21514   5.499   1.159   0.590  0.4494  0.4334  0.1395
 3232TP3     H121515   5.567   1.213   0.550  0.4560 -1.5195 -2.5906
 3232TP3     H221516   5.466   1.212   0.662  3.4243  2.2767  0.2398
 3233TP3      O21517   2.869   5.080   0.444  0.3733  0.0965  0.5749
 3233TP3     H121518   2.854   5.005   0.388  1.4228  1.8697 -2.1588
 3233TP3     H221519   2.918   5.045   0.519 -2.0106 -2.4819  0.9961
 3234TP3      O21520   4.146   2.845   9.219 -0.7484 -0.2162  0.4920
 3234TP3     H121521   4.140   2.752   9.240  1.7195 -0.8554 -1.3385
 3234TP3     H221522   4.209   2.880   9.282  0.0019 -0.2803 -0.2082
 3235TP3      O21523   4.867   1.689   9.833 -0.5128  0.4469 -0.3026
 3235TP3     H121524   4.924   1.715   9.906 -1.6810 -0.1561  0.8380
 3235TP3     H221525   4.866   1.765   9.775  0.2843  0.9980  0.3953
 3236TP3      O21526   5.089   0.634  10.161  0.3603 -0.3912 -0.4515
 3236TP3     H121527   5.113   0.632  10.254 -0.3719  0.6719 -0.2300
 3236TP3     H221528   5.010   0.580  10.156  1.4194 -1.9439 -0.7782
 3237TP3      O21529   1.246   4.922   0.334 -0.0823  0.4280  0.0376
 3237TP3     H121530   1.278   5.009   0.360  2.2207 -0.4097  0.0883
 3237TP3     H221531   1.303   4.861   0.380 -1.6908 -1.1418 -0.0064
 3238TP3      O21532   4.863   2.584   0.579 -0.4508 -0.2651 -0.9017
 3238TP3     H121533   4.818   2.508   0.542  2.2501 -1.0245 -2.8360
 3238TP3     H221534   4.874   2.562   0.671 -2.5408 -0.7536 -0.7404
 3239TP3      O21535   1.229   3.383   0.146 -0.5084 -0.0272  0.1133
 3239TP3     H121536   1.148   3.368   0.097 -0.0648 -0.2815 -0.5433
 3239TP3     H221537   1.253   3.474   0.124  1.3289 -1.0919 -2.5959
 3240TP3      O21538   1.041   3.498   0.775 -0.0610  0.1402 -0.1450
 3240TP3     H121539   1.118   3.500   0.832 -1.6777  2.1340  2.0173
 3240TP3     H221540   1.052   3.573   0.717  0.5434 -0.6816 -1.1129
 3241TP3      O21541   0.929   4.876   8.558 -0.4290 -0.0659 -0.2962
 3241TP3     H121542   0.838   4.892   8.535 -0.1346  0.6411 -0.9830
 3241TP3     H221543   0.977   4.950   8.521  0.0299  1.3126  2.8382
 3242TP3      O21544   4.253   3.307   1.902  0.2735  0.1194 -0.4741
 3242TP3     H121545   4.208   3.391   1.892  1.4061  0.8717  0.6114
 3242TP3     H221546   4.325   3.326   1.962 -0.1580 -1.8922  0.7276
 3243TP3      O21547   0.673   4.111   8.849 -0.6456 -0.1576 -0.0693
 3243TP3     H121548   0.720   4.194   8.844  2.6875 -2.0313 -0.8080
 3243TP3     H221549   0.629   4.103   8.765 -0.6787  0.6794 -0.1308
 3244TP3      O21550   4.994   1.547   1.725 -0.1055  0.1845 -0.0467
 3244TP3     H121551   5.033   1.478   1.671  0.1739  0.7882 -0.6298
 3244TP3     H221552   5.016   1.523   1.815  1.7094  0.5480 -0.3586
 3245TP3      O21553   3.297   2.250   9.199  0.2032  0.5476  0.5646
 3245TP3     H121554   3.225   2.306   9.229  1.3667  1.8317  0.9985
 3245TP3     H221555   3.376   2.301   9.216  1.1127 -0.0134 -1.7480
 3246TP3      O21556   3.780   3.680   1.272  0.8804  0.4543 -0.3250
 3246TP3     H121557   3.686   3.691   1.287  0.3444  1.2170 -3.7853
 3246TP3     H221558   3.801   3.596   1.311 -1.2272  0.3461  0.6232
 3247TP3      O21559   3.482   3.000   0.908  0.5622 -0.4716  0.1268
 3247TP3     H121560   3.498   3.051   0.829  0.3099 -1.0692 -0.3134
 3247TP3     H221561   3.569   2.969   0.935  0.2964 -3.0591 -1.8177
 3248TP3      O21562   0.159   3.888   0.545 -0.1399 -0.0445  0.3071
 3248TP3     H121563   0.169   3.873   0.639 -0.5854  0.4321  0.4283
 3248TP3     H221564   0.109   3.813   0.513  0.4111 -0.4449  0.3633
 3249TP3      O21565   1.257   2.237   1.283 -0.2974 -0.1527 -0.5380
 3249TP3     H121566   1.171   2.278   1.282 -0.6106 -0.8035 -0.3729
 3249TP3     H221567   1.310   2.294   1.340 -1.0796 -0.6795  0.7276
 3250TP3      O21568   5.451   0.888   1.174 -0.4797  0.5512  0.1978
 3250TP3     H121569   5.392   0.884   1.100  1.1936 -0.9062 -1.1013
 3250TP3     H221570   5.452   0.799   1.209 -0.2859  0.9378  1.1947
 3251TP3      O21571   4.198   4.011   2.530 -0.1227 -0.4505  0.1713
 3251TP3     H121572   4.134   4.052   2.589  0.4488 -1.7396  1.7201
 3251TP3     H221573   4.145   3.956   2.472 -0.4675 -1.1961  1.1814
 3252TP3      O21574   2.915   0.428   0.424  0.0949  0.2248 -0.5269
 3252TP3     H121575   2.881   0.433   0.335  0.2737  1.0355 -0.5538
 3252TP3     H221576   2.898   0.515   0.461  1.5946  0.4654 -0.3521
 3253TP3      O21577   3.028   1.860   2.201 -0.6693 -0.0930 -0.4310
 3253TP3     H121578   2.951   1.889   2.250 -0.3010 -1.5090  1.0725
 3253TP3     H221579   3.096   1.923   2.223 -0.2466 -1.2314  1.7083
 3254TP3      O21580   4.562   2.581  10.109  0.1832 -0.0087  0.1320
 3254TP3     H121581   4.642   2.580  10.161  0.3483  0.2900 -0.1195
 3254TP3     H221582   4.509   2.509  10.146  1.2781 -1.3340 -0.8357
 3255TP3      O21583   5.100   3.203   8.195 -0.4143  0.2150 -0.0188
 3255TP3     H121584   5.065   3.257   8.266 -1.0209  1.2703 -1.0926
 3255TP3     H221585   5.086   3.113   8.224 -0.0893  0.6285  1.4656
 3256TP3      O21586   0.492   4.903   9.686 -0.0446 -0.2437 -0.0077
 3256TP3     H121587   0.569   4.874   9.735 -0.2339 -0.0282  0.4169
 3256TP3     H221588   0.496   4.998   9.689 -0.1457 -0.2310 -0.2753
 3257TP3      O21589   3.600   3.810  10.125  0.2899  0.1926  0.0414
 3257TP3     H121590   3.540   3.738  10.143  2.9451 -2.2092 -0.2781
 3257TP3     H221591   3.573   3.844  10.039 -0.9372 -0.4470  0.1699
 3258TP3      O21592   4.402   2.386  10.261 -0.0784  0.1198  0.3115
 3258TP3     H121593   4.334   2.322  10.283  0.8900 -1.2727 -0.7037
 3258TP3     H221594   4.471   2.372  10.326  0.2324 -0.0157 -0.0473
 3259TP3      O21595   4.365   2.170   1.416  0.0549 -0.5228  0.1564
 3259TP3     H121596   4.353   2.263   1.395  0.7505 -0.6873 -1.0449
 3259TP3     H221597   4.434   2.169   1.483 -1.2201 -0.0660  1.4889
 3260TP3      O21598   0.867   2.815   9.968  0.0942  0.2213  0.1305
 3260TP3     H121599   0.872   2.911   9.966  0.3782  0.2120  0.3650
 3260TP3     H221600   0.775   2.796   9.951  0.0109  0.5437  0.2135
 3261TP3      O21601   3.869   1.194   0.478  0.1961  0.2423  0.4823
 3261TP3     H121602   3.856   1.152   0.563  0.6384 -0.7810  0.0482
 3261TP3     H221603   3.927   1.135   0.430 -0.3290  0.6382 -0.6628
 3262TP3      O21604   4.638   2.441   2.312 -0.0560 -0.6119  0.0796
 3262TP3     H121605   4.682   2.374   2.260  0.6566  0.5046 -0.8023
 3262TP3     H221606   4.660   2.419   2.403 -0.2572 -1.8548 -0.1751
 3263TP3      O21607   3.548   5.308   1.324 -0.1663 -0.1402 -0.0326
 3263TP3     H121608   3.640   5.332   1.318  0.3520 -1.9205  0.3570
 3263TP3     H221609   3.546   5.239   1.390 -2.0371  1.1030  1.2633
 3264TP3      O21610   0.031   3.424  10.193 -0.7590 -0.2302 -0.4490
 3264TP3     H121611  -0.042   3.438  10.132 -0.4895 -0.6267 -0.8690
 3264TP3     H221612   0.074   3.344  10.160 -0.3154 -0.1645 -0.0300
 3265TP3      O21613   4.302   3.742   9.215 -1.3180 -0.0924 -0.0941
 3265TP3     H121614   4.336   3.830   9.231 -1.5702  0.0918 -0.5975
 3265TP3     H221615   4.347   3.713   9.135  0.7859 -1.4481  1.5029
 3266TP3      O21616   4.460   2.730   0.568 -0.2020 -0.0349  0.0163
 3266TP3     H121617   4.475   2.749   0.660 -0.1007  1.1396 -0.2452
 3266TP3     H221618   4.469   2.634   0.562  1.5196  0.0529  0.8950
 3267TP3      O21619   3.119   3.415   9.528 -0.0663 -0.1560  0.0221
 3267TP3     H121620   3.086   3.362   9.602  0.3242  1.9417  1.7475
 3267TP3     H221621   3.110   3.357   9.452 -0.2615 -2.4753  1.7331
 3268TP3      O21622   3.843   2.396   0.822  0.4415 -0.0182 -0.0985
 3268TP3     H121623   3.755   2.430   0.839 -1.2092 -3.9986 -0.3234
 3268TP3     H221624   3.868   2.437   0.739 -2.7842 -1.7149 -1.9984
 3269TP3      O21625   3.987   0.373   0.470  0.4091 -0.2577  0.0785
 3269TP3     H121626   4.012   0.284   0.496 -1.0954 -0.6326  0.2703
 3269TP3     H221627   3.946   0.410   0.549 -1.3632 -0.3131 -0.8033
 3270TP3      O21628   3.579   0.494   9.921 -0.5691  0.1291  0.0422
 3270TP3     H121629   3.571   0.589   9.929  0.1525  0.0293  2.2777
 3270TP3     H221630   3.654   0.481   9.862  0.1817  0.9592  0.7993
 3271TP3      O21631   2.564   0.302   1.155  0.4441  0.0803  0.1069
 3271TP3     H121632   2.534   0.278   1.067  0.8082 -0.8162  0.2218
 3271TP3     H221633   2.636   0.241   1.174  2.4655  2.3068 -0.2167
 3272TP3      O21634   2.817   2.102   2.415 -0.3606  0.2903 -0.5384
 3272TP3     H121635   2.776   2.185   2.393  0.2681  0.9267  0.6616
 3272TP3     H221636   2.770   2.071   2.492 -0.5959 -0.4769 -0.9831
 3273TP3      O21637   4.960   3.039   2.130 -0.2423 -0.2931  0.3634
 3273TP3     H121638   4.982   3.070   2.218  0.7027  1.2925 -0.4058
 3273TP3     H221639   4.936   2.947   2.142  1.1590 -0.4561  2.0780
 3274TP3      O21640   4.593   2.384   0.147 -0.3808 -0.1688 -0.2331
 3274TP3     H121641   4.561   2.342   0.227 -0.3860  2.4097  1.1991
 3274TP3     H221642   4.667   2.330   0.120 -0.7687 -1.4492  1.1771
 3275TP3      O21643   4.170   3.574   9.779  0.6851 -0.3629  0.5370
 3275TP3     H121644   4.132   3.650   9.824  0.8976 -0.1656  0.3868
 3275TP3     H221645   4.098   3.540   9.726  0.4591 -0.5488  0.9694
 3276TP3      O21646   3.474   2.660   9.825  0.0893  0.2907  0.6044
 3276TP3     H121647   3.471   2.693   9.915  0.6217 -0.3454  0.8583
 3276TP3     H221648   3.555   2.695   9.789  1.7435 -2.3925  1.5394
 3277TP3      O21649   4.802   3.235   8.156  0.1609  0.1409 -0.4665
 3277TP3     H121650   4.782   3.142   8.145 -0.4405  0.0445  1.2727
 3277TP3     H221651   4.754   3.278   8.085  0.8730 -0.9143 -1.6142
 3278TP3      O21652   0.142   3.121   2.890  0.1001 -0.2465 -0.2965
 3278TP3     H121653   0.155   3.026   2.887 -1.1414 -0.4150 -0.4712
 3278TP3     H221654   0.180   3.153   2.808 -0.7058 -0.7422 -0.8630
 3279TP3      O21655   0.553   3.841   9.322  0.1440  0.0184 -0.3243
 3279TP3     H121656   0.514   3.754   9.330 -0.2390  0.4429  2.9882
 3279TP3     H221657   0.485   3.901   9.353  1.9670  1.0947  1.7018
 3280TP3      O21658   3.106   2.493   8.575 -0.3939  0.0549  0.3950
 3280TP3     H121659   3.166   2.566   8.558 -0.7433  0.5705  1.3353
 3280TP3     H221660   3.050   2.524   8.646 -1.6372 -0.5116 -0.3219
 3281TP3      O21661   3.261   1.309  10.287  0.5345 -0.7373 -0.1978
 3281TP3     H121662   3.295   1.385  10.335  0.4449 -0.6705 -0.2405
 3281TP3     H221663   3.339   1.269  10.249  0.5658 -0.5727 -0.3089
 3282TP3      O21664   2.653   2.400   9.421  0.7979 -0.3433  0.2112
 3282TP3     H121665   2.584   2.391   9.356  1.0500 -0.9853  0.0336
 3282TP3     H221666   2.607   2.427   9.501  0.6394  1.8997 -0.5851
 3283TP3      O21667   4.466   2.226   9.966  0.0135 -0.7485 -0.0787
 3283TP3     H121668   4.428   2.229  10.054  0.5104  1.1211  0.1002
 3283TP3     H221669   4.556   2.257   9.977  0.3825 -1.4155 -1.1027
 3284TP3      O21670   2.712   3.343   9.169  0.3813  0.3719 -0.3378
 3284TP3     H121671   2.658   3.416   9.199 -1.2290  0.0174 -2.2517
 3284TP3     H221672   2.795   3.384   9.143 -0.3639  1.4878 -1.0149
 3285TP3      O21673   0.772   1.751   9.019 -0.3120  0.2102  0.0039
 3285TP3     H121674   0.822   1.831   9.001  1.2102 -0.5808  0.5488
 3285TP3     H221675   0.834   1.680   8.998 -1.4274 -0.8073  0.1228
 3286TP3      O21676   4.495   2.171   1.114 -0.2534 -0.1273 -0.2963
 3286TP3     H121677   4.438   2.155   1.190 -1.0647  1.5602 -0.5143
 3286TP3     H221678   4.547   2.247   1.140  1.7012 -1.4555 -0.2278
 3287TP3      O21679   5.313   3.356   2.635 -0.0221  0.4663 -0.1480
 3287TP3     H121680   5.220   3.347   2.653 -0.0672 -1.4330 -1.1989
 3287TP3     H221681   5.356   3.329   2.716 -0.3456 -1.1437 -0.5041
 3288TP3      O21682   4.959   0.863   0.561 -0.0456 -0.7463 -0.3895
 3288TP3     H121683   4.967   0.957   0.541 -0.9957 -0.7018 -0.5749
 3288TP3     H221684   4.867   0.851   0.580  0.1408 -1.5889 -0.0333
 3289TP3      O21685   4.189   2.425   1.007 -0.4168 -0.1402 -0.1026
 3289TP3     H121686   4.234   2.395   0.928  2.5097 -2.5029  2.3397
 3289TP3     H221687   4.206   2.519   1.010  1.8781 -0.5173 -0.7827
 3290TP3      O21688   2.296   4.708   0.035  0.2707 -0.0922  0.4159
 3290TP3     H121689   2.217   4.753   0.004  0.2498 -0.9918 -0.8746
 3290TP3     H221690   2.351   4.779   0.069 -0.8745  0.6005  0.8535
 3291TP3      O21691   5.396   2.134   0.044  0.7878 -0.2310  0.3368
 3291TP3     H121692   5.383   2.114  -0.048 -3.5136  1.7589  0.4113
 3291TP3     H221693   5.324   2.090   0.089  0.1475  2.5917  2.2003
 3292TP3      O21694   0.595   3.337   0.165 -0.3551  0.0146 -0.0231
 3292TP3     H121695   0.602   3.425   0.129  0.1987  0.4484  1.1155
 3292TP3     H221696   0.674   3.292   0.136 -0.9958 -0.3454 -1.2283
 3293TP3      O21697   3.532   3.954   2.135 -0.0133  0.5666 -0.4326
 3293TP3     H121698   3.561   3.881   2.080  0.6381  0.9787 -0.6521
 3293TP3     H221699   3.489   4.014   2.074 -1.3361 -0.0320 -0.1095
 3294TP3      O21700   3.863   1.921   9.882  0.3214  1.0120  0.1255
 3294TP3     H121701   3.814   1.993   9.921 -0.6140  0.3496  0.1652
 3294TP3     H221702   3.807   1.888   9.812  0.0412 -0.7027  1.1283
 3295TP3      O21703   4.579   2.740   8.265 -0.4275 -0.4451  0.7121
 3295TP3     H121704   4.599   2.817   8.319  0.3544 -0.8213  0.9605
 3295TP3     H221705   4.524   2.685   8.320  0.4127 -0.8530  1.1513
 3296TP3      O21706   0.069   4.114   0.900 -0.0486 -0.3622  0.6703
 3296TP3     H121707   0.114   4.198   0.908 -1.3260  0.2125  2.1934
 3296TP3     H221708   0.005   4.115   0.971 -1.0403 -2.0281 -0.1763
 3297TP3      O21709   3.213   1.844   9.457 -0.1707 -0.3676 -0.2369
 3297TP3     H121710   3.277   1.871   9.390 -0.4212 -1.1198 -0.7982
 3297TP3     H221711   3.188   1.755   9.430 -0.8461 -0.3801  0.4371
 3298TP3      O21712   0.824   2.956   1.242  0.2561 -0.1088 -0.1264
 3298TP3     H121713   0.774   2.927   1.165  1.4895 -2.8322  0.0187
 3298TP3     H221714   0.878   2.880   1.265  1.4325  1.3680  2.1942
 3299TP3      O21715   2.996   4.295   9.606 -0.2817 -0.1270  0.0840
 3299TP3     H121716   3.041   4.221   9.646 -1.2022 -0.4393  0.5544
 3299TP3     H221717   2.910   4.298   9.649 -0.8694  0.2125 -1.0801
 3300TP3      O21718   5.370   4.283   0.455  0.5415 -0.0953  0.0231
 3300TP3     H121719   5.336   4.371   0.470 -1.0726 -0.6268 -0.4394
 3300TP3     H221720   5.428   4.266   0.530  1.4420  1.6249 -0.2683
 3301TP3      O21721   3.169   5.355   0.585 -0.0950 -0.0807 -0.1726
 3301TP3     H121722   3.103   5.330   0.520  0.6804 -0.4435 -0.8357
 3301TP3     H221723   3.118   5.389   0.659 -1.0444 -0.8812 -0.4432
 3302TP3      O21724   0.886   3.620   1.139 -0.0773 -0.1840 -0.2690
 3302TP3     H121725   0.940   3.623   1.059  0.4151  0.6360  0.0881
 3302TP3     H221726   0.796   3.631   1.107  0.2009  1.1591 -0.6300
 3303TP3      O21727   3.305   3.402  10.098  0.1565  0.2481  0.3441
 3303TP3     H121728   3.388   3.361  10.073 -0.3753 -0.3250 -0.5137
 3303TP3     H221729   3.264   3.339  10.157  0.2716  0.4734  0.6648
 3304TP3      O21730   3.426   0.300   0.886  0.1297  0.0190  0.2084
 3304TP3     H121731   3.420   0.217   0.934  2.1288  0.0923  0.6371
 3304TP3     H221732   3.337   0.318   0.858 -0.3783 -2.1698  0.3138
 3305TP3      O21733   4.269   5.405   9.985 -0.0786 -0.1028 -0.1418
 3305TP3     H121734   4.209   5.365  10.048 -0.4768 -0.8254 -0.9618
 3305TP3     H221735   4.317   5.331   9.948  0.6881  0.3903 -0.1253
 3306TP3      O21736   4.567   3.435   0.424 -0.1739  0.6165 -0.2766
 3306TP3     H121737   4.651   3.392   0.441  0.7917  1.8813 -1.7273
 3306TP3     H221738   4.568   3.453   0.330 -2.4774 -0.1753 -0.4817
 3307TP3      O21739   2.226   1.098   9.388 -0.2006  1.1030 -0.1725
 3307TP3     H121740   2.299   1.071   9.444 -0.5949 -2.1120 -1.1334
 3307TP3     H221741   2.148   1.068   9.435 -0.7619  1.9726 -0.5391
 3308TP3      O21742   0.784   2.904   9.382 -0.1599 -0.3295  0.3837
 3308TP3     H121743   0.811   2.819   9.346 -0.4707  0.2630 -1.2952
 3308TP3     H221744   0.796   2.895   9.476  0.7230 -1.9162  0.1340
 3309TP3      O21745   4.661   2.205   7.616  0.0392  0.4308 -0.3983
 3309TP3     H121746   4.747   2.169   7.595 -0.8802 -1.7689 -0.5598
 3309TP3     H221747   4.620   2.220   7.531 -0.2018  0.2439 -0.3190
 3310TP3      O21748   5.119   0.962   0.140 -0.0136  0.2442 -0.8387
 3310TP3     H121749   5.127   0.870   0.164  1.2161 -0.0028 -2.1309
 3310TP3     H221750   5.120   1.009   0.223 -0.5977 -0.8957 -0.1760
 3311TP3      O21751   5.117   1.117   2.077 -0.2288 -0.2011 -0.0125
 3311TP3     H121752   5.072   1.091   2.157 -0.6104  0.9885  0.1671
 3311TP3     H221753   5.054   1.101   2.007 -0.5802  0.5196  0.1323
 3312TP3      O21754   4.331   4.408   9.803 -0.1728  0.5589  0.1952
 3312TP3     H121755   4.367   4.485   9.760  2.4814  0.5166  2.2209
 3312TP3     H221756   4.344   4.337   9.740 -0.6970  1.3641 -0.8331
 3313TP3      O21757   3.912   3.504   2.325 -0.0815 -0.2449  0.6516
 3313TP3     H121758   4.003   3.532   2.340 -0.4567  1.4485 -0.0581
 3313TP3     H221759   3.919   3.413   2.299  1.3546 -0.3674  1.3972
 3314TP3      O21760   3.439   1.531   8.515 -0.2594  0.5753 -0.2245
 3314TP3     H121761   3.482   1.526   8.601 -0.2740  0.2077 -0.2372
 3314TP3     H221762   3.372   1.598   8.526 -0.4042  0.3747  0.1156
 3315TP3      O21763   0.090   4.773   9.496  0.2915  0.1099  0.8276
 3315TP3     H121764   0.092   4.835   9.423  0.5612 -0.2065  0.5660
 3315TP3     H221765   0.100   4.828   9.574 -1.0135  0.5603  0.6941
 3316TP3      O21766   4.088   3.000   8.792 -0.0441 -0.1419 -0.2003
 3316TP3     H121767   4.007   2.957   8.820  0.5722 -0.6754  0.7734
 3316TP3     H221768   4.149   2.986   8.864  1.2270 -0.5735 -1.3526
 3317TP3      O21769   5.148   3.326   0.123  0.0280  0.5279  0.0455
 3317TP3     H121770   5.148   3.402   0.065  1.7194  0.6888  0.2279
 3317TP3     H221771   5.213   3.347   0.190  0.2068 -0.8990  0.3407
 3318TP3      O21772   0.199   2.800   8.212 -0.5852 -0.3273 -0.5604
 3318TP3     H121773   0.272   2.742   8.195 -1.5651 -2.8005  2.9325
 3318TP3     H221774   0.214   2.833   8.301 -1.8740  1.9731 -1.1378
 3319TP3      O21775   0.006   0.910   9.912  0.0444  0.4657  0.3614
 3319TP3     H121776   0.001   0.979   9.846  1.2584  0.2610  0.0434
 3319TP3     H221777  -0.026   0.952   9.992 -0.3205  1.0576 -0.0898
 3320TP3      O21778   5.354   1.410   1.232  0.2373  0.3276  0.2045
 3320TP3     H121779   5.385   1.321   1.245 -0.0581 -0.1280 -2.0305
 3320TP3     H221780   5.374   1.430   1.141 -0.5398  2.2082  0.4120
 3321TP3      O21781   4.636   3.637  10.084  0.1914  0.5653 -0.0866
 3321TP3     H121782   4.577   3.570  10.050 -1.7124  2.3018 -0.2812
 3321TP3     H221783   4.695   3.590  10.143 -0.6585 -1.3710 -0.7504
 3322TP3      O21784   3.332   2.009   8.810 -0.1301  0.3833 -0.4012
 3322TP3     H121785   3.422   2.020   8.843 -0.0800 -0.5697 -0.2083
 3322TP3     H221786   3.285   2.083   8.847  0.1575 -0.1288  1.0558
 3323TP3      O21787   5.254   0.414   1.315  0.1070 -0.3007 -0.0264
 3323TP3     H121788   5.224   0.345   1.255  0.2886 -0.0789 -0.3791
 3323TP3     H221789   5.184   0.480   1.312 -0.5040 -0.8886  1.0297
 3324TP3      O21790   5.274   0.817   1.751  0.1257 -0.8246 -0.4443
 3324TP3     H121791   5.357   0.770   1.749  0.3046 -0.5222 -0.1548
 3324TP3     H221792   5.275   0.868   1.670  0.9594  0.4278  0.3299
 3325TP3      O21793   1.062   1.641   1.140 -0.1777  0.7938  0.0699
 3325TP3     H121794   1.065   1.718   1.083 -1.2604  0.8646  0.0977
 3325TP3     H221795   1.061   1.677   1.228 -0.4945  0.7448  0.0871
 3326TP3      O21796   5.063   4.758   2.177  0.0684  0.4985  0.1718
 3326TP3     H121797   5.078   4.802   2.261  1.5342  0.8956 -0.2816
 3326TP3     H221798   5.147   4.718   2.156 -0.4773 -0.1512 -0.8046
 3327TP3      O21799   0.033   4.592   9.861  0.1638 -0.6024  0.3564
 3327TP3     H121800   0.101   4.552   9.807  0.8219  0.5513  0.3265
 3327TP3     H221801   0.064   4.581   9.951  0.3958 -0.0803  0.3429
 3328TP3      O21802   2.194   4.509   0.168  0.7720  0.2795  0.0021
 3328TP3     H121803   2.215   4.582   0.111 -0.9185 -1.4773 -2.9685
 3328TP3     H221804   2.275   4.458   0.173  1.0545  0.6795 -0.4718
 3329TP3      O21805   1.909   2.553  10.200 -0.8600  0.4478 -0.1726
 3329TP3     H121806   1.864   2.568  10.116 -0.4777 -2.2247 -0.8871
 3329TP3     H221807   1.843   2.575  10.266 -2.5065 -1.2168 -1.2096
 3330TP3      O21808   0.239   3.527  10.014 -0.3243  0.2625  0.2741
 3330TP3     H121809   0.275   3.611   9.987 -0.6299  0.8782  1.7394
 3330TP3     H221810   0.157   3.549  10.059 -0.0069 -0.7437  1.3893
 3331TP3      O21811   5.143   4.540   0.843  0.2355 -0.0693  0.0850
 3331TP3     H121812   5.131   4.632   0.863 -1.4702 -0.1626 -0.4848
 3331TP3     H221813   5.082   4.522   0.771  0.5989 -1.6158  0.1373
 3332TP3      O21814   0.685   4.433   0.673  0.1006 -0.8420  0.1468
 3332TP3     H121815   0.705   4.463   0.762  0.6233  0.9623 -0.5407
 3332TP3     H221816   0.766   4.451   0.624 -0.6555 -0.5102 -0.9935
 3333TP3      O21817   4.962   0.499   0.214 -0.1028  0.0327 -0.2409
 3333TP3     H121818   5.015   0.438   0.164  1.3061  0.7251  0.3777
 3333TP3     H221819   4.886   0.518   0.158  0.1236 -1.2333 -0.9816
 3334TP3      O21820   2.628   4.211   8.480  0.3909 -0.7197  0.2525
 3334TP3     H121821   2.611   4.289   8.427  0.5575 -1.2225 -0.5503
 3334TP3     H221822   2.591   4.232   8.565 -0.9942 -0.3737 -0.4148
 3335TP3      O21823   1.024   4.321   0.986 -0.3053  0.2229 -0.2393
 3335TP3     H121824   1.056   4.386   1.049 -0.7893 -0.9068  1.1911
 3335TP3     H221825   1.101   4.266   0.968  0.1677  1.2859 -1.6299
 3336TP3      O21826   1.200   3.692   8.069 -0.0989 -0.1078 -0.2736
 3336TP3     H121827   1.129   3.697   8.134  0.5420 -0.4513  0.4570
 3336TP3     H221828   1.233   3.782   8.064 -0.2328 -0.0547 -0.2170
 3337TP3      O21829   2.536   4.030   8.321 -0.2686 -0.0198 -0.1865
 3337TP3     H121830   2.573   4.101   8.375  1.9899 -1.0346 -0.3645
 3337TP3     H221831   2.486   4.076   8.254 -0.7965  1.3445  1.0912
 3338TP3      O21832   0.907   0.187   9.910 -1.0120 -0.0925  0.1430
 3338TP3     H121833   0.901   0.095   9.885 -1.4495  0.1134 -0.5105
 3338TP3     H221834   0.828   0.203   9.961 -0.3480 -0.3897  1.2828
 3339TP3      O21835   3.362   2.671   9.176  0.2090  0.2173  0.1982
 3339TP3     H121836   3.312   2.734   9.228 -1.9530 -0.4672 -0.9480
 3339TP3     H221837   3.452   2.703   9.178 -0.2030  1.2812  2.6681
 3340TP3      O21838   0.548   5.338   0.403 -0.1141  0.4285 -0.2946
 3340TP3     H121839   0.572   5.421   0.445  2.9925 -1.4186  1.8617
 3340TP3     H221840   0.492   5.294   0.467  0.4268 -0.2149 -0.2511
 3341TP3      O21841   4.155   4.248   1.709  0.4142  0.6689  0.7599
 3341TP3     H121842   4.185   4.236   1.619  1.6378  1.6150  1.0410
 3341TP3     H221843   4.106   4.330   1.707 -0.8308 -0.0566  0.6526
 3342TP3      O21844   0.221   4.050   9.907  0.2758 -0.2967 -0.1951
 3342TP3     H121845   0.160   4.124   9.907 -0.3382 -0.7955 -0.0852
 3342TP3     H221846   0.228   4.025   9.815  2.6823  1.6632 -0.6183
 3343TP3      O21847   0.876   5.091   1.263 -0.6200  0.7060 -0.1951
 3343TP3     H121848   0.791   5.057   1.291  0.0241  0.1117  1.0496
 3343TP3     H221849   0.937   5.064   1.331  0.4851  1.5895 -0.8122
 3344TP3      O21850   1.998   3.754   9.704  0.4738  0.7372  0.3018
 3344TP3     H121851   1.918   3.807   9.705  0.1465  0.2397  1.5827
 3344TP3     H221852   1.967   3.664   9.695  0.8402  0.4894  1.4365
 3345TP3      O21853   3.846   1.571   1.711 -0.1618  0.2113  0.1561
 3345TP3     H121854   3.894   1.601   1.634 -1.1495 -0.2026 -0.6328
 3345TP3     H221855   3.757   1.601   1.697 -0.6552 -1.0921  0.4566
 3346TP3      O21856   2.805   5.403   0.152  0.1020 -0.0044 -0.4031
 3346TP3     H121857   2.729   5.391   0.095 -0.2573  0.7821 -0.0936
 3346TP3     H221858   2.818   5.497   0.157  0.3823 -0.0786  0.4747
 3347TP3      O21859   5.094   5.373   0.991 -0.4853  0.0014 -0.3217
 3347TP3     H121860   5.029   5.333   0.934 -0.2646 -1.7635  0.6464
 3347TP3     H221861   5.091   5.322   1.072  0.4028  1.4080  0.6349
 3348TP3      O21862   2.165   3.174   8.566 -0.1840  0.2558 -0.2926
 3348TP3     H121863   2.256   3.204   8.555  0.2230 -1.2870 -1.3519
 3348TP3     H221864   2.172   3.078   8.567 -1.9322  0.0922 -1.7025
 3349TP3      O21865   4.799   2.528   1.670  0.3477  0.2031 -0.4532
 3349TP3     H121866   4.836   2.517   1.757  0.2304  0.9710 -0.3047
 3349TP3     H221867   4.852   2.598   1.631 -1.4789  1.9020  0.0595
 3350TP3      O21868   1.691   4.051  10.108 -0.0069 -0.1686 -0.5011
 3350TP3     H121869   1.756   4.081  10.044  0.3148 -0.1560 -0.1676
 3350TP3     H221870   1.690   3.956  10.099  1.9075 -0.3749  1.2785
 3351TP3      O21871   4.762   0.569   0.069  0.0639  0.3005  0.0578
 3351TP3     H121872   4.709   0.535  -0.003 -3.1366 -3.5804  3.9526
 3351TP3     H221873   4.706   0.632   0.114  0.1738 -0.8056  1.8368
 3352TP3      O21874   1.495   3.283   8.828 -0.1974 -0.2141 -0.3054
 3352TP3     H121875   1.473   3.368   8.866  0.7606  0.1071 -0.4591
 3352TP3     H221876   1.524   3.302   8.739 -0.3805 -0.7443 -0.4826
 3353TP3      O21877   2.057   3.248   1.719 -0.4615  0.0179  0.3518
 3353TP3     H121878   1.962   3.232   1.722 -0.5680  0.7501  0.8043
 3353TP3     H221879   2.073   3.276   1.629 -0.8287  0.8728  0.5528
 3354TP3      O21880   2.663   3.940   8.610  0.2505  0.0022 -0.1554
 3354TP3     H121881   2.649   4.031   8.585  0.3785 -0.7092 -2.9146
 3354TP3     H221882   2.655   3.940   8.706 -0.5453  2.7457 -0.1930
 3355TP3      O21883   2.375   3.844   9.108  0.2496  0.5687  0.1191
 3355TP3     H121884   2.470   3.837   9.109  0.3614  1.8230  2.4075
 3355TP3     H221885   2.358   3.938   9.115 -1.1618  0.3426 -0.0505
 3356TP3      O21886   1.331   0.569   2.894  0.6045 -0.6180 -0.1759
 3356TP3     H121887   1.260   0.633   2.892  2.4983  1.5336 -0.1549
 3356TP3     H221888   1.374   0.584   2.978  0.9889 -2.0194 -0.1151
 3357TP3      O21889   3.476   4.467   0.897 -0.0778 -0.1218 -0.2159
 3357TP3     H121890   3.470   4.558   0.928 -0.4535 -0.0867 -0.3852
 3357TP3     H221891   3.408   4.421   0.946  0.4666 -0.4251  0.2591
 3358TP3      O21892   1.360   3.908  10.257 -1.6988  0.5339  0.2986
 3358TP3     H121893   1.339   3.852  10.182 -0.5831  0.8681 -0.2714
 3358TP3     H221894   1.410   3.980  10.220  0.0892 -0.0326  1.5422
 3359TP3      O21895   1.459   4.024   9.781  0.9506 -0.0976  0.3386
 3359TP3     H121896   1.419   4.056   9.700 -1.9150 -0.0064  1.7239
 3359TP3     H221897   1.521   4.093   9.806  4.1748 -1.4982 -3.3271
 3360TP3      O21898   5.179   4.636   9.421 -0.0771  0.3582 -0.3788
 3360TP3     H121899   5.172   4.628   9.516  0.9253  1.1987 -0.2210
 3360TP3     H221900   5.273   4.626   9.403 -0.2891 -0.0466 -1.3065
 3361TP3      O21901   1.564   2.769   0.839 -0.6576 -0.3970 -0.4473
 3361TP3     H121902   1.604   2.806   0.760 -0.9383  0.0414 -0.3845
 3361TP3     H221903   1.634   2.717   0.879 -0.7430 -1.2671 -1.4010
 3362TP3      O21904   0.702   0.103   2.089  0.1564  0.0278 -0.0267
 3362TP3     H121905   0.646   0.111   2.167  0.8505  1.5555  0.3487
 3362TP3     H221906   0.721   0.194   2.065 -1.1871 -0.3826 -2.8423
 3363TP3      O21907   5.432   4.578   9.408  0.4004 -0.3171  0.3385
 3363TP3     H121908   5.460   4.558   9.319  0.2684 -1.6610  0.5851
 3363TP3     H221909   5.494   4.644   9.439  1.9490 -1.6267  0.1015
 3364TP3      O21910   3.592   4.211   8.782  0.4372 -0.0789  0.0980
 3364TP3     H121911   3.533   4.156   8.833  0.7361 -0.5391 -0.0494
 3364TP3     H221912   3.549   4.297   8.780 -0.0944 -0.3400  0.2130
 3365TP3      O21913   2.281   3.812   2.654  0.0880  0.0992  0.1447
 3365TP3     H121914   2.195   3.849   2.634  0.3790  1.3950  1.2517
 3365TP3     H221915   2.343   3.878   2.626  0.7521 -0.9952 -1.0020
 3366TP3      O21916   0.001   0.524   8.699  0.3112  0.1800  0.1351
 3366TP3     H121917  -0.047   0.559   8.624  1.3303  0.0898 -0.5603
 3366TP3     H221918   0.093   0.538   8.678  0.6193 -0.2175  1.1862
 3367TP3      O21919   0.277   1.884   2.528  0.4372  0.3929 -0.0104
 3367TP3     H121920   0.260   1.795   2.498  0.3625  0.4624 -0.1728
 3367TP3     H221921   0.345   1.916   2.469  2.7299 -0.6375  1.9345
 3368TP3      O21922   2.124   3.708   0.408 -0.0627 -0.3336  0.2848
 3368TP3     H121923   2.183   3.741   0.341  0.0012 -0.6106  0.2048
 3368TP3     H221924   2.145   3.615   0.416 -0.9402 -0.5759 -0.2209
 3369TP3      O21925   4.072   1.287   9.236 -0.0677  0.2291  0.5890
 3369TP3     H121926   4.097   1.212   9.184 -1.5447  0.3260 -0.3006
 3369TP3     H221927   4.145   1.300   9.297  1.7317  0.1863 -1.5069
 3370TP3      O21928   1.420   4.304  10.130 -0.3611 -0.2649  0.4675
 3370TP3     H121929   1.488   4.277  10.192  1.2964 -0.8930 -1.5710
 3370TP3     H221930   1.376   4.377  10.173  1.9096  0.4431  1.6516
 3371TP3      O21931   0.417   0.063   0.125 -0.0210 -0.5719  0.1622
 3371TP3     H121932   0.388  -0.028   0.118  1.9401 -1.3028  1.2129
 3371TP3     H221933   0.460   0.080   0.041  0.7642 -1.0609  0.4517
 3372TP3      O21934   4.540   2.475   9.839  0.4988  0.0777  0.3560
 3372TP3     H121935   4.548   2.522   9.922 -0.9995  0.7743  0.1232
 3372TP3     H221936   4.449   2.491   9.811  0.6451 -1.0952 -0.8436
 3373TP3      O21937   0.491   0.317   0.768  0.0856  0.6186 -0.3637
 3373TP3     H121938   0.483   0.404   0.729  1.1413  1.7651  1.8797
 3373TP3     H221939   0.421   0.266   0.727 -1.1763  2.7922 -1.0034
 3374TP3      O21940   4.228   3.328   0.956  0.7690 -0.3039 -0.1906
 3374TP3     H121941   4.166   3.380   0.905  0.1394 -2.5443 -1.7988
 3374TP3     H221942   4.314   3.358   0.928  0.4150 -0.7670 -1.7964
 3375TP3      O21943   4.475   2.176   2.471  0.5777  0.1911 -0.1960
 3375TP3     H121944   4.454   2.267   2.454  0.3547  0.1766 -0.0052
 3375TP3     H221945   4.468   2.167   2.566 -1.2161 -0.4555 -0.3603
 3376TP3      O21946   4.531   4.946   8.386 -0.0473  0.4958 -0.2258
 3376TP3     H121947   4.464   4.988   8.331 -0.6067 -1.3517 -0.9825
 3376TP3     H221948   4.535   5.001   8.464  1.8559  4.0689 -2.6973
 3377TP3      O21949   0.748   5.527  10.135  0.2417  0.4162  0.4803
 3377TP3     H121950   0.830   5.544  10.182  1.8484  0.9558 -2.4439
 3377TP3     H221951   0.771   5.463  10.068 -2.3276 -1.3711  1.2149
 3378TP3      O21952   5.150   3.550  10.251 -0.3166 -0.2443  0.1512
 3378TP3     H121953   5.103   3.633  10.261  1.5509  0.8470  0.1613
 3378TP3     H221954   5.242   3.575  10.252  0.2814 -2.3658  0.4591
 3379TP3      O21955   5.360   4.055   1.853  0.2870  0.1996  0.2505
 3379TP3     H121956   5.455   4.062   1.863  0.2297 -1.1103  1.8990
 3379TP3     H221957   5.334   3.988   1.916 -1.5977 -0.2541 -0.9605
 3380TP3      O21958   4.309   3.613  10.199 -0.0869  0.7528 -0.2874
 3380TP3     H121959   4.311   3.695  10.149 -0.9828  1.7854  1.3278
 3380TP3     H221960   4.315   3.545  10.133 -0.6765  2.1081 -1.7707
 3381TP3      O21961   3.451   5.367  10.212 -0.9020 -0.4521  0.3270
 3381TP3     H121962   3.440   5.332  10.124 -0.9634 -0.8058  0.4724
 3381TP3     H221963   3.414   5.455  10.208  0.2787  0.0297 -0.3400
 3382TP3      O21964   2.170   4.896   0.871  0.3841  0.3220  0.0231
 3382TP3     H121965   2.258   4.862   0.886  0.2306 -0.6084 -1.1364
 3382TP3     H221966   2.131   4.835   0.808 -1.2764  0.4080  0.9353
 3383TP3      O21967   2.796   4.849   0.283 -0.2966 -0.1099  0.9497
 3383TP3     H121968   2.814   4.776   0.224 -0.1335 -0.8148  1.8536
 3383TP3     H221969   2.781   4.924   0.225  0.3676 -0.6738  0.0350
 3384TP3      O21970   2.646   3.658  10.316  0.3254  0.6877 -0.4587
 3384TP3     H121971   2.566   3.687  10.359 -0.7620 -1.1489 -1.1676
 3384TP3     H221972   2.671   3.731  10.259 -1.4181  0.9019 -0.9695
 3385TP3      O21973   1.018   3.179   8.680  0.1460  0.1623 -0.0320
 3385TP3     H121974   0.925   3.157   8.674  0.1600  0.3506 -1.0726
 3385TP3     H221975   1.031   3.248   8.615  0.6537  1.4122  1.3608
 3386TP3      O21976   5.142   2.047   8.607  0.5556  0.0094  0.5300
 3386TP3     H121977   5.218   1.992   8.588 -1.3836 -2.2340 -1.1079
 3386TP3     H221978   5.113   2.020   8.694 -0.3820 -1.5836 -0.2673
 3387TP3      O21979   2.118   2.595   9.856  0.4077 -0.2355  0.2003
 3387TP3     H121980   2.094   2.664   9.794  0.6249  1.1320  1.5878
 3387TP3     H221981   2.039   2.582   9.908  0.1590 -1.5323 -0.4872
 3388TP3      O21982   0.978   5.484   1.353 -0.1292  0.2950 -0.1809
 3388TP3     H121983   1.064   5.472   1.313  0.8051  0.2298  1.7679
 3388TP3     H221984   0.973   5.417   1.421 -1.1514  1.1585  0.6264
 3389TP3      O21985   2.042   3.237  10.107 -0.2617 -0.1308 -0.1170
 3389TP3     H121986   1.953   3.234  10.070  0.0681  0.6821 -0.9720
 3389TP3     H221987   2.065   3.330  10.107  1.0897 -0.4546 -1.0746
 3390TP3      O21988   4.479   5.374   1.787  0.2546 -0.3470 -0.1655
 3390TP3     H121989   4.404   5.360   1.730 -0.5443 -0.9582  0.9965
 3390TP3     H221990   4.537   5.300   1.769 -0.4628 -1.0885  0.5282
 3391TP3      O21991   5.509   4.033   9.470 -0.0432 -0.2700  0.0810
 3391TP3     H121992   5.534   4.009   9.381  0.3184 -1.2628  0.4436
 3391TP3     H221993   5.447   3.966   9.496 -0.9971  0.6397  0.1851
 3392TP3      O21994   1.294   2.855   9.528 -0.5431 -0.2131 -0.0842
 3392TP3     H121995   1.213   2.906   9.514 -0.1930  0.4110  0.1571
 3392TP3     H221996   1.325   2.883   9.614 -1.3082 -2.1758  0.8535
 3393TP3      O21997   5.200   4.074   8.443 -0.2210  0.0606 -0.3178
 3393TP3     H121998   5.250   4.155   8.448  0.6365 -0.4512 -0.3386
 3393TP3     H221999   5.172   4.068   8.352 -0.0668  0.2087 -0.3749
 3394TP3      O22000   4.058   0.660   2.116 -0.5239  0.0708  0.1123
 3394TP3     H122001   4.082   0.660   2.208 -0.0592 -1.9589  0.0266
 3394TP3     H222002   3.964   0.639   2.115 -0.5176  0.0420  0.1172
 3395TP3      O22003   0.650   4.500   2.381 -0.4052 -0.2248 -0.4494
 3395TP3     H122004   0.631   4.455   2.298 -0.3108 -0.6275 -0.2541
 3395TP3     H222005   0.617   4.441   2.449 -0.6695  0.2015 -0.2072
 3396TP3      O22006   1.200   3.561   9.270  0.3702 -0.2032 -0.3539
 3396TP3     H122007   1.208   3.605   9.185  2.5398 -0.1258 -0.1478
 3396TP3     H222008   1.269   3.494   9.269 -0.5602 -1.2013  0.7593
 3397TP3      O22009   0.424   5.146   9.472 -0.0272 -0.1231 -0.3022
 3397TP3     H122010   0.390   5.225   9.512  1.2343  0.5877 -0.6130
 3397TP3     H222011   0.504   5.174   9.428 -0.1147 -1.3652 -1.2768
 3398TP3      O22012   0.631   3.438   1.053 -0.2183  0.2923 -0.2057
 3398TP3     H122013   0.661   3.360   1.100  0.6131  1.1505  0.7328
 3398TP3     H222014   0.695   3.449   0.983  0.3124  0.7626  0.3458
 3399TP3      O22015   3.057   3.829   1.220 -0.4372  0.4619  0.7177
 3399TP3     H122016   3.000   3.767   1.266 -2.0926  0.5697 -1.0930
 3399TP3     H222017   3.125   3.851   1.283 -1.5290 -0.9009  2.4145
 3400TP3      O22018   0.843   5.257   0.341  0.3405 -0.1455 -0.0437
 3400TP3     H122019   0.856   5.183   0.282  0.0948  0.7333 -1.2265
 3400TP3     H222020   0.748   5.262   0.353 -0.0089  2.2737 -3.0562
 3401TP3      O22021   0.762   4.624   1.153 -0.0625 -0.2929  0.1363
 3401TP3     H122022   0.736   4.595   1.241 -0.7683 -0.8849 -0.2577
 3401TP3     H222023   0.739   4.717   1.150 -0.8245 -0.4694  0.2939
 3402TP3      O22024   2.939   4.237   9.062  0.1643  0.0350  0.0247
 3402TP3     H122025   2.944   4.284   9.146 -0.8115  1.3151 -0.6108
 3402TP3     H222026   3.028   4.205   9.047  0.5813  0.6910  1.0399
 3403TP3      O22027   1.377   4.455   9.591  0.5353  0.2012  0.1532
 3403TP3     H122028   1.336   4.467   9.676 -1.3892 -0.9112 -0.5915
 3403TP3     H222029   1.469   4.437   9.611 -0.2000 -1.6037  2.0669
 3404TP3      O22030   0.981   5.198   0.562  0.2012  0.3118  0.2616
 3404TP3     H122031   1.045   5.268   0.573 -0.7646  1.4433 -1.1540
 3404TP3     H222032   0.947   5.210   0.473 -0.1680 -1.7977  0.0846
 3405TP3      O22033   1.212   4.844   9.728 -0.3736  0.2301 -0.1890
 3405TP3     H122034   1.302   4.826   9.701 -0.5111 -0.4093 -0.2336
 3405TP3     H222035   1.178   4.902   9.660  0.2335  1.0804  0.2201
 3406TP3      O22036   3.495   2.426   9.315 -0.6262  0.3837 -1.0429
 3406TP3     H122037   3.581   2.413   9.355 -0.5102 -1.6394 -1.8560
 3406TP3     H222038   3.501   2.512   9.272  0.4379  0.9650  0.2343
 3407TP3      O22039   0.689   3.662   2.359 -0.7837 -0.4788  0.2315
 3407TP3     H122040   0.769   3.699   2.323 -0.9504 -0.7775 -0.4588
 3407TP3     H222041   0.719   3.598   2.423 -0.4526 -0.8589 -0.2921
 3408TP3      O22042   2.684   3.703   9.669  0.1400 -0.1311  0.5655
 3408TP3     H122043   2.748   3.727   9.736 -0.0258  1.5051  0.1757
 3408TP3     H222044   2.646   3.621   9.700  0.8746  0.0118  1.8951
 3409TP3      O22045   5.235   2.656   1.956 -0.8658  0.1012 -0.3024
 3409TP3     H122046   5.273   2.574   1.987 -3.7215 -0.8165  0.8595
 3409TP3     H222047   5.299   2.722   1.982  0.3847 -1.4991  0.8092
 3410TP3      O22048   4.907   4.312   8.988  0.1546 -0.3540  0.1777
 3410TP3     H122049   4.978   4.292   8.927  0.9767 -1.3705  1.4443
 3410TP3     H222050   4.842   4.243   8.973  0.2912 -0.5181  0.3305
 3411TP3      O22051   1.492   0.617   1.313  0.0794  0.1611 -0.0334
 3411TP3     H122052   1.450   0.532   1.298  1.9871 -0.7346 -0.4193
 3411TP3     H222053   1.572   0.613   1.261 -0.0079  2.3577 -0.3485
 3412TP3      O22054   4.828   0.136   2.179  0.1673 -0.0572  0.1778
 3412TP3     H122055   4.740   0.102   2.194 -0.2735  0.6995 -0.5924
 3412TP3     H222056   4.883   0.093   2.244 -0.6354 -1.1197  0.1587
 3413TP3      O22057   2.188   0.043   0.379 -0.2667  0.2179  0.2786
 3413TP3     H122058   2.190  -0.029   0.442  0.2619 -0.6736 -0.7398
 3413TP3     H222059   2.278   0.076   0.379  0.4534 -1.6360 -2.0901
 3414TP3      O22060   2.243   4.343   9.437  0.2593  0.0831 -0.1151
 3414TP3     H122061   2.306   4.274   9.459 -1.4671 -1.6341 -0.3691
 3414TP3     H222062   2.202   4.312   9.357 -1.0287  1.1001  0.1443
 3415TP3      O22063   0.665   4.892   2.091 -0.0499  0.3231  0.4693
 3415TP3     H122064   0.697   4.882   2.180  1.0916  0.5908  0.0893
 3415TP3     H222065   0.680   4.807   2.050 -1.5617 -0.1434  0.8310
 3416TP3      O22066   0.374   5.123   8.107  0.2412 -0.7448  0.3240
 3416TP3     H122067   0.367   5.181   8.183 -0.6492 -1.2067  0.5908
 3416TP3     H222068   0.463   5.087   8.113  0.1350 -0.8588  1.1922
 3417TP3      O22069   1.920   5.187   0.623 -0.2930  0.4279  0.4864
 3417TP3     H122070   1.825   5.202   0.627 -0.4367  0.1924 -1.7092
 3417TP3     H222071   1.930   5.103   0.578  0.9747  0.7415  0.1507
 3418TP3      O22072   0.080   4.306   9.472  0.6544 -0.6215 -0.5850
 3418TP3     H122073   0.049   4.215   9.473  0.2042 -0.4742 -0.8991
 3418TP3     H222074   0.002   4.357   9.451  0.5114 -0.0043  1.3361
 3419TP3      O22075   0.487   4.398   7.854 -0.8129  0.5338  0.5374
 3419TP3     H122076   0.501   4.391   7.760 -0.1029 -0.2955  0.7004
 3419TP3     H222077   0.394   4.420   7.863 -1.5547 -2.1265 -0.2658
 3420TP3      O22078   0.256   4.873   8.096  0.3115  0.1516  0.4743
 3420TP3     H122079   0.268   4.964   8.070  1.7109 -0.5368 -1.4269
 3420TP3     H222080   0.336   4.851   8.145  0.1098 -0.1320  0.6790
 3421TP3      O22081   1.130   3.930   9.384  0.0045 -0.0323  0.3311
 3421TP3     H122082   1.091   4.009   9.422 -1.1450 -0.2720 -0.3079
 3421TP3     H222083   1.067   3.860   9.404  0.6181 -0.6288  0.1907
 3422TP3      O22084   2.077   0.406   9.870 -0.4826  0.2010 -0.5937
 3422TP3     H122085   2.101   0.325   9.915 -0.2570 -0.0154 -1.0926
 3422TP3     H222086   2.063   0.469   9.940  1.4157  0.2972 -0.2717
 3423TP3      O22087   1.885   0.343   2.545 -0.3839  0.9653 -0.1809
 3423TP3     H122088   1.849   0.405   2.608  1.2995  1.4322  0.3512
 3423TP3     H222089   1.979   0.340   2.565 -0.0836 -0.0642 -1.6398
 3424TP3      O22090   0.234   0.099  10.115  0.3206 -0.0593 -0.1195
 3424TP3     H122091   0.241   0.172  10.177 -1.0365  0.0229 -0.0667
 3424TP3     H222092   0.143   0.099  10.088  0.1316 -2.2722  0.4960
 3425TP3      O22093   0.959   4.336   1.644 -0.4572  0.5688  0.5130
 3425TP3     H122094   0.899   4.288   1.586 -2.0368  2.8516  0.2017
 3425TP3     H222095   1.024   4.374   1.585 -0.5134  0.6681  0.5148
 3426TP3      O22096   4.744   5.015   9.068  0.2921  0.7632  0.0081
 3426TP3     H122097   4.676   4.948   9.061  0.2147  0.9457 -1.1352
 3426TP3     H222098   4.819   4.968   9.104 -0.1457  0.3430  0.3776
 3427TP3      O22099   1.655   4.237   0.637 -0.1759  0.0017  0.4914
 3427TP3     H122100   1.577   4.227   0.691  1.9890 -0.6313  3.6847
 3427TP3     H222101   1.693   4.321   0.664  0.3395  0.2304 -0.8924
 3428TP3      O22102   2.566   4.861   9.897 -0.2544  0.0814  0.3639
 3428TP3     H122103   2.529   4.774   9.887 -2.1742  0.8826  0.2500
 3428TP3     H222104   2.598   4.884   9.809  0.0279 -0.3915  0.3403
 3429TP3      O22105   5.340   0.583  10.045 -0.0775  0.7290  0.1993
 3429TP3     H122106   5.329   0.618   9.957  0.8078  1.5452  0.4054
 3429TP3     H222107   5.271   0.625  10.096 -0.5857  0.2614 -0.0950
 3430TP3      O22108   3.684   2.971   9.464 -0.1036  0.5699 -0.5479
 3430TP3     H122109   3.615   3.002   9.524 -0.8235 -1.5000 -0.2600
 3430TP3     H222110   3.764   2.975   9.516 -0.2689  1.4099 -0.3444
 3431TP3      O22111   5.009   4.160   0.242 -0.4069 -0.4038 -0.1727
 3431TP3     H122112   5.018   4.251   0.269  0.5642 -0.6310  0.2757
 3431TP3     H222113   5.061   4.110   0.305  0.1178 -1.1513 -1.1779
 3432TP3      O22114   3.407   4.558   8.141  0.1732  0.0666  0.2232
 3432TP3     H122115   3.313   4.571   8.153  0.6033  2.1637  1.5639
 3432TP3     H222116   3.430   4.615   8.068  0.1583 -1.6676 -1.1777
 3433TP3      O22117   0.137   2.459   0.078  0.2691  0.4273 -0.0349
 3433TP3     H122118   0.177   2.504   0.152  0.9515 -0.7972  0.3674
 3433TP3     H222119   0.152   2.366   0.096 -0.3057  0.0781 -1.2877
 3434TP3      O22120   4.935   0.359   1.450 -0.1155  0.0977 -0.1870
 3434TP3     H122121   4.955   0.431   1.390 -0.7339  0.1401 -0.3376
 3434TP3     H222122   4.938   0.400   1.537 -2.2046  0.7072 -0.3740
 3435TP3      O22123   5.375   5.111   8.964 -0.5399  0.0901 -0.2725
 3435TP3     H122124   5.450   5.108   8.906 -0.9861 -0.7872 -0.8112
 3435TP3     H222125   5.412   5.098   9.052  0.1053  1.2247 -0.3721
 3436TP3      O22126   2.027   4.333   0.791 -0.0766 -0.2167 -0.5036
 3436TP3     H122127   2.071   4.252   0.766 -2.0524 -1.0653 -1.3170
 3436TP3     H222128   2.097   4.388   0.826  1.3780 -2.0714 -0.4146
 3437TP3      O22129   2.908   2.229   9.767 -0.3297 -0.2667 -0.3956
 3437TP3     H122130   2.863   2.144   9.762 -0.9468 -0.0327  1.1962
 3437TP3     H222131   2.955   2.227   9.850 -0.5155  1.0358 -0.2513
 3438TP3      O22132   5.506   0.121   9.980  0.1131 -0.0233  0.0096
 3438TP3     H122133   5.437   0.132  10.046 -0.3536 -0.9617 -0.3118
 3438TP3     H222134   5.503   0.202   9.929 -0.4960  0.1085  0.2449
 3439TP3      O22135   1.198   3.461   9.576  0.2444 -0.1600 -0.0898
 3439TP3     H122136   1.115   3.485   9.535  1.0126  0.5152 -1.2896
 3439TP3     H222137   1.232   3.544   9.611  0.3316 -0.4600  0.5367
 3440TP3      O22138   1.579   3.665  10.299  0.8538  0.1033  0.5821
 3440TP3     H122139   1.556   3.752  10.267  0.3005  0.1335  1.0613
 3440TP3     H222140   1.568   3.671  10.394  1.4167 -0.3095  0.6749
 3441TP3      O22141   3.495   5.203   0.242  0.3431  0.6802  0.1988
 3441TP3     H122142   3.438   5.222   0.167 -0.5794 -0.3947  0.6044
 3441TP3     H222143   3.572   5.258   0.229  0.9645 -0.7467 -2.4337
 3442TP3      O22144   5.370   3.426   9.102  0.0963 -0.0977  0.1652
 3442TP3     H122145   5.332   3.408   9.188  1.0402 -0.0064  0.6117
 3442TP3     H222146   5.307   3.390   9.040 -0.1297 -1.0379  0.9252
 3443TP3      O22147   3.606   3.751   8.501 -0.3711 -0.3019  0.2795
 3443TP3     H122148   3.689   3.765   8.546  0.6144 -1.3281 -1.1593
 3443TP3     H222149   3.593   3.830   8.449 -0.7422  0.2357  1.1905
 3444TP3      O22150   1.211   0.197   9.919 -0.4137 -0.0050  0.2376
 3444TP3     H122151   1.139   0.136   9.935  0.0510 -0.2226  1.5332
 3444TP3     H222152   1.258   0.201  10.002  1.9398 -1.0014 -1.0021
 3445TP3      O22153   4.047   5.371   2.093 -0.1751 -0.6869  0.0742
 3445TP3     H122154   3.965   5.394   2.136  0.0276 -0.8009  0.5242
 3445TP3     H222155   4.079   5.295   2.141  1.0814  0.4190  1.0231
 3446TP3      O22156   2.843   1.899   0.913 -0.3029  0.3836  0.7787
 3446TP3     H122157   2.900   1.924   0.985 -1.0757  0.0493  1.5087
 3446TP3     H222158   2.867   1.959   0.842 -1.3849  2.4770  2.1419
 3447TP3      O22159   4.802   5.251   8.877  0.0720 -0.5420 -0.2035
 3447TP3     H122160   4.833   5.182   8.818  0.2065  0.1833 -0.9840
 3447TP3     H222161   4.760   5.203   8.949  1.0151 -1.4674 -0.2524
 3448TP3      O22162   0.623   4.993   0.439 -0.0435  0.4257 -0.2676
 3448TP3     H122163   0.564   5.040   0.498  0.0097  0.3269 -0.1354
 3448TP3     H222164   0.658   4.922   0.492  0.1919  0.4805 -0.3468
 3449TP3      O22165   2.516   1.177   1.064 -0.1851 -0.2925  0.4748
 3449TP3     H122166   2.511   1.139   1.152  2.0618  2.2101  1.7635
 3449TP3     H222167   2.453   1.249   1.066  2.5683  2.2090  1.4216
 3450TP3      O22168   1.290   5.131   1.269 -0.5000 -0.1074 -0.0836
 3450TP3     H122169   1.195   5.119   1.270 -0.5729  0.5471  0.9199
 3450TP3     H222170   1.318   5.086   1.189 -1.7426  0.4248 -0.8416
 3451TP3      O22171   2.076   5.290   6.942  0.0588 -0.3436 -0.0780
 3451TP3     H122172   2.105   5.360   6.884  1.4862 -0.6601  0.2314
 3451TP3     H222173   1.983   5.309   6.957  0.4806  1.6726  0.2499
 3452TP3      O22174   0.582   5.106   9.227  0.1008 -0.1226 -0.2483
 3452TP3     H122175   0.573   5.011   9.241  1.1482 -0.1841  0.1249
 3452TP3     H222176   0.677   5.120   9.228 -0.0790  1.0546  0.5508
 3453TP3      O22177   1.510   5.125   9.119 -0.0213 -0.3096  0.1038
 3453TP3     H122178   1.487   5.109   9.211  1.0412  0.8237  0.5866
 3453TP3     H222179   1.426   5.125   9.073 -0.5758 -0.7526  1.0995
 3454TP3      O22180   0.798   4.033   1.952  0.7103 -0.2573  1.0655
 3454TP3     H122181   0.874   4.070   1.909  0.4274 -0.7792  0.1095
 3454TP3     H222182   0.762   3.970   1.889  0.8902 -1.7826  2.4442
 3455TP3      O22183   1.085   0.049   1.915  0.1873  0.2023  0.1606
 3455TP3     H122184   1.041   0.009   1.990 -0.9418  1.5829  0.2440
 3455TP3     H222185   1.030   0.029   1.840  1.5037 -1.4886 -0.3897
 3456TP3      O22186   0.668   0.132   1.787 -0.5410  0.6574 -0.2860
 3456TP3     H122187   0.726   0.057   1.798 -1.3449  0.2020  0.9696
 3456TP3     H222188   0.715   0.191   1.729  1.4311  0.5834  1.1930
 3457TP3      O22189   4.790   3.636   9.581  0.7896 -0.3140 -0.1564
 3457TP3     H122190   4.782   3.725   9.546 -1.0620  0.0490  1.0953
 3457TP3     H222191   4.797   3.580   9.504  0.3006  0.7759 -1.0051
 3458TP3      O22192   1.310   4.697   1.767 -0.2189 -0.2021 -0.4884
 3458TP3     H122193   1.288   4.622   1.712 -0.6318 -1.1871  1.0051
 3458TP3     H222194   1.226   4.726   1.802  0.2175 -0.5850  0.8979
 3459TP3      O22195   1.023   2.102   8.510 -0.3703 -0.5858  0.6407
 3459TP3     H122196   0.969   2.041   8.561 -1.6045  0.7898  1.0264
 3459TP3     H222197   0.974   2.184   8.513 -0.5937 -0.4950 -2.9489
 3460TP3      O22198   1.941   4.726   0.154  0.2622  0.5277 -0.2206
 3460TP3     H122199   1.848   4.707   0.167 -0.0834  0.0269 -3.1979
 3460TP3     H222200   1.962   4.789   0.223 -2.9568  2.6656 -1.0731
 3461TP3      O22201   0.371   2.993   8.792  0.2970  0.4041  0.6101
 3461TP3     H122202   0.354   2.928   8.861 -0.7430 -0.1798 -0.1834
 3461TP3     H222203   0.289   3.041   8.783  0.0145 -0.3566 -1.0736
 3462TP3      O22204   0.904   4.401   2.377  0.5513 -0.7026 -0.5661
 3462TP3     H122205   0.838   4.470   2.384  1.9717  0.8962 -2.1276
 3462TP3     H222206   0.982   4.439   2.419  0.4359 -2.6470  1.4607
 3463TP3      O22207   0.446   0.436   1.036  0.2453  0.5491  0.7051
 3463TP3     H122208   0.406   0.364   1.084  0.4178  0.5697  0.8824
 3463TP3     H222209   0.465   0.400   0.950 -2.1308  1.1649 -0.1093
 3464TP3      O22210   0.439   4.082   8.179  0.3843  0.1861 -0.0677
 3464TP3     H122211   0.490   4.087   8.099  1.1415  0.2521  0.4136
 3464TP3     H222212   0.349   4.098   8.152  0.6740  0.4582 -0.8624
 3465TP3      O22213   1.710   3.317   1.491 -0.0139 -0.7777 -0.5699
 3465TP3     H122214   1.695   3.235   1.538 -0.8831  0.8455  2.1466
 3465TP3     H222215   1.622   3.349   1.471  0.1194  1.3857  1.9594
 3466TP3      O22216   0.770   0.532   2.297 -0.6145 -0.6618 -0.0679
 3466TP3     H122217   0.751   0.484   2.378 -1.9348  0.0347  0.0496
 3466TP3     H222218   0.846   0.586   2.319  0.3041 -1.9798  0.0843
 3467TP3      O22219   0.896   5.212   9.821  0.1017 -0.3156 -0.4657
 3467TP3     H122220   0.881   5.202   9.728  0.1077  0.3091 -0.5379
 3467TP3     H222221   0.982   5.173   9.836  1.2329  1.8679 -1.1686
 3468TP3      O22222   1.028   3.563   2.764 -0.2139  0.4413  0.3247
 3468TP3     H122223   1.100   3.625   2.748  0.1329  0.5483  2.2511
 3468TP3     H222224   1.070   3.487   2.804 -1.1501  0.4386  1.3168
 3469TP3      O22225   1.127   3.796   0.747  0.3112 -0.7165  0.1919
 3469TP3     H122226   1.146   3.837   0.662 -1.7500  0.2958  0.1830
 3469TP3     H222227   1.134   3.868   0.810 -0.2954 -0.9952  0.5825
 3470TP3      O22228   1.260   2.251   0.987  0.6037 -0.2758  0.5329
 3470TP3     H122229   1.228   2.160   0.983  0.7196 -0.4229  2.4379
 3470TP3     H222230   1.257   2.273   1.080 -1.2576  2.3529 -0.1125
 3471TP3      O22231   1.517   0.293   0.975 -0.0781  0.0329 -0.0852
 3471TP3     H122232   1.605   0.324   0.998  0.5716 -0.3279 -1.9769
 3471TP3     H222233   1.503   0.216   1.029  1.8095 -1.3846 -1.5444
 3472TP3      O22234   0.974   2.302   0.815 -0.1506 -0.3617  0.4208
 3472TP3     H122235   0.992   2.214   0.782  0.1893 -0.0976 -0.0993
 3472TP3     H222236   1.059   2.347   0.812  0.0777 -0.6021  2.4837
 3473TP3      O22237   0.823   4.194   1.140  0.1016  0.5067 -0.0546
 3473TP3     H122238   0.905   4.223   1.101 -0.4757  1.2916 -0.6927
 3473TP3     H222239   0.758   4.206   1.072 -0.4239 -0.8489  0.1809
 3474TP3      O22240   1.147   4.853   2.557  0.2217 -0.5294 -0.2587
 3474TP3     H122241   1.091   4.930   2.570 -0.1348 -0.8666  0.2501
 3474TP3     H222242   1.225   4.887   2.513 -0.6760 -0.1685 -1.5946
 3475TP3      O22243   0.083   0.679   0.248 -0.6983 -0.2262 -0.1884
 3475TP3     H122244   0.010   0.738   0.228 -0.3895 -0.3481 -1.7649
 3475TP3     H222245   0.161   0.727   0.220  0.0166  0.5586  2.9600
 3476TP3      O22246   4.214   5.138   1.992  0.2304  0.0571 -0.4849
 3476TP3     H122247   4.134   5.186   1.973 -1.9134 -3.6875 -1.3795
 3476TP3     H222248   4.270   5.154   1.916 -0.5472  0.9183 -0.8861
 3477TP3      O22249   2.502   3.303   0.465 -0.4898  0.1110 -0.1179
 3477TP3     H122250   2.595   3.321   0.449 -0.2048 -1.0953  0.1048
 3477TP3     H222251   2.474   3.372   0.525  0.7866 -0.6334  1.3928
 3478TP3      O22252   1.371   0.579   0.235  0.4380 -0.3667  0.5060
 3478TP3     H122253   1.402   0.636   0.305 -0.1665  0.6815 -0.0682
 3478TP3     H222254   1.391   0.627   0.154 -0.3177 -0.8334  0.0316
 3479TP3      O22255   2.284   4.468   0.801 -0.0305  0.2632 -0.5191
 3479TP3     H122256   2.278   4.473   0.897  0.6978 -1.0763 -0.3877
 3479TP3     H222257   2.355   4.528   0.778 -0.5303  0.9559 -0.2687
 3480TP3      O22258   0.591   4.324  10.255 -0.1543  0.0829  0.2250
 3480TP3     H122259   0.679   4.319  10.217 -0.6535  0.8667 -1.0706
 3480TP3     H222260   0.533   4.337  10.179 -1.1342  2.0532  1.2933
 3481TP3      O22261   3.488   0.485   9.611 -0.1481  0.0678  0.7335
 3481TP3     H122262   3.511   0.471   9.519  0.1130 -2.6938  1.1846
 3481TP3     H222263   3.572   0.488   9.657 -0.3580 -1.8307  1.2901
 3482TP3      O22264   0.683   4.325   9.640  0.3373  0.1096  0.2738
 3482TP3     H122265   0.655   4.258   9.703  0.3655 -1.0824 -0.9496
 3482TP3     H222266   0.624   4.399   9.655  0.6478  0.0368  2.0204
 3483TP3      O22267   1.749   0.874   1.276  0.2727 -0.4207  0.5655
 3483TP3     H122268   1.774   0.801   1.219 -3.1467 -1.6720  0.5996
 3483TP3     H222269   1.724   0.833   1.358 -0.6877  0.8895  0.9406
 3484TP3      O22270   3.566   3.962   8.312 -0.2790  0.1496  0.2167
 3484TP3     H122271   3.617   4.001   8.240 -0.8870 -0.0144 -0.3097
 3484TP3     H222272   3.481   3.942   8.272  0.2438 -2.3470  0.2825
 3485TP3      O22273   0.085   4.917   0.675 -0.6803 -0.6011 -0.0072
 3485TP3     H122274   0.075   4.863   0.754  1.0472 -2.0284 -0.7224
 3485TP3     H222275   0.065   4.857   0.603 -0.8742  0.3185 -0.7127
 3486TP3      O22276   1.931   3.299   1.033 -0.1110 -0.5595  0.0293
 3486TP3     H122277   1.917   3.243   1.109  0.6130  1.9316  2.0548
 3486TP3     H222278   2.026   3.298   1.020 -0.1935 -0.6335 -0.5922
 3487TP3      O22279   0.660   0.142   0.895 -0.0064 -0.2631  0.6851
 3487TP3     H122280   0.607   0.199   0.839 -1.2334 -0.9910  1.0938
 3487TP3     H222281   0.723   0.102   0.835 -1.0147 -0.6898 -0.1126
 3488TP3      O22282   0.367   0.023   2.628 -0.6013  0.0240  0.2299
 3488TP3     H122283   0.293  -0.016   2.675 -0.5388 -1.5784 -0.9599
 3488TP3     H222284   0.330   0.049   2.543  0.3184 -1.3806 -0.6211
 3489TP3      O22285   3.311   5.453   9.545  0.1304 -0.2841  0.5309
 3489TP3     H122286   3.318   5.361   9.520 -0.2300 -0.2965  0.4682
 3489TP3     H222287   3.233   5.485   9.499 -0.1510 -0.1339  1.1098
 3490TP3      O22288   3.089   4.568   8.981 -0.4495  0.1270 -0.1655
 3490TP3     H122289   3.161   4.512   8.950  0.2848  1.3203 -0.6575
 3490TP3     H222290   3.091   4.557   9.076 -1.4519 -2.0366 -0.3550
 3491TP3      O22291   0.793   2.473   0.722  0.1545 -0.0169  0.3532
 3491TP3     H122292   0.840   2.391   0.738  0.6780  0.3155  0.5303
 3491TP3     H222293   0.853   2.541   0.752  0.0721  0.4739 -0.5740
 3492TP3      O22294   2.443   0.116   0.125 -0.0956  0.3598  0.2674
 3492TP3     H122295   2.415   0.028   0.102 -1.5188  0.1351  2.6901
 3492TP3     H222296   2.399   0.173   0.062  0.7065 -0.6183 -1.2083
 3493TP3      O22297   0.565   3.714   1.104 -0.2128  0.5225 -0.4812
 3493TP3     H122298   0.547   3.622   1.122  2.8024 -0.2105 -0.9342
 3493TP3     H222299   0.487   3.745   1.058 -1.5640 -1.5928  0.2788
 3494TP3      O22300   2.991   3.592   0.013 -0.3886 -0.2143  0.2930
 3494TP3     H122301   2.959   3.674   0.049  0.7500 -0.2393  1.4047
 3494TP3     H222302   3.085   3.593   0.031  0.2501 -0.2201 -2.7296
 3495TP3      O22303   0.684   3.949   9.576  0.0224 -0.1946 -0.0541
 3495TP3     H122304   0.770   3.913   9.554 -0.1360  0.5601 -2.0188
 3495TP3     H222305   0.627   3.920   9.504 -0.8942  1.0554  0.1528
 3496TP3      O22306   0.452   4.162   0.775 -0.2449 -0.1874 -0.0488
 3496TP3     H122307   0.478   4.070   0.783  0.5876 -0.1040 -1.6039
 3496TP3     H222308   0.388   4.162   0.704 -1.8484  0.1423  1.3713
 3497TP3      O22309   5.195   0.417   8.967  0.1366  0.0865  0.1209
 3497TP3     H122310   5.149   0.399   9.050 -0.3938 -0.3140 -0.2559
 3497TP3     H222311   5.175   0.509   8.949 -0.7452 -0.1571 -0.1755
 3498TP3      O22312   2.237   2.405   0.715 -0.3463  0.1624  0.1976
 3498TP3     H122313   2.149   2.427   0.747  0.6173  2.6477  1.3437
 3498TP3     H222314   2.273   2.348   0.783 -1.3543 -1.5986 -0.7065
 3499TP3      O22315   0.084   1.019   8.718  0.0876 -0.2586  0.8876
 3499TP3     H122316   0.015   0.977   8.769 -0.8223 -0.6182 -0.6009
 3499TP3     H222317   0.064   1.113   8.724 -2.1592 -0.4878 -1.7089
 3500TP3      O22318   1.671   3.860   8.935  0.9262 -0.2815  0.1681
 3500TP3     H122319   1.694   3.767   8.940 -0.6684 -0.7297 -0.2621
 3500TP3     H222320   1.604   3.863   8.866  0.0690  0.9935  1.0410
 3501TP3      O22321   1.225   3.633   0.075  0.0118 -0.5751  0.1635
 3501TP3     H122322   1.274   3.715   0.067 -0.5489 -0.1006  1.4187
 3501TP3     H222323   1.159   3.637   0.006  0.5158 -0.3504 -0.3072
 3502TP3      O22324   0.300   1.021   2.304 -0.2448 -0.2690  0.9240
 3502TP3     H122325   0.226   1.002   2.246 -1.4625  0.1117  2.2971
 3502TP3     H222326   0.279   0.974   2.385  1.0363 -0.1698  1.3305
 3503TP3      O22327   2.193   4.643   1.818 -0.1202  0.5614  0.2649
 3503TP3     H122328   2.175   4.597   1.736  1.1939  2.3533 -1.0889
 3503TP3     H222329   2.108   4.681   1.844 -0.0608  2.0594 -1.6250
 3504TP3      O22330   1.735   0.586   1.175  0.1719  0.1759  0.4947
 3504TP3     H122331   1.815   0.619   1.135  0.1199 -0.1892  0.0787
 3504TP3     H222332   1.736   0.492   1.157 -0.6818  0.2698 -0.1044
 3505TP3      O22333   2.709   3.645   1.253  0.3016 -0.2181 -0.0063
 3505TP3     H122334   2.631   3.644   1.307  0.9988 -2.8737  1.0069
 3505TP3     H222335   2.776   3.602   1.306  1.1753 -2.2754 -2.6534
 3506TP3      O22336   0.686   4.862   9.867  0.5433  0.2890  0.1051
 3506TP3     H122337   0.644   4.858   9.953 -0.6376  0.6095 -0.4525
 3506TP3     H222338   0.767   4.912   9.882  0.8308 -0.4915  1.2151
 3507TP3      O22339   1.508   5.363   1.282  0.4977  0.1505  0.2211
 3507TP3     H122340   1.519   5.282   1.333 -0.0522  1.6391  2.8044
 3507TP3     H222341   1.479   5.427   1.346  0.0318  2.1878 -1.9805
 3508TP3      O22342   0.240   0.058   8.913 -0.1815 -0.7240 -0.6642
 3508TP3     H122343   0.187   0.097   8.982 -0.2772 -1.0990 -0.5260
 3508TP3     H222344   0.177   0.018   8.854 -0.0977 -0.4464 -0.9469
 3509TP3      O22345   2.545   0.651   1.856  0.2468 -0.2213  0.0630
 3509TP3     H122346   2.626   0.600   1.866  0.3857  0.1196  0.7089
 3509TP3     H222347   2.483   0.610   1.916  0.4723  0.5987  0.8643
 3510TP3      O22348   0.555   3.954   0.381 -0.0130 -0.4928 -0.0331
 3510TP3     H122349   0.610   3.891   0.335 -0.8133 -1.9024  0.9178
 3510TP3     H222350   0.599   3.967   0.465 -0.1358 -0.1905 -0.0149
 3511TP3      O22351   1.988   2.284   1.022 -0.3902 -0.4811 -0.1782
 3511TP3     H122352   2.029   2.201   1.000  0.3202 -0.2951  0.4205
 3511TP3     H222353   1.965   2.323   0.937 -1.7791 -1.7976 -0.4225
 3512TP3      O22354   1.528   3.771   9.727  0.2493 -0.1782  0.0896
 3512TP3     H122355   1.454   3.769   9.666  2.4120  2.7053 -2.7873
 3512TP3     H222356   1.505   3.839   9.790  0.1412  0.2135 -0.3688
 3513TP3      O22357   4.516   2.464   8.384 -0.1195  0.1194  0.0047
 3513TP3     H122358   4.604   2.440   8.413  0.1436  1.9701  0.8331
 3513TP3     H222359   4.501   2.412   8.305  1.3192 -0.9559  0.4356
 3514TP3      O22360   5.275   4.616   1.087 -0.2066  0.3266  0.5488
 3514TP3     H122361   5.259   4.675   1.013 -0.5363 -1.1250 -0.5628
 3514TP3     H222362   5.324   4.544   1.049 -0.3982 -0.4482  1.7589
 3515TP3      O22363   0.263   3.831   0.045 -0.9499  0.0222  0.4091
 3515TP3     H122364   0.221   3.836  -0.041 -1.3188  2.4306  0.6884
 3515TP3     H222365   0.247   3.742   0.075 -1.5466 -0.5829 -1.6553
 3516TP3      O22366   3.342   4.453   8.869 -0.1051  0.0231  0.0926
 3516TP3     H122367   3.393   4.531   8.846 -0.5990  0.1692 -0.5196
 3516TP3     H222368   3.316   4.416   8.785  1.2705 -1.5715  0.3458
 3517TP3      O22369   0.003   3.688   0.454 -0.1487 -0.1359 -0.1771
 3517TP3     H122370  -0.071   3.685   0.515 -0.5675 -1.1213 -0.7176
 3517TP3     H222371  -0.021   3.756   0.391  0.0374  0.5039  0.4383
 3518TP3      O22372   3.862   4.884   9.629 -0.4760  0.0047 -0.2767
 3518TP3     H122373   3.902   4.947   9.569 -0.5919  1.3511  1.0355
 3518TP3     H222374   3.778   4.923   9.653  0.1936  0.1859  1.8644
 3519TP3      O22375   0.873   3.220   0.281 -0.3376 -0.2901  0.0993
 3519TP3     H122376   0.799   3.201   0.338  0.6810 -1.4151  1.0642
 3519TP3     H222377   0.937   3.263   0.338 -0.5009  1.3300 -0.8860
 3520TP3      O22378   0.848   5.472   9.486  0.7567 -0.7957 -0.0684
 3520TP3     H122379   0.910   5.526   9.437  1.0235 -0.8377  0.2207
 3520TP3     H222380   0.802   5.422   9.419  1.4910 -1.2392 -0.2496
 3521TP3      O22381   1.060   0.389   9.450 -0.4264  0.0698 -0.3094
 3521TP3     H122382   1.065   0.296   9.473 -1.3187 -0.5223 -2.3751
 3521TP3     H222383   0.991   0.424   9.506 -1.4684 -0.9807 -0.9037
 3522TP3      O22384   0.642   2.796   1.768  0.0082 -0.2927 -0.2605
 3522TP3     H122385   0.603   2.710   1.784 -1.0329 -0.0365 -1.3135
 3522TP3     H222386   0.619   2.849   1.844  2.8319 -1.6521  1.6177
 3523TP3      O22387   4.888   3.644   2.437  0.3235  0.1978  0.2447
 3523TP3     H122388   4.832   3.692   2.376 -0.2651 -2.2236 -1.2124
 3523TP3     H222389   4.951   3.708   2.469  0.6280  1.5369 -2.9272
 3524TP3      O22390   1.513   4.388   7.694  0.1248 -0.2081 -0.7533
 3524TP3     H122391   1.563   4.319   7.737 -0.9119  0.3291  1.3294
 3524TP3     H222392   1.426   4.352   7.683 -1.0315  1.4919  2.3064
 3525TP3      O22393   0.311   4.627   1.735 -0.0616 -0.2341 -0.4100
 3525TP3     H122394   0.329   4.695   1.801  2.3737 -1.8232  0.6575
 3525TP3     H222395   0.219   4.607   1.746 -0.0642  0.6525  1.4504
 3526TP3      O22396   5.245   1.052   1.564  0.7361 -0.3133 -0.2447
 3526TP3     H122397   5.200   1.123   1.610 -1.6236 -0.5992 -2.0152
 3526TP3     H222398   5.331   1.089   1.542  0.3764  1.2102  0.8038
 3527TP3      O22399   3.732   0.858   8.545 -0.3644  0.0301 -0.0092
 3527TP3     H122400   3.804   0.919   8.562  0.4488 -1.1635  0.8620
 3527TP3     H222401   3.663   0.884   8.606 -0.7462  1.2567 -0.9331
 3528TP3      O22402   4.420   3.531   0.646  0.1794  0.3888  1.0302
 3528TP3     H122403   4.461   3.512   0.562 -1.1232 -0.5708  0.5972
 3528TP3     H222404   4.340   3.578   0.624  0.6757  1.6437  1.8332
 3529TP3      O22405   3.037   0.872   0.763 -0.2466 -0.0130  0.7303
 3529TP3     H122406   3.030   0.860   0.858 -0.6296  1.9323  0.9696
 3529TP3     H222407   2.948   0.897   0.736  0.6943  3.3549  0.4887
 3530TP3      O22408   3.295   0.123  10.284  0.4722  0.1463  0.3882
 3530TP3     H122409   3.210   0.079  10.285  0.1608  0.7778  1.4547
 3530TP3     H222410   3.295   0.178  10.362  0.2084  3.3365 -1.7884
 3531TP3      O22411   2.655   0.869   9.803  0.4128 -1.1484 -0.3251
 3531TP3     H122412   2.694   0.879   9.716 -0.3779 -0.7706 -0.6463
 3531TP3     H222413   2.729   0.866   9.863  0.9079  1.0432 -0.7741
 3532TP3      O22414   1.486   0.022   8.952  0.1276 -0.2643  0.0055
 3532TP3     H122415   1.574   0.006   8.916  0.0385  0.8062 -0.7370
 3532TP3     H222416   1.492   0.110   8.990 -0.1029 -0.9450  1.6471
 3533TP3      O22417   1.167   4.599  10.128 -0.6332  0.4342  0.4240
 3533TP3     H122418   1.149   4.611  10.034  1.2954 -1.4599 -0.2223
 3533TP3     H222419   1.262   4.598  10.135 -0.7394 -1.2327  2.1506
 3534TP3      O22420   2.482   1.178   9.157 -0.2131  0.2093 -0.2216
 3534TP3     H122421   2.426   1.134   9.092  1.7552 -0.8530 -1.2430
 3534TP3     H222422   2.432   1.255   9.183 -3.1568 -1.8996  0.6054
 3535TP3      O22423   2.033   4.748  10.209 -0.4431  0.3172  0.3871
 3535TP3     H122424   2.018   4.679  10.145  1.5957  0.5558 -0.3655
 3535TP3     H222425   2.009   4.708  10.293 -0.3808 -0.9237 -0.1817
 3536TP3      O22426   3.762   2.744   1.192 -0.0950 -0.0018 -0.0563
 3536TP3     H122427   3.732   2.798   1.119 -0.6249 -0.8623 -0.4812
 3536TP3     H222428   3.691   2.750   1.257 -1.1429 -1.8875 -0.9847
 3537TP3      O22429   1.956   4.224   0.484  0.2674 -0.6229  0.4326
 3537TP3     H122430   1.890   4.224   0.553  0.6337 -1.2925  0.7902
 3537TP3     H222431   1.907   4.248   0.405  0.0141  1.0330  1.0631
 3538TP3      O22432   1.116   3.765   1.849 -0.1435  0.4834  0.0004
 3538TP3     H122433   1.149   3.823   1.780  2.3147 -0.0436  0.7046
 3538TP3     H222434   1.094   3.825   1.921  2.5257  0.5690  0.7799
 3539TP3      O22435   2.245   1.037   2.057  0.7172  0.3892  0.2782
 3539TP3     H122436   2.169   1.028   2.115  0.6280  0.0380  0.1100
 3539TP3     H222437   2.207   1.048   1.970  0.8624 -1.6892 -0.0787
 3540TP3      O22438   4.148   0.464   9.208 -0.0551 -0.1879  0.2734
 3540TP3     H122439   4.075   0.410   9.239 -0.3453 -1.0528 -1.8183
 3540TP3     H222440   4.144   0.543   9.262 -0.7920 -1.4295  2.0995
 3541TP3      O22441   3.268   3.601   9.702  0.0419 -0.0139  0.1301
 3541TP3     H122442   3.194   3.599   9.763 -0.3815  1.6174 -0.3298
 3541TP3     H222443   3.251   3.528   9.642 -0.6083 -0.3395  0.7002
 3542TP3      O22444   4.304   1.612   2.258 -0.3347 -0.4109  0.0156
 3542TP3     H122445   4.336   1.700   2.238 -1.7366  0.6206  2.1085
 3542TP3     H222446   4.221   1.606   2.212  0.3315 -1.0899 -1.0978
 3543TP3      O22447   1.639   5.436   0.904 -0.2586 -0.0527  0.1929
 3543TP3     H122448   1.730   5.411   0.888 -0.2006  0.5115 -0.3787
 3543TP3     H222449   1.643   5.528   0.927 -0.3951 -0.7064  3.0278
 3544TP3      O22450   1.935   5.301  10.066  0.4537  0.5838 -0.4568
 3544TP3     H122451   1.969   5.212  10.076 -0.5086  0.4850  2.7966
 3544TP3     H222452   1.921   5.331  10.156  0.6726  4.0152 -1.4891
 3545TP3      O22453   2.465   3.164   8.656  0.7391  0.1654 -0.2619
 3545TP3     H122454   2.537   3.131   8.709 -0.0850 -0.2814  0.6108
 3545TP3     H222455   2.499   3.243   8.615  2.1963 -0.8641 -1.0546
 3546TP3      O22456   4.007   1.350   0.265  0.1246  0.1151  0.1474
 3546TP3     H122457   3.928   1.330   0.314  0.8367 -0.2519  1.1479
 3546TP3     H222458   4.036   1.265   0.230  0.6794  0.0852  0.6830
 3547TP3      O22459   0.892   5.335   0.851  0.0001  0.2338  0.2085
 3547TP3     H122460   0.838   5.347   0.929 -0.7707  4.4637 -0.8264
 3547TP3     H222461   0.831   5.299   0.786 -0.1859 -0.1708  0.6060
 3548TP3      O22462   0.260   0.042   2.390  0.3388 -0.3368 -0.0907
 3548TP3     H122463   0.260  -0.036   2.335  2.2226 -0.2891 -0.1889
 3548TP3     H222464   0.240   0.113   2.329  1.5417 -0.3971 -0.5774
 3549TP3      O22465   0.190   4.931   1.568  0.4869  0.4666  0.0188
 3549TP3     H122466   0.171   4.966   1.481  0.7623  0.8519  0.1103
 3549TP3     H222467   0.178   4.836   1.559  0.1569  0.5406 -0.3428
 3550TP3      O22468   4.918   0.484   1.199 -0.6594  0.6801 -0.3510
 3550TP3     H122469   4.978   0.547   1.237 -0.7474  1.2209 -1.0980
 3550TP3     H222470   4.975   0.420   1.155 -0.6044  0.7958 -0.4483
 3551TP3      O22471   4.571   4.619  10.030  0.2820  0.1683 -0.3454
 3551TP3     H122472   4.656   4.590   9.995  1.1077  0.4372  1.3929
 3551TP3     H222473   4.542   4.685   9.968  1.1838 -0.1752 -1.1584
 3552TP3      O22474   5.454   3.564   9.662  0.4809 -0.2843  0.0712
 3552TP3     H122475   5.442   3.476   9.626  3.0551 -0.7398  0.2327
 3552TP3     H222476   5.369   3.586   9.700 -0.6216 -2.1056 -1.2478
 3553TP3      O22477   4.672   5.275   0.176 -0.3548 -0.5316  0.0210
 3553TP3     H122478   4.619   5.345   0.215 -1.5059 -1.0739 -0.5501
 3553TP3     H222479   4.702   5.224   0.251  0.3950  0.5060  0.4345
 3554TP3      O22480   4.807   4.398   0.480  0.1770 -0.7160 -0.0226
 3554TP3     H122481   4.805   4.307   0.451 -0.5973 -0.7506  0.1272
 3554TP3     H222482   4.715   4.424   0.483  0.1320 -0.9769  3.1366
 3555TP3      O22483   1.563   0.976   9.391 -0.2758  0.7116 -0.3545
 3555TP3     H122484   1.610   0.973   9.474  2.4733  0.7295 -1.8582
 3555TP3     H222485   1.519   0.892   9.385 -1.1801  1.0255  1.4658
 3556TP3      O22486   3.806   0.496   8.268 -0.0274  0.4359 -0.3953
 3556TP3     H122487   3.745   0.426   8.245  0.4692 -0.5155  1.0428
 3556TP3     H222488   3.751   0.565   8.304 -0.5219  0.7872 -1.8025
 3557TP3      O22489   2.609   2.709   8.505  0.3842 -0.4073 -0.4411
 3557TP3     H122490   2.558   2.789   8.521 -2.4203 -1.8760 -1.5572
 3557TP3     H222491   2.601   2.660   8.587 -0.0262 -0.6308 -0.6120
 3558TP3      O22492   3.435   4.993   1.274 -0.2328 -0.4529 -0.3577
 3558TP3     H122493   3.478   5.044   1.342 -1.6737 -0.0821  0.2917
 3558TP3     H222494   3.487   5.010   1.195  1.4106 -0.8461  0.6134
 3559TP3      O22495   4.107   3.279   9.083 -0.1310  0.1351  0.0032
 3559TP3     H122496   4.023   3.293   9.041 -0.6248  0.6674  1.1570
 3559TP3     H222497   4.087   3.223   9.159  0.9550 -2.0629 -1.2630
 3560TP3      O22498   1.359   4.834   9.990  0.6809  0.2434 -0.4589
 3560TP3     H122499   1.290   4.818   9.926  1.0840  1.3185 -1.1919
 3560TP3     H222500   1.369   4.929   9.991  1.9824  0.1183 -0.1931
 3561TP3      O22501   2.146   5.337   8.731 -0.0447 -0.0110  0.1180
 3561TP3     H122502   2.198   5.377   8.661  0.5233  2.7536  2.0684
 3561TP3     H222503   2.209   5.288   8.784  0.3298  1.8511  1.4333
 3562TP3      O22504   2.622   0.406  10.273 -0.6669  0.2240 -0.1491
 3562TP3     H122505   2.534   0.429  10.244 -0.2337  2.1120 -0.0381
 3562TP3     H222506   2.678   0.474  10.236  0.4231  0.4089  1.7488
 3563TP3      O22507   2.636   4.033   0.821  0.5085  0.4545 -0.5106
 3563TP3     H122508   2.717   4.076   0.847  0.2627  0.1207  0.8344
 3563TP3     H222509   2.601   4.088   0.750  2.8171 -0.3902 -2.3623
 3564TP3      O22510   3.040   5.122  10.011 -0.0094 -0.0458 -0.1086
 3564TP3     H122511   2.961   5.068  10.014 -0.5641  0.7952  0.9898
 3564TP3     H222512   3.012   5.207  10.046  1.2302  0.4636 -0.3136
 3565TP3      O22513   2.331   5.300   1.537  0.6258 -0.0974 -0.4802
 3565TP3     H122514   2.292   5.294   1.625  1.1466  0.6784 -0.1944
 3565TP3     H222515   2.425   5.307   1.553  0.8295 -1.2132 -1.1470
 3566TP3      O22516   3.406   4.718   1.607  0.3407  0.0105 -0.1028
 3566TP3     H122517   3.334   4.678   1.656  0.6225 -1.7972 -1.1219
 3566TP3     H222518   3.386   4.700   1.516  0.1848  2.7459 -0.6574
 3567TP3      O22519   0.931   3.374   9.885  0.1261 -0.3965  0.1889
 3567TP3     H122520   0.974   3.334   9.960  1.6309  1.2322  0.2429
 3567TP3     H222521   0.984   3.347   9.810  1.3355  1.6390  0.2570
 3568TP3      O22522   0.951   4.700   0.112 -0.6110 -0.1233 -0.2181
 3568TP3     H122523   0.965   4.662   0.198  0.3078  0.3147 -0.1697
 3568TP3     H222524   0.869   4.749   0.120  1.2407  2.8227  1.4275
 3569TP3      O22525   2.367   0.996   9.599  0.1486  0.2177 -0.5055
 3569TP3     H122526   2.297   0.947   9.643  0.3627  0.2079 -0.1735
 3569TP3     H222527   2.419   0.928   9.555  0.0995  0.2012 -0.5383
 3570TP3      O22528   3.996   3.230   8.668  0.0792  1.0451 -0.3063
 3570TP3     H122529   4.021   3.150   8.714  1.7737  0.7896 -1.6732
 3570TP3     H222530   3.910   3.209   8.630 -0.0649  0.3268  0.3865
 3571TP3      O22531   2.885   3.211   0.698  0.4335  0.1997  0.1669
 3571TP3     H122532   2.861   3.120   0.718  0.3015 -0.1073 -1.3355
 3571TP3     H222533   2.861   3.222   0.606 -1.1582  2.3078  0.7966
 3572TP3      O22534   5.076   4.305   9.192  0.1895 -0.3144 -0.1907
 3572TP3     H122535   5.012   4.308   9.121 -0.8499  1.5520  0.7766
 3572TP3     H222536   5.023   4.314   9.272  1.5111 -0.3944  0.7044
 3573TP3      O22537   0.171   3.872  10.105 -0.9019 -0.3189 -0.3751
 3573TP3     H122538   0.103   3.818  10.065 -0.8125 -0.4265 -0.3826
 3573TP3     H222539   0.199   3.932  10.036 -1.0178 -0.2476 -0.3604
 3574TP3      O22540   2.091   4.751   7.829 -0.3200 -0.1542 -0.4828
 3574TP3     H122541   2.021   4.686   7.831  2.0084 -2.7840  2.1337
 3574TP3     H222542   2.123   4.750   7.739 -2.1709 -0.5894 -1.1425
 3575TP3      O22543   2.086   0.305   0.340 -0.1110  0.3873 -0.0983
 3575TP3     H122544   2.099   0.210   0.339 -0.7099  0.2945  0.7895
 3575TP3     H222545   2.049   0.325   0.254 -1.0992 -0.3418  0.1513
 3576TP3      O22546   3.280   2.853   8.927 -0.3079  0.5338  0.1666
 3576TP3     H122547   3.254   2.860   9.018  1.5530 -2.8022  1.0133
 3576TP3     H222548   3.372   2.880   8.926 -0.5148  1.2664 -0.8907
 3577TP3      O22549   0.951   0.457   0.136  0.2437 -0.1293 -0.2045
 3577TP3     H122550   0.982   0.429   0.050  0.7949  1.3490 -0.5040
 3577TP3     H222551   1.031   0.479   0.184 -0.2175  2.2198 -0.4526
 3578TP3      O22552   2.912   1.040  10.151 -0.4274 -0.1502  0.1379
 3578TP3     H122553   2.907   0.975  10.080 -0.1096 -0.9746  0.8624
 3578TP3     H222554   2.994   1.087  10.133 -0.6919  0.1045 -0.4271
 3579TP3      O22555   3.998   0.614   9.597  0.2984 -0.1003  0.2512
 3579TP3     H122556   4.077   0.561   9.591 -0.0138 -0.6471  0.9259
 3579TP3     H222557   3.992   0.658   9.512  0.4289 -1.3235 -0.3990
 3580TP3      O22558   4.502   3.980   9.658  0.2846  0.1072 -0.2528
 3580TP3     H122559   4.486   3.927   9.580  0.8558  0.8331 -0.8620
 3580TP3     H222560   4.587   4.021   9.643  0.3559  0.3330  0.7080
 3581TP3      O22561   1.664   4.117   0.253 -0.4246  0.2880 -0.0135
 3581TP3     H122562   1.687   4.025   0.259 -1.6133 -0.1114 -1.2297
 3581TP3     H222563   1.591   4.128   0.314 -0.1654  0.4649  0.2647
 3582TP3      O22564   2.087   4.010   2.595 -0.3718  0.1832  0.5186
 3582TP3     H122565   2.125   4.059   2.522  1.8171 -0.2971  1.2816
 3582TP3     H222566   2.113   4.059   2.673 -1.7266  0.0795  1.0477
 3583TP3      O22567   3.249   5.423   1.980 -0.5080  0.0620  0.0267
 3583TP3     H122568   3.343   5.405   1.981 -0.8738 -2.0203 -0.9991
 3583TP3     H222569   3.226   5.430   1.888 -1.1763  1.6756  0.3005
 3584TP3      O22570   1.916   4.144   1.458 -0.1569  0.4853 -0.1085
 3584TP3     H122571   1.871   4.105   1.533 -0.8531  0.3207 -0.6075
 3584TP3     H222572   1.985   4.082   1.436  0.0236  0.5153  0.3766
 3585TP3      O22573   4.304   4.747   0.194 -0.1593  0.3622  0.0359
 3585TP3     H122574   4.334   4.826   0.239  0.1871  0.7051 -0.7917
 3585TP3     H222575   4.212   4.765   0.173 -0.1676  0.4174  0.1174
 3586TP3      O22576   4.890   4.701   0.276  0.2107  0.6214 -0.0263
 3586TP3     H122577   4.857   4.768   0.216 -1.2515 -0.7297 -0.7784
 3586TP3     H222578   4.815   4.681   0.333  1.3065  1.2137  1.6722
 3587TP3      O22579   1.811   4.531   9.463 -0.1174 -0.6189 -0.0871
 3587TP3     H122580   1.905   4.514   9.473  0.5322  2.6781  0.2312
 3587TP3     H222581   1.779   4.537   9.553 -0.2592 -0.1360 -0.1661
 3588TP3      O22582   3.777   1.254   1.789 -0.1084 -0.1381  0.0121
 3588TP3     H122583   3.854   1.296   1.829 -1.5154  1.3874  1.2146
 3588TP3     H222584   3.787   1.271   1.696 -0.0575  1.9722  0.3664
 3589TP3      O22585   2.163   4.918   9.597  0.3935 -0.0233 -0.9076
 3589TP3     H122586   2.120   4.914   9.511  1.6812 -1.5901 -1.4974
 3589TP3     H222587   2.205   5.004   9.598 -3.9917  2.3031  0.3355
 3590TP3      O22588   2.322   5.041   1.201  0.2747  0.1553  0.0410
 3590TP3     H122589   2.405   5.077   1.231  1.1155 -0.7532 -1.1294
 3590TP3     H222590   2.288   5.106   1.139  1.4125 -0.6623 -1.4809
 3591TP3      O22591   3.896   5.137   8.056 -0.5840 -0.8852 -0.1598
 3591TP3     H122592   3.930   5.226   8.046  1.1965 -1.5650 -0.2971
 3591TP3     H222593   3.821   5.133   7.997 -1.1363  0.7411  0.3865
 3592TP3      O22594   2.270   5.376   2.013  0.1020 -0.4376 -0.4648
 3592TP3     H122595   2.347   5.323   2.032  0.2774  0.4465  1.3918
 3592TP3     H222596   2.304   5.465   1.999 -0.5573 -0.0431  0.3496
 3593TP3      O22597   4.979   3.693   0.280  0.3320 -0.1327 -0.3690
 3593TP3     H122598   5.070   3.707   0.308  0.2971 -0.2939 -0.1784
 3593TP3     H222599   4.968   3.598   0.284 -0.7687  0.0703  2.4521
 3594TP3      O22600   1.802   2.591   7.771 -0.0775 -0.3487  0.8138
 3594TP3     H122601   1.822   2.672   7.723 -1.0704 -1.3752 -1.3803
 3594TP3     H222602   1.744   2.620   7.842 -0.2428  0.9036  0.1898
 3595TP3      O22603   1.629   3.712   9.321 -0.1981 -0.2932 -0.1303
 3595TP3     H122604   1.721   3.693   9.306 -0.2882 -1.2328  0.4668
 3595TP3     H222605   1.627   3.757   9.405 -0.1968  0.4868 -0.5503
 3596TP3      O22606   2.834   2.830   8.446  0.5479 -0.6399 -0.5183
 3596TP3     H122607   2.880   2.749   8.423  1.5474 -0.3708  0.4947
 3596TP3     H222608   2.744   2.803   8.460  1.1217 -1.8096  1.0506
 3597TP3      O22609   2.294   4.712   8.593  0.5763  0.1359 -0.0217
 3597TP3     H122610   2.324   4.801   8.607  2.1124 -0.1624 -1.2961
 3597TP3     H222611   2.350   4.658   8.649  0.3263 -0.1326 -0.0268
 3598TP3      O22612   2.224   3.913   0.642 -0.5090 -0.2382  0.3140
 3598TP3     H122613   2.187   3.868   0.566  0.9235 -0.3940 -0.3039
 3598TP3     H222614   2.290   3.972   0.605 -0.7469  0.6883  1.3208
 3599TP3      O22615   2.323   1.992  10.108  0.8193  1.1138  0.9264
 3599TP3     H122616   2.336   1.941  10.028 -0.4776 -0.1764  1.5059
 3599TP3     H222617   2.290   2.077  10.078 -1.4251  0.0147  0.1512
 3600TP3      O22618   3.623   3.159   9.670 -0.7957  0.0294 -0.2065
 3600TP3     H122619   3.573   3.240   9.664 -0.1319  0.8535  4.0342
 3600TP3     H222620   3.704   3.177   9.623  0.0586  2.4585  2.0947
 3601TP3      O22621   3.059   3.618   8.402  0.2019  0.0576 -0.4664
 3601TP3     H122622   3.079   3.701   8.446 -1.9874 -0.2420  1.1489
 3601TP3     H222623   2.976   3.589   8.441 -0.4598 -1.5301 -2.9556
 3602TP3      O22624   3.191   1.895   1.098 -0.5441  0.4043 -0.2246
 3602TP3     H122625   3.208   1.900   1.004  0.9514  0.1229  0.0283
 3602TP3     H222626   3.195   1.802   1.119  0.6000  0.5806  0.3779
 3603TP3      O22627   0.919   3.786   9.517  0.0537 -0.2605 -0.5357
 3603TP3     H122628   0.968   3.790   9.599  0.6567  0.7735 -0.9325
 3603TP3     H222629   0.937   3.699   9.482  0.4180 -0.4208  0.0412
 3604TP3      O22630   1.542   2.290   0.331  0.6060 -0.3247  0.1111
 3604TP3     H122631   1.529   2.198   0.310  0.5993 -0.3858  0.3863
 3604TP3     H222632   1.471   2.311   0.392  0.3903 -0.0432 -0.2317
 3605TP3      O22633   2.713   0.585   1.501  0.0792  0.2042 -0.3747
 3605TP3     H122634   2.633   0.555   1.544 -0.4379  1.5472 -0.3590
 3605TP3     H222635   2.685   0.608   1.412  0.7691 -0.8260 -0.8588
 3606TP3      O22636   2.919   0.879   9.929  1.1137  0.3614  0.1093
 3606TP3     H122637   2.988   0.830   9.884  1.8389  1.3192  0.1736
 3606TP3     H222638   2.889   0.943   9.865  0.5673  0.2252  0.2240
 3607TP3      O22639   1.832   0.588   1.988  0.0134 -0.1332 -0.8955
 3607TP3     H122640   1.746   0.591   2.029 -0.8543 -0.3732 -2.6638
 3607TP3     H222641   1.849   0.494   1.976  1.1879 -0.1606  0.7789
 3608TP3      O22642   5.133   5.246   9.794 -0.5997  0.4909 -0.0524
 3608TP3     H122643   5.165   5.156   9.797 -2.0443 -0.0799 -1.4810
 3608TP3     H222644   5.052   5.241   9.743  0.3180  2.8923 -1.8081
 3609TP3      O22645   1.989   4.704   2.391 -0.1294  0.0684  0.5564
 3609TP3     H122646   1.980   4.787   2.438  0.8700  1.6233 -1.8855
 3609TP3     H222647   1.948   4.720   2.306  2.1717 -1.1581 -0.8402
 3610TP3      O22648   4.695   3.190   0.038 -0.1503  0.5450 -0.2154
 3610TP3     H122649   4.658   3.132   0.105 -0.9818  0.2958 -0.8946
 3610TP3     H222650   4.790   3.179   0.047 -0.3083 -1.0884 -0.4859
 3611TP3      O22651   1.966   4.937   1.069  0.4188  0.0909 -0.1386
 3611TP3     H122652   1.889   4.958   1.017  0.3359  1.1982  0.4201
 3611TP3     H222653   2.038   4.933   1.006  0.0186 -0.2811 -0.5687
 3612TP3      O22654   4.198   4.195   1.397 -0.3248 -0.1614  0.0198
 3612TP3     H122655   4.292   4.184   1.382 -0.4023  0.2246 -0.8107
 3612TP3     H222656   4.161   4.202   1.309 -0.9337  1.3741  0.3790
 3613TP3      O22657   4.127   0.737   1.866  0.0429  0.7434 -0.2208
 3613TP3     H122658   4.086   0.821   1.848  0.5406  0.7206 -1.4939
 3613TP3     H222659   4.080   0.704   1.943 -1.6774  1.1480 -1.0708
 3614TP3      O22660   5.473   3.846   9.819  0.3677  0.4642 -0.0598
 3614TP3     H122661   5.442   3.828   9.730  1.2625  1.8502 -0.6788
 3614TP3     H222662   5.565   3.820   9.818  0.2250 -0.0562  0.6316
 3615TP3      O22663   3.529   4.712   0.352  0.0970 -0.4152  0.2511
 3615TP3     H122664   3.582   4.649   0.401 -3.0025 -2.3964  1.1258
 3615TP3     H222665   3.457   4.735   0.410 -0.2707  1.9938 -1.0594
 3616TP3      O22666   5.228   0.211   8.761  0.3466 -0.2582 -0.5719
 3616TP3     H122667   5.222   0.288   8.818 -1.5313 -0.8580  0.0873
 3616TP3     H222668   5.267   0.144   8.816  1.4802  0.0670 -0.9789
 3617TP3      O22669   3.585   0.224   1.601  0.2784 -0.2626 -0.2921
 3617TP3     H122670   3.551   0.304   1.641 -2.1223 -1.5262  0.2984
 3617TP3     H222671   3.540   0.219   1.516 -0.6533 -1.6673  0.2607
 3618TP3      O22672   4.072   0.578  10.025 -0.2620  0.0654  0.0722
 3618TP3     H122673   4.158   0.537  10.029 -1.1381 -2.0926 -2.2074
 3618TP3     H222674   4.011   0.508  10.048 -1.4264  1.7079  2.1778
 3619TP3      O22675   1.835   4.619   9.092  0.7155  0.5974 -0.5308
 3619TP3     H122676   1.756   4.648   9.138  0.9446  0.7040 -0.2070
 3619TP3     H222677   1.812   4.532   9.059 -0.3308  1.5432 -2.3812
 3620TP3      O22678   4.286   2.928   8.981  0.1401  0.3484  0.3409
 3620TP3     H122679   4.240   2.909   9.064  0.8385 -0.8422  0.4661
 3620TP3     H222680   4.361   2.870   8.982  0.8625  1.2549 -0.5553
 3621TP3      O22681   3.656   5.156   7.910  0.1465 -0.0863 -0.2564
 3621TP3     H122682   3.692   5.207   7.837  1.2382 -1.1973 -0.5138
 3621TP3     H222683   3.573   5.199   7.931  1.3494  2.2342 -0.0123
 3622TP3      O22684   1.269   4.957   8.230 -0.0406  0.1307  0.3048
 3622TP3     H122685   1.212   5.030   8.209  1.2313  0.9144 -0.4676
 3622TP3     H222686   1.244   4.887   8.169  0.0309  0.5777 -0.2355
 3623TP3      O22687   3.981   5.330   1.104 -0.2207  0.0174 -0.1412
 3623TP3     H122688   3.954   5.327   1.012  1.5462  0.1756 -0.6915
 3623TP3     H222689   4.065   5.375   1.102  1.2356 -2.5620  1.2131
 3624TP3      O22690   1.867   0.165   8.476  0.4105  0.0453  0.0203
 3624TP3     H122691   1.812   0.189   8.401  0.5028 -0.8142 -0.3254
 3624TP3     H222692   1.807   0.168   8.550 -0.6434 -2.8901 -0.6325
 3625TP3      O22693   1.087   5.392   0.291 -0.3771 -0.2454 -0.5935
 3625TP3     H122694   0.992   5.387   0.286 -0.5075  0.2252  1.1178
 3625TP3     H222695   1.106   5.403   0.385  1.2464  1.5442 -1.0920
 3626TP3      O22696   2.797   4.968  10.025 -0.5553 -0.2040 -0.0814
 3626TP3     H122697   2.755   4.907   9.964 -1.4609  0.3933 -0.0686
 3626TP3     H222698   2.733   5.038  10.035  0.2368  0.4559  0.3594
 3627TP3      O22699   2.356   5.046   0.389 -0.1451 -0.3502 -0.3113
 3627TP3     H122700   2.365   5.135   0.353 -1.0234 -0.5946 -1.1568
 3627TP3     H222701   2.391   5.053   0.478 -0.0279  0.8012 -0.4323
 3628TP3      O22702   5.248   3.917   7.599  0.1678 -1.1506  0.0439
 3628TP3     H122703   5.334   3.908   7.640  0.8716 -1.0708 -1.3929
 3628TP3     H222704   5.237   3.838   7.548  1.7072  1.0961 -3.9937
 3629TP3      O22705   3.333   5.025   0.031 -0.5451 -0.4349 -0.6279
 3629TP3     H122706   3.283   5.099   0.064 -3.9175 -3.0771  0.4042
 3629TP3     H222707   3.340   4.965   0.105  2.1636 -1.1772 -1.4234
 3630TP3      O22708   4.477   3.218   9.199  0.1476 -0.3519  0.1807
 3630TP3     H122709   4.399   3.233   9.144  1.9282  1.1105 -2.0529
 3630TP3     H222710   4.479   3.294   9.257  0.6679  0.3596 -0.7435
 3631TP3      O22711   4.806   0.798  10.082 -0.6610  0.1042  0.0834
 3631TP3     H122712   4.810   0.882  10.038 -0.5341 -0.2827 -0.6455
 3631TP3     H222713   4.850   0.812  10.166 -0.3534  0.6737 -0.1764
 3632TP3      O22714   4.347   3.242   8.963 -0.5721 -0.1233  0.5538
 3632TP3     H122715   4.330   3.151   8.937  1.4851 -0.5498  0.5856
 3632TP3     H222716   4.261   3.277   8.985 -1.4853 -1.8649 -0.1043
 3633TP3      O22717   3.417   4.143   0.128 -0.1346 -0.7925  0.2735
 3633TP3     H122718   3.355   4.215   0.115 -0.5491 -0.8006  2.0669
 3633TP3     H222719   3.443   4.118   0.040 -0.7057  0.9334 -0.4022
 3634TP3      O22720   3.983   2.408   1.176 -0.2193  0.2418  0.3551
 3634TP3     H122721   4.066   2.398   1.130 -0.2203 -0.3149  0.4754
 3634TP3     H222722   3.920   2.358   1.125 -0.2176 -0.3883  0.9680
 3635TP3      O22723   2.592   0.245   9.683  0.1754 -0.1153  0.0442
 3635TP3     H122724   2.619   0.332   9.653  1.5042 -0.2879  0.7120
 3635TP3     H222725   2.515   0.225   9.630  0.0602  1.3181 -0.3651
 3636TP3      O22726   4.534   2.018   8.718  0.0849  0.4463  0.2758
 3636TP3     H122727   4.480   1.942   8.697  0.4692  0.6288 -1.4256
 3636TP3     H222728   4.525   2.075   8.642  0.1530  1.9153  1.3459
 3637TP3      O22729   0.885   2.412   9.785 -0.2470 -0.3214 -0.2371
 3637TP3     H122730   0.953   2.435   9.721  0.9092 -1.0289  0.7143
 3637TP3     H222731   0.899   2.319   9.802 -1.3087 -0.4098  0.1528
 3638TP3      O22732   3.352   0.934   9.331  0.0748  0.0152  0.1291
 3638TP3     H122733   3.368   0.866   9.396  0.9266 -0.5560 -0.6682
 3638TP3     H222734   3.358   1.016   9.381  2.7469 -0.3113  0.4313
 3639TP3      O22735   3.591   1.739   0.012  0.3732 -0.1781  0.3881
 3639TP3     H122736   3.570   1.828   0.040  2.2897  0.6556 -0.7502
 3639TP3     H222737   3.660   1.711   0.072  1.0752 -0.1956 -0.4202
 3640TP3      O22738   1.384   0.147   8.277  0.1003  0.1543 -0.1377
 3640TP3     H122739   1.368   0.097   8.358  0.2061  0.4329  0.0567
 3640TP3     H222740   1.313   0.120   8.219  0.9243 -1.2447 -0.5260
 3641TP3      O22741   4.847   2.752   0.162 -0.2277  0.2696  0.4442
 3641TP3     H122742   4.794   2.745   0.241  3.0500 -0.9223  2.6473
 3641TP3     H222743   4.848   2.845   0.142 -0.9190  0.6168  1.9523
 3642TP3      O22744   5.111   1.242   8.581  0.0102  0.3349  0.2658
 3642TP3     H122745   5.143   1.169   8.634  0.7993 -1.0424 -2.0757
 3642TP3     H222746   5.047   1.286   8.638 -1.1601 -2.6782  1.3564
 3643TP3      O22747   2.208   5.233   9.042  0.0599 -0.2508  0.6689
 3643TP3     H122748   2.117   5.261   9.051 -0.0870 -0.5212  0.0382
 3643TP3     H222749   2.246   5.246   9.129 -1.2677 -2.5875  1.6258
 3644TP3      O22750   1.560   0.413  10.104 -0.0097  0.0127  0.4059
 3644TP3     H122751   1.636   0.387  10.156  0.5232 -0.6064 -0.6551
 3644TP3     H222752   1.595   0.425  10.016 -0.6790  2.1597  0.3958
 3645TP3      O22753   4.759   0.672   1.542  0.0268 -0.6171  0.0356
 3645TP3     H122754   4.738   0.717   1.623 -1.0492  0.2124 -0.6884
 3645TP3     H222755   4.797   0.740   1.486  1.4938 -1.3524  0.1119
 3646TP3      O22756   2.317   4.335   8.674  0.3005  0.6078 -0.1894
 3646TP3     H122757   2.393   4.277   8.670 -1.0269 -1.1833 -0.2878
 3646TP3     H222758   2.264   4.300   8.745 -1.1901  0.8711 -1.1521
 3647TP3      O22759   3.826   4.126   0.433 -0.4556  0.6867  0.0421
 3647TP3     H122760   3.761   4.079   0.381  0.1470  0.2802 -0.3618
 3647TP3     H222761   3.776   4.169   0.502 -1.3580  1.9024 -1.3544
 3648TP3      O22762   0.634   3.638   0.519 -0.3341  0.1061  0.2956
 3648TP3     H122763   0.574   3.575   0.479 -0.6411 -0.5754  1.7821
 3648TP3     H222764   0.675   3.682   0.445 -2.8209  0.7467 -0.7616
 3649TP3      O22765   2.981   5.263   2.221 -0.7124  0.1838 -0.7681
 3649TP3     H122766   3.055   5.240   2.277 -0.2142  1.5780 -0.8476
 3649TP3     H222767   2.926   5.185   2.222 -0.8446  0.2622  1.8512
 3650TP3      O22768   5.346   5.428   0.832  0.4115  0.1171  0.3585
 3650TP3     H122769   5.276   5.424   0.897  0.3812 -1.9681  0.2168
 3650TP3     H222770   5.300   5.438   0.749  0.2764 -1.0579  0.2853
 3651TP3      O22771   1.570   3.771   0.247  0.5032 -0.2703  0.1876
 3651TP3     H122772   1.530   3.707   0.306 -1.1306 -1.8624 -2.5440
 3651TP3     H222773   1.515   3.849   0.255  0.4312 -0.3937  0.9165
 3652TP3      O22774   2.239   5.185   9.536  0.0394  0.0734  0.1745
 3652TP3     H122775   2.155   5.216   9.571  0.5260  1.7951 -0.1636
 3652TP3     H222776   2.246   5.227   9.450  2.0044  1.2391  0.8854
 3653TP3      O22777   1.308   5.397   8.795 -0.2830 -0.3028 -0.1553
 3653TP3     H122778   1.227   5.447   8.798  1.5180  2.9957 -2.8982
 3653TP3     H222779   1.373   5.455   8.835  0.7501 -2.9842  2.2560
 3654TP3      O22780   0.973   1.764   1.986 -0.5233 -0.1035  0.0547
 3654TP3     H122781   0.994   1.824   2.058  1.2645 -2.3606  1.4845
 3654TP3     H222782   1.043   1.778   1.922 -0.9849  0.4619 -0.3259
 3655TP3      O22783   2.248   1.159   8.951 -0.0564  0.2048 -0.6529
 3655TP3     H122784   2.190   1.211   9.007  1.3309  3.0240 -1.6974
 3655TP3     H222785   2.244   1.204   8.866  1.4019 -1.3044 -1.5358
 3656TP3      O22786   0.840   5.476   9.768  0.1623 -0.4762  0.0667
 3656TP3     H122787   0.839   5.456   9.674 -0.7820  0.9863 -0.2414
 3656TP3     H222788   0.804   5.398   9.809  0.4944 -1.0907 -0.7865
 3657TP3      O22789   3.213   0.159   0.716  0.3128 -0.1736 -0.2949
 3657TP3     H122790   3.182   0.237   0.762  0.5549  0.5707 -1.3696
 3657TP3     H222791   3.172   0.086   0.762 -1.7264  0.6946 -0.6395
 3658TP3      O22792   0.130   5.381   8.276  0.5479 -0.4866  0.3304
 3658TP3     H122793   0.092   5.294   8.268 -0.6519  0.0550  0.1068
 3658TP3     H222794   0.143   5.410   8.186  0.7853 -0.3522  0.4044
 3659TP3      O22795   2.346   0.906   9.020  0.0607  0.5379 -0.4375
 3659TP3     H122796   2.306   0.988   8.991  0.4366  0.8115 -0.2006
 3659TP3     H222797   2.272   0.849   9.040 -0.2602  1.6604  1.7541
 3660TP3      O22798   2.877   2.411   0.369  0.1321 -0.1434 -0.1479
 3660TP3     H122799   2.817   2.456   0.428 -0.3469  0.0021 -0.7401
 3660TP3     H222800   2.959   2.404   0.418  0.1317  1.1287  0.0419
 3661TP3      O22801   2.735   2.424   9.879  0.0787  0.1642  0.2006
 3661TP3     H122802   2.787   2.357   9.835 -0.7278  1.5432 -3.0006
 3661TP3     H222803   2.646   2.389   9.877 -0.1786  0.8424 -0.5616
 3662TP3      O22804   1.707   0.233   1.747 -0.0464 -0.1567 -0.2349
 3662TP3     H122805   1.701   0.302   1.813  0.5701  0.0773 -0.4266
 3662TP3     H222806   1.800   0.225   1.728 -0.0330 -1.6249  0.3953
 3663TP3      O22807   1.750   4.542   0.457 -0.9478  0.2426  0.2010
 3663TP3     H122808   1.844   4.558   0.456 -0.9414  0.3191  1.2783
 3663TP3     H222809   1.728   4.534   0.550 -2.1801  1.2414  0.0019
 3664TP3      O22810   0.383   4.793   1.942 -0.2139 -0.2859 -0.1618
 3664TP3     H122811   0.360   4.851   2.015 -0.3095 -0.8178  0.2292
 3664TP3     H222812   0.477   4.803   1.933  0.0609 -1.4797  1.1244
 3665TP3      O22813   3.250   4.791   9.638  0.0484  0.0079  0.5358
 3665TP3     H122814   3.278   4.791   9.546  0.3519 -0.7651  0.6245
 3665TP3     H222815   3.208   4.706   9.650 -2.8921  1.3337  0.2528
 3666TP3      O22816   2.912   4.726   9.543  0.7261  0.3037  0.1132
 3666TP3     H122817   2.976   4.667   9.584  1.0567  0.0038 -0.8281
 3666TP3     H222818   2.951   4.748   9.458 -0.5580 -0.1189 -0.5902
 3667TP3      O22819   3.662   5.297   9.806  0.2904 -0.1556 -0.0116
 3667TP3     H122820   3.723   5.364   9.837 -0.2521  0.1292  0.4427
 3667TP3     H222821   3.675   5.296   9.711 -0.2315  1.1195 -0.1038
 3668TP3      O22822   3.588   2.696   0.115 -0.4519  0.7379 -0.1921
 3668TP3     H122823   3.671   2.649   0.106  0.6290  2.8127 -1.3914
 3668TP3     H222824   3.602   2.753   0.191 -0.0304  2.5319 -1.5845
 3669TP3      O22825   2.009   1.862   0.280  0.1341 -0.1702  0.9750
 3669TP3     H122826   1.968   1.799   0.340 -0.7524 -1.0980 -0.5689
 3669TP3     H222827   1.936   1.905   0.235  0.7153  2.4015  2.4064
 3670TP3      O22828   3.409   3.631  10.227 -0.0959 -0.1626 -0.2169
 3670TP3     H122829   3.369   3.561  10.177  0.1947  0.1650 -0.9209
 3670TP3     H222830   3.337   3.669  10.277 -0.6136  0.1959 -1.2050
 3671TP3      O22831   3.842   3.411   2.600  0.0932  0.0345  0.4435
 3671TP3     H122832   3.812   3.406   2.509 -0.0953 -0.8464  0.5506
 3671TP3     H222833   3.767   3.445   2.648  0.2663  0.7146  0.2350
 3672TP3      O22834   5.289   3.966   1.320 -0.4040  0.0628 -0.5046
 3672TP3     H122835   5.193   3.964   1.321 -0.4038 -1.4061 -1.9805
 3672TP3     H222836   5.315   3.880   1.352  0.4364  0.2881 -0.5719
 3673TP3      O22837   3.616   1.611   2.230 -0.1367 -0.1308  0.4470
 3673TP3     H122838   3.669   1.668   2.174  0.8829 -1.0654  0.4388
 3673TP3     H222839   3.550   1.668   2.268  0.1593  0.8247 -0.4697
 3674TP3      O22840   2.424   1.651   1.616  0.3323 -0.4809 -0.6495
 3674TP3     H122841   2.418   1.555   1.617  1.5945 -0.5747 -0.2602
 3674TP3     H222842   2.390   1.677   1.531  0.1490 -1.2963 -0.8266
 3675TP3      O22843   4.828   4.839   0.006  0.0348  0.7707  0.1473
 3675TP3     H122844   4.880   4.912  -0.027  0.4818  0.4284  0.0820
 3675TP3     H222845   4.877   4.761  -0.020 -0.5110  0.4448  0.0927
 3676TP3      O22846   2.416   4.874   2.125 -0.6904 -0.3384 -0.3797
 3676TP3     H122847   2.322   4.874   2.107 -0.7058  0.7481 -0.3355
 3676TP3     H222848   2.422   4.865   2.220 -0.7106 -1.7416 -0.5010
 3677TP3      O22849   2.296   0.527   9.264 -0.5096  0.3420 -0.7713
 3677TP3     H122850   2.285   0.545   9.171  0.4358 -2.3793 -1.4385
 3677TP3     H222851   2.390   0.521   9.277 -0.6357  0.5995  0.3564
 3678TP3      O22852   2.002   5.095   8.453  0.2156 -0.2264  0.6220
 3678TP3     H122853   1.993   5.067   8.362  0.1059 -0.8983  0.8365
 3678TP3     H222854   2.068   5.165   8.451 -0.7268  0.6596 -0.1451
 3679TP3      O22855   5.217   5.508   0.616 -0.4072  0.2135  0.9291
 3679TP3     H122856   5.201   5.601   0.634  1.0651  0.7747 -0.5606
 3679TP3     H222857   5.208   5.500   0.521 -0.3829 -1.1441  1.0306
 3680TP3      O22858   5.383   0.282   0.962  0.4445 -0.1443  0.0428
 3680TP3     H122859   5.437   0.221   0.911  0.7857  0.6659 -0.5689
 3680TP3     H222860   5.444   0.322   1.023  0.6761  1.2277 -1.0647
 3681TP3      O22861   5.016   4.934   9.208  0.2552 -0.4120 -0.6869
 3681TP3     H122862   4.999   4.873   9.135  0.1619 -0.4412 -0.6406
 3681TP3     H222863   4.994   4.884   9.286 -1.4454  0.2310 -0.7317
 3682TP3      O22864   3.246   5.136   2.017  0.5508  0.2571  0.1172
 3682TP3     H122865   3.200   5.065   2.062  2.1292  0.3093  1.8661
 3682TP3     H222866   3.204   5.216   2.050  1.6318  0.2907  1.4817
 3683TP3      O22867   2.976   4.398   9.310 -0.0498 -0.2326 -0.3682
 3683TP3     H122868   2.995   4.333   9.378 -1.4671 -0.3326 -0.0543
 3683TP3     H222869   2.889   4.431   9.333 -0.7994 -0.6747 -2.4449
 3684TP3      O22870   0.307   0.131   9.319  0.1988  0.4412 -0.2257
 3684TP3     H122871   0.252   0.119   9.396  0.2043  2.4848  0.1292
 3684TP3     H222872   0.376   0.065   9.328  0.9523  1.4848  2.2208
 3685TP3      O22873   0.673   5.401   2.403 -0.3759 -0.6001  0.3860
 3685TP3     H122874   0.663   5.401   2.499  1.7986 -0.1915  0.6420
 3685TP3     H222875   0.644   5.488   2.376  0.0826 -0.3086  0.8140
 3686TP3      O22876   3.913   4.555   9.622  0.0526 -0.8091 -0.5322
 3686TP3     H122877   3.873   4.636   9.591  1.8309  0.6956  0.9278
 3686TP3     H222878   4.002   4.557   9.587  1.0066 -0.7263  1.7935
 3687TP3      O22879   3.971   5.252   0.310  0.4500  0.1443  0.2063
 3687TP3     H122880   3.893   5.210   0.346 -0.0572  1.8048  1.0721
 3687TP3     H222881   3.948   5.344   0.303  1.6971  0.3651 -1.2839
 3688TP3      O22882   2.398   4.382   0.299  0.1988  0.1907 -0.5097
 3688TP3     H122883   2.331   4.400   0.365  1.0729 -2.0047  1.0271
 3688TP3     H222884   2.468   4.445   0.318 -0.3877  0.8615 -0.5761
 3689TP3      O22885   2.180   0.190   9.984 -0.0293  0.0816 -0.0684
 3689TP3     H122886   2.151   0.099   9.972  1.9537 -0.5328 -0.4188
 3689TP3     H222887   2.264   0.194   9.939  0.4703  1.7796  0.9923
 3690TP3      O22888   3.939   2.658  10.070 -0.4165 -0.2507  0.6086
 3690TP3     H122889   3.928   2.563  10.073  0.0787 -0.3203  0.1518
 3690TP3     H222890   4.019   2.675  10.119  1.2252 -0.3555 -1.9728
 3691TP3      O22891   2.186   1.937   0.731  0.1441 -0.5948 -0.2373
 3691TP3     H122892   2.103   1.947   0.778 -0.0036  0.6373 -0.7333
 3691TP3     H222893   2.222   2.025   0.728  0.4982 -0.7848 -1.7992
 3692TP3      O22894   0.680   4.720   1.410  0.3641 -0.3206 -0.4794
 3692TP3     H122895   0.614   4.685   1.470  1.1022 -0.1583  0.4464
 3692TP3     H222896   0.661   4.814   1.407 -0.5203 -0.5256 -1.5800
 3693TP3      O22897   0.738   5.454   8.935 -0.0496 -0.0942  0.4317
 3693TP3     H122898   0.774   5.405   9.009 -1.1665 -2.0783 -0.2831
 3693TP3     H222899   0.648   5.474   8.962 -0.4611 -0.8338 -0.3799
 3694TP3      O22900   0.721   4.939  10.131 -0.3697 -0.2522 -0.2665
 3694TP3     H122901   0.814   4.954  10.146  0.0327 -2.2828 -0.6516
 3694TP3     H222902   0.691   4.890  10.207  0.2098 -4.7092 -2.7777
 3695TP3      O22903   2.159   0.399   2.568 -0.2531 -0.3907  0.2145
 3695TP3     H122904   2.192   0.443   2.491  0.4233  0.3865  0.9385
 3695TP3     H222905   2.172   0.306   2.550 -0.4390 -0.2350 -0.7482
 3696TP3      O22906   5.444   3.078   2.299  0.1086  0.2877  0.0633
 3696TP3     H122907   5.493   3.155   2.272 -0.5754  0.7056  0.0062
 3696TP3     H222908   5.360   3.112   2.330  0.0814 -0.3674  0.7340
 3697TP3      O22909   1.246   0.073   7.763 -0.6021 -0.3451 -0.8258
 3697TP3     H122910   1.271   0.161   7.732 -1.2975 -0.1896 -0.9548
 3697TP3     H222911   1.188   0.040   7.695  0.4458 -1.3130 -1.2665
 3698TP3      O22912   3.040   2.337  10.008  0.4016  0.3432  0.2028
 3698TP3     H122913   3.041   2.299  10.096 -2.3035 -0.0729  0.0732
 3698TP3     H222914   3.058   2.430  10.022 -0.3730  0.3431  1.2314
 3699TP3      O22915   0.252   4.158   0.607  0.0815  0.2969 -0.0098
 3699TP3     H122916   0.179   4.219   0.608 -0.5510 -0.4320 -1.0616
 3699TP3     H222917   0.213   4.074   0.581  1.1665 -0.2592  0.1201
 3700TP3      O22918   1.970   0.264   0.073  0.3549 -0.2333 -0.5067
 3700TP3     H122919   1.915   0.186   0.071 -0.5838  0.3567  1.2240
 3700TP3     H222920   1.911   0.336   0.049  0.5257  0.3066  0.6624
 3701TP3      O22921   3.989   3.912   8.339 -0.0630  0.1089  0.3261
 3701TP3     H122922   3.917   3.860   8.303  1.3727 -0.6861 -1.4635
 3701TP3     H222923   4.060   3.901   8.276  1.1359  2.1083  1.2978
 3702TP3      O22924   2.751   2.950  10.202 -0.1842 -0.0894 -0.4174
 3702TP3     H122925   2.781   3.035  10.235  1.7560 -1.0411  0.3714
 3702TP3     H222926   2.791   2.942  10.115  1.1015 -0.9274  0.2266
 3703TP3      O22927   2.538   4.773   1.905  0.1915 -0.3959  0.6836
 3703TP3     H122928   2.604   4.717   1.946 -0.2507 -2.0598 -0.7821
 3703TP3     H222929   2.495   4.817   1.977  1.0846 -1.3609  1.8272
 3704TP3      O22930   1.324   5.168   0.450  0.0346  0.8774  0.1916
 3704TP3     H122931   1.326   5.114   0.529  1.8604  1.1699  0.3562
 3704TP3     H222932   1.296   5.254   0.481 -0.3990  0.6916  0.3247
 3705TP3      O22933   3.295   0.020   7.211  0.0674  0.2593  0.0688
 3705TP3     H122934   3.346   0.100   7.230 -1.0438  1.4091 -1.6634
 3705TP3     H222935   3.325  -0.006   7.124 -0.2238 -0.7287  0.2672
 3706TP3      O22936   2.112   3.953   9.561 -0.4558  0.4467 -0.1027
 3706TP3     H122937   2.142   4.016   9.627 -1.4292 -0.1373  0.9030
 3706TP3     H222938   2.106   3.870   9.608  0.5674 -0.3654 -1.3585
 3707TP3      O22939   5.241   3.715   0.320 -0.4352  0.1024  0.4378
 3707TP3     H122940   5.255   3.722   0.414 -0.1057 -0.4799  0.4366
 3707TP3     H222941   5.319   3.755   0.281 -0.4405  0.0909  0.4154
 3708TP3      O22942   4.989   0.657   9.611 -0.4831 -0.2666  0.2283
 3708TP3     H122943   5.003   0.751   9.615  0.7437 -0.3613 -1.2942
 3708TP3     H222944   4.895   0.645   9.625 -0.9114  1.2976 -1.1639
 3709TP3      O22945   0.742   0.201   9.584 -0.0426  0.2517 -0.3071
 3709TP3     H122946   0.760   0.109   9.564 -0.6231  0.0476  0.1043
 3709TP3     H222947   0.713   0.201   9.675 -0.2990  0.8131 -0.3852
 3710TP3      O22948   1.263   5.463   9.578  0.8693 -0.4355  0.0662
 3710TP3     H122949   1.305   5.419   9.653  0.8779  1.4140  1.1634
 3710TP3     H222950   1.226   5.543   9.614 -0.2850 -0.1521 -1.6678
 3711TP3      O22951   1.179   0.142   1.143 -0.0739  0.3768  0.1737
 3711TP3     H122952   1.246   0.075   1.149 -0.5988 -0.1628  0.0905
 3711TP3     H222953   1.098   0.093   1.127 -0.8373  0.8519  2.5006
 3712TP3      O22954   3.366   5.477   1.421 -0.4624 -0.4597  0.1409
 3712TP3     H122955   3.416   5.557   1.409 -0.7038 -0.3206  0.0575
 3712TP3     H222956   3.422   5.408   1.387  0.1446 -0.4415  1.0881
 3713TP3      O22957   3.658   3.246   9.234 -0.2020  0.3293  0.0709
 3713TP3     H122958   3.720   3.232   9.162  0.5549  1.5978  0.4635
 3713TP3     H222959   3.706   3.223   9.313 -0.2952  1.0716  0.3556
 3714TP3      O22960   4.653   4.455   0.064  0.0378 -0.6741 -0.2750
 3714TP3     H122961   4.573   4.405   0.081 -0.8261  0.6364 -0.4209
 3714TP3     H222962   4.622   4.544   0.045  1.4974 -0.2830 -0.8637
 3715TP3      O22963   0.170   2.945   1.233  0.0429 -0.3767  0.5767
 3715TP3     H122964   0.190   2.922   1.142 -0.6027 -2.6368  0.9573
 3715TP3     H222965   0.245   2.997   1.262  1.1547 -1.2253 -0.7020
 3716TP3      O22966   0.062   4.462   8.196  0.3065  0.1079  0.2888
 3716TP3     H122967  -0.009   4.428   8.251  0.2630  0.4699  0.4546
 3716TP3     H222968   0.139   4.412   8.223  0.2219  0.0695  0.4591
 3717TP3      O22969   4.172   4.581   9.471 -0.1346  0.3404  0.2513
 3717TP3     H122970   4.218   4.546   9.395 -0.1285 -2.6583  1.5449
 3717TP3     H222971   4.242   4.607   9.531 -0.1464  1.2579 -0.1224
 3718TP3      O22972   3.136   4.553   1.653  0.1344  0.1380 -0.3797
 3718TP3     H122973   3.108   4.540   1.563  0.4353 -0.1541 -0.4351
 3718TP3     H222974   3.057   4.577   1.700  0.3004  2.2199 -1.0960
 3719TP3      O22975   0.886   3.955   0.547  0.5970 -0.0565 -0.6515
 3719TP3     H122976   0.926   4.021   0.603  0.9540 -0.0992 -0.8533
 3719TP3     H222977   0.869   3.880   0.605 -1.2857  0.7929 -0.0655
 3720TP3      O22978   0.066   3.595   9.143 -0.3808  0.4853  0.3572
 3720TP3     H122979  -0.008   3.536   9.133  0.8984 -0.7072 -3.0519
 3720TP3     H222980   0.139   3.538   9.168  0.0758  1.1485  0.5521
 3721TP3      O22981   2.435   3.153   0.127  0.1143  0.4542 -0.4922
 3721TP3     H122982   2.360   3.211   0.118  0.8062  1.2217 -1.5110
 3721TP3     H222983   2.460   3.159   0.219 -0.5451  0.8619 -0.3424
 3722TP3      O22984   2.281   3.533   2.145 -0.3401 -0.0810 -0.4907
 3722TP3     H122985   2.239   3.517   2.229  1.2590  0.8801  0.5278
 3722TP3     H222986   2.320   3.448   2.121  1.8509  0.3515  1.2945
 3723TP3      O22987   2.172   1.176   8.097 -0.4328  0.1075 -0.3967
 3723TP3     H122988   2.259   1.189   8.060 -0.3785  0.6846 -0.0714
 3723TP3     H222989   2.116   1.241   8.054 -0.9927 -1.1133 -1.5496
 3724TP3      O22990   3.703   4.286   0.189  0.2116  0.1507  0.1532
 3724TP3     H122991   3.625   4.238   0.218 -0.1787  0.9936  0.4909
 3724TP3     H222992   3.708   4.269   0.095  0.2413 -0.7900  0.3112
 3725TP3      O22993   2.674   2.972   0.240 -0.0210  0.5232  0.1523
 3725TP3     H122994   2.585   2.950   0.213  1.1387 -2.9744 -1.0738
 3725TP3     H222995   2.717   3.003   0.161  0.4157  0.2666  0.2852
 3726TP3      O22996   1.094   4.709   8.770  0.5890  0.6897  0.6199
 3726TP3     H122997   1.075   4.790   8.817  1.1043  2.0277 -1.4359
 3726TP3     H222998   1.058   4.723   8.682  1.4383 -0.9761 -0.0141
 3727TP3      O22999   2.969   5.096   1.129  0.1572  0.2081 -0.2535
 3727TP3     H123000   2.928   5.028   1.075 -3.0669  1.9522 -0.0952
 3727TP3     H223001   2.943   5.074   1.218 -0.3561  1.2553 -0.1356
 3728TP3      O23002   2.385   4.168   1.696  0.3484  0.5600 -0.1996
 3728TP3     H123003   2.406   4.141   1.786 -2.0778  0.9836  0.5288
 3728TP3     H223004   2.398   4.089   1.644 -1.2144 -0.5264  1.0232
 3729TP3      O23005   4.738   2.184   8.761 -0.1254 -0.3505 -0.1562
 3729TP3     H123006   4.769   2.168   8.851  0.3983  0.0631 -0.2549
 3729TP3     H223007   4.671   2.118   8.746  1.6068 -2.0947 -0.3661
 3730TP3      O23008   5.067   0.355   9.179  0.2884 -0.3547 -0.5044
 3730TP3     H123009   5.093   0.336   9.269  0.6728 -1.1105 -0.7702
 3730TP3     H223010   4.972   0.346   9.179  0.4499 -2.1520 -0.5905
 3731TP3      O23011   5.068   5.006   1.198  0.1635 -0.3204  0.1652
 3731TP3     H123012   5.000   5.018   1.132  0.9394 -2.0319 -0.9677
 3731TP3     H223013   5.135   4.952   1.155  0.8958 -1.0929  2.1945
 3732TP3      O23014   0.367   1.248   1.420 -0.4169 -0.0482  0.4289
 3732TP3     H123015   0.441   1.232   1.479 -1.0944  0.3129  1.3834
 3732TP3     H223016   0.380   1.186   1.349  0.9520  0.1918  0.4578
 3733TP3      O23017   4.567   0.708   0.209 -0.4598 -0.1874  0.2991
 3733TP3     H123018   4.487   0.679   0.164  0.1895 -0.6232 -0.5807
 3733TP3     H223019   4.561   0.803   0.210 -0.3576 -0.1621 -0.9370
 3734TP3      O23020   5.368   4.861   0.168 -0.1431 -0.5301  0.1427
 3734TP3     H123021   5.367   4.955   0.149 -2.6448 -0.0802  2.2430
 3734TP3     H223022   5.356   4.819   0.083  1.3969  1.0003 -0.8819
 3735TP3      O23023   4.500   4.101   0.273 -0.0743 -0.8561  0.1656
 3735TP3     H123024   4.466   4.178   0.227  0.5203 -1.6709 -1.6862
 3735TP3     H223025   4.449   4.098   0.354 -0.3665  1.2668  0.1122
 3736TP3      O23026   0.141   5.069   0.252  0.3213  0.1573 -0.0728
 3736TP3     H123027   0.192   5.132   0.201  3.0410 -0.9601  1.1036
 3736TP3     H223028   0.050   5.088   0.232  1.2451  1.3740 -3.3566
 3737TP3      O23029   4.338   4.403   1.179  0.1062  0.1461 -0.5775
 3737TP3     H123030   4.308   4.493   1.184  2.4534  0.9468 -0.6697
 3737TP3     H223031   4.415   4.399   1.235  0.6977 -1.5111 -1.4583
 3738TP3      O23032   0.045   3.275   9.283  0.1729 -0.3068  0.3308
 3738TP3     H123033  -0.030   3.312   9.329  0.3308 -1.1014  1.2291
 3738TP3     H223034   0.114   3.342   9.292 -0.1919  0.0990  0.1291
 3739TP3      O23035   4.108   3.309   0.136 -0.2400 -0.4426 -0.4806
 3739TP3     H123036   4.023   3.294   0.176 -0.4054 -0.0379 -0.6766
 3739TP3     H223037   4.091   3.373   0.067  0.1490 -0.6761 -0.7966
 3740TP3      O23038   4.490   5.510  10.124  0.0173 -0.0964  0.0064
 3740TP3     H123039   4.433   5.465  10.062 -1.3535  1.1194  0.3578
 3740TP3     H223040   4.489   5.602  10.097 -0.2485  0.3769  1.5319
 3741TP3      O23041   0.275   0.860   9.935 -0.6697 -0.1254  0.3428
 3741TP3     H123042   0.319   0.924   9.879  1.6103  1.9544  4.2890
 3741TP3     H223043   0.186   0.894   9.946 -0.9470 -0.2268 -1.3865
 3742TP3      O23044   4.378   4.024   0.935  0.3682 -0.6361 -0.5284
 3742TP3     H123045   4.286   4.018   0.961  1.0611 -2.4625  1.7046
 3742TP3     H223046   4.395   3.942   0.890  1.1474 -0.7630 -0.0115
 3743TP3      O23047   3.296   2.987  10.038 -0.4327 -0.1560  0.0676
 3743TP3     H123048   3.335   2.905  10.067 -0.2731  0.6273  2.1647
 3743TP3     H223049   3.367   3.032   9.990  0.7695  0.5096  2.3928
 3744TP3      O23050   0.074   0.633  10.125  0.5212  0.3038  0.3848
 3744TP3     H123051  -0.018   0.618  10.105  0.6231  0.1338  0.0491
 3744TP3     H223052   0.078   0.726  10.147  0.8936  1.1834 -3.1008
 3745TP3      O23053   4.251   5.017  10.161 -0.3728  0.0067 -0.4138
 3745TP3     H123054   4.157   4.998  10.163 -0.0851 -1.3266  2.1651
 3745TP3     H223055   4.292   4.934  10.186  1.4499  0.9803 -0.1362
 3746TP3      O23056   5.406   2.544   9.735 -0.3496  0.2399  0.2913
 3746TP3     H123057   5.349   2.512   9.665  0.4529  0.5803 -0.5236
 3746TP3     H223058   5.489   2.499   9.720 -0.7387 -1.1716  2.1843
 3747TP3      O23059   4.763   0.018   9.126  0.1730  0.5148  0.1351
 3747TP3     H123060   4.768  -0.077   9.142  0.8630  0.7804  1.6179
 3747TP3     H223061   4.697   0.027   9.058 -1.1417 -0.9218  1.1634
 3748TP3      O23062   5.089   5.231  10.078  0.0712  0.6160 -0.0123
 3748TP3     H123063   5.116   5.246   9.988 -0.8919  0.9625 -0.2464
 3748TP3     H223064   5.010   5.284  10.089  0.2773  0.7212  1.0836
 3749TP3      O23065   3.428   1.392   0.488  0.1341  0.1958  0.9616
 3749TP3     H123066   3.419   1.426   0.577 -1.7105  1.7712  0.2146
 3749TP3     H223067   3.431   1.471   0.433 -2.3492 -0.7910 -0.6545
 3750TP3      O23068   4.937   1.920  10.103 -0.0029 -0.2711  0.3472
 3750TP3     H123069   4.943   1.898  10.196  1.4437  0.1326  0.3552
 3750TP3     H223070   4.994   1.856  10.059  2.6236  2.1146  0.1693
 3751TP3      O23071   0.617   4.760  10.303  0.5041  0.2355  0.3951
 3751TP3     H123072   0.637   4.667  10.309 -3.5253 -0.7466  0.5599
 3751TP3     H223073   0.550   4.774  10.370 -0.4904  2.7791 -1.0583
 3752TP3      O23074   3.605   3.144   8.300  0.6720 -0.3805 -0.0546
 3752TP3     H123075   3.620   3.055   8.268  0.2686 -0.2250 -0.6775
 3752TP3     H223076   3.602   3.198   8.221 -2.1654 -0.2642  0.0866
 3753TP3      O23077   5.109   4.265   1.170 -0.4604 -0.2993 -0.5126
 3753TP3     H123078   5.198   4.299   1.179 -1.2732  2.3458 -1.6731
 3753TP3     H223079   5.073   4.269   1.259  0.6663 -1.6611  0.0116
 3754TP3      O23080   1.632   0.810   1.522  0.4729  0.7912  0.5488
 3754TP3     H123081   1.632   0.753   1.598 -0.2557 -0.5964 -0.4742
 3754TP3     H223082   1.562   0.777   1.467 -0.6910  3.3477  0.4240
 3755TP3      O23083   5.431   1.355   9.671 -0.3014 -0.0163  0.6359
 3755TP3     H123084   5.481   1.419   9.621  0.9012 -0.6300  1.0404
 3755TP3     H223085   5.363   1.407   9.714  0.4738  0.9529  0.7257
 3756TP3      O23086   5.108   4.285   9.628 -0.2274  0.3582 -0.0363
 3756TP3     H123087   5.174   4.336   9.676  0.2488  0.0445 -0.3566
 3756TP3     H223088   5.081   4.343   9.557 -1.2073  0.9729  0.8170
 3757TP3      O23089   5.389   1.704   8.999 -0.8496  0.1219 -0.0397
 3757TP3     H123090   5.340   1.623   9.012  0.5779 -0.6654  0.4636
 3757TP3     H223091   5.422   1.727   9.086  1.2363 -0.3739 -0.6705
 3758TP3      O23092   5.432   4.870   8.467  0.6774 -0.4075  0.0477
 3758TP3     H123093   5.482   4.827   8.398  2.2301 -1.9126  2.0497
 3758TP3     H223094   5.476   4.953   8.481  0.8711 -0.4694 -0.1979
 3759TP3      O23095   4.356   2.960  10.063  0.2793  0.3425  0.0574
 3759TP3     H123096   4.395   3.046  10.076  0.4887  0.0866  1.2125
 3759TP3     H223097   4.371   2.914  10.146 -0.4358 -0.5601 -0.3004
 3760TP3      O23098   0.177   0.704   0.570 -0.0396  0.7073  0.5248
 3760TP3     H123099   0.125   0.748   0.503 -1.3885 -1.2944  0.2284
 3760TP3     H223100   0.245   0.659   0.521  0.8694  1.7887  0.7705
 3761TP3      O23101   1.136   3.897   1.335 -0.1202  0.2990 -0.2788
 3761TP3     H123102   1.048   3.864   1.353  0.0962 -0.0759  0.1017
 3761TP3     H223103   1.183   3.886   1.418  0.8090 -1.2046 -0.9966
 3762TP3      O23104   0.382   1.759   8.973 -0.3952 -0.2888  0.3132
 3762TP3     H123105   0.343   1.836   8.931 -0.4765 -0.4822  0.0295
 3762TP3     H223106   0.389   1.694   8.902  1.7194  0.2062  0.0274
 3763TP3      O23107   4.898   1.122   0.460  0.0443 -0.3875  0.2688
 3763TP3     H123108   4.882   1.210   0.495 -1.2555 -1.3626  2.2013
 3763TP3     H223109   4.907   1.136   0.365  2.9506  2.2118  0.8141
 3764TP3      O23110   4.132   4.468   2.345  0.0855  0.2198  0.1287
 3764TP3     H123111   4.170   4.469   2.258 -0.5148  0.7181 -0.1351
 3764TP3     H223112   4.048   4.514   2.335  0.1624  0.5632  1.0307
 3765TP3      O23113   0.836   4.248   9.181 -0.4259  0.6554  0.7347
 3765TP3     H123114   0.825   4.293   9.265 -0.9618  0.9308  0.5207
 3765TP3     H223115   0.790   4.165   9.192 -1.0408  0.9665  0.4967
 3766TP3      O23116   5.391   4.702  10.242  0.0514  0.2424  0.9669
 3766TP3     H123117   5.482   4.713  10.214 -0.0421 -0.9361  0.1648
 3766TP3     H223118   5.379   4.607  10.247 -1.6206  0.3589 -0.5512
 3767TP3      O23119   3.536   0.317   0.524 -0.5956 -0.2795 -0.2367
 3767TP3     H123120   3.446   0.288   0.540 -1.0349  1.0633 -0.2064
 3767TP3     H223121   3.539   0.336   0.430 -0.5053  0.2380 -0.1283
 3768TP3      O23122   4.956   5.156   2.282 -0.1372 -0.1641  0.0427
 3768TP3     H123123   4.965   5.220   2.212 -0.6765  0.0594  0.1711
 3768TP3     H223124   4.863   5.161   2.307  0.2550  0.4939  1.4619
 3769TP3      O23125   1.194   4.557   8.413  0.0366  0.3081 -0.7502
 3769TP3     H123126   1.127   4.562   8.344 -1.1814  1.4409  0.5041
 3769TP3     H223127   1.149   4.584   8.493  1.8061  0.3728  0.2488
 3770TP3      O23128   0.007   0.185   8.320 -0.6269  0.2996 -1.1385
 3770TP3     H123129   0.089   0.157   8.361 -1.2176  0.8689  0.4857
 3770TP3     H223130  -0.057   0.119   8.346 -1.1007  0.8954 -0.7503
 3771TP3      O23131   3.337   0.545  10.225  0.2560 -0.4685  0.2774
 3771TP3     H123132   3.257   0.587  10.194 -0.4315 -1.6171  0.4623
 3771TP3     H223133   3.308   0.463  10.265  1.2342  0.4595  3.0205
 3772TP3      O23134   4.080   3.596   3.065 -0.6136  0.3701  0.2644
 3772TP3     H123135   4.166   3.636   3.083  0.9626 -1.5656 -2.6854
 3772TP3     H223136   4.052   3.636   2.983 -1.7002 -0.3848  0.2673
 3773TP3      O23137   5.408   4.030   1.067  0.4471 -0.0330  0.3474
 3773TP3     H123138   5.466   3.960   1.036  0.8905 -0.5477  2.2299
 3773TP3     H223139   5.368   3.993   1.146 -0.8291  1.1152  0.2399
 3774TP3      O23140   3.768   1.881   0.487  0.5043 -0.0675  0.2688
 3774TP3     H123141   3.770   1.791   0.520  2.1805  0.3187  1.3168
 3774TP3     H223142   3.703   1.925   0.542  2.8284  0.4122  2.7868
 3775TP3      O23143   2.963   5.364  10.119 -0.2703 -0.1827  0.1822
 3775TP3     H123144   3.042   5.402  10.155 -1.4352  0.6556  1.9323
 3775TP3     H223145   2.921   5.435  10.071 -1.4801  0.2502  1.8339
 3776TP3      O23146   1.036   4.154   9.512 -0.0812 -0.5276  0.2342
 3776TP3     H123147   1.043   4.226   9.576 -0.1462 -1.2163  1.0267
 3776TP3     H223148   0.953   4.169   9.469  0.9040  1.1275 -1.1528
 3777TP3      O23149   1.026   2.638   0.439  0.6756  0.3645 -0.4360
 3777TP3     H123150   1.076   2.577   0.385  0.1555 -0.1321 -0.3568
 3777TP3     H223151   0.954   2.585   0.475 -0.9078  1.4897 -1.9021
 3778TP3      O23152   5.040   0.308   2.510  0.2119  0.4116 -0.0269
 3778TP3     H123153   5.024   0.306   2.416  1.6870  0.9077 -0.3031
 3778TP3     H223154   5.113   0.247   2.523 -0.7131 -0.5045  0.9477
 3779TP3      O23155   4.612   1.301   1.428 -0.9468  0.6917 -0.1269
 3779TP3     H123156   4.668   1.293   1.506  1.0414  0.9965 -1.4919
 3779TP3     H223157   4.523   1.288   1.461 -0.1566  1.0728  2.2425
 3780TP3      O23158   3.624   4.978   0.316 -0.0893 -0.4939  0.7407
 3780TP3     H123159   3.561   4.906   0.303  0.2084 -0.3951 -1.4819
 3780TP3     H223160   3.570   5.051   0.346 -0.9034 -0.7260 -0.1159
 3781TP3      O23161   3.528   2.346   1.126 -0.2154  0.0914 -0.2442
 3781TP3     H123162   3.467   2.317   1.058  1.2626 -0.5125 -1.3370
 3781TP3     H223163   3.496   2.303   1.205  0.3628 -2.4170 -1.3222
 3782TP3      O23164   3.397   3.854   9.032 -0.6039 -0.2934  0.0504
 3782TP3     H123165   3.453   3.927   9.059  1.0688 -1.4700 -0.1606
 3782TP3     H223166   3.432   3.828   8.947 -3.0167  0.4992 -1.2338
 3783TP3      O23167   5.128   4.571   1.291 -0.2581 -0.3046 -0.6159
 3783TP3     H123168   5.201   4.570   1.229  1.6552  1.9891  1.5553
 3783TP3     H223169   5.066   4.634   1.253  1.4848  2.0808  0.3721
 3784TP3      O23170   4.396   0.729   9.582 -0.2947 -0.1824 -0.3565
 3784TP3     H123171   4.479   0.777   9.577 -0.5964  0.5651  1.6131
 3784TP3     H223172   4.379   0.703   9.491  2.6551 -1.3283 -0.6429
 3785TP3      O23173   4.894   5.013   1.013 -0.3868  0.2487  0.6275
 3785TP3     H123174   4.908   5.022   0.919  0.0228  1.3999  0.7959
 3785TP3     H223175   4.800   5.026   1.025 -0.1634  1.8851  0.5877
 3786TP3      O23176   0.013   3.979   7.657 -0.4095  0.0241  0.0326
 3786TP3     H123177  -0.004   3.888   7.632 -2.9526  0.3513  0.3679
 3786TP3     H223178   0.091   3.975   7.712  1.5462 -1.4983 -2.7387
 3787TP3      O23179   4.722   3.447   0.201  0.2949 -0.7854 -0.8612
 3787TP3     H123180   4.799   3.476   0.251  0.5000  1.3193 -2.3273
 3787TP3     H223181   4.749   3.454   0.110 -1.3955 -0.7100 -1.3684
 3788TP3      O23182   3.682   3.609   9.784  0.2827  0.3792 -0.3954
 3788TP3     H123183   3.650   3.697   9.762  2.2887  0.8769 -1.4678
 3788TP3     H223184   3.721   3.619   9.871 -2.3881 -0.2350  0.9261
 3789TP3      O23185   3.790   5.006   0.731 -0.2548  0.1411 -0.3516
 3789TP3     H123186   3.722   5.055   0.686 -0.0436 -1.6777 -2.8110
 3789TP3     H223187   3.861   5.001   0.667  0.6303 -1.3171  0.7204
 3790TP3      O23188   4.418   3.573   8.240  0.2990 -0.9399 -0.0019
 3790TP3     H123189   4.368   3.499   8.203 -1.6950 -0.5532  1.7696
 3790TP3     H223190   4.369   3.596   8.320  2.0925  0.9398  0.5846
 3791TP3      O23191   3.399   0.298   9.887  0.0642 -0.2538  0.1457
 3791TP3     H123192   3.430   0.223   9.938 -0.0121 -0.0102  0.5439
 3791TP3     H223193   3.460   0.369   9.909 -0.8388  0.2510  0.9907
 3792TP3      O23194   3.498   0.812   8.921  0.3428  0.3138  0.2055
 3792TP3     H123195   3.560   0.872   8.963  2.0941 -1.0098 -0.4168
 3792TP3     H223196   3.495   0.839   8.830 -1.5160  1.5924  0.6210
 3793TP3      O23197   5.181   3.627   2.396 -0.0226 -0.3793  0.0265
 3793TP3     H123198   5.152   3.602   2.308 -1.4502 -1.5826  0.8181
 3793TP3     H223199   5.273   3.601   2.399  0.2613  0.3739 -1.3545
 3794TP3      O23200   3.943   2.542   0.603 -0.5115 -0.1912  0.4067
 3794TP3     H123201   4.002   2.500   0.540 -2.3611  0.4450 -1.8414
 3794TP3     H223202   3.987   2.623   0.627 -1.0277  0.9787 -2.3607
 3795TP3      O23203   5.210   1.331   9.433  0.1858 -0.3281  0.6820
 3795TP3     H123204   5.258   1.343   9.515 -0.3468 -0.2008  0.9766
 3795TP3     H223205   5.277   1.336   9.365  1.0592 -3.1910  1.2509
 3796TP3      O23206   2.664   4.018   9.435 -0.4558  0.3206 -0.1500
 3796TP3     H123207   2.655   3.959   9.511 -0.4880  1.0837  0.4392
 3796TP3     H223208   2.753   4.002   9.404 -0.2737  0.3583  0.3428
 3797TP3      O23209   0.400   3.670   1.398  0.5432  0.6850  0.2843
 3797TP3     H123210   0.408   3.586   1.353  0.6407  0.6606  0.3463
 3797TP3     H223211   0.347   3.652   1.475 -0.1750  0.8594 -0.1631
 3798TP3      O23212   4.901   3.842  10.055  0.0334  0.1969  0.0413
 3798TP3     H123213   4.916   3.790  10.134 -0.0642 -0.1586 -0.1741
 3798TP3     H223214   4.806   3.853  10.050  0.0642  0.5506  0.1839
 3799TP3      O23215   0.197   0.749   1.273  0.7672  0.2191  0.0938
 3799TP3     H123216   0.177   0.838   1.302  0.4135  0.1029  0.2112
 3799TP3     H223217   0.113   0.703   1.278  0.8208  0.0481 -0.5732
 3800TP3      O23218   3.581   5.046   8.171  0.4543 -0.5004  0.0839
 3800TP3     H123219   3.586   5.080   8.081 -1.8664 -0.9853 -0.2579
 3800TP3     H223220   3.488   5.049   8.192  0.9347 -0.8196  2.3342
 3801TP3      O23221   3.847   3.567   8.958  0.0383 -0.8333 -0.3561
 3801TP3     H123222   3.763   3.529   8.932  0.3167 -1.4893 -0.3007
 3801TP3     H223223   3.887   3.596   8.877 -0.0516 -0.9030 -0.4251
 3802TP3      O23224   3.896   4.219   9.810  0.1714  0.0971 -0.0087
 3802TP3     H123225   3.966   4.238   9.749 -1.1187  0.1277 -1.5003
 3802TP3     H223226   3.837   4.160   9.762 -1.1326  0.5555  0.9923
 3803TP3      O23227   0.430   4.983   1.189 -0.0939  0.1912  0.2566
 3803TP3     H123228   0.346   5.002   1.231  0.1642  2.0825 -0.0404
 3803TP3     H223229   0.407   4.942   1.106 -0.7700  1.6970 -0.3172
 3804TP3      O23230   4.290   3.334   9.514 -0.0163 -0.4310 -0.0458
 3804TP3     H123231   4.272   3.357   9.423 -0.1173  1.6043  0.4614
 3804TP3     H223232   4.256   3.408   9.564  2.1795 -0.4195  1.4770
 3805TP3      O23233   4.973   1.237   0.195 -0.1375 -0.0894  0.1504
 3805TP3     H123234   4.938   1.324   0.213 -0.4268 -0.4456  1.2940
 3805TP3     H223235   5.047   1.253   0.136 -0.2735  0.9101  0.2483
 3806TP3      O23236   5.396   4.808   9.798 -0.0435 -0.1216  0.0003
 3806TP3     H123237   5.464   4.844   9.741 -0.2127  0.5823  0.2291
 3806TP3     H223238   5.441   4.745   9.854  0.3168 -0.0583 -0.2234
 3807TP3      O23239   4.838   2.018   9.829  0.6220 -0.1927 -0.6753
 3807TP3     H123240   4.932   2.029   9.841  0.3562  2.1867 -0.4506
 3807TP3     H223241   4.804   2.005   9.917  0.6507 -0.3356 -0.6856
 3808TP3      O23242   3.448   4.924   8.573  0.3911 -0.4043  0.2896
 3808TP3     H123243   3.540   4.920   8.545  0.3009 -0.0997 -0.0509
 3808TP3     H223244   3.398   4.901   8.495  0.1612 -0.1635  0.3650
 3809TP3      O23245   0.850   5.227   8.596  0.4324  0.0920 -0.1275
 3809TP3     H123246   0.871   5.320   8.600 -0.7767  0.4007 -0.5769
 3809TP3     H223247   0.924   5.187   8.551  0.1086  1.1248 -1.6002
 3810TP3      O23248   2.554   5.344   2.633  0.2304 -0.4982  0.4664
 3810TP3     H123249   2.610   5.272   2.601  0.1352 -1.0867  1.6084
 3810TP3     H223250   2.481   5.300   2.676 -0.9499  0.2794 -0.6964
 3811TP3      O23251   4.404   3.954   0.045  0.1560 -0.2139 -0.0075
 3811TP3     H123252   4.433   4.016   0.112  0.7573  0.7548 -1.1358
 3811TP3     H223253   4.441   3.989  -0.037 -0.8858 -1.1635 -0.8948
 3812TP3      O23254   0.500   5.086   2.026  0.2700  0.1868 -0.2156
 3812TP3     H123255   0.556   5.008   2.027  0.9791  0.6150 -2.6924
 3812TP3     H223256   0.554   5.154   2.068  0.4629 -0.1291  0.0536
 3813TP3      O23257   5.009   2.856   9.260  0.1365  0.0181 -0.3171
 3813TP3     H123258   5.012   2.786   9.325 -0.9059 -0.5423 -0.8632
 3813TP3     H223259   5.029   2.813   9.177 -1.7252  0.1265 -0.8399
 3814TP3      O23260   3.514   1.204   1.484 -0.2755  0.0562  0.2009
 3814TP3     H123261   3.558   1.204   1.398 -0.5928 -1.3321  0.0290
 3814TP3     H223262   3.450   1.134   1.478 -1.8219  1.3886  0.8314
 3815TP3      O23263   2.863   2.136   8.290 -0.3330  0.5452 -0.3207
 3815TP3     H123264   2.802   2.207   8.308  0.0101 -0.0920  3.7916
 3815TP3     H223265   2.949   2.170   8.316  0.6381  0.2816 -2.9588
 3816TP3      O23266   4.242   3.912  10.143 -0.0293  0.0310 -0.5042
 3816TP3     H123267   4.312   3.976  10.131 -1.1894  1.2428 -1.0294
 3816TP3     H223268   4.228   3.908  10.237 -1.0934  1.8557 -0.5564
 3817TP3      O23269   0.363   4.993  10.304  0.0507 -0.2046 -0.3360
 3817TP3     H123270   0.440   5.050  10.303 -0.8872  1.1390  0.9816
 3817TP3     H223271   0.385   4.924  10.367  0.2229  0.1040 -0.0583
 3818TP3      O23272   4.549   3.913   1.285 -0.1442  0.1366  0.1747
 3818TP3     H123273   4.501   3.947   1.210 -1.0958  0.1767  0.7906
 3818TP3     H223274   4.526   3.972   1.357 -1.5911 -1.6061  1.1925
 3819TP3      O23275   5.266   0.657   9.453  0.3092  0.0392  0.0699
 3819TP3     H123276   5.259   0.702   9.368  2.0897  1.1604  0.4862
 3819TP3     H223277   5.176   0.650   9.483 -0.2610  0.6391 -1.4076
 3820TP3      O23278   0.294   1.206   0.901  0.7289  0.1425  0.5308
 3820TP3     H123279   0.271   1.114   0.909  0.5798  0.1998  0.7749
 3820TP3     H223280   0.291   1.224   0.807  1.0034 -0.1619  0.4616
 3821TP3      O23281   4.348   0.115   7.875  0.3857  0.1040 -0.2113
 3821TP3     H123282   4.329   0.046   7.939 -0.2854 -0.8009 -1.3751
 3821TP3     H223283   4.310   0.194   7.914  2.0458  0.0390  1.6026
 3822TP3      O23284   5.337   0.529   1.985 -0.3008  0.5545 -0.1382
 3822TP3     H123285   5.404   0.554   2.050 -0.3415 -1.0413  0.5418
 3822TP3     H223286   5.371   0.563   1.902  1.2252  0.0032  0.2410
 3823TP3      O23287   1.058   0.846   8.351 -0.3433  0.1421  0.3245
 3823TP3     H123288   0.989   0.863   8.287  0.7898  0.9446 -0.7067
 3823TP3     H223289   1.011   0.824   8.431 -1.7885 -0.6262 -0.7007
 3824TP3      O23290   1.438   3.885   8.795  0.0563 -0.8861 -0.0915
 3824TP3     H123291   1.345   3.897   8.809 -0.0500 -2.5873  0.7766
 3824TP3     H223292   1.450   3.896   8.701 -0.5378  2.2706  0.1631
 3825TP3      O23293   3.515   5.303   0.861 -0.1775  0.0758 -0.6054
 3825TP3     H123294   3.528   5.398   0.870  0.3239 -0.1345  1.1162
 3825TP3     H223295   3.448   5.282   0.925 -0.5648 -0.6921 -1.2556
 3826TP3      O23296   4.625   4.217   8.356 -0.1930 -0.4372  0.2059
 3826TP3     H123297   4.628   4.127   8.325 -0.6895 -0.7751  1.1258
 3826TP3     H223298   4.572   4.214   8.436  1.6782  0.3003  1.5219
 3827TP3      O23299   1.679   0.547   8.661 -0.3816  0.4379  0.5989
 3827TP3     H123300   1.603   0.606   8.657 -0.2557  0.5206 -1.0659
 3827TP3     H223301   1.745   0.589   8.606  0.3721 -0.3277  0.9092
 3828TP3      O23302   5.295   0.003   1.966 -0.0976  0.0952  0.4629
 3828TP3     H123303   5.341  -0.042   2.037  1.9537 -0.4719 -1.1750
 3828TP3     H223304   5.203  -0.017   1.982  0.5575 -2.6975  1.1840
 3829TP3      O23305   5.064   3.140   0.745  0.0003  0.1637 -0.2558
 3829TP3     H123306   5.143   3.114   0.792  0.7595 -1.2007 -2.2213
 3829TP3     H223307   4.994   3.085   0.782  0.4305 -0.3361 -0.1865
 3830TP3      O23308   4.064   5.088   9.571 -0.0124  0.4411  0.1999
 3830TP3     H123309   4.040   5.096   9.664 -0.0471 -0.2734  0.2519
 3830TP3     H223310   4.159   5.097   9.571  0.1001 -0.7253  0.4363
 3831TP3      O23311   3.608   4.825   8.893  0.4114 -0.5394  0.1226
 3831TP3     H123312   3.645   4.866   8.972  0.6921 -0.8223  0.1361
 3831TP3     H223313   3.684   4.807   8.838  0.1277  0.6317 -0.6774
 3832TP3      O23314   4.933   4.757   9.414 -0.3915 -0.8989  1.0659
 3832TP3     H123315   4.852   4.722   9.379  0.7822 -0.2324 -2.5288
 3832TP3     H223316   4.989   4.681   9.427  0.0899 -0.9790 -1.1809
 3833TP3      O23317   4.981   4.642  10.229  0.0052 -0.2270  0.2340
 3833TP3     H123318   5.048   4.633  10.162  0.2941 -0.9165  0.6158
 3833TP3     H223319   4.946   4.554  10.241 -1.6323  0.2870 -0.6368
 3834TP3      O23320   2.562   0.482   9.277  0.0328 -0.1942 -0.5827
 3834TP3     H123321   2.647   0.511   9.245 -1.2705  2.6626 -1.6249
 3834TP3     H223322   2.579   0.449   9.365  2.0736  1.2951 -0.3968
 3835TP3      O23323   4.694   3.637   0.636 -0.0449 -0.1380  0.6386
 3835TP3     H123324   4.684   3.677   0.549 -0.5816  0.2210  0.8582
 3835TP3     H223325   4.667   3.546   0.624 -1.0782  0.1589  0.6348
 3836TP3      O23326   5.295   4.732   1.676 -0.3291  0.0496 -0.3585
 3836TP3     H123327   5.365   4.682   1.719  2.1665  2.7011 -1.1527
 3836TP3     H223328   5.233   4.751   1.745  1.8644  1.2090  1.3629
 3837TP3      O23329   0.115   5.407   1.509 -0.5379 -0.3024 -0.2770
 3837TP3     H123330   0.113   5.402   1.413 -1.3985  1.7236 -0.3866
 3837TP3     H223331   0.023   5.401   1.535 -0.1878 -2.6231  0.5567
 3838TP3      O23332   1.900   3.099   0.500 -0.5727 -0.4479 -0.2367
 3838TP3     H123333   1.972   3.036   0.510 -0.7962 -0.8944 -1.3623
 3838TP3     H223334   1.864   3.107   0.588  0.8994 -0.1484  0.3650
 3839TP3      O23335   3.800   5.118   0.461 -0.0266 -0.6451  0.4748
 3839TP3     H123336   3.757   5.042   0.423 -0.6925  0.3492 -0.7931
 3839TP3     H223337   3.729   5.179   0.480  0.5923  0.0858  0.4861
 3840TP3      O23338   4.971   5.043  10.250 -0.0819 -0.6292  0.3493
 3840TP3     H123339   5.016   5.085  10.323 -0.9913  0.3334  0.3701
 3840TP3     H223340   4.989   5.099  10.175  2.0844 -2.4040 -0.5107
 3841TP3      O23341   3.524   5.081   9.394 -0.1328 -0.0841 -0.2953
 3841TP3     H123342   3.477   5.121   9.320 -1.5814  0.2528  0.7759
 3841TP3     H223343   3.495   4.990   9.394 -0.0448 -0.1120 -0.2192
 3842TP3      O23344   3.461   4.575   2.268 -0.3095  0.8031 -0.0036
 3842TP3     H123345   3.546   4.589   2.227  0.7270 -2.4660  0.8874
 3842TP3     H223346   3.424   4.498   2.224 -2.0291  1.1233  0.8044
 3843TP3      O23347   2.364   1.233   1.863 -0.1081 -0.3037 -0.2277
 3843TP3     H123348   2.300   1.293   1.900  1.5424  2.2700 -1.4497
 3843TP3     H223349   2.379   1.265   1.774  1.3807 -2.0805 -0.6608
 3844TP3      O23350   3.757   0.850   9.492 -0.3430 -0.4709  0.8107
 3844TP3     H123351   3.689   0.917   9.489  0.0386 -0.1556 -2.1167
 3844TP3     H223352   3.836   0.897   9.517 -0.7919 -0.4784  2.2556
 3845TP3      O23353   4.621   4.885  10.154 -0.2071  0.3378 -0.1604
 3845TP3     H123354   4.686   4.879  10.224 -0.3016 -0.4588 -0.1422
 3845TP3     H223355   4.569   4.805  10.162  0.7388 -0.4778 -2.0907
 3846TP3      O23356   0.942   4.891   1.729 -0.4948 -0.0273  0.2424
 3846TP3     H123357   0.973   4.817   1.781  0.0674 -1.0257 -1.4513
 3846TP3     H223358   0.852   4.869   1.706 -0.7482  0.4191  0.7901
 3847TP3      O23359   0.418   4.642   9.892  0.5077  0.3009  0.3452
 3847TP3     H123360   0.402   4.686   9.808 -1.3817 -1.7265 -0.4131
 3847TP3     H223361   0.398   4.708   9.958 -0.7191  1.0920 -0.7908
 3848TP3      O23362   2.644   4.871   1.649  0.1724 -0.4933  0.2483
 3848TP3     H123363   2.595   4.865   1.731 -0.1990 -0.8752 -0.0005
 3848TP3     H223364   2.710   4.802   1.656  0.0186 -0.6517  0.1471
 3849TP3      O23365   4.164   1.833   8.419  0.1054 -0.1147 -0.3679
 3849TP3     H123366   4.069   1.832   8.408  0.3177 -0.0978 -2.4215
 3849TP3     H223367   4.198   1.858   8.333  1.9438  0.7259  0.5725
 3850TP3      O23368   4.757   0.273   9.618  0.2497  0.2449  0.3899
 3850TP3     H123369   4.718   0.243   9.700 -1.2149  1.5364  0.1928
 3850TP3     H223370   4.742   0.368   9.618  2.0735  0.5643 -0.4134
 3851TP3      O23371   3.446   0.966   2.418  0.6718 -0.0114  0.4647
 3851TP3     H123372   3.509   0.970   2.346  0.0987  2.0251  0.0563
 3851TP3     H223373   3.366   1.007   2.383 -0.1652 -0.5430  1.7013
 3852TP3      O23374   4.003   4.633   0.515 -0.4888 -0.0250 -0.0159
 3852TP3     H123375   3.948   4.597   0.445 -0.9227 -1.8058  1.2078
 3852TP3     H223376   3.945   4.639   0.591  0.8192 -1.2553  1.0963
 3853TP3      O23377   1.452   4.225   0.440 -0.6253 -0.3605 -0.5357
 3853TP3     H123378   1.525   4.225   0.502 -0.9227 -0.7517 -0.1798
 3853TP3     H223379   1.376   4.249   0.493 -0.4958  1.6102 -1.2221
 3854TP3      O23380   2.320   1.471   8.898  0.4984  0.0678 -0.2729
 3854TP3     H123381   2.228   1.497   8.886  0.5849  0.5646  0.1282
 3854TP3     H223382   2.343   1.429   8.815  0.0465  0.3588 -0.5567
 3855TP3      O23383   5.135   5.335   9.265 -0.1824 -0.5059  0.1841
 3855TP3     H123384   5.126   5.351   9.171 -0.3908 -0.5222  0.1992
 3855TP3     H223385   5.075   5.262   9.282 -1.4944  0.6715  0.6539
 3856TP3      O23386   2.416   4.132   9.488  0.5568 -0.4354  0.3737
 3856TP3     H123387   2.420   4.069   9.561  1.8231 -0.2403  0.4914
 3856TP3     H223388   2.501   4.122   9.444 -0.0261 -0.2383 -0.8162
 3857TP3      O23389   0.305   0.376   8.948 -0.0168 -0.0376  0.2967
 3857TP3     H123390   0.308   0.282   8.932  2.4057  0.0701 -0.1258
 3857TP3     H223391   0.315   0.385   9.043  0.8915 -0.1879  0.2221
 3858TP3      O23392   2.691   1.134   9.337 -0.0189  0.2557  0.4759
 3858TP3     H123393   2.619   1.141   9.274  0.3640 -0.0838 -0.0044
 3858TP3     H223394   2.767   1.109   9.284 -0.1023 -1.8937  1.3370
 3859TP3      O23395   1.104   5.041  10.303  0.3102  0.1043  0.1456
 3859TP3     H123396   1.166   4.968  10.310 -1.2311 -1.1651  0.7699
 3859TP3     H223397   1.085   5.046  10.209 -1.1622 -1.6877  0.3069
 3860TP3      O23398   5.117   4.901   0.345 -0.5325 -0.1606 -0.3104
 3860TP3     H123399   5.196   4.924   0.297  0.9780 -2.1590  1.1508
 3860TP3     H223400   5.065   4.851   0.282  0.1672 -0.3902 -0.7082
 3861TP3      O23401   4.754   3.740   1.623 -0.0972  0.1088  0.1579
 3861TP3     H123402   4.734   3.829   1.653  0.1176 -0.1365  1.0393
 3861TP3     H223403   4.672   3.709   1.585 -0.6232  0.1167  1.2718
 3862TP3      O23404   3.490   4.373   1.531  0.1537 -0.1774  0.2544
 3862TP3     H123405   3.480   4.373   1.436  1.4073  1.1760  0.1084
 3862TP3     H223406   3.569   4.322   1.547 -0.5605 -1.1787  0.6414
 3863TP3      O23407   5.077   3.154   2.673  0.7642  0.4072 -0.7696
 3863TP3     H123408   5.047   3.206   2.749 -0.0187 -0.7753 -0.2568
 3863TP3     H223409   5.027   3.073   2.679  1.9670 -0.3942 -1.6011
 3864TP3      O23410   3.426   1.696   1.417 -0.2736 -0.0924 -0.2207
 3864TP3     H123411   3.427   1.743   1.501  0.9084 -1.6711  0.6636
 3864TP3     H223412   3.375   1.618   1.434  1.5804 -1.3781 -0.4278
 3865TP3      O23413   0.719   4.530   0.083  0.0504 -0.2896  0.0308
 3865TP3     H123414   0.729   4.522   0.178 -2.3877 -0.4640  0.3036
 3865TP3     H223415   0.685   4.445   0.055 -0.0534  0.0438 -0.8807
 3866TP3      O23416   4.084   2.007   0.041  0.4130  0.0286 -0.1601
 3866TP3     H123417   4.025   2.001   0.117 -1.0221  1.3006 -1.1414
 3866TP3     H223418   4.078   1.921   0.000  0.2057 -0.2593  0.4661
 3867TP3      O23419   3.952   3.488   1.452 -0.4065 -0.5096 -0.4812
 3867TP3     H123420   4.020   3.446   1.400 -0.2886  0.7599 -1.3605
 3867TP3     H223421   3.994   3.565   1.490 -1.0564 -0.3232 -0.1303
 3868TP3      O23422   3.272   2.077   1.578 -0.3766  0.7946 -0.1615
 3868TP3     H123423   3.279   2.125   1.661  1.4701  1.0465 -0.4296
 3868TP3     H223424   3.347   2.017   1.579 -2.2805 -1.6217 -0.1493
 3869TP3      O23425   0.150   2.483   9.309 -0.2471  0.4632  0.0695
 3869TP3     H123426   0.115   2.479   9.221 -0.0906 -1.8931  0.0671
 3869TP3     H223427   0.236   2.441   9.303  1.1195  3.0444  0.7524
 3870TP3      O23428   0.896   2.123   0.487 -0.1258 -0.3717 -0.1233
 3870TP3     H123429   0.803   2.107   0.471 -0.5669  0.8069  1.1238
 3870TP3     H223430   0.910   2.213   0.459  0.2653 -0.0158  1.1805
 3871TP3      O23431   4.387   0.642   9.977 -0.2795 -0.1291 -0.3708
 3871TP3     H123432   4.392   0.587   9.899 -1.8628 -2.0845  0.8712
 3871TP3     H223433   4.456   0.609  10.034  0.0159  0.4513 -0.3807
 3872TP3      O23434   1.662   1.660   0.164 -0.1754  0.4157  0.3908
 3872TP3     H123435   1.732   1.711   0.123 -0.2910 -0.4130 -0.8620
 3872TP3     H223436   1.686   1.569   0.146 -0.6526  0.0696  1.4868
 3873TP3      O23437   5.341   4.099   9.783  0.0399  0.2767 -0.2318
 3873TP3     H123438   5.315   4.079   9.693 -0.7550  1.5986 -0.3195
 3873TP3     H223439   5.351   4.014   9.825 -1.0276 -0.3346 -1.1808
 3874TP3      O23440   0.485   1.737   8.314  0.0275 -0.2424  0.0779
 3874TP3     H123441   0.552   1.705   8.253  1.1823  0.9549  0.6862
 3874TP3     H223442   0.455   1.658   8.359  1.4035 -0.7466  0.1605
 3875TP3      O23443   3.325   1.134   9.920 -0.0603  0.1097  0.1929
 3875TP3     H123444   3.314   1.051   9.966  0.8779  0.2563  0.6965
 3875TP3     H223445   3.395   1.178   9.967  1.7774 -0.2626 -2.0797
 3876TP3      O23446   0.124   3.858   2.708  0.5824 -0.1486 -0.5093
 3876TP3     H123447   0.067   3.836   2.634  0.0496 -0.2978 -0.0594
 3876TP3     H223448   0.113   3.952   2.719  1.9252  0.1729 -1.6557
 3877TP3      O23449   3.512   4.071  10.194 -0.2235  0.0316  0.8724
 3877TP3     H123450   3.535   3.981  10.170 -1.4921 -0.3083  0.9058
 3877TP3     H223451   3.457   4.102  10.123  1.2218  1.2314  0.2500
 3878TP3      O23452   0.573   4.166   7.969  0.1141  0.3784  0.5612
 3878TP3     H123453   0.566   4.253   7.930 -0.4585  0.6100  1.1715
 3878TP3     H223454   0.586   4.107   7.895  1.0777  1.0471  0.1833
 3879TP3      O23455   3.971   4.933  10.179 -0.3647  0.1656 -0.4700
 3879TP3     H123456   3.912   4.919  10.105  0.3941 -1.4493 -0.7971
 3879TP3     H223457   3.920   4.906  10.256 -0.5529  0.1600 -0.5967
 3880TP3      O23458   0.517   5.516   1.064  0.3857  0.2116  0.7132
 3880TP3     H123459   0.574   5.442   1.086  0.4509  0.1762  0.4305
 3880TP3     H223460   0.571   5.571   1.007 -0.5766 -0.9023 -1.3254
 3881TP3      O23461   0.116   5.054  10.203 -0.3592  0.7888  0.0240
 3881TP3     H123462   0.065   5.095  10.274 -1.1929 -1.5043  0.7920
 3881TP3     H223463   0.202   5.040  10.241 -0.4006  0.8220  0.1312
 3882TP3      O23464   3.079   4.053   9.774  0.4171 -0.0230 -0.8101
 3882TP3     H123465   2.988   4.040   9.802  0.1325  2.6667 -0.3275
 3882TP3     H223466   3.090   3.993   9.701 -1.6159 -0.7475 -0.5667
 3883TP3      O23467   2.885   2.869   8.708 -0.4792  0.0364  0.2290
 3883TP3     H123468   2.976   2.901   8.703 -0.3000 -0.7462 -1.7873
 3883TP3     H223469   2.860   2.854   8.617 -1.8871 -1.8857  0.9156
 3884TP3      O23470   2.631   3.793   0.693  0.1890 -0.3826 -0.0218
 3884TP3     H123471   2.607   3.885   0.701  0.3122 -0.2064 -1.4339
 3884TP3     H223472   2.707   3.782   0.750  0.3096  0.4410 -0.0189
 3885TP3      O23473   4.734   3.412  10.183  0.4688 -0.1131  0.0087
 3885TP3     H123474   4.707   3.395  10.093 -2.3366  2.3743  0.2898
 3885TP3     H223475   4.758   3.326  10.218  0.7125 -1.2420 -2.8057
 3886TP3      O23476   2.494   3.511   9.083  1.0922  0.3976  0.2883
 3886TP3     H123477   2.482   3.421   9.053  1.0659 -0.0815  1.7355
 3886TP3     H223478   2.421   3.559   9.043  2.5090  0.3042 -2.5589
 3887TP3      O23479   3.072   2.900   1.054 -0.2979 -0.3020  0.0595
 3887TP3     H123480   2.986   2.880   1.091 -0.1359 -1.1657 -0.0082
 3887TP3     H223481   3.054   2.954   0.977 -0.6695  1.0943  1.1053
 3888TP3      O23482   4.173   4.846   1.105  0.3843  0.5071 -0.1122
 3888TP3     H123483   4.141   4.829   1.016  1.5424  3.6837 -1.2054
 3888TP3     H223484   4.113   4.910   1.141  1.7642  1.6685  0.1783
 3889TP3      O23485   4.211   0.165   9.706 -0.3877 -0.4515  0.4552
 3889TP3     H123486   4.274   0.222   9.662  0.9485 -0.9544  1.6677
 3889TP3     H223487   4.227   0.078   9.669  0.1509 -0.7163  1.2956
 3890TP3      O23488   2.843   0.327   1.619 -0.1098 -0.4813 -0.1012
 3890TP3     H123489   2.838   0.358   1.709  0.3554  0.2290 -0.3124
 3890TP3     H223490   2.826   0.405   1.566 -1.7778 -1.1670 -0.6156
 3891TP3      O23491   4.520   2.670   0.171 -0.4332 -0.7360 -0.3413
 3891TP3     H123492   4.615   2.668   0.181 -0.3508 -0.8430 -1.1202
 3891TP3     H223493   4.492   2.583   0.198 -0.3445 -0.5828  0.2419
 3892TP3      O23494   0.837   1.117   0.818 -0.0592 -0.3332 -0.4277
 3892TP3     H123495   0.841   1.033   0.773 -0.6281 -1.0143  0.7859
 3892TP3     H223496   0.929   1.141   0.832  0.1297 -0.1272 -1.8935
 3893TP3      O23497   3.261   4.766   2.293  0.5105  0.0985 -0.0768
 3893TP3     H123498   3.334   4.705   2.287 -0.6966 -1.1364 -3.3569
 3893TP3     H223499   3.274   4.828   2.221 -0.8991  0.7391  0.1794
 3894TP3      O23500   3.769   1.367   9.023  0.1244 -0.8821 -0.7318
 3894TP3     H123501   3.859   1.394   9.004  0.6508  0.7544  3.5909
 3894TP3     H223502   3.776   1.310   9.099 -2.3951 -1.6424 -1.0340
 3895TP3      O23503   2.111   5.259   7.967 -0.3164 -0.0763 -0.1617
 3895TP3     H123504   2.199   5.226   7.951 -0.1453 -0.4502  1.4974
 3895TP3     H223505   2.096   5.245   8.060 -1.2405  2.1516  0.0591
 3896TP3      O23506   1.120   4.260   0.563 -0.3391  0.2479  0.0305
 3896TP3     H123507   1.052   4.324   0.581  0.5143  1.2778 -0.3729
 3896TP3     H223508   1.137   4.219   0.648  0.4428  1.8903  0.7011
 3897TP3      O23509   3.746   2.885  10.096 -0.2655  0.9318 -0.2364
 3897TP3     H123510   3.770   2.867  10.187  1.7861  0.4082 -0.8474
 3897TP3     H223511   3.755   2.980  10.087 -0.8392  1.0272  0.2079
 3898TP3      O23512   4.732   4.335   9.233  0.1852 -0.4089  0.4585
 3898TP3     H123513   4.648   4.324   9.278 -0.5493  0.6511 -0.6285
 3898TP3     H223514   4.732   4.268   9.165  0.3231 -0.5657  0.6119
 3899TP3      O23515   3.955   1.977   0.289  0.4570 -0.4876 -0.6157
 3899TP3     H123516   3.913   1.917   0.351 -0.5462  0.5139 -0.3025
 3899TP3     H223517   4.038   2.000   0.329  0.4912 -1.0507 -0.3670
 3900TP3      O23518   4.008   4.982   0.568  0.4190 -0.1852  0.1083
 3900TP3     H123519   4.011   4.916   0.499  1.6650  0.9491 -0.9638
 3900TP3     H223520   4.000   5.065   0.521  1.6933  0.6383  1.3104
 3901TP3      O23521   1.649   4.127   7.720 -0.4442 -0.0102  0.3890
 3901TP3     H123522   1.642   4.098   7.811 -0.9298  0.7120  0.5847
 3901TP3     H223523   1.733   4.173   7.716 -0.6152  0.3178  0.5734
 3902TP3      O23524   4.458   2.781   9.184  0.0165 -0.0723 -0.2361
 3902TP3     H123525   4.551   2.774   9.165 -0.1669 -0.3617 -1.0144
 3902TP3     H223526   4.444   2.721   9.258  0.5902  0.5640  0.3989
 3903TP3      O23527   0.633   0.917   7.994 -0.5207 -0.1325  0.0766
 3903TP3     H123528   0.606   0.831   7.962 -1.1826 -0.5845  1.7870
 3903TP3     H223529   0.560   0.946   8.049  0.2112  0.9971  0.4774
 3904TP3      O23530   5.116   0.453   9.708 -0.2924  0.2817  0.2962
 3904TP3     H123531   5.061   0.525   9.677 -0.0397 -0.1046 -1.0954
 3904TP3     H223532   5.203   0.475   9.676 -0.3061 -0.8896 -0.5576
 3905TP3      O23533   1.979   5.064   0.097  0.3077 -0.2458 -0.3315
 3905TP3     H123534   1.957   4.971   0.104 -0.5542  0.0443  0.8285
 3905TP3     H223535   2.057   5.074   0.152  0.5071 -0.3106 -0.5994
 3906TP3      O23536   3.177   2.635   0.886 -0.1806  0.2708 -0.1291
 3906TP3     H123537   3.139   2.717   0.915  0.2140 -0.3450  2.3061
 3906TP3     H223538   3.237   2.610   0.957 -1.2826 -2.7513 -0.1625
 3907TP3      O23539   0.226   2.198   8.684  0.2019  0.0882  0.4405
 3907TP3     H123540   0.278   2.138   8.736  0.5167  0.4583  0.5526
 3907TP3     H223541   0.290   2.251   8.636 -0.0684  0.4551  0.4776
 3908TP3      O23542   2.196   1.878   9.068 -0.1789 -0.3147  0.2878
 3908TP3     H123543   2.184   1.952   9.128  1.6202  0.1846  0.0464
 3908TP3     H223544   2.178   1.915   8.982  1.2152 -0.0345  0.1176
 3909TP3      O23545   4.806   4.894   0.671  0.0545 -0.1559  0.6382
 3909TP3     H123546   4.754   4.845   0.607  0.8706  0.9845 -0.9181
 3909TP3     H223547   4.741   4.933   0.730 -0.8310  0.7032 -0.8871
 3910TP3      O23548   5.321   0.310   8.043  0.0557 -0.5898 -0.3114
 3910TP3     H123549   5.344   0.223   8.076 -2.1876 -1.0621  0.1533
 3910TP3     H223550   5.250   0.339   8.100  0.1722  1.1685 -1.0261
 3911TP3      O23551   5.457   2.841   1.204  0.2918 -0.3052 -0.3326
 3911TP3     H123552   5.552   2.846   1.204  0.2816  0.0996  0.6357
 3911TP3     H223553   5.429   2.913   1.261 -0.5954 -0.2813 -0.7899
 3912TP3      O23554   3.547   5.528   9.414 -0.0282  0.2752  0.1898
 3912TP3     H123555   3.573   5.447   9.458  1.1406  1.4731  1.7636
 3912TP3     H223556   3.463   5.550   9.455 -0.5439 -0.3154 -0.5188
 3913TP3      O23557   5.115   4.137   1.743 -0.1281  0.5940  0.6117
 3913TP3     H123558   5.070   4.058   1.773  0.7385 -0.3746 -0.6177
 3913TP3     H223559   5.207   4.124   1.766 -0.1192  1.6596  1.2343
 3914TP3      O23560   4.506   1.839  10.209  0.2902 -0.0631 -0.8224
 3914TP3     H123561   4.553   1.758  10.192  2.0083  0.8216 -0.4003
 3914TP3     H223562   4.462   1.860  10.127  0.0231 -1.2846 -0.9962
 3915TP3      O23563   0.839   0.662   1.321 -0.7575 -0.3723 -0.3276
 3915TP3     H123564   0.815   0.653   1.413 -0.7735  2.8411  0.0265
 3915TP3     H223565   0.906   0.730   1.320 -0.3166 -0.8027 -2.6336
 3916TP3      O23566   1.804   1.593   0.841  0.1016  0.3049 -0.5973
 3916TP3     H123567   1.831   1.681   0.815  0.4424  0.2328 -0.4957
 3916TP3     H223568   1.712   1.602   0.864  0.5921  1.0419  1.2354
 3917TP3      O23569   1.214   1.444   1.700 -0.7879  0.4031 -0.3810
 3917TP3     H123570   1.282   1.379   1.714  0.0235  0.8250 -2.1385
 3917TP3     H223571   1.233   1.513   1.763 -0.7430 -0.3438  0.4360
 3918TP3      O23572   4.779   1.716   1.792  0.5258  0.5081 -0.3234
 3918TP3     H123573   4.754   1.775   1.721  1.2175  1.3045  0.0860
 3918TP3     H223574   4.850   1.663   1.756  1.3912  1.4199 -0.0151
 3919TP3      O23575   2.060   1.995   1.402  0.0768 -0.2799  0.3971
 3919TP3     H123576   2.147   1.961   1.422  0.4571 -0.2716 -1.2134
 3919TP3     H223577   2.076   2.077   1.355 -0.8134  0.4032  1.2727
 3920TP3      O23578   1.609   1.458   1.701 -0.6358 -0.0491  1.1293
 3920TP3     H123579   1.678   1.412   1.748 -0.4897 -0.8312  0.1603
 3920TP3     H223580   1.608   1.545   1.741  1.5652  0.2931  0.5434
 3921TP3      O23581   5.267   0.576   2.566  0.6976 -0.5840  0.6360
 3921TP3     H123582   5.176   0.560   2.591  0.8791 -1.5151  0.7141
 3921TP3     H223583   5.280   0.523   2.488  0.9906  0.0579  0.2437
 3922TP3      O23584   2.042   3.562   1.556 -0.0201 -0.8546  0.1042
 3922TP3     H123585   2.116   3.606   1.513 -1.0773 -0.6466 -1.5329
 3922TP3     H223586   2.052   3.470   1.533  0.8484 -1.1420  1.5618
 3923TP3      O23587   0.908   1.295   2.490  0.5346 -0.1931 -0.2347
 3923TP3     H123588   0.833   1.252   2.532 -0.4081  0.0642 -1.6203
 3923TP3     H223589   0.956   1.337   2.562 -1.7947  1.3871  0.4429
 3924TP3      O23590   0.644   4.220   2.142  0.4836  0.0387 -0.7807
 3924TP3     H123591   0.574   4.282   2.119  0.0380 -0.9737 -2.1969
 3924TP3     H223592   0.618   4.138   2.101  1.1460 -1.0806  0.9511
 3925TP3      O23593   1.286   1.189   1.880 -0.7127 -0.0032  0.4484
 3925TP3     H123594   1.309   1.142   1.801 -0.6427 -0.7185  0.8909
 3925TP3     H223595   1.202   1.151   1.908 -0.6631  0.1386  0.7990
 3926TP3      O23596   5.465   5.291   0.368  0.7601 -0.2655  0.1506
 3926TP3     H123597   5.515   5.372   0.374  1.2749 -0.6666  1.5486
 3926TP3     H223598   5.374   5.318   0.382  0.7043  0.3287 -1.3665
 3927TP3      O23599   5.173   2.118   2.753  0.1168 -0.6174  0.0399
 3927TP3     H123600   5.100   2.110   2.814 -0.7567 -0.0488 -0.9300
 3927TP3     H223601   5.182   2.031   2.715  1.0328 -1.1290  1.3781
 3928TP3      O23602   2.229   5.249   2.993  0.1191  0.0436  0.1138
 3928TP3     H123603   2.309   5.287   3.029  0.0612  0.5606 -0.2963
 3928TP3     H223604   2.158   5.300   3.032  0.0337  0.2192 -0.2616
 3929TP3      O23605   5.331   5.097   1.930  0.0199 -0.1107 -0.2081
 3929TP3     H123606   5.242   5.107   1.897  0.3381  0.3793 -0.9164
 3929TP3     H223607   5.387   5.112   1.854  0.7252  0.1409  0.3575
 3930TP3      O23608   4.684   1.494   1.952 -0.5172  0.0957 -0.3174
 3930TP3     H123609   4.668   1.570   2.008 -0.2107 -0.4797  0.5656
 3930TP3     H223610   4.767   1.513   1.909  1.4053 -1.2446  2.5734
 3931TP3      O23611   5.024   0.414   2.216  0.0951  0.0747 -0.1636
 3931TP3     H123612   5.090   0.345   2.217  1.7727  1.6205 -0.6843
 3931TP3     H223613   4.997   0.420   2.124  0.9975  1.0458 -0.3788
 3932TP3      O23614   0.933   4.137   0.743  0.6121 -0.7735  0.2870
 3932TP3     H123615   0.877   4.175   0.811  1.8268  1.1678  0.2531
 3932TP3     H223616   1.015   4.117   0.787  1.0031 -0.5994 -0.3452
 3933TP3      O23617   5.063   0.561   1.977 -0.6294  0.2328  0.4479
 3933TP3     H123618   5.052   0.515   1.893 -2.4391  1.6654 -0.1345
 3933TP3     H223619   5.157   0.578   1.983 -0.4732  0.0536 -1.2556
 3934TP3      O23620   0.492   1.617   2.307  0.7393  0.4372  0.4332
 3934TP3     H123621   0.470   1.622   2.400  1.1845  1.4084  0.4950
 3934TP3     H223622   0.575   1.570   2.305 -0.2554 -1.3376  0.3656
 3935TP3      O23623   1.063   2.633   1.211 -0.4604  0.4455  0.2883
 3935TP3     H123624   1.053   2.698   1.142  0.6468  2.4468  1.9784
 3935TP3     H223625   1.140   2.582   1.185 -1.3643 -0.2858 -1.0595
 3936TP3      O23626   2.083   2.222   3.144  0.4318  0.2184 -0.3337
 3936TP3     H123627   2.164   2.175   3.162  0.9670  0.6948 -1.4949
 3936TP3     H223628   2.097   2.309   3.181 -1.0077 -0.8475  2.8941
 3937TP3      O23629   1.912   5.506   2.541 -0.5030  0.3842  0.0091
 3937TP3     H123630   1.917   5.502   2.637 -2.3974 -0.2823  0.1009
 3937TP3     H223631   1.956   5.426   2.512 -1.7726 -0.4807  0.4133
 3938TP3      O23632   1.778   4.897   2.722 -0.1414 -0.4823 -0.0919
 3938TP3     H123633   1.853   4.879   2.779  0.4299  1.4150 -0.1823
 3938TP3     H223634   1.708   4.841   2.755  0.8760 -1.1157  1.0017
 3939TP3      O23635   2.093   0.406   2.168  0.4897 -0.1709 -0.0101
 3939TP3     H123636   2.067   0.479   2.223  2.1211  0.7689 -0.4473
 3939TP3     H223637   2.167   0.366   2.214  0.6160 -0.5723 -0.5559
 3940TP3      O23638   2.743   1.727   2.052  0.5765 -0.1767 -0.0313
 3940TP3     H123639   2.795   1.803   2.081  1.9721 -0.2836 -2.1119
 3940TP3     H223640   2.680   1.764   1.989  0.2717 -0.5261  0.0667
 3941TP3      O23641   5.440   1.757   0.011 -0.5973  0.2498 -0.1234
 3941TP3     H123642   5.483   1.674  -0.012 -0.0500  0.5838 -0.3298
 3941TP3     H223643   5.437   1.805  -0.072 -0.1477  0.7760  0.1588
 3942TP3      O23644   0.506   2.039   2.394 -0.1101 -0.0543  0.3954
 3942TP3     H123645   0.567   1.969   2.368 -0.5632 -0.3418  0.0973
 3942TP3     H223646   0.504   2.097   2.318 -2.1194 -1.3638 -0.6040
 3943TP3      O23647   0.693   2.222   1.075 -0.1585  0.9850  0.3016
 3943TP3     H123648   0.747   2.198   1.150 -0.7438 -2.0584 -0.1854
 3943TP3     H223649   0.731   2.303   1.042  2.7821  0.0431  1.2924
 3944TP3      O23650   4.035   1.857   2.455 -0.6260 -0.2637 -0.3297
 3944TP3     H123651   4.096   1.897   2.393  0.4427  0.5908  1.2307
 3944TP3     H223652   3.994   1.931   2.500 -1.0089 -0.8851  0.3465
 3945TP3      O23653   5.265   1.405   0.467 -0.1474  0.7144  0.2660
 3945TP3     H123654   5.222   1.320   0.471 -0.3861  0.8200 -0.0652
 3945TP3     H223655   5.277   1.430   0.559  2.4757 -0.9557  0.4448
 3946TP3      O23656   5.129   1.442   0.073 -0.1634  0.4824  0.0845
 3946TP3     H123657   5.109   1.525   0.116 -1.8284  0.9797 -1.5829
 3946TP3     H223658   5.147   1.466  -0.018 -1.4065 -1.0462 -0.5902
 3947TP3      O23659   0.249   0.768   2.070  0.0820 -0.1919  0.3179
 3947TP3     H123660   0.229   0.793   1.980 -0.0608  0.0339  0.4110
 3947TP3     H223661   0.184   0.815   2.122  0.4879  0.0797  0.5811
 3948TP3      O23662   2.681   1.279   1.266  0.3258 -0.4016 -0.0660
 3948TP3     H123663   2.718   1.220   1.201  1.0833 -0.0374  0.0223
 3948TP3     H223664   2.733   1.264   1.345  1.0298  0.9171 -0.2595
 3949TP3      O23665   1.483   4.267   1.283  0.0023 -0.1468 -0.2696
 3949TP3     H123666   1.568   4.300   1.255 -0.6610  0.0317 -2.1600
 3949TP3     H223667   1.500   4.219   1.363  1.8140  0.2511 -0.4099
 3950TP3      O23668   1.949   5.475   1.180 -0.1577 -0.6359 -0.4132
 3950TP3     H123669   1.864   5.509   1.207 -0.8810 -2.5542 -0.2732
 3950TP3     H223670   1.972   5.409   1.245  0.8616 -1.0346 -1.1493
 3951TP3      O23671   0.984   0.648   2.401 -0.1999  0.1102 -0.2000
 3951TP3     H123672   1.029   0.715   2.350 -1.2927 -0.4865 -2.0116
 3951TP3     H223673   1.049   0.619   2.465  0.1877  3.0777  0.8250
 3952TP3      O23674   4.584   0.860   9.828 -0.1696  0.4958 -0.0268
 3952TP3     H123675   4.631   0.777   9.818  2.6620  2.0570 -0.3005
 3952TP3     H223676   4.499   0.836   9.865  1.0354 -2.4037  0.9685
 3953TP3      O23677   0.663   1.551   3.029 -0.1503 -0.4442 -0.5625
 3953TP3     H123678   0.572   1.552   3.057 -0.3733 -0.9866 -1.2614
 3953TP3     H223679   0.713   1.572   3.108 -0.8449 -0.7364 -0.0469
 3954TP3      O23680   1.732   2.133   1.590  0.7349 -0.1080 -0.0726
 3954TP3     H123681   1.676   2.121   1.667  0.9771  1.4317  0.3766
 3954TP3     H223682   1.759   2.225   1.595  2.5169 -0.5698 -0.8019
 3955TP3      O23683   1.333   2.282   0.527  0.1673  0.2262 -0.2520
 3955TP3     H123684   1.297   2.193   0.537 -0.4990  0.2782 -1.9102
 3955TP3     H223685   1.294   2.332   0.598 -1.0531 -0.3516 -0.4983
 3956TP3      O23686   4.224   5.214   0.214 -0.4252  0.4635 -0.4269
 3956TP3     H123687   4.139   5.218   0.256  0.1244  0.8978  0.6646
 3956TP3     H223688   4.206   5.226   0.121 -1.9093 -2.8788 -0.6632
 3957TP3      O23689   5.280   0.033   0.109 -0.0243  0.0353  0.0164
 3957TP3     H123690   5.346   0.040   0.041 -2.0460  0.6556 -1.9448
 3957TP3     H223691   5.310   0.091   0.178  1.8106 -0.2304 -0.5327
 3958TP3      O23692   1.967   5.478   9.484 -0.1872 -0.4479 -0.5542
 3958TP3     H123693   1.944   5.386   9.486 -0.8401 -0.2689  0.2080
 3958TP3     H223694   2.039   5.487   9.546  1.3016 -0.8245 -2.1992
 3959TP3      O23695   1.579   0.845   0.723  0.3264  0.1491  0.3184
 3959TP3     H123696   1.638   0.903   0.772 -1.2525  2.2582 -0.1782
 3959TP3     H223697   1.637   0.779   0.684  2.4010  2.2717 -0.3325
 3960TP3      O23698   4.693   1.268   1.678  1.2723  0.8475  0.5398
 3960TP3     H123699   4.670   1.319   1.756  0.4231 -0.4301  1.1494
 3960TP3     H223700   4.788   1.265   1.678  1.2699  0.6634  1.6540
 3961TP3      O23701   1.593   1.745   3.206  1.2769  0.5146  0.3241
 3961TP3     H123702   1.629   1.670   3.254  0.3598 -0.4208 -0.4487
 3961TP3     H223703   1.579   1.712   3.117 -0.2887  1.2576  0.2941
 3962TP3      O23704   5.192   2.692   0.781 -0.1968 -0.3316  0.5323
 3962TP3     H123705   5.252   2.679   0.855  1.7823  1.6483 -0.6375
 3962TP3     H223706   5.123   2.749   0.815  0.7130  0.5765  0.8866
 3963TP3      O23707   1.762   3.692   2.076  0.4416 -0.1031 -0.0240
 3963TP3     H123708   1.754   3.611   2.126 -0.5140  0.9034  1.5037
 3963TP3     H223709   1.672   3.714   2.050  0.7182  0.3377 -0.6276
 3964TP3      O23710   2.170   0.666   1.787 -0.3030  0.2233 -0.0840
 3964TP3     H123711   2.159   0.750   1.742  2.3946  0.4546 -0.4254
 3964TP3     H223712   2.146   0.683   1.877 -2.4710  0.6350 -0.7252
 3965TP3      O23713   0.432   2.338   9.321 -0.1834 -0.3431  0.2659
 3965TP3     H123714   0.446   2.293   9.237  0.9977  0.6338 -0.0863
 3965TP3     H223715   0.520   2.360   9.351 -0.7214  1.5002  0.5391
 3966TP3      O23716   2.162   3.030   0.234 -0.6979  0.0865 -0.3381
 3966TP3     H123717   2.178   3.115   0.191 -1.3902  0.6468  0.4979
 3966TP3     H223718   2.205   3.039   0.320  0.4212 -0.9199 -0.7832
 3967TP3      O23719   0.562   0.941   3.058 -0.0963 -0.3934 -0.5815
 3967TP3     H123720   0.516   1.025   3.050 -1.3091 -0.9345  0.4845
 3967TP3     H223721   0.550   0.899   2.974 -2.7766 -1.1204  0.1236
 3968TP3      O23722   0.341   3.022   2.455  0.0689  0.5696  0.7878
 3968TP3     H123723   0.412   3.079   2.426 -1.8487  1.4751 -2.4528
 3968TP3     H223724   0.371   2.934   2.435  0.5344  0.9172 -0.0946
 3969TP3      O23725   1.369   0.132   2.948 -0.3667 -0.2709 -0.4188
 3969TP3     H123726   1.275   0.116   2.938 -0.3006 -0.5888 -0.5562
 3969TP3     H223727   1.407   0.044   2.953 -0.1468 -0.1407  0.2825
 3970TP3      O23728   0.717   3.254  10.012 -0.5641  0.0257 -0.1821
 3970TP3     H123729   0.692   3.184   9.951 -0.6487 -0.4737  0.4147
 3970TP3     H223730   0.797   3.291   9.976 -1.0401  0.2565 -1.0123
 3971TP3      O23731   5.216   0.074   2.561  0.1067  0.7496 -0.0417
 3971TP3     H123732   5.157   0.004   2.589  1.6445 -0.4462  0.2471
 3971TP3     H223733   5.271   0.034   2.495 -1.0701  2.5717 -2.1959
 3972TP3      O23734   0.831   1.528   2.038 -0.2923  0.0646  0.2235
 3972TP3     H123735   0.786   1.580   2.105 -0.3055  1.9003 -1.1669
 3972TP3     H223736   0.876   1.593   1.983  0.1463 -1.4254 -1.2337
 3973TP3      O23737   2.088   4.982   1.323  0.0662  0.0447  0.7995
 3973TP3     H123738   2.042   4.983   1.239 -1.3488  2.7248  1.5411
 3973TP3     H223739   2.181   4.990   1.299 -0.2588 -0.1268 -0.5441
 3974TP3      O23740   0.111   5.060   2.286 -0.2738  0.1189  0.2016
 3974TP3     H123741   0.139   5.141   2.245  0.9404  0.6430  1.9904
 3974TP3     H223742   0.061   5.014   2.218 -1.3331  2.5199 -0.7086
 3975TP3      O23743   0.185   4.566   1.110 -0.1007  0.6510  0.1267
 3975TP3     H123744   0.196   4.478   1.074 -1.0170  0.1394  1.0733
 3975TP3     H223745   0.264   4.613   1.082  0.1442 -0.3125 -0.8299
 3976TP3      O23746   0.975   2.408  10.069  0.5076 -0.7225  0.1418
 3976TP3     H123747   0.961   2.503  10.075 -1.1824 -0.9951  0.6815
 3976TP3     H223748   0.944   2.385   9.981  0.5829 -0.8412  0.1476
 3977TP3      O23749   2.385   0.739   3.097 -0.4865 -0.2166 -0.1885
 3977TP3     H123750   2.305   0.790   3.084  0.8043  1.6809 -1.0206
 3977TP3     H223751   2.374   0.698   3.182 -1.6389  1.3925  0.4701
 3978TP3      O23752   0.522   4.957   3.098 -0.3125 -1.0100 -0.3380
 3978TP3     H123753   0.444   4.986   3.145 -1.0142 -1.1111 -1.4092
 3978TP3     H223754   0.589   5.022   3.120 -0.3360 -1.6101  1.5781
 3979TP3      O23755   2.591   0.716   2.207  0.5291 -0.2415  0.1268
 3979TP3     H123756   2.553   0.775   2.272 -1.3435 -0.6163 -0.5998
 3979TP3     H223757   2.516   0.680   2.160  1.7387 -1.7848 -0.6842
 3980TP3      O23758   5.114   0.332   1.071 -0.2973  0.5350 -0.0515
 3980TP3     H123759   5.054   0.258   1.066 -0.5601  0.7077  0.5213
 3980TP3     H223760   5.193   0.301   1.026 -0.3814 -0.1162  0.2374
 3981TP3      O23761   3.086   0.088   2.108 -0.1172  0.3967 -0.4347
 3981TP3     H123762   2.997   0.085   2.073 -0.3513 -1.2418  0.2353
 3981TP3     H223763   3.125   0.006   2.080  0.8436  0.6455  0.1604
 3982TP3      O23764   1.107   0.915  10.093 -0.3889  0.3125 -0.4059
 3982TP3     H123765   1.051   0.914  10.171 -0.7096  0.8820 -0.6320
 3982TP3     H223766   1.056   0.869  10.027  0.6043 -1.7504  0.2143
 3983TP3      O23767   0.577   1.431   1.746  0.1157 -0.2189  0.9742
 3983TP3     H123768   0.559   1.425   1.840 -0.2207 -1.2085  0.8479
 3983TP3     H223769   0.594   1.524   1.732  0.9493 -0.1784  2.1476
 3984TP3      O23770   4.887   0.492   0.705  0.1646  0.4811  0.3479
 3984TP3     H123771   4.870   0.411   0.753  2.8965 -0.2342  0.1778
 3984TP3     H223772   4.898   0.465   0.614  0.5820  1.1276  0.2013
 3985TP3      O23773   1.642   0.724  10.119 -0.0349 -0.1216 -0.5233
 3985TP3     H123774   1.730   0.688  10.129  0.0426  0.3865  0.6930
 3985TP3     H223775   1.584   0.648  10.129  0.2629 -0.4809 -1.4696
 3986TP3      O23776   1.142   1.996   1.017 -0.1847 -0.7957 -0.3343
 3986TP3     H123777   1.209   1.935   1.049  0.8658  0.7093  0.3781
 3986TP3     H223778   1.069   1.986   1.079 -0.0079 -1.3004 -0.2026
 3987TP3      O23779   0.100   3.877   2.190  0.2990 -0.1697  0.1428
 3987TP3     H123780   0.173   3.830   2.230  0.6109  0.4561  0.3187
 3987TP3     H223781   0.034   3.810   2.174  1.3419 -0.9544 -1.0396
 3988TP3      O23782   1.587   0.626   1.732  0.0878  0.2406 -0.0804
 3988TP3     H123783   1.605   0.572   1.809 -1.0985 -1.0444 -0.6917
 3988TP3     H223784   1.497   0.657   1.745  0.1520  0.6409 -0.5829
 3989TP3      O23785   1.835   3.724   1.515 -0.1961 -0.3896  0.1975
 3989TP3     H123786   1.893   3.650   1.531 -0.6140 -0.7365  0.1158
 3989TP3     H223787   1.879   3.774   1.445  0.3373 -0.2757  0.6120
 3990TP3      O23788   5.290   1.090   3.592 -0.4328 -0.1163  0.0448
 3990TP3     H123789   5.336   1.007   3.605  0.2338  0.0856 -0.9722
 3990TP3     H223790   5.218   1.068   3.533  0.8069  0.3770 -1.6603
 3991TP3      O23791   5.125   5.266   1.623 -0.1746 -0.3788  0.1378
 3991TP3     H123792   5.097   5.175   1.615 -1.6631 -0.1166  2.1475
 3991TP3     H223793   5.137   5.279   1.717  2.5979  0.7632 -0.3242
 3992TP3      O23794   5.443   4.324   9.003 -0.2349 -0.5897 -0.1446
 3992TP3     H123795   5.412   4.249   8.953  0.7708 -1.0239 -0.1274
 3992TP3     H223796   5.387   4.326   9.081 -1.2601 -0.4058 -0.8703
 3993TP3      O23797   0.241   0.196   0.629  0.5826  0.9677  0.2806
 3993TP3     H123798   0.169   0.258   0.634 -0.1946  0.0961 -0.0071
 3993TP3     H223799   0.203   0.112   0.657  0.9649  0.0726 -1.8285
 3994TP3      O23800   1.332   1.337   0.709  0.0403 -0.6902 -0.4931
 3994TP3     H123801   1.246   1.354   0.671 -0.5305  0.3265  1.2128
 3994TP3     H223802   1.341   1.242   0.708 -1.8741 -0.9050  0.9525
 3995TP3      O23803   0.798   2.486   1.064  0.1329 -0.1588  0.2076
 3995TP3     H123804   0.890   2.458   1.065 -0.4936 -2.4105 -1.5542
 3995TP3     H223805   0.799   2.566   1.011  1.4218  1.2571  2.3015
 3996TP3      O23806   4.701   4.869   1.799 -0.1432 -0.5766  0.2055
 3996TP3     H123807   4.738   4.782   1.812 -0.8289 -0.9968 -0.6450
 3996TP3     H223808   4.773   4.929   1.820  1.1977 -1.3750 -1.9372
 3997TP3      O23809   1.058   1.415   2.744 -0.1895 -0.2618 -0.6339
 3997TP3     H123810   1.029   1.506   2.757 -1.7037 -0.8699  0.3826
 3997TP3     H223811   1.119   1.399   2.816 -0.5997 -0.3298 -0.3008
 3998TP3      O23812   1.130   1.357   0.537 -0.1546 -0.1919  0.7597
 3998TP3     H123813   1.037   1.338   0.528 -0.1516  0.4120 -0.8554
 3998TP3     H223814   1.169   1.325   0.455  0.7655  1.1507  0.6458
 3999TP3      O23815   5.472   0.566   1.763  0.1995 -0.0612  0.1267
 3999TP3     H123816   5.476   0.523   1.677 -2.1095  0.0164 -0.0422
 3999TP3     H223817   5.551   0.536   1.808  1.4654 -0.0920 -2.0174
 4000TP3      O23818   2.120   1.710   2.100  0.0924  0.4909 -0.2347
 4000TP3     H123819   2.176   1.682   2.028 -2.3268 -1.0944 -1.5913
 4000TP3     H223820   2.090   1.797   2.075 -0.8185 -0.0940 -1.2147
 4001TP3      O23821   0.724   0.370   2.515  0.3322 -0.6534 -0.3930
 4001TP3     H123822   0.802   0.327   2.550 -0.1666  1.7365  3.9517
 4001TP3     H223823   0.661   0.369   2.587 -2.0947  1.3765 -2.3770
 4002TP3      O23824   1.039   0.971   2.723  0.0096  0.1663  0.1964
 4002TP3     H123825   1.017   1.030   2.795  0.2052  0.2528  0.1854
 4002TP3     H223826   1.063   1.029   2.651 -1.5680  0.1118 -0.3919
 4003TP3      O23827   1.202   2.353   3.328 -0.4909 -0.1946  0.5555
 4003TP3     H123828   1.235   2.416   3.264 -0.5311 -0.0765  0.6514
 4003TP3     H223829   1.126   2.313   3.285 -0.5603 -0.0650  0.5563
 4004TP3      O23830   1.371   0.506   0.922 -0.7640 -0.4227  0.1140
 4004TP3     H123831   1.424   0.427   0.925  0.0714  0.1634  1.6242
 4004TP3     H223832   1.283   0.478   0.949 -0.6228 -0.9508  0.0226
 4005TP3      O23833   0.802   5.222   2.658 -0.0523 -0.3544  0.2614
 4005TP3     H123834   0.833   5.307   2.689 -0.2119  1.3503 -3.8700
 4005TP3     H223835   0.709   5.222   2.677 -0.8048  2.0799 -2.9723
 4006TP3      O23836   0.775   1.811   9.766 -0.2573  0.0186 -0.3850
 4006TP3     H123837   0.835   1.831   9.838 -0.8591  0.5432 -0.0250
 4006TP3     H223838   0.797   1.722   9.740 -0.2565 -0.2989  0.6684
 4007TP3      O23839   4.423   5.306   2.097 -0.2467 -0.4396 -0.2046
 4007TP3     H123840   4.383   5.219   2.088 -0.6459 -0.0961 -1.8248
 4007TP3     H223841   4.461   5.324   2.011  1.0992  0.3865  0.5372
 4008TP3      O23842   0.130   2.345   1.807  0.3635 -0.4394  0.3237
 4008TP3     H123843   0.051   2.292   1.818 -0.8156  1.2619  0.1874
 4008TP3     H223844   0.106   2.432   1.839  2.6126 -0.2360  1.6167
 4009TP3      O23845   1.728   5.335   2.635 -0.0669  0.4639 -0.0673
 4009TP3     H123846   1.788   5.384   2.691  0.6896  1.0177 -1.3326
 4009TP3     H223847   1.740   5.373   2.548 -0.9770 -0.5981 -0.6747
 4010TP3      O23848   5.514   0.792   2.343 -0.3152 -0.0345 -0.0878
 4010TP3     H123849   5.447   0.827   2.401 -0.6301 -1.6487  0.5632
 4010TP3     H223850   5.595   0.798   2.393  0.0022  1.6138 -0.7521
 4011TP3      O23851   0.338   0.906   2.712 -0.1382  0.0744  0.2390
 4011TP3     H123852   0.351   0.996   2.742 -1.3773  0.2206  0.3402
 4011TP3     H223853   0.416   0.860   2.742  0.1706  0.9578  0.8110
 4012TP3      O23854   0.286   2.593   1.153  0.3747  0.1806  0.2516
 4012TP3     H123855   0.209   2.541   1.129  0.7922 -0.0843 -0.5699
 4012TP3     H223856   0.295   2.581   1.247 -0.3059 -0.1793  0.2768
 4013TP3      O23857   0.177   0.988   0.696 -0.3448  0.1467 -0.0012
 4013TP3     H123858   0.147   0.900   0.675 -0.3476  0.5444 -1.7169
 4013TP3     H223859   0.099   1.043   0.684 -0.4728  0.3283  1.5503
 4014TP3      O23860   0.551   5.336   2.729  0.5862  0.2834 -0.1790
 4014TP3     H123861   0.468   5.305   2.693 -0.2056  0.6579  1.3242
 4014TP3     H223862   0.541   5.431   2.737  0.2817  0.0793  2.1975
 4015TP3      O23863   1.658   5.446   2.398  0.3470 -0.0503 -0.2692
 4015TP3     H123864   1.600   5.498   2.344  1.4851  0.7141 -0.7722
 4015TP3     H223865   1.666   5.362   2.352 -1.3398 -0.6473  0.4527
 4016TP3      O23866   1.272   3.364   0.885 -0.5448 -0.0532  0.8775
 4016TP3     H123867   1.316   3.394   0.806 -0.3135  0.2136  1.1067
 4016TP3     H223868   1.298   3.426   0.952 -1.2100  0.0604  1.0342
 4017TP3      O23869   4.495   0.553   1.183  0.3493 -0.4261  0.1044
 4017TP3     H123870   4.418   0.516   1.139  0.1075 -0.1146  0.2582
 4017TP3     H223871   4.459   0.595   1.261  0.5771  0.4589 -0.2630
 4018TP3      O23872   2.305   1.751   0.130  0.3428  0.2526 -0.3537
 4018TP3     H123873   2.231   1.812   0.134  1.1468  1.1872  1.3676
 4018TP3     H223874   2.284   1.692   0.058 -1.7319  0.9381 -0.3589
 4019TP3      O23875   0.680   2.541   2.510 -0.0446  0.0616 -0.4594
 4019TP3     H123876   0.623   2.502   2.444 -2.7361  0.6431  1.4066
 4019TP3     H223877   0.703   2.468   2.568  0.0276  0.0680 -0.4803
 4020TP3      O23878   1.035   2.604   1.977  0.1356  0.7261  0.4034
 4020TP3     H123879   1.029   2.557   2.060  1.2728  0.0568  0.1133
 4020TP3     H223880   0.961   2.664   1.979 -2.1985 -2.0208  0.1681
 4021TP3      O23881   0.538   1.896   3.602  0.0951 -0.1042  0.2646
 4021TP3     H123882   0.580   1.924   3.520  1.0183 -1.3823  0.2936
 4021TP3     H223883   0.610   1.865   3.656 -0.5962  0.1238  1.3216
 4022TP3      O23884   1.767   1.295   1.873  0.2950  0.0481 -0.1954
 4022TP3     H123885   1.758   1.200   1.872  0.4853  0.0311 -0.8704
 4022TP3     H223886   1.753   1.320   1.964 -0.3118 -0.5732 -0.1129
 4023TP3      O23887   0.480   3.996   2.080  0.0791  0.5138  0.7059
 4023TP3     H123888   0.498   3.940   2.155 -0.0082 -0.7585 -0.1964
 4023TP3     H223889   0.442   3.937   2.015  1.0586  1.3768 -0.6955
 4024TP3      O23890   2.466   4.891   0.131  0.4982  0.3195  0.0246
 4024TP3     H123891   2.544   4.936   0.101  0.4074  0.1301 -0.4990
 4024TP3     H223892   2.446   4.931   0.216  0.0140  1.7562 -0.7570
 4025TP3      O23893   4.168   1.300   2.216  0.0143 -0.1643 -0.0031
 4025TP3     H123894   4.125   1.374   2.174  0.3221  0.1575  0.2401
 4025TP3     H223895   4.109   1.275   2.288  0.0261 -0.0002  0.0633
 4026TP3      O23896   1.222   2.050   1.894  0.1188  0.1255  0.5717
 4026TP3     H123897   1.172   1.971   1.875 -1.2939  1.9564 -4.1933
 4026TP3     H223898   1.163   2.105   1.945 -0.2384 -0.4682  0.7980
 4027TP3      O23899   0.528   0.852   2.267  0.0774 -0.3151 -0.1406
 4027TP3     H123900   0.437   0.878   2.281 -0.6103 -1.3996 -2.3650
 4027TP3     H223901   0.551   0.802   2.346 -0.5783  1.6933  1.3498
 4028TP3      O23902   1.793   4.320   1.835 -0.3683  0.0514  0.3625
 4028TP3     H123903   1.784   4.239   1.886 -1.1403 -1.4841 -2.0603
 4028TP3     H223904   1.869   4.304   1.779  0.2116  1.5190  0.7299
 4029TP3      O23905   1.272   3.550   1.936  0.1640 -0.3415 -0.0216
 4029TP3     H123906   1.219   3.621   1.900 -0.7133 -1.5179 -1.0905
 4029TP3     H223907   1.321   3.591   2.008 -1.1972  1.0666  0.1375
 4030TP3      O23908   0.652   5.319   2.134 -0.2629  0.3729  0.2261
 4030TP3     H123909   0.664   5.356   2.222 -0.5865  0.0200  0.4195
 4030TP3     H223910   0.726   5.353   2.084 -0.5979  1.3624  0.3758
 4031TP3      O23911   4.595   2.897   1.709  0.5774 -0.3722  0.4978
 4031TP3     H123912   4.664   2.908   1.643  0.4217 -2.4017 -0.0414
 4031TP3     H223913   4.640   2.862   1.786  0.3236 -0.6907  0.5027
 4032TP3      O23914   1.215   0.788   3.139  0.2914 -0.3178 -0.1666
 4032TP3     H123915   1.219   0.830   3.225  1.4105  0.0251 -0.3815
 4032TP3     H223916   1.282   0.721   3.141  0.1912 -0.4430 -0.7034
 4033TP3      O23917   4.376   5.283   1.515  0.5599 -0.3211  0.0032
 4033TP3     H123918   4.459   5.273   1.469 -0.1152  0.1505 -1.3282
 4033TP3     H223919   4.323   5.339   1.459 -0.6855 -0.6426  0.8187
 4034TP3      O23920   0.080   4.775   0.892  0.0914  0.1034 -0.3014
 4034TP3     H123921   0.092   4.684   0.918 -1.6214 -0.4970 -1.4805
 4034TP3     H223922   0.031   4.815   0.964 -1.5457 -0.6373 -0.9784
 4035TP3      O23923   4.990   0.417   1.759  0.0144  0.2248 -0.4152
 4035TP3     H123924   4.939   0.356   1.812 -2.5154  1.6948 -1.0817
 4035TP3     H223925   5.064   0.366   1.727 -1.9375 -2.4212 -0.7844
 4036TP3      O23926   4.472   0.682   1.447  0.4212  0.3600 -0.1703
 4036TP3     H123927   4.566   0.683   1.466  0.3241  1.8924  0.2789
 4036TP3     H223928   4.431   0.669   1.533  0.1544  1.8220 -0.0750
 4037TP3      O23929   1.600   2.946   2.493  0.9561  0.0098 -0.0563
 4037TP3     H123930   1.626   3.038   2.503 -0.3976  0.6120 -1.7487
 4037TP3     H223931   1.512   2.942   2.528  0.5486 -0.3610 -1.0986
 4038TP3      O23932   5.000   1.530   3.579  0.2749  0.3738  0.3454
 4038TP3     H123933   4.922   1.481   3.603 -0.2008  0.6701 -0.5561
 4038TP3     H223934   5.073   1.478   3.613 -0.2702 -0.5114  0.1697
 4039TP3      O23935   5.324   0.449   2.331  0.2460  0.0463 -0.0653
 4039TP3     H123936   5.298   0.357   2.336  0.9135 -0.1886 -0.8381
 4039TP3     H223937   5.294   0.479   2.245 -1.5119  1.0415  0.8745
 4040TP3      O23938   1.922   1.156   0.583 -0.4918 -0.1221  0.1995
 4040TP3     H123939   1.844   1.180   0.633  1.3393  2.0839  2.0865
 4040TP3     H223940   1.931   1.226   0.518  0.7872  0.4841  1.0155
 4041TP3      O23941   1.708   1.453   2.733  0.3585  0.2761  0.2531
 4041TP3     H123942   1.666   1.467   2.818  0.3821  1.4286  0.0792
 4041TP3     H223943   1.727   1.541   2.701  0.3231 -0.1518 -0.9635
 4042TP3      O23944   0.234   0.610   9.840 -0.1988 -0.4082 -0.2336
 4042TP3     H123945   0.183   0.601   9.921  3.9122 -0.1568  2.5188
 4042TP3     H223946   0.268   0.700   9.843 -0.1066 -0.3557 -2.3325
 4043TP3      O23947   0.079   0.930   3.085 -0.0370 -0.0171  0.0473
 4043TP3     H123948   0.101   0.875   3.010  2.8182 -1.6498  1.9740
 4043TP3     H223949  -0.013   0.911   3.103  0.2210 -2.2990 -0.8596
 4044TP3      O23950   1.629   4.462   2.063 -0.2143  0.0654  0.4418
 4044TP3     H123951   1.676   4.411   2.128 -1.7703 -0.7835  0.9461
 4044TP3     H223952   1.672   4.442   1.980 -0.8408 -2.1357  0.6226
 4045TP3      O23953   0.553   5.106   2.417  0.2348 -0.2512 -0.6175
 4045TP3     H123954   0.610   5.181   2.400 -1.1435  0.7574 -0.9566
 4045TP3     H223955   0.588   5.036   2.363 -0.9807  1.3947 -3.6883
 4046TP3      O23956   5.490   0.595   1.231  0.0667 -0.0315  0.6808
 4046TP3     H123957   5.516   0.503   1.227 -1.0401 -0.2908 -0.9172
 4046TP3     H223958   5.401   0.593   1.267 -0.8841  0.2071 -1.5762
 4047TP3      O23959   0.432   0.251   2.130 -0.6856  0.1777 -0.7211
 4047TP3     H123960   0.500   0.259   2.063 -1.3362 -0.4153 -1.4453
 4047TP3     H223961   0.353   0.227   2.083 -0.8166 -1.7304  0.4070
 4048TP3      O23962   5.304   4.334   0.824  0.0516  0.0623  0.2155
 4048TP3     H123963   5.245   4.409   0.828  0.1033  0.0328  1.8059
 4048TP3     H223964   5.253   4.261   0.859  0.4729 -0.3249  0.0358
 4049TP3      O23965   1.485   3.708   2.069 -0.6136  0.0898 -0.6670
 4049TP3     H123966   1.483   3.654   2.149  0.9598  0.0101 -0.6701
 4049TP3     H223967   1.462   3.796   2.099 -2.9372 -0.4971 -0.6189
 4050TP3      O23968   1.967   1.598   1.907 -0.2958  0.1915  0.8144
 4050TP3     H123969   1.905   1.647   1.853  1.2186  0.6745 -0.5009
 4050TP3     H223970   1.991   1.659   1.977 -1.0673  0.1046  1.1603
 4051TP3      O23971   0.023   1.769   0.552 -0.1353 -0.5680 -0.0799
 4051TP3     H123972  -0.006   1.686   0.515 -1.8142  0.4732 -1.1685
 4051TP3     H223973  -0.001   1.835   0.486  1.1679  0.7804  0.7595
 4052TP3      O23974   2.743   0.022   2.282  0.2646 -0.1263  0.1986
 4052TP3     H123975   2.824  -0.009   2.324 -0.2812 -2.9416 -0.7269
 4052TP3     H223976   2.688   0.050   2.355  0.3725 -2.3992  1.1912
 4053TP3      O23977   0.406   5.004   2.865 -0.1956  0.5538  0.6223
 4053TP3     H123978   0.462   4.999   2.943 -0.7315  1.8160  1.1022
 4053TP3     H223979   0.356   5.085   2.877 -0.7534  0.4159 -0.7239
 4054TP3      O23980   2.832   1.221   1.519  0.2172 -0.7195 -0.0385
 4054TP3     H123981   2.894   1.214   1.593 -0.3444  1.3121  0.6598
 4054TP3     H223982   2.756   1.171   1.548  0.8415 -1.7408 -0.1480
 4055TP3      O23983   0.632   1.844   2.274 -0.0982 -0.1441  0.3585
 4055TP3     H123984   0.636   1.862   2.180  0.2830  1.0893  0.5912
 4055TP3     H223985   0.573   1.769   2.282 -0.0248 -0.3471 -0.8714
 4056TP3      O23986   0.787   0.725   2.678  0.0520  0.5603 -0.6086
 4056TP3     H123987   0.808   0.645   2.726 -0.8018  0.6445 -0.0845
 4056TP3     H223988   0.864   0.742   2.625 -0.2664 -1.3426 -1.7144
 4057TP3      O23989   1.093   1.196   3.521  0.2810 -0.2957 -0.0137
 4057TP3     H123990   1.073   1.288   3.537  0.1812  0.0151 -1.8667
 4057TP3     H223991   1.142   1.196   3.439 -0.4625 -1.9751 -0.4740
 4058TP3      O23992   0.421   2.331   1.426  0.4595  0.3110  0.0199
 4058TP3     H123993   0.371   2.272   1.482 -1.5185  2.1370  0.2433
 4058TP3     H223994   0.383   2.418   1.442  1.6953  1.2886 -2.0874
 4059TP3      O23995   4.576   0.062   2.273 -0.3533 -0.5842 -0.4717
 4059TP3     H123996   4.592   0.101   2.359  0.0306  0.3025 -0.9296
 4059TP3     H223997   4.483   0.039   2.274 -0.0777 -1.6633  0.6051
 4060TP3      O23998   2.567   0.222   1.513  0.7348  0.3752  0.0391
 4060TP3     H123999   2.656   0.244   1.539  0.1089  1.4939  1.3409
 4060TP3     H224000   2.512   0.260   1.582 -0.7422 -0.3579 -0.6998
 4061TP3      O24001   0.720   0.715   3.093 -0.3026 -0.2017 -0.4439
 4061TP3     H124002   0.671   0.795   3.114 -0.7235 -0.3655 -0.8238
 4061TP3     H224003   0.654   0.651   3.070 -0.1514 -1.4024  2.2393
 4062TP3      O24004   0.745   1.513   2.342 -0.2810  0.1713 -0.3530
 4062TP3     H124005   0.789   1.429   2.357  1.8943  1.0646 -1.4658
 4062TP3     H224006   0.806   1.578   2.377 -1.0055  1.4282 -1.3839
 4063TP3      O24007   5.260   2.693   2.635  0.4701 -0.1688  0.4737
 4063TP3     H124008   5.354   2.703   2.628  0.3343  3.3807  2.4739
 4063TP3     H224009   5.248   2.623   2.698  1.7711 -0.2516  0.6401
 4064TP3      O24010   1.750   0.874   2.884  0.3201 -0.0486  0.2964
 4064TP3     H124011   1.761   0.815   2.959 -3.0745  0.0753  0.9877
 4064TP3     H224012   1.828   0.929   2.885  0.3293  0.0108  3.8535
 4065TP3      O24013   0.944   2.676   0.895  0.4622  0.5001 -0.3481
 4065TP3     H124014   1.037   2.669   0.872 -0.5112 -0.3487 -4.2213
 4065TP3     H224015   0.920   2.766   0.873  0.1409  0.4601 -0.1708
 4066TP3      O24016   0.119   2.910   1.515  0.2957  0.3500 -0.2847
 4066TP3     H124017   0.152   2.912   1.425  2.1513 -2.9589  0.2224
 4066TP3     H224018   0.198   2.907   1.570 -0.7713 -2.1010  1.2084
 4067TP3      O24019   0.821   1.503   0.769 -0.0703  0.3059  0.7911
 4067TP3     H124020   0.754   1.444   0.804  1.0406 -1.8405 -0.5990
 4067TP3     H224021   0.886   1.510   0.839 -1.3419  1.8489  1.8776
 4068TP3      O24022   0.087   2.872   2.416 -0.5192  0.1672  0.0836
 4068TP3     H124023   0.153   2.940   2.429  0.0935 -0.1593 -1.1531
 4068TP3     H224024   0.019   2.914   2.363 -0.8508  0.2322  0.5579
 4069TP3      O24025   2.498   1.937   2.937  0.5659  0.4891 -0.2627
 4069TP3     H124026   2.480   2.020   2.894  0.1589 -0.4772 -1.9782
 4069TP3     H224027   2.510   1.960   3.029  0.2007  2.4043 -0.6798
 4070TP3      O24028   1.575   1.526   2.999 -0.1198 -0.0677 -0.2067
 4070TP3     H124029   1.527   1.458   3.046 -0.1527 -0.1924 -0.4191
 4070TP3     H224030   1.508   1.589   2.973  0.0885  0.7148  1.1272
 4071TP3      O24031   0.662   2.383   1.925  0.5872  0.2828  0.2219
 4071TP3     H124032   0.741   2.329   1.912  0.8964  0.5125  1.1110
 4071TP3     H224033   0.687   2.445   1.994 -0.0969  0.9095 -0.0981
 4072TP3      O24034   4.166   1.996   0.443  0.5632  0.0294  0.4235
 4072TP3     H124035   4.121   1.971   0.524  2.1098 -0.4779  1.1428
 4072TP3     H224036   4.228   1.925   0.427 -0.1604 -0.1967 -1.5756
 4073TP3      O24037   5.451   4.984   1.049 -0.2555 -0.3685  0.4343
 4073TP3     H124038   5.382   5.028   0.999 -1.1721 -1.8374  0.3535
 4073TP3     H224039   5.506   5.055   1.083  0.4384  0.6818 -2.6986
 4074TP3      O24040   1.495   5.243   1.054 -0.1439 -0.1020 -0.3883
 4074TP3     H124041   1.548   5.293   0.992  1.0964 -0.1055  0.6292
 4074TP3     H224042   1.481   5.304   1.127 -0.9093 -0.3542 -0.3214
 4075TP3      O24043   1.709   1.400   2.178  0.0251  0.4865 -0.0679
 4075TP3     H124044   1.622   1.372   2.151  0.1746  0.8108 -0.8989
 4075TP3     H224045   1.694   1.468   2.244 -0.3401 -0.7099  1.1132
 4076TP3      O24046   0.436   3.006   1.221 -0.4354  0.0479 -0.2719
 4076TP3     H124047   0.467   3.097   1.224 -0.7400  0.1294  0.8173
 4076TP3     H224048   0.481   2.968   1.146  0.6035  0.7840 -0.0407
 4077TP3      O24049   1.366   0.082   1.974  0.5274 -0.3527  0.3706
 4077TP3     H124050   1.418   0.054   2.049  1.4787 -1.1534 -0.5819
 4077TP3     H224051   1.292   0.022   1.972  2.2683 -2.4809 -1.3360
 4078TP3      O24052   5.363   2.243   1.816 -0.2040 -0.2728  0.3035
 4078TP3     H124053   5.324   2.273   1.734 -1.7726 -0.4800  0.9473
 4078TP3     H224054   5.324   2.300   1.883 -0.7998 -1.6724  1.1697
 4079TP3      O24055   5.100   3.888   2.234 -0.4463  0.3763 -0.3742
 4079TP3     H124056   5.122   3.846   2.318  2.5041  1.4459 -0.5679
 4079TP3     H224057   5.040   3.958   2.258 -2.0988 -1.2495  0.4441
 4080TP3      O24058   3.507   0.437   2.159 -0.4601  0.8544  0.2121
 4080TP3     H124059   3.420   0.428   2.122 -0.5635 -0.8551  0.8252
 4080TP3     H224060   3.506   0.380   2.237  1.2799  0.5690  0.0466
 4081TP3      O24061   0.131   0.811   2.848  0.3250  0.5949  0.3135
 4081TP3     H124062   0.199   0.816   2.780  0.8465 -2.2876  0.5970
 4081TP3     H224063   0.080   0.734   2.826 -1.8877  1.7925  1.0660
 4082TP3      O24064   2.376   0.338   1.699  0.2940  0.6742  0.7487
 4082TP3     H124065   2.289   0.340   1.738 -0.1599 -1.1545 -0.1458
 4082TP3     H224066   2.425   0.275   1.751  0.4673  0.1770 -0.0058
 4083TP3      O24067   0.096   0.359   1.105  0.0257 -0.6023 -0.4292
 4083TP3     H124068   0.106   0.380   1.012  0.6678  0.4587 -0.1247
 4083TP3     H224069   0.179   0.318   1.129  0.0727 -0.3551 -0.1774
 4084TP3      O24070   0.408   0.643   0.365  0.4154  0.2686  0.0057
 4084TP3     H124071   0.360   0.684   0.293 -0.2346  0.2670  0.4326
 4084TP3     H224072   0.497   0.678   0.358  0.4530 -0.0473 -1.0373
 4085TP3      O24073   0.742   4.215   2.913  0.5546 -0.2351  0.0477
 4085TP3     H124074   0.808   4.234   2.845  0.9026  0.5866  0.6045
 4085TP3     H224075   0.791   4.167   2.980  0.5022  0.0449  0.2868
 4086TP3      O24076   3.837   0.860   2.068  0.1047  0.1066  0.4496
 4086TP3     H124077   3.770   0.884   2.004 -0.8390  0.6492  1.6087
 4086TP3     H224078   3.888   0.940   2.080  0.3014 -0.0035  0.3455
 4087TP3      O24079   1.082   0.381   3.427  0.2883  0.0406 -0.0752
 4087TP3     H124080   1.141   0.357   3.499 -0.4439 -0.4902  0.3584
 4087TP3     H224081   1.139   0.383   3.350  0.5221 -2.5353 -0.0368
 4088TP3      O24082   2.886   0.599   1.070  0.6985  0.0581 -0.6407
 4088TP3     H124083   2.920   0.688   1.059  0.9881  0.0082 -0.1501
 4088TP3     H224084   2.848   0.578   0.985 -0.6266  1.1795 -0.3422
 4089TP3      O24085   1.588   5.009   2.058 -0.2915  0.2547  0.0327
 4089TP3     H124086   1.561   4.950   2.128  0.3088 -0.4814 -0.3502
 4089TP3     H224087   1.553   4.969   1.978  0.7478  0.0161 -0.3146
 4090TP3      O24088   5.032   1.563   2.443  0.3858 -0.3096 -0.1201
 4090TP3     H124089   5.039   1.615   2.363  2.1235 -0.8924 -0.3602
 4090TP3     H224090   5.014   1.474   2.413 -0.1255 -0.3184  0.1963
 4091TP3      O24091   1.338   4.085   2.977 -0.0990 -0.4196 -0.4985
 4091TP3     H124092   1.361   4.114   2.888 -1.6058  0.1251 -0.7243
 4091TP3     H224093   1.341   4.165   3.030 -2.0220 -0.2209 -0.6563
 4092TP3      O24094   2.349   3.985   2.327  0.0779 -0.3599 -0.2526
 4092TP3     H124095   2.356   4.041   2.404  1.0638 -2.0312  0.9181
 4092TP3     H224096   2.258   3.992   2.300 -0.6478 -0.8726  1.9451
 4093TP3      O24097   0.183   3.880   1.719 -0.0715  0.1844 -0.1295
 4093TP3     H124098   0.266   3.880   1.766 -0.6446 -0.6818  0.9071
 4093TP3     H224099   0.143   3.795   1.741 -0.5040 -0.0911 -1.9000
 4094TP3      O24100   1.874   1.163   2.908  0.1812 -0.1347  0.5273
 4094TP3     H124101   1.909   1.229   2.966 -0.0853  0.2634  0.2403
 4094TP3     H224102   1.944   1.098   2.899  0.5734  0.2879  0.5250
 4095TP3      O24103   5.369   4.598   2.931  0.0734 -0.8746 -0.1251
 4095TP3     H124104   5.318   4.608   2.851  2.7339 -0.8702 -1.8712
 4095TP3     H224105   5.360   4.506   2.954 -2.4224 -0.4344  0.8008
 4096TP3      O24106   0.502   1.806   3.133 -0.3039 -0.1345 -0.1406
 4096TP3     H124107   0.489   1.712   3.137  2.4667 -0.6639 -1.8677
 4096TP3     H224108   0.515   1.825   3.040 -0.5533  1.8997  0.2139
 4097TP3      O24109   0.075   0.224   1.661  0.2545 -0.1106  0.0846
 4097TP3     H124110   0.010   0.234   1.730  0.2439 -0.6323  0.1507
 4097TP3     H224111   0.040   0.274   1.587  0.3010  0.5062  0.4757
 4098TP3      O24112   1.435   3.730   2.791  0.2917  0.1214 -0.6113
 4098TP3     H124113   1.467   3.642   2.810  2.1414  0.9746  0.3264
 4098TP3     H224114   1.347   3.732   2.826  1.0343 -0.6679  1.3511
 4099TP3      O24115   1.494   2.461   1.382  0.0543 -0.4696  0.2596
 4099TP3     H124116   1.554   2.518   1.429 -0.5154  0.1151  0.2758
 4099TP3     H224117   1.463   2.400   1.449 -0.0608 -0.2092  0.4443
 4100TP3      O24118   0.322   5.281   2.940  0.3315  0.2431  0.4153
 4100TP3     H124119   0.279   5.349   2.991  0.1964  1.3176 -1.0933
 4100TP3     H224120   0.407   5.269   2.982  1.3150  3.0184 -0.6650
 4101TP3      O24121   1.246   1.608   2.156  0.5198 -0.4986 -0.3141
 4101TP3     H124122   1.178   1.675   2.156  0.1389 -0.8884 -0.6278
 4101TP3     H224123   1.231   1.559   2.236  1.7463  0.7457  0.7204
 4102TP3      O24124   0.424   2.775   2.347  0.2253  0.3381  0.4203
 4102TP3     H124125   0.518   2.779   2.327  0.1494  5.0435  0.4917
 4102TP3     H224126   0.389   2.711   2.286  3.2408 -0.3514 -0.6674
 4103TP3      O24127   2.286   2.361   1.810  0.0215  0.0904  0.3321
 4103TP3     H124128   2.196   2.361   1.843 -1.1670  0.8449 -2.7241
 4103TP3     H224129   2.319   2.448   1.833  0.4410 -0.6096  2.5316
 4104TP3      O24130   0.038   2.689   2.613 -0.5001  0.3676 -0.2016
 4104TP3     H124131   0.119   2.638   2.614 -0.3632  0.5591 -1.1713
 4104TP3     H224132   0.051   2.753   2.542 -1.4823  0.4335 -0.3254
 4105TP3      O24133   0.923   2.289   2.374  0.4277  0.4692  0.4472
 4105TP3     H124134   0.945   2.265   2.284  0.2753  0.0890  0.5133
 4105TP3     H224135   0.833   2.259   2.387  1.5656 -2.6140  1.8207
 4106TP3      O24136   4.682   2.162   2.809  0.0095 -0.2904  0.0600
 4106TP3     H124137   4.667   2.185   2.901  0.8728 -1.4454  0.5052
 4106TP3     H224138   4.626   2.086   2.795  1.1211 -1.1281  0.1100
 4107TP3      O24139   0.623   1.197   2.769  0.1326 -0.2244 -0.2405
 4107TP3     H124140   0.540   1.199   2.723 -1.3164  1.0958  2.3157
 4107TP3     H224141   0.644   1.290   2.784  1.4669 -0.5761  0.1468
 4108TP3      O24142   0.836   0.637   1.638 -0.5531 -1.0705 -0.1475
 4108TP3     H124143   0.841   0.632   1.734 -2.3753  0.3361  0.0436
 4108TP3     H224144   0.801   0.724   1.620 -0.0051 -1.2336 -2.1178
 4109TP3      O24145   1.683   4.709   2.317  0.2901 -0.9527  0.2459
 4109TP3     H124146   1.695   4.646   2.388  0.2900 -0.3922  0.7461
 4109TP3     H224147   1.719   4.666   2.240 -0.4406 -1.8947  0.4170
 4110TP3      O24148   3.358   1.222   1.011 -0.1770  0.3742 -0.2636
 4110TP3     H124149   3.267   1.250   0.999 -0.1269  0.3401 -0.7097
 4110TP3     H224150   3.409   1.279   0.954 -0.1493 -1.1000 -1.7514
 4111TP3      O24151   0.981   5.115   2.506  0.5309  0.1813 -0.2987
 4111TP3     H124152   0.928   5.076   2.436  0.0031 -0.7947  0.6237
 4111TP3     H224153   0.917   5.144   2.571  1.1097 -1.6067  1.1361
 4112TP3      O24154   0.723   5.094   3.285  0.4814  0.5095 -0.4535
 4112TP3     H124155   0.759   5.155   3.221  0.7468  0.8230 -0.0091
 4112TP3     H224156   0.800   5.060   3.331  0.3124  0.0753 -0.4907
 4113TP3      O24157   4.238   5.274  10.247  0.3116  0.2036  0.0824
 4113TP3     H124158   4.280   5.192  10.220 -0.8057 -0.9769  1.8304
 4113TP3     H224159   4.149   5.267  10.211  0.5327  1.1514 -0.6732
 4114TP3      O24160   4.609   4.627   1.517 -0.0624 -0.0730 -0.2071
 4114TP3     H124161   4.668   4.643   1.443  1.4052  0.2688  1.0168
 4114TP3     H224162   4.650   4.673   1.590 -1.6496 -0.1774  0.7550
 4115TP3      O24163   2.794   0.223   0.901  0.2042 -0.7228  0.5660
 4115TP3     H124164   2.712   0.243   0.855 -0.7484 -1.2700  1.9849
 4115TP3     H224165   2.845   0.304   0.896 -0.4520 -0.3518 -0.2654
 4116TP3      O24166   1.637   3.150   1.881  0.7516  0.0039 -0.2054
 4116TP3     H124167   1.561   3.203   1.857  0.9260  1.8306  3.0420
 4116TP3     H224168   1.712   3.204   1.856  0.9430  0.2516  0.8928
 4117TP3      O24169   4.828   2.191   1.140 -0.3125 -0.6027 -0.2621
 4117TP3     H124170   4.851   2.180   1.048  1.6159  2.7753 -0.2470
 4117TP3     H224171   4.777   2.272   1.143  0.2102 -0.3215  1.7345
 4118TP3      O24172   4.022   4.511   1.743 -0.1470  0.4552  0.3405
 4118TP3     H124173   4.018   4.531   1.649  1.6037  0.2403  0.2127
 4118TP3     H224174   4.092   4.567   1.777 -0.6943  0.4467  1.5034
 4119TP3      O24175   2.136   2.371   2.714 -0.1900 -0.1772  0.0115
 4119TP3     H124176   2.206   2.435   2.725 -0.9773  0.7860 -0.5548
 4119TP3     H224177   2.078   2.386   2.788 -0.4902 -0.0942 -0.2421
 4120TP3      O24178   0.904   2.123   0.150 -0.5568  0.1791  0.4332
 4120TP3     H124179   0.884   2.212   0.123  2.7824 -0.2658 -4.0776
 4120TP3     H224180   0.973   2.132   0.216  0.9221  0.9385 -1.1862
 4121TP3      O24181   0.614   1.896   2.633  0.1129  0.2931  0.0768
 4121TP3     H124182   0.600   1.966   2.569  0.0815 -0.0211 -0.2616
 4121TP3     H224183   0.700   1.916   2.671  0.1279  0.4893 -0.0551
 4122TP3      O24184   0.288   0.103   3.496 -0.5015 -0.0623  0.1873
 4122TP3     H124185   0.362   0.077   3.441 -0.7346 -0.1310 -0.0950
 4122TP3     H224186   0.211   0.085   3.442 -0.6524  1.6817 -0.2108
 4123TP3      O24187   1.538   5.149   1.690 -0.2939  0.4068  0.1443
 4123TP3     H124188   1.557   5.138   1.597  0.6874  1.3885  0.2133
 4123TP3     H224189   1.520   5.061   1.722  0.6139 -0.0903 -0.7082
 4124TP3      O24190   0.088   0.418   0.599 -0.4123 -0.0416 -0.1808
 4124TP3     H124191   0.035   0.497   0.612 -1.7613 -1.0141  0.3832
 4124TP3     H224192   0.102   0.414   0.504 -2.0251 -0.1779 -0.4307
 4125TP3      O24193   1.069   0.326   3.066  0.0664 -0.1899  0.2845
 4125TP3     H124194   1.038   0.417   3.062  0.1345 -0.1820 -0.1514
 4125TP3     H224195   1.161   0.334   3.091 -0.0569 -0.1651  0.7267
 4126TP3      O24196   2.615   0.802   2.966 -0.0869  0.3075 -0.3386
 4126TP3     H124197   2.527   0.781   2.995  0.1972 -0.1127  0.2195
 4126TP3     H224198   2.661   0.718   2.963  0.2185  0.4864 -0.9001
 4127TP3      O24199   0.887   4.567   9.726 -0.4476 -0.6086  0.4536
 4127TP3     H124200   0.847   4.650   9.703  0.7594 -0.6777 -2.1477
 4127TP3     H224201   0.817   4.515   9.764 -1.3364  1.4006  1.5560
 4128TP3      O24202   0.917   5.526   1.708  0.7992  0.3257  0.1032
 4128TP3     H124203   0.946   5.448   1.661 -0.3045  0.3440 -0.6309
 4128TP3     H224204   0.944   5.599   1.651  0.0165  0.3758 -0.2145
 4129TP3      O24205   2.480   5.448   0.724 -0.1385 -1.0067 -0.4672
 4129TP3     H124206   2.570   5.415   0.720  0.3961  0.3351  0.1808
 4129TP3     H224207   2.459   5.449   0.818  0.1593  1.2667 -0.4015
 4130TP3      O24208   4.515   4.710   2.999 -0.6306  0.3792  0.5774
 4130TP3     H124209   4.450   4.652   2.959 -1.0930  1.2275  0.0649
 4130TP3     H224210   4.522   4.680   3.090 -1.2865 -0.1067  0.4712
 4131TP3      O24211   2.385   1.573   2.382 -0.1573  0.3201  0.0417
 4131TP3     H124212   2.298   1.614   2.381 -0.6948 -0.7894  0.7011
 4131TP3     H224213   2.408   1.563   2.290 -0.6016  0.8996 -0.1296
 4132TP3      O24214   3.761   1.144   1.298  0.2647 -0.6034 -0.1729
 4132TP3     H124215   3.811   1.150   1.380  0.5126  0.1417 -0.3811
 4132TP3     H224216   3.757   1.050   1.280  0.0021 -0.7974  0.8219
 4133TP3      O24217   1.186   1.621   0.864  0.1557 -0.2123  0.1664
 4133TP3     H124218   1.123   1.560   0.902  2.4613 -2.1797  0.9501
 4133TP3     H224219   1.271   1.585   0.888  1.5815  3.3356  0.6106
 4134TP3      O24220   3.006   1.571   2.983 -0.2142 -0.0817 -0.3104
 4134TP3     H124221   2.967   1.513   3.049  0.5175  0.5040  0.6504
 4134TP3     H224222   2.932   1.596   2.928 -1.3101  1.3360  1.7245
 4135TP3      O24223   3.727   2.030   2.098  0.7498  0.3082  0.0878
 4135TP3     H124224   3.752   1.958   2.156 -1.2853 -0.6527 -0.1836
 4135TP3     H224225   3.700   1.987   2.017 -1.1031  1.3332  0.1358
 4136TP3      O24226   4.758   4.655   1.231  0.1104  0.5138 -0.5692
 4136TP3     H124227   4.678   4.693   1.196 -0.7340 -0.6535  0.0262
 4136TP3     H224228   4.793   4.603   1.159 -1.1380 -1.1519 -0.0267
 4137TP3      O24229   2.150   0.969   2.388 -0.4692  0.7934 -0.5337
 4137TP3     H124230   2.108   0.910   2.450 -1.1111  0.9819 -0.7853
 4137TP3     H224231   2.088   0.976   2.315 -0.1744  1.3721 -0.7375
 4138TP3      O24232   3.009   1.837   1.792  0.1746  0.4541  0.2167
 4138TP3     H124233   2.961   1.908   1.833 -0.7202  0.6753 -1.1833
 4138TP3     H224234   3.029   1.868   1.704  1.2533 -0.3667  0.1531
 4139TP3      O24235   4.009   2.069   3.120 -0.5089  0.2366 -0.2658
 4139TP3     H124236   3.940   2.004   3.106  1.0352 -1.6145  0.6123
 4139TP3     H224237   4.058   2.068   3.038  1.0635 -1.6056  0.6706
 4140TP3      O24238   1.491   1.959   1.792 -0.2685  0.0777 -0.3287
 4140TP3     H124239   1.447   2.009   1.861 -0.4525 -0.2940 -0.1747
 4140TP3     H224240   1.438   1.976   1.714 -0.3176  0.1427 -0.2819
 4141TP3      O24241   2.371   1.035   1.271  0.2076 -0.2133 -0.2803
 4141TP3     H124242   2.313   0.983   1.215  0.3570 -1.7153  0.9304
 4141TP3     H224243   2.330   1.031   1.357  1.5885 -0.4533  0.3710
 4142TP3      O24244   4.950   1.315   2.366 -0.2431 -0.7454 -0.3779
 4142TP3     H124245   4.855   1.307   2.350 -0.1601 -1.1805 -0.6441
 4142TP3     H224246   4.977   1.229   2.397 -0.1116 -0.3411  0.6387
 4143TP3      O24247   3.002   0.418   1.917 -0.2134  0.0693 -0.2504
 4143TP3     H124248   3.033   0.507   1.897 -0.1000  0.4546  1.5372
 4143TP3     H224249   3.066   0.360   1.875  0.9443  0.8405  0.4243
 4144TP3      O24250   3.020   1.486   2.403  0.3913 -0.0578 -0.2167
 4144TP3     H124251   3.059   1.440   2.329  3.3326  1.2371  0.4593
 4144TP3     H224252   2.966   1.554   2.364  2.4493  1.0457 -1.2215
 4145TP3      O24253   1.815   5.458   2.035  0.1471  0.2607 -0.2432
 4145TP3     H124254   1.840   5.500   1.953 -2.3785  1.3095 -0.5213
 4145TP3     H224255   1.734   5.410   2.014 -0.1844  0.0381  1.4749
 4146TP3      O24256   0.004   5.243   0.771  0.3271  0.1426 -0.1588
 4146TP3     H124257  -0.060   5.307   0.802  1.7792  0.9242  1.3176
 4146TP3     H224258  -0.048   5.178   0.723 -1.5493  0.8066  0.9263
 4147TP3      O24259   4.655   5.096   2.634  0.5018 -0.1139 -0.0956
 4147TP3     H124260   4.688   5.186   2.628  0.5487 -0.1746 -0.8739
 4147TP3     H224261   4.595   5.088   2.559 -1.1525 -0.0483  1.2015
 4148TP3      O24262   0.024   1.612   1.984  0.5616  0.3663 -0.2493
 4148TP3     H124263   0.000   1.679   1.920 -0.8593  0.4034  0.2991
 4148TP3     H224264   0.103   1.646   2.026  0.1096  1.4784 -0.2854
 4149TP3      O24265   1.638   4.518   9.983 -0.2471 -0.1031 -0.1546
 4149TP3     H124266   1.728   4.496  10.007  0.1076  0.1718 -1.2129
 4149TP3     H224267   1.601   4.557  10.062  0.7065  0.2135  0.1370
 4150TP3      O24268   1.923   1.310   2.646 -0.0909 -0.2084 -0.1287
 4150TP3     H124269   1.842   1.343   2.685 -0.3577 -0.7455 -0.2305
 4150TP3     H224270   1.919   1.215   2.658  0.8903 -0.1739  0.5665
 4151TP3      O24271   4.330   0.922   2.504 -0.5968 -0.1123  0.1478
 4151TP3     H124272   4.283   0.931   2.421 -1.8878 -2.3077  0.6102
 4151TP3     H224273   4.269   0.956   2.569 -0.0954  0.3871  0.3643
 4152TP3      O24274   1.630   1.200   2.750 -0.0498  0.5611 -0.1114
 4152TP3     H124275   1.703   1.171   2.804  1.4592  1.6634 -1.5128
 4152TP3     H224276   1.652   1.290   2.726 -1.5086  0.6597 -1.1488
 4153TP3      O24277   1.786   0.110   1.387 -0.0340 -0.0605 -0.1916
 4153TP3     H124278   1.855   0.094   1.451 -1.2740 -1.7402  0.7786
 4153TP3     H224279   1.760   0.201   1.401 -0.3131 -0.4156  1.7609
 4154TP3      O24280   4.927   2.066   2.898 -0.2486  0.8544  0.1466
 4154TP3     H124281   4.852   2.109   2.857 -1.2715 -0.1938  0.8910
 4154TP3     H224282   4.900   1.975   2.910  0.9628  0.5662  0.8622
 4155TP3      O24283   4.498   0.220   0.048 -0.3200  0.3240 -0.0904
 4155TP3     H124284   4.419   0.224   0.100 -1.7019  0.3321 -2.1224
 4155TP3     H224285   4.517   0.126   0.040 -0.3304  0.3059  0.1105
 4156TP3      O24286   1.852   1.848   1.301  0.0162 -0.3043 -0.0747
 4156TP3     H124287   1.911   1.918   1.328 -1.0014  0.9032 -0.9173
 4156TP3     H224288   1.908   1.772   1.290  1.2797  0.6149 -0.0362
 4157TP3      O24289   3.345   0.680   2.257  0.5861  0.0750  0.4890
 4157TP3     H124290   3.372   0.765   2.293  1.4416  0.7548 -1.6372
 4157TP3     H224291   3.416   0.620   2.282  0.7498  0.3404  0.6664
 4158TP3      O24292   2.821   1.284   2.506 -0.3739 -0.7111  0.1517
 4158TP3     H124293   2.857   1.339   2.436  1.2410  0.7753  2.0935
 4158TP3     H224294   2.727   1.282   2.488 -0.3269  1.8051 -0.6107
 4159TP3      O24295   4.479   4.160   1.432  0.0119 -0.2369  0.3796
 4159TP3     H124296   4.528   4.192   1.509  0.6506  0.8645 -0.4656
 4159TP3     H224297   4.512   4.214   1.360 -1.2021 -0.6907 -0.5128
 4160TP3      O24298   3.796   0.483   2.104 -0.3061 -0.6666 -0.0172
 4160TP3     H124299   3.713   0.436   2.103  0.1514 -1.4981 -1.3213
 4160TP3     H224300   3.862   0.415   2.088  0.5570  0.0941  0.2434
 4161TP3      O24301   1.040   0.291   1.690  0.4843  1.0778 -0.2026
 4161TP3     H124302   0.950   0.324   1.685  0.1733  0.0166 -2.2985
 4161TP3     H224303   1.071   0.293   1.599  1.1630 -2.3429 -0.1252
 4162TP3      O24304   2.326   0.138   0.663  0.1775  0.1351  0.4929
 4162TP3     H124305   2.380   0.059   0.658 -0.2390 -0.0713 -0.9756
 4162TP3     H224306   2.372   0.202   0.609  0.0046  0.5921  0.8837
 4163TP3      O24307   3.409   1.398   1.988  0.0576  0.4552  0.3384
 4163TP3     H124308   3.478   1.363   2.044  0.2942 -0.1612 -0.3273
 4163TP3     H224309   3.431   1.367   1.900 -2.6986 -2.3640  0.5339
 4164TP3      O24310   2.488   1.810   1.200 -0.1364 -0.0026 -0.3984
 4164TP3     H124311   2.546   1.734   1.207 -0.4169  0.0102  2.8659
 4164TP3     H224312   2.402   1.772   1.184 -0.1835 -0.3368  0.6507
 4165TP3      O24313   1.501   1.292   1.081 -0.5946  0.0071  0.4171
 4165TP3     H124314   1.430   1.327   1.134  1.0201  2.9139  0.7771
 4165TP3     H224315   1.533   1.216   1.130  1.1743  2.9084  3.9453
 4166TP3      O24316   3.525   1.143  10.084  0.4625 -0.0696  0.4207
 4166TP3     H124317   3.557   1.175  10.168 -0.7833 -0.5302  1.0867
 4166TP3     H224318   3.573   1.062  10.068  1.3841  0.5158  0.2320
 4167TP3      O24319   1.096   0.119   2.880  0.6487 -0.5589 -0.0934
 4167TP3     H124320   1.068   0.194   2.932 -1.0416  0.2538 -2.0932
 4167TP3     H224321   1.035   0.050   2.903  1.6283 -1.0625  1.0493
 4168TP3      O24322   3.564   3.283  10.125 -0.3916  0.5799 -0.1512
 4168TP3     H124323   3.573   3.218  10.056  0.7865 -0.7365  1.1841
 4168TP3     H224324   3.638   3.343  10.112  0.4384 -0.2749  0.5749
 4169TP3      O24325   2.973   1.873   2.731  0.1655  0.3209 -0.1003
 4169TP3     H124326   2.895   1.855   2.783 -0.6705  1.7546 -0.8196
 4169TP3     H224327   2.939   1.906   2.647  1.5178  0.0763 -0.7628
 4170TP3      O24328   4.680   0.841   1.802 -0.2082 -0.2146  0.6857
 4170TP3     H124329   4.615   0.777   1.830  1.2337 -1.7151  0.6663
 4170TP3     H224330   4.761   0.814   1.845  1.0480 -0.0228 -1.4892
 4171TP3      O24331   1.311   2.980   2.516  0.5177  0.1023  0.5856
 4171TP3     H124332   1.266   3.062   2.533  0.5552  0.0569  0.9182
 4171TP3     H224333   1.331   2.981   2.423 -0.6975 -0.1484  0.3202
 4172TP3      O24334   2.914   2.081   0.707 -0.4573  0.0174 -0.5733
 4172TP3     H124335   2.978   2.073   0.637  0.9435  0.1137  0.6594
 4172TP3     H224336   2.930   2.168   0.744 -1.6401  0.2379 -0.5793
 4173TP3      O24337   0.891   0.545   2.849 -0.3326 -0.2903  0.5667
 4173TP3     H124338   0.851   0.557   2.935  2.0286 -0.9216  1.7775
 4173TP3     H224339   0.962   0.609   2.846 -1.4679  0.9027 -1.6080
 4174TP3      O24340   1.962   2.312   2.289  0.6091 -0.7044 -0.0724
 4174TP3     H124341   1.873   2.345   2.302  0.1975 -1.3947 -1.1365
 4174TP3     H224342   1.970   2.301   2.195  1.6233 -1.2202  0.0714
 4175TP3      O24343   3.667   2.037   3.344  0.0978  0.4273  0.0933
 4175TP3     H124344   3.620   2.077   3.272  0.3723 -0.8542 -0.8292
 4175TP3     H224345   3.668   1.943   3.323 -2.3029 -0.3798  3.1765
 4176TP3      O24346   3.546   2.185   3.146 -0.2401 -0.5587  0.5854
 4176TP3     H124347   3.497   2.167   3.065 -2.3175 -0.3838  1.7601
 4176TP3     H224348   3.558   2.280   3.146 -1.8371 -0.3355  1.3337
 4177TP3      O24349   4.205   0.590   0.531  0.2516  0.3518  0.0569
 4177TP3     H124350   4.240   0.661   0.478  2.7862 -0.8279  0.0888
 4177TP3     H224351   4.121   0.624   0.563  0.2986  2.3963 -1.8381
 4178TP3      O24352   4.820   4.655   2.056  0.6646 -0.0885  0.3361
 4178TP3     H124353   4.785   4.742   2.038  0.2374 -0.5177 -1.0126
 4178TP3     H224354   4.884   4.668   2.126  0.3146  1.2395  0.4161
 4179TP3      O24355   1.100   2.276   2.565 -0.3841  0.3306  0.2922
 4179TP3     H124356   1.103   2.371   2.580  0.9044  0.7848 -2.4721
 4179TP3     H224357   1.042   2.266   2.489 -0.1919 -1.0465  0.3258
 4180TP3      O24358   4.200   3.306   0.404 -0.0761  0.4632 -0.7644
 4180TP3     H124359   4.181   3.278   0.314 -0.3217  0.4832 -0.7172
 4180TP3     H224360   4.245   3.390   0.393  1.2806 -0.2582 -0.9404
 4181TP3      O24361   3.148   1.447   2.129 -0.6695  0.3106  0.1321
 4181TP3     H124362   3.142   1.531   2.083 -1.9477 -0.1178 -0.5470
 4181TP3     H224363   3.234   1.414   2.107 -0.7625  0.7233 -0.9174
 4182TP3      O24364   1.766   3.188   2.933  0.4928 -0.0414  0.3357
 4182TP3     H124365   1.774   3.262   2.994  1.5650 -0.1934  0.4008
 4182TP3     H224366   1.720   3.121   2.983  0.9182  0.0196  0.8133
 4183TP3      O24367   1.568   5.489   1.645  0.0281 -0.0327  0.6085
 4183TP3     H124368   1.605   5.575   1.665 -0.2439  0.2730 -0.2026
 4183TP3     H224369   1.556   5.448   1.731 -1.1773  1.3003  1.1043
 4184TP3      O24370   0.000   4.696   1.242 -0.3335 -0.4245 -0.0337
 4184TP3     H124371   0.067   4.648   1.192  1.3940  1.6876  0.2057
 4184TP3     H224372  -0.079   4.686   1.190  0.5641 -1.4607 -1.2438
 4185TP3      O24373   4.964   4.433   0.264 -0.6045 -0.4417 -0.6169
 4185TP3     H124374   4.941   4.522   0.236 -2.4239 -0.4514  0.7660
 4185TP3     H224375   4.918   4.421   0.347  1.7341 -1.7594  0.5384
 4186TP3      O24376   1.827   4.934   2.430  0.0375  0.8059 -0.1016
 4186TP3     H124377   1.818   4.942   2.525  0.8554  1.2341 -0.0571
 4186TP3     H224378   1.763   4.867   2.405  1.9341 -1.5315  1.1287
 4187TP3      O24379   1.868   0.326   2.031  0.2697  0.0208 -0.1191
 4187TP3     H124380   1.847   0.233   2.041 -2.5324  0.6128 -0.1421
 4187TP3     H224381   1.947   0.338   2.084  1.3277 -2.5769 -1.0203
 4188TP3      O24382   2.399   0.156   2.670 -0.1194  0.2843 -0.3751
 4188TP3     H124383   2.316   0.128   2.631 -0.1678  1.7293 -1.3514
 4188TP3     H224384   2.392   0.131   2.762 -1.1288 -0.7204 -0.7185
 4189TP3      O24385   2.040   1.404   2.411 -0.1579  0.3512 -0.4805
 4189TP3     H124386   2.048   1.499   2.421  0.2548  0.3023 -0.3415
 4189TP3     H224387   1.976   1.378   2.477  2.0212  0.1261  1.6034
 4190TP3      O24388   4.017   4.944   1.849  0.2727 -0.3055 -0.1543
 4190TP3     H124389   4.104   4.930   1.812  0.1033 -0.8199 -0.3648
 4190TP3     H224390   4.033   4.960   1.942  0.5413 -1.1214 -0.0597
 4191TP3      O24391   2.852   4.455   1.103 -0.0473 -0.5140 -0.4809
 4191TP3     H124392   2.891   4.442   1.189 -1.3660 -0.9727  0.0689
 4191TP3     H224393   2.803   4.537   1.112  0.9730  0.1798 -1.2300
 4192TP3      O24394   2.649   5.436   1.886  0.1310  0.0967  0.1149
 4192TP3     H124395   2.595   5.373   1.935 -0.2675 -0.2414 -0.7446
 4192TP3     H224396   2.734   5.434   1.930  0.4168 -1.7623 -0.4960
 4193TP3      O24397   2.653   0.846   2.541  0.2480  0.1605  0.3042
 4193TP3     H124398   2.573   0.833   2.490  0.5919 -0.8475 -0.0021
 4193TP3     H224399   2.667   0.762   2.585 -0.3298  1.1997  2.4897
 4194TP3      O24400   1.965   5.234   1.343  0.1564 -0.3486  0.1219
 4194TP3     H124401   1.907   5.243   1.419 -0.0232  1.3958 -0.2160
 4194TP3     H224402   1.989   5.141   1.343 -1.5886 -0.8261  1.0278
 4195TP3      O24403   2.178   5.026   2.871 -0.0497 -0.7404  0.2055
 4195TP3     H124404   2.096   5.052   2.829  1.0533  0.7090 -1.1232
 4195TP3     H224405   2.201   5.099   2.927  0.6857 -0.8288  0.0287
 4196TP3      O24406   3.838   5.118   2.120  0.0485 -0.4625 -0.1210
 4196TP3     H124407   3.917   5.141   2.169  1.0618  0.5380 -2.2003
 4196TP3     H224408   3.798   5.202   2.098  0.4156 -0.8447 -2.3175
 4197TP3      O24409   3.898   0.536   3.362  0.3339 -0.1427  0.2664
 4197TP3     H124410   3.823   0.542   3.421  0.6662  0.2516  0.6531
 4197TP3     H224411   3.878   0.462   3.305 -0.5996  0.3104  0.0023
 4198TP3      O24412   4.720   5.294   2.246  0.1941 -0.0005 -0.1958
 4198TP3     H124413   4.779   5.368   2.256  1.0231 -0.8431  1.1662
 4198TP3     H224414   4.635   5.326   2.277  0.6426  0.2503  0.7716
 4199TP3      O24415   0.407   1.578   1.426  0.4784  0.1174 -0.2095
 4199TP3     H124416   0.434   1.487   1.415  0.1735  0.0266 -0.2119
 4199TP3     H224417   0.354   1.578   1.506  1.0009  0.4057  0.1357
 4200TP3      O24418   2.989   0.014   1.260 -0.2501 -0.2590 -0.6108
 4200TP3     H124419   3.012  -0.069   1.302 -0.3539  0.1255  0.2268
 4200TP3     H224420   3.033   0.080   1.313 -2.6361  0.4393  0.5624
 4201TP3      O24421   4.486   4.505   0.906  0.4259  0.2158 -0.6735
 4201TP3     H124422   4.435   4.480   0.982 -0.8133 -0.7562 -1.8104
 4201TP3     H224423   4.499   4.424   0.857  1.8139  0.7017 -1.1529
 4202TP3      O24424   0.900   1.868  10.014 -0.3391 -0.0889  0.5123
 4202TP3     H124425   0.989   1.902  10.023  0.4373 -1.8746 -0.1482
 4202TP3     H224426   0.856   1.896  10.094  0.8408  0.7390  0.8980
 4203TP3      O24427   5.226   3.276   2.352  0.2654 -0.3113  0.8041
 4203TP3     H124428   5.166   3.208   2.323  0.0879  0.1761 -0.0042
 4203TP3     H224429   5.171   3.339   2.399  0.2577 -0.2116  0.6622
 4204TP3      O24430   1.818   2.392   1.667  0.6018  0.0884  0.0599
 4204TP3     H124431   1.893   2.394   1.727  0.5612 -0.5652  0.1302
 4204TP3     H224432   1.742   2.407   1.722  0.6106 -0.0049  0.0973
 4205TP3      O24433   3.144   0.445   1.573 -0.6774  0.0717  0.0022
 4205TP3     H124434   3.209   0.468   1.506 -1.3402  0.0419 -0.6678
 4205TP3     H224435   3.073   0.508   1.560  0.1446  1.4770  2.1487
 4206TP3      O24436   0.990   5.400   2.417  0.6281 -0.0293 -0.2583
 4206TP3     H124437   0.935   5.325   2.441  1.0576 -0.1547  0.3498
 4206TP3     H224438   0.942   5.476   2.448 -0.0636 -0.0016 -1.3454
 4207TP3      O24439   2.718   1.193   3.623 -0.0862  0.8029 -0.2435
 4207TP3     H124440   2.689   1.197   3.532 -0.8842 -0.2835 -0.0438
 4207TP3     H224441   2.794   1.134   3.621 -1.4128 -0.9335  0.1194
 4208TP3      O24442   3.249   0.318   2.469 -0.0341 -0.0162 -0.0522
 4208TP3     H124443   3.227   0.235   2.512  1.9155 -0.5722 -0.0513
 4208TP3     H224444   3.185   0.325   2.398 -0.0091 -1.7193 -0.2838
 4209TP3      O24445   3.163   1.186   3.164 -0.2377  0.0665  0.1270
 4209TP3     H124446   3.225   1.248   3.202 -0.9059  0.5477  0.4474
 4209TP3     H224447   3.180   1.190   3.070  1.1777 -0.8611  0.3348
 4210TP3      O24448   1.823   0.518   2.745 -0.1966  0.7205  0.2606
 4210TP3     H124449   1.753   0.577   2.714  0.2944  0.8045 -0.7224
 4210TP3     H224450   1.898   0.576   2.759  0.6462  0.1776 -1.8617
 4211TP3      O24451   2.666   0.535   1.245 -0.1111  0.1307  0.3395
 4211TP3     H124452   2.633   0.457   1.201 -2.1040  0.8420  0.5332
 4211TP3     H224453   2.745   0.559   1.195 -0.6023 -0.8499 -0.9429
 4212TP3      O24454   2.140   5.292   1.754 -0.0380 -0.4769 -0.0900
 4212TP3     H124455   2.090   5.215   1.779  0.9848 -0.9756  0.4449
 4212TP3     H224456   2.188   5.318   1.833  0.0026  0.4165 -0.3931
 4213TP3      O24457   1.448   2.405   9.742 -0.4725  0.5760 -0.2824
 4213TP3     H124458   1.382   2.464   9.705 -0.4281  1.5985  1.2240
 4213TP3     H224459   1.525   2.416   9.685 -0.4759  1.9545 -0.0245
 4214TP3      O24460   2.954   1.862   1.250  0.5393 -0.5095 -0.4342
 4214TP3     H124461   2.917   1.779   1.217  1.4125 -1.0264 -0.1249
 4214TP3     H224462   3.041   1.866   1.210  0.5645  0.1797 -0.3068
 4215TP3      O24463   2.179   0.936   1.112 -0.0457  0.2385  0.4106
 4215TP3     H124464   2.173   0.845   1.084 -1.0802  0.3233  0.3522
 4215TP3     H224465   2.202   0.984   1.032 -1.5450  0.2875 -0.0138
 4216TP3      O24466   3.415   5.396   2.359 -0.3351  0.3635  0.2761
 4216TP3     H124467   3.444   5.321   2.307 -1.3728 -0.1894  0.4672
 4216TP3     H224468   3.484   5.408   2.424 -1.0232 -1.6095  1.4148
 4217TP3      O24469   0.185   1.582   2.371  0.3759 -0.1222 -0.1170
 4217TP3     H124470   0.259   1.599   2.313 -0.3092 -1.0170 -1.2915
 4217TP3     H224471   0.146   1.502   2.337 -1.0013  0.2199  0.6051
 4218TP3      O24472   1.314   5.017   0.658 -0.1490  0.1244 -0.3682
 4218TP3     H124473   1.308   4.923   0.678  3.2630 -0.0315  0.2601
 4218TP3     H224474   1.343   5.057   0.740 -1.5574  1.7584 -0.6373
 4219TP3      O24475   4.624   2.542   2.700 -0.0193  0.1315  0.2999
 4219TP3     H124476   4.569   2.507   2.770  0.3888  1.7447  1.4608
 4219TP3     H224477   4.690   2.474   2.685 -0.3712 -0.4103  1.1830
 4220TP3      O24478   3.663   0.380   0.752  0.1111  0.5305  0.0083
 4220TP3     H124479   3.633   0.363   0.663 -0.5561 -0.5609  0.4338
 4220TP3     H224480   3.598   0.338   0.808  1.6897 -0.6723  0.9798
 4221TP3      O24481   2.876   0.964   0.119  0.6899  0.7763  0.1709
 4221TP3     H124482   2.894   0.989   0.028  1.0034  0.0886  0.0468
 4221TP3     H224483   2.783   0.942   0.121  0.5024  1.5402  0.1904
 4222TP3      O24484   3.220   0.081   2.763 -0.1599 -0.0581 -0.8191
 4222TP3     H124485   3.222   0.003   2.818  0.3937  0.7936  0.3817
 4222TP3     H224486   3.236   0.048   2.674 -0.3887 -1.3555 -0.3828
 4223TP3      O24487   5.142   1.213   1.786  0.3670  0.0194  0.5891
 4223TP3     H124488   5.173   1.280   1.846 -0.4384  0.6309  0.3268
 4223TP3     H224489   5.056   1.188   1.820 -1.6668  2.8510 -2.2265
 4224TP3      O24490   1.405   2.367   2.405  0.1330  0.3562 -0.1640
 4224TP3     H124491   1.370   2.449   2.440 -2.2889  0.1115 -1.8556
 4224TP3     H224492   1.429   2.316   2.483 -0.2604  1.8450  0.9617
 4225TP3      O24493   3.813   1.071   2.425 -0.3649 -0.5258 -0.1203
 4225TP3     H124494   3.735   1.107   2.467 -0.4453 -0.9462  0.1046
 4225TP3     H224495   3.815   1.112   2.339  0.3727  1.1338  0.6668
 4226TP3      O24496   3.320   2.952   1.882  0.0113  0.7341 -0.3328
 4226TP3     H124497   3.225   2.946   1.878 -0.1188  1.9175  0.5949
 4226TP3     H224498   3.343   3.017   1.816  0.3226 -0.7307 -1.6809
 4227TP3      O24499   0.490   2.121   2.076 -0.0687 -0.0031 -0.3488
 4227TP3     H124500   0.404   2.099   2.039 -0.4974 -0.1557  0.7158
 4227TP3     H224501   0.551   2.063   2.030 -0.6311 -0.4230 -0.5778
 4228TP3      O24502   4.298   1.569   1.445 -0.7784 -0.6066  0.0571
 4228TP3     H124503   4.323   1.477   1.434  1.2990  0.1137 -1.5856
 4228TP3     H224504   4.257   1.593   1.362  0.7357  0.5434 -0.3896
 4229TP3      O24505   4.955   1.740   2.633  0.2062  0.3471  0.2503
 4229TP3     H124506   4.977   1.677   2.564 -1.1626  1.2944 -1.1025
 4229TP3     H224507   4.903   1.807   2.588  2.3418  2.9180  1.4376
 4230TP3      O24508   0.178   1.896   1.577  0.2369  0.0423  0.0916
 4230TP3     H124509   0.210   1.892   1.487  2.3386  0.4578  0.7887
 4230TP3     H224510   0.192   1.808   1.612  0.7029  0.2498  0.4286
 4231TP3      O24511   1.522   0.574   2.593  0.1069 -0.0283  0.1566
 4231TP3     H124512   1.499   0.515   2.665  0.2358  0.7108  0.8172
 4231TP3     H224513   1.509   0.522   2.514  0.8670 -1.1566  0.7536
 4232TP3      O24514   4.424   0.668   2.742  0.0561 -0.4204 -0.1834
 4232TP3     H124515   4.399   0.676   2.650  0.7140 -0.7492 -0.3928
 4232TP3     H224516   4.378   0.740   2.786 -1.0650 -0.8801 -0.5934
 4233TP3      O24517   1.109   2.058   1.465 -0.5288  0.2520  0.0099
 4233TP3     H124518   1.142   2.096   1.384 -0.9177  0.4989 -0.0338
 4233TP3     H224519   1.139   2.118   1.534  1.3462 -0.9111  0.2398
 4234TP3      O24520   2.125   0.108   1.065  0.4475  0.0188  0.2847
 4234TP3     H124521   2.141   0.051   0.990  0.0698 -1.5141  1.3674
 4234TP3     H224522   2.048   0.071   1.108  0.6699  0.8788  1.4427
 4235TP3      O24523   1.660   1.713   1.915 -0.5167  0.4320 -0.2296
 4235TP3     H124524   1.609   1.687   1.992 -0.2100 -0.6797 -0.3960
 4235TP3     H224525   1.685   1.803   1.933  0.8926 -0.3034  1.7230
 4236TP3      O24526   0.447   0.608   1.765 -0.0798  0.4305 -0.3200
 4236TP3     H124527   0.507   0.540   1.737 -0.4040  0.7042 -1.6965
 4236TP3     H224528   0.451   0.606   1.861  0.6067 -0.8852 -0.3764
 4237TP3      O24529   4.121   0.982   2.722 -0.0508  0.2320 -0.5066
 4237TP3     H124530   4.162   0.942   2.799  1.1810  1.4156 -0.5235
 4237TP3     H224531   4.055   1.041   2.759  0.0141  0.2317 -0.3906
 4238TP3      O24532   4.610   3.925   2.898 -0.2430  0.0724 -0.2659
 4238TP3     H124533   4.560   4.003   2.873 -2.6328 -1.5795 -0.9157
 4238TP3     H224534   4.542   3.862   2.924  1.5731 -2.1464 -0.8266
 4239TP3      O24535   2.717   2.983   1.604 -0.1910 -0.2473 -0.0349
 4239TP3     H124536   2.701   3.076   1.589  0.2845 -0.4733 -2.1027
 4239TP3     H224537   2.812   2.976   1.609 -0.1512 -0.7975 -1.2889
 4240TP3      O24538   1.962   1.384   9.569  0.4922 -0.3514  0.2838
 4240TP3     H124539   1.962   1.472   9.607 -0.7100 -0.9721  1.8105
 4240TP3     H224540   2.048   1.348   9.591  0.8344  0.3006  0.0026
 4241TP3      O24541   4.109   0.525   0.892  0.3581 -0.5008  0.3347
 4241TP3     H124542   4.074   0.590   0.953 -0.7895 -1.6273  0.8958
 4241TP3     H224543   4.052   0.532   0.815 -0.4943 -1.6099  0.8411
 4242TP3      O24544   1.994   0.996   2.176 -0.0734  0.3291 -0.0694
 4242TP3     H124545   1.908   0.955   2.188  0.3339 -1.5473 -3.0558
 4242TP3     H224546   1.974   1.087   2.153 -1.1240  0.7253  2.2943
 4243TP3      O24547   2.599   3.980   1.610 -0.1001  0.0307  0.6452
 4243TP3     H124548   2.647   3.977   1.692  0.4972  1.2947  0.3545
 4243TP3     H224549   2.640   4.051   1.561 -1.4671  0.3136 -0.1050
 4244TP3      O24550   3.700   4.249  10.223 -0.3786  0.3450  0.4348
 4244TP3     H124551   3.621   4.194  10.222 -0.5356  0.4797  2.3334
 4244TP3     H224552   3.728   4.253  10.132 -0.9016 -2.1097  0.1416
 4245TP3      O24553   3.948   3.781   2.440  0.2793  0.2833  0.0405
 4245TP3     H124554   4.003   3.710   2.408 -1.4533 -0.2208 -1.9760
 4245TP3     H224555   3.958   3.850   2.375 -0.3312  0.7373  0.4205
 4246TP3      O24556   4.545   1.700   2.681 -0.3607 -0.0186 -0.0904
 4246TP3     H124557   4.461   1.667   2.649 -0.0256 -0.5812 -0.3951
 4246TP3     H224558   4.601   1.700   2.604 -0.5116  1.8005 -0.2261
 4247TP3      O24559   2.821   0.983   2.965 -0.1928 -0.1416  0.4496
 4247TP3     H124560   2.773   0.900   2.969 -0.1100 -0.1824  0.6139
 4247TP3     H224561   2.894   0.965   2.906  2.2865 -1.4786  3.7745
 4248TP3      O24562   3.212   5.119   0.720 -0.0197  0.1930 -0.1362
 4248TP3     H124563   3.242   5.203   0.685  0.1560 -0.2369 -1.0195
 4248TP3     H224564   3.197   5.136   0.813 -2.2359  1.7940 -0.7703
 4249TP3      O24565   2.836   0.418   3.084  0.0494 -0.7976 -0.3243
 4249TP3     H124566   2.742   0.401   3.097 -0.2693  0.8354 -0.4460
 4249TP3     H224567   2.840   0.473   3.006  0.9760  0.6531  0.7355
 4250TP3      O24568   0.585   0.127   2.767 -0.1322  0.0581 -0.3845
 4250TP3     H124569   0.499   0.099   2.736 -0.4804 -0.5916  1.0838
 4250TP3     H224570   0.590   0.220   2.745 -1.2004  0.0966 -0.4934
 4251TP3      O24571   1.429   1.653   0.544 -0.4628  0.3499  0.3401
 4251TP3     H124572   1.450   1.683   0.633  1.5186  2.3452 -0.7550
 4251TP3     H224573   1.367   1.581   0.557 -1.0366  1.3134  3.2886
 4252TP3      O24574   2.342   2.150   3.155 -0.1324 -0.0174  0.1641
 4252TP3     H124575   2.331   2.152   3.060 -0.8049  0.8439  0.2460
 4252TP3     H224576   2.404   2.079   3.171 -1.9869 -1.8656 -0.7077
 4253TP3      O24577   2.892   4.875   2.619 -0.1854  0.2160  0.3797
 4253TP3     H124578   2.927   4.845   2.535 -0.8235  1.4231 -0.3399
 4253TP3     H224579   2.943   4.953   2.639 -0.7570  0.5400  0.5747
 4254TP3      O24580   5.078   5.378   2.637 -0.0688 -0.2961  0.8556
 4254TP3     H124581   5.144   5.317   2.604 -0.3926 -0.9987  1.4799
 4254TP3     H224582   5.012   5.322   2.677 -0.2491  0.4811  1.6603
 4255TP3      O24583   4.011   1.437   1.895  0.4225 -0.3625 -0.2987
 4255TP3     H124584   4.054   1.378   1.834 -2.2249 -3.4899  0.6994
 4255TP3     H224585   3.961   1.498   1.839  1.3677 -0.4937 -1.2982
 4256TP3      O24586   1.321   1.086   1.621 -0.1216  0.4529 -0.7843
 4256TP3     H124587   1.265   1.026   1.574  0.1802 -0.0750 -0.4718
 4256TP3     H224588   1.354   1.146   1.554  0.9071 -0.7542 -1.3815
 4257TP3      O24589   2.336   1.386   1.006  0.1594 -0.2049 -0.4217
 4257TP3     H124590   2.380   1.438   1.073 -1.6890  0.6684  0.1350
 4257TP3     H224591   2.292   1.450   0.950 -1.8387 -1.1159  0.0624
 4258TP3      O24592   2.936   1.583   3.297 -0.5252 -0.0731 -0.1672
 4258TP3     H124593   2.899   1.543   3.376 -1.2746  1.3951  0.2581
 4258TP3     H224594   3.024   1.546   3.290 -0.9343 -1.2226  0.6128
 4259TP3      O24595   3.845   0.032   0.836  0.5113  0.3399  0.4204
 4259TP3     H124596   3.808   0.068   0.755  0.5075  0.0232  0.2776
 4259TP3     H224597   3.825  -0.062   0.831  1.5221  0.1298  0.2438
 4260TP3      O24598   2.578   1.292   2.086  0.2960  0.0703  0.2464
 4260TP3     H124599   2.565   1.385   2.105  1.8257  0.1060  1.2033
 4260TP3     H224600   2.651   1.291   2.023 -1.0353 -0.3744 -1.3151
 4261TP3      O24601   2.151   0.487   3.296  0.3899  0.7749 -0.8118
 4261TP3     H124602   2.109   0.420   3.349 -1.6306  0.1101 -3.2068
 4261TP3     H224603   2.245   0.472   3.309 -0.0472 -1.5846 -0.1982
 4262TP3      O24604   1.991   2.363   2.917  0.0023  0.1423 -0.5222
 4262TP3     H124605   2.015   2.421   2.989  0.0981  0.1119 -0.5297
 4262TP3     H224606   1.974   2.279   2.959  0.3079  0.0588 -0.5657
 4263TP3      O24607   5.251   0.228   2.806 -0.6276  0.6337 -0.0912
 4263TP3     H124608   5.231   0.184   2.723 -0.6601 -0.9800  0.7360
 4263TP3     H224609   5.304   0.164   2.854 -0.5092  1.5976  1.0786
 4264TP3      O24610   1.642   1.076   2.485  0.1076 -0.1164 -0.0335
 4264TP3     H124611   1.591   1.066   2.565 -1.2003  0.9780 -0.6994
 4264TP3     H224612   1.734   1.071   2.514 -0.3507 -2.5380  1.1125
 4265TP3      O24613   3.326   0.647   2.873  0.5778 -0.0993  0.4527
 4265TP3     H124614   3.402   0.659   2.816  0.6100  2.0971  0.8836
 4265TP3     H224615   3.351   0.691   2.955 -1.0210  0.3796  0.7021
 4266TP3      O24616   4.102   1.612   0.231  0.1843 -0.0615 -0.8408
 4266TP3     H124617   4.048   1.533   0.233 -2.0957  1.4776  0.5817
 4266TP3     H224618   4.101   1.638   0.139  1.3015 -1.8666 -1.4056
 4267TP3      O24619   2.808   1.318   0.843 -0.3368 -0.2486 -0.2334
 4267TP3     H124620   2.766   1.364   0.770 -1.6628  0.8551  1.1840
 4267TP3     H224621   2.735   1.285   0.895  0.6029 -1.4781  0.3291
 4268TP3      O24622   3.563   4.051   1.810 -1.1263 -0.2254 -0.8002
 4268TP3     H124623   3.562   3.972   1.756  3.4798 -1.0634  0.1925
 4268TP3     H224624   3.598   4.119   1.752  0.8919 -0.4182  0.1546
 4269TP3      O24625   1.444   1.013   2.680  0.0597 -0.1401  0.4200
 4269TP3     H124626   1.514   1.051   2.732  0.8552  0.2413 -0.9098
 4269TP3     H224627   1.368   1.070   2.695 -1.0291 -2.4626  4.5733
 4270TP3      O24628   3.336   1.762   3.317  0.2554  0.1916 -0.3874
 4270TP3     H124629   3.246   1.778   3.344  0.4408  0.2699  0.2064
 4270TP3     H224630   3.369   1.698   3.380  0.9429  0.9769  0.0678
 4271TP3      O24631   3.344   1.988   3.146 -0.2461  0.0446  0.1591
 4271TP3     H124632   3.411   2.049   3.176 -0.1139  0.7480 -1.4844
 4271TP3     H224633   3.366   1.905   3.188  2.8779 -0.2595 -1.9358
 4272TP3      O24634   2.318   0.694   3.497 -0.4897 -0.2761 -0.5304
 4272TP3     H124635   2.257   0.757   3.458  0.2172 -0.6477 -2.2819
 4272TP3     H224636   2.338   0.633   3.426  1.5284 -0.4434  0.1595
 4273TP3      O24637   1.622   0.215   2.307  0.0332 -0.4622  0.7883
 4273TP3     H124638   1.637   0.192   2.215  1.2376 -2.3655  1.4254
 4273TP3     H224639   1.566   0.292   2.304 -1.9557 -1.9357 -1.5272
 4274TP3      O24640   2.464   1.053   3.474  0.0466 -0.4865 -0.5196
 4274TP3     H124641   2.373   1.081   3.485  0.1247 -0.4676  0.1009
 4274TP3     H224642   2.506   1.128   3.431  0.5664  0.9705  2.3618
 4275TP3      O24643   2.152   0.050   2.931 -0.1628  0.2376  0.0056
 4275TP3     H124644   2.154  -0.018   2.999  0.6634  0.5170  0.2597
 4275TP3     H224645   2.223   0.109   2.954  1.4288 -0.7633 -2.2410
 4276TP3      O24646   3.223   0.175   3.363 -0.0080 -0.5184 -0.1598
 4276TP3     H124647   3.205   0.082   3.348  0.9979 -0.9699  1.2722
 4276TP3     H224648   3.250   0.179   3.455 -0.4183  1.2553 -0.0962
 4277TP3      O24649   2.112   0.821   3.347 -0.9028 -0.3011  0.0388
 4277TP3     H124650   2.028   0.778   3.332 -1.7532  0.8449  1.3296
 4277TP3     H224651   2.141   0.849   3.261 -0.4469 -3.1926 -0.8056
 4278TP3      O24652   2.058   4.414   2.765 -0.3257  0.0262  0.3469
 4278TP3     H124653   1.970   4.448   2.750 -0.3516 -0.3957 -0.4845
 4278TP3     H224654   2.068   4.414   2.860 -0.9392  0.7942  0.4158
 4279TP3      O24655   1.190   0.954   3.345 -1.1136  0.1366  0.2926
 4279TP3     H124656   1.192   0.926   3.436  0.5987 -0.7762 -0.0029
 4279TP3     H224657   1.216   1.046   3.347 -0.5909 -0.0162  0.6916
 4280TP3      O24658   2.461   2.639   1.177 -0.6780  0.0331  0.4317
 4280TP3     H124659   2.502   2.558   1.146 -0.4008  0.0389  0.7779
 4280TP3     H224660   2.515   2.666   1.252 -1.0436  0.2895  0.6033
 4281TP3      O24661   0.642   2.510   1.296 -0.4212 -0.2911 -0.9565
 4281TP3     H124662   0.573   2.447   1.315  0.3569 -1.2504 -1.2649
 4281TP3     H224663   0.646   2.512   1.200 -0.1760 -0.0713 -0.9413
 4282TP3      O24664   0.731   2.189   2.736 -0.3377 -0.0507 -0.1844
 4282TP3     H124665   0.795   2.118   2.735 -2.0966 -1.6572 -1.2805
 4282TP3     H224666   0.779   2.263   2.774  1.7444 -1.5892  0.3099
 4283TP3      O24667   1.659   3.453   0.189 -0.3419 -0.2784 -0.1596
 4283TP3     H124668   1.624   3.482   0.273 -0.8227 -1.0959 -0.0674
 4283TP3     H224669   1.731   3.394   0.212  1.5197  1.8575 -0.3518
 4284TP3      O24670   3.383   1.684   3.076  0.8049 -0.5524  0.2851
 4284TP3     H124671   3.357   1.694   3.168  0.2623  0.0489  0.0713
 4284TP3     H224672   3.304   1.655   3.031  0.4796  1.2869 -0.3677
 4285TP3      O24673   4.247   0.136   2.644 -0.1108  0.0837 -0.0111
 4285TP3     H124674   4.176   0.090   2.689 -1.1787  0.3940 -1.3458
 4285TP3     H224675   4.209   0.161   2.560  1.3906  0.8219 -0.4756
 4286TP3      O24676   3.745   1.515   3.498  0.3374  0.0805 -0.0182
 4286TP3     H124677   3.684   1.456   3.452 -0.6308 -0.3749  1.7943
 4286TP3     H224678   3.746   1.594   3.444 -1.6248 -0.0301 -0.2834
 4287TP3      O24679   0.980   2.624   1.687 -0.0269 -0.1167 -0.1643
 4287TP3     H124680   0.991   2.595   1.778 -0.3962  0.0300 -0.0713
 4287TP3     H224681   0.906   2.574   1.654  0.0701 -0.1265 -0.3656
 4288TP3      O24682   2.842   2.625   1.997 -0.6207  0.2964  0.4387
 4288TP3     H124683   2.929   2.665   1.991 -0.7336  0.4279 -0.3381
 4288TP3     H224684   2.785   2.697   2.025 -1.1254  1.1423 -2.5504
 4289TP3      O24685   3.847   0.125   1.501  0.4967  0.0822  0.0350
 4289TP3     H124686   3.879   0.153   1.415 -0.2562 -0.7535 -0.5299
 4289TP3     H224687   3.773   0.181   1.519 -0.1854 -0.6408 -0.4880
 4290TP3      O24688   1.641   2.643   2.232 -0.1386  0.1137  0.4209
 4290TP3     H124689   1.682   2.557   2.241 -0.3114 -0.2139 -1.7102
 4290TP3     H224690   1.599   2.659   2.317  1.4931 -1.0462  1.4836
 4291TP3      O24691   0.624   0.146   0.328  1.2991  0.0165 -0.3303
 4291TP3     H124692   0.643   0.230   0.286 -2.2983  1.2782  0.3578
 4291TP3     H224693   0.565   0.101   0.267  1.9973 -1.3955  0.0012
 4292TP3      O24694   3.402   4.794   9.352 -0.0820  0.5696 -0.0024
 4292TP3     H124695   3.391   4.700   9.368 -0.9437  0.7535  0.5247
 4292TP3     H224696   3.419   4.801   9.258  1.4171 -0.2304  0.1861
 4293TP3      O24697   2.255   1.475   0.517 -0.5259  0.0315 -0.3257
 4293TP3     H124698   2.203   1.539   0.566  1.6210  1.8542 -0.3812
 4293TP3     H224699   2.260   1.511   0.429  2.3759  0.8426  0.1306
 4294TP3      O24700   2.352   1.428   3.001 -0.1247  0.0445 -0.1665
 4294TP3     H124701   2.270   1.404   2.959 -0.1527 -0.0623 -0.0516
 4294TP3     H224702   2.372   1.515   2.967 -0.6297  0.3553  0.3100
 4295TP3      O24703   0.286   5.195   2.518  0.7419  0.1436  0.0394
 4295TP3     H124704   0.369   5.152   2.497  0.5123 -0.1680 -0.2297
 4295TP3     H224705   0.225   5.163   2.452  0.8240  1.6984 -0.8208
 4296TP3      O24706   1.749   2.580   0.127 -0.3086  0.1713 -0.1580
 4296TP3     H124707   1.709   2.495   0.108 -0.6666  0.8825 -2.8111
 4296TP3     H224708   1.676   2.641   0.131  0.1484  0.7619 -0.7443
 4297TP3      O24709   4.463   0.008   3.231  0.7566 -0.1307 -0.0137
 4297TP3     H124710   4.471   0.095   3.269 -0.7500 -0.7743  1.9059
 4297TP3     H224711   4.519  -0.047   3.286 -0.2891 -0.8238  0.3607
 4298TP3      O24712   4.134   2.338   1.765  0.9727  0.1712 -0.3548
 4298TP3     H124713   4.157   2.410   1.707 -0.6188  0.5534 -0.5271
 4298TP3     H224714   4.134   2.261   1.709  1.1957  0.2632 -0.4817
 4299TP3      O24715   0.143   2.101   2.632 -0.0553 -0.1111 -0.0403
 4299TP3     H124716   0.128   2.039   2.704  4.6371  0.7956  1.9242
 4299TP3     H224717   0.192   2.050   2.567 -0.9335  0.0909 -0.8598
 4300TP3      O24718   3.709   1.795   1.535  0.1530  0.0625 -0.3120
 4300TP3     H124719   3.707   1.732   1.463 -0.8984  1.1072 -1.2165
 4300TP3     H224720   3.797   1.832   1.532  0.4067 -0.5557 -0.4989
 4301TP3      O24721   1.400   1.750   2.954 -0.2122  0.7378  0.0261
 4301TP3     H124722   1.401   1.726   2.861 -2.8080 -0.9944  0.4024
 4301TP3     H224723   1.368   1.840   2.956  0.5079  1.0181 -0.7869
 4302TP3      O24724   3.700   5.192   3.380 -0.0172 -0.1917  0.0458
 4302TP3     H124725   3.619   5.143   3.393  0.2605 -0.7605 -0.3298
 4302TP3     H224726   3.694   5.266   3.440  0.0908 -1.3480  1.4955
 4303TP3      O24727   1.503   0.061   1.406 -0.1133  0.2020 -0.3349
 4303TP3     H124728   1.517   0.036   1.497  0.1394  0.5440 -0.2804
 4303TP3     H224729   1.591   0.071   1.370 -0.1658 -2.1259 -1.2330
 4304TP3      O24730   2.519   3.486   2.510  0.1352 -0.5676  0.0250
 4304TP3     H124731   2.438   3.497   2.559 -0.4833 -2.1428 -0.6315
 4304TP3     H224732   2.527   3.565   2.458  0.5058  0.8883  2.2029
 4305TP3      O24733   1.413   0.849   1.244 -0.0038  0.2210  0.0551
 4305TP3     H124734   1.373   0.817   1.164  1.2168  1.7646 -1.1996
 4305TP3     H224735   1.444   0.770   1.288  0.3596 -0.5547 -1.5605
 4306TP3      O24736   5.001   4.354   2.105  0.6697  0.0902 -0.3526
 4306TP3     H124737   4.972   4.434   2.149 -0.7320 -1.4834  1.6619
 4306TP3     H224738   5.093   4.371   2.084  0.7771  1.7039  1.2844
 4307TP3      O24739   3.538   0.613   1.944 -0.6761 -0.3605  0.3674
 4307TP3     H124740   3.633   0.615   1.935 -0.6748 -0.1690  0.4212
 4307TP3     H224741   3.522   0.562   2.024 -0.5803  0.4815  0.9307
 4308TP3      O24742   2.091   5.174   0.841 -0.2560 -0.2093 -0.1593
 4308TP3     H124743   2.037   5.181   0.762  1.8906  1.4261 -1.5517
 4308TP3     H224744   2.133   5.089   0.834  1.2867  0.6462 -1.7414
 4309TP3      O24745   4.892   2.180   1.684 -1.0238  0.6674  0.3104
 4309TP3     H124746   4.862   2.241   1.617  0.6447  1.3049  0.1153
 4309TP3     H224747   4.954   2.123   1.639  1.6635  2.3693  1.6917
 4310TP3      O24748   1.491   0.773   0.063 -0.1483 -0.1935 -0.0113
 4310TP3     H124749   1.587   0.770   0.055 -0.1199 -0.4353  0.3792
 4310TP3     H224750   1.459   0.767  -0.026  0.2044 -0.0448 -0.1508
 4311TP3      O24751   1.427   2.165   3.285  0.0910 -0.6956  0.0210
 4311TP3     H124752   1.396   2.177   3.195  1.3993  0.9729 -0.2488
 4311TP3     H224753   1.370   2.220   3.338  2.1497  1.9871 -0.4146
 4312TP3      O24754   1.107   2.840   2.605 -0.3034  0.1841  0.2140
 4312TP3     H124755   1.184   2.888   2.574  0.1807  0.3971  1.7081
 4312TP3     H224756   1.057   2.904   2.655 -0.7262 -0.3237  0.4513
 4313TP3      O24757   2.514   0.830   3.641 -0.0949  0.0555 -0.1192
 4313TP3     H124758   2.446   0.775   3.601  0.5251 -1.4637  0.8865
 4313TP3     H224759   2.508   0.913   3.593 -2.5193 -0.1090 -0.1811
 4314TP3      O24760   2.407   2.373   2.462  0.2483  0.1238  0.3016
 4314TP3     H124761   2.366   2.299   2.505 -0.6141 -0.1577 -0.9810
 4314TP3     H224762   2.454   2.419   2.532 -1.6670  0.0616  1.6540
 4315TP3      O24763   4.944   0.751   2.172 -0.3971  0.2104  0.0992
 4315TP3     H124764   4.852   0.727   2.169 -0.2415 -0.6445  1.4696
 4315TP3     H224765   4.989   0.677   2.130 -0.4321  1.3043 -1.9181
 4316TP3      O24766   0.483   4.307   1.593 -0.1058  0.0357  0.2754
 4316TP3     H124767   0.512   4.226   1.550 -2.4817  0.5265 -2.3663
 4316TP3     H224768   0.426   4.277   1.664 -1.7320 -0.6311 -1.2680
 4317TP3      O24769   3.476   1.338   2.974 -0.2236 -0.3435  0.1871
 4317TP3     H124770   3.436   1.356   3.059  0.6422 -1.4681  0.8374
 4317TP3     H224771   3.436   1.255   2.946  0.7269 -0.8227  0.2559
 4318TP3      O24772   3.575   1.163   2.556  0.2179  0.3347  0.5061
 4318TP3     H124773   3.524   1.095   2.512 -0.4492  1.4742 -0.4964
 4318TP3     H224774   3.510   1.218   2.600  0.7160  0.5988  0.9235
 4319TP3      O24775   2.821   1.532   2.209 -0.2074 -0.1608  0.4191
 4319TP3     H124776   2.820   1.606   2.149 -1.8774 -1.0987 -0.7360
 4319TP3     H224777   2.872   1.465   2.162 -0.8951 -0.6395  0.3571
 4320TP3      O24778   0.986   2.540   2.269  0.1839 -0.4444 -0.2122
 4320TP3     H124779   0.996   2.450   2.301  2.4502  0.1756  0.9499
 4320TP3     H224780   0.956   2.590   2.345 -3.6936 -0.6353 -1.5136
 4321TP3      O24781   1.246   2.868   1.456 -0.7580  0.0200 -0.2048
 4321TP3     H124782   1.211   2.786   1.421 -0.2150  0.4079 -1.7019
 4321TP3     H224783   1.211   2.873   1.545  0.7220 -2.7438  0.5754
 4322TP3      O24784   3.228   2.060   2.293 -0.2845  0.3880  0.1408
 4322TP3     H124785   3.288   2.082   2.365  2.5313 -0.4335 -1.8547
 4322TP3     H224786   3.181   2.142   2.276  1.3328  1.5078  0.8310
 4323TP3      O24787   3.215   1.152   1.230 -0.4476 -0.0181  0.2346
 4323TP3     H124788   3.255   1.072   1.267  0.1758  1.8661  3.8872
 4323TP3     H224789   3.280   1.183   1.167 -0.5302 -2.1682 -0.9713
 4324TP3      O24790   2.744   0.378   2.582 -0.3286  0.1176  0.1153
 4324TP3     H124791   2.815   0.380   2.647 -0.0005  1.9216 -0.2725
 4324TP3     H224792   2.779   0.324   2.510  0.5166  0.6953  0.0860
 4325TP3      O24793   2.977   0.412   2.766 -0.0413  0.3164  0.2562
 4325TP3     H124794   3.031   0.466   2.708 -0.7583  0.2270 -0.5069
 4325TP3     H224795   3.005   0.322   2.748 -0.4183  0.2722 -0.1190
 4326TP3      O24796   4.118   3.048   1.918 -0.0879  0.1715 -0.5106
 4326TP3     H124797   4.176   2.981   1.881  1.6436  0.5411  1.4335
 4326TP3     H224798   4.168   3.129   1.911 -1.5613  1.0204 -1.4593
 4327TP3      O24799   2.560   1.307   2.394 -0.1223  0.4308  0.5089
 4327TP3     H124800   2.474   1.349   2.402  0.1036  0.8881  0.5228
 4327TP3     H224801   2.563   1.278   2.303 -1.5489 -2.3210  1.2789
 4328TP3      O24802   2.900   1.556   1.811 -0.0835 -0.4267 -0.3072
 4328TP3     H124803   2.911   1.651   1.797 -0.6036 -0.3485 -0.1627
 4328TP3     H224804   2.960   1.536   1.883 -0.3172 -0.1259 -0.0276
 4329TP3      O24805   2.705   4.506   1.475 -0.6461 -0.4374  0.2008
 4329TP3     H124806   2.622   4.546   1.502  0.2274  0.8699  1.0017
 4329TP3     H224807   2.707   4.422   1.522 -2.0773 -1.0694 -0.8065
 4330TP3      O24808   2.071   0.904   1.670 -0.2707  0.0109 -0.0587
 4330TP3     H124809   2.034   0.989   1.647  0.6130  0.5836  0.6101
 4330TP3     H224810   2.001   0.859   1.717 -1.1366 -0.0932 -1.4095
 4331TP3      O24811   3.160   0.435   0.093  0.6955  0.3342  0.1785
 4331TP3     H124812   3.144   0.529   0.098  0.6127  0.4111 -1.3401
 4331TP3     H224813   3.084   0.400   0.048  0.0963 -0.6648  1.9050
 4332TP3      O24814   4.616   2.051   2.285  0.1654 -0.4945  0.0455
 4332TP3     H124815   4.667   2.128   2.261 -0.0944 -0.1262  0.6566
 4332TP3     H224816   4.549   2.084   2.344 -0.4463 -1.0653 -0.3250
 4333TP3      O24817   2.089   1.682   2.381  0.6723  0.2520  0.6737
 4333TP3     H124818   2.085   1.666   2.287  1.9751  0.3599  0.5916
 4333TP3     H224819   2.045   1.766   2.394  2.1464  1.1556 -0.0773
 4334TP3      O24820   2.958   5.467   2.425 -0.5985 -0.1701  0.6107
 4334TP3     H124821   2.922   5.394   2.475  0.2763 -0.5355  0.7233
 4334TP3     H224822   2.984   5.428   2.342  2.1406 -0.5303  1.5778
 4335TP3      O24823   0.642   3.861  10.006 -0.0213 -0.4023  0.3987
 4335TP3     H124824   0.623   3.854  10.099  0.8310 -1.1019  0.5258
 4335TP3     H224825   0.584   3.795   9.965  0.5932 -1.0585  0.5757
 4336TP3      O24826   3.283   0.944   2.042 -0.2607 -0.3945  0.1226
 4336TP3     H124827   3.219   0.915   1.977  0.9381 -1.3306 -0.6576
 4336TP3     H224828   3.338   0.867   2.056 -0.8917 -0.4093  2.7248
 4337TP3      O24829   1.318   3.947   2.120  0.3225 -0.1313  0.4046
 4337TP3     H124830   1.342   3.910   2.205 -1.2733  0.2291  1.0247
 4337TP3     H224831   1.224   3.932   2.112  0.0991  1.5150 -0.4596
 4338TP3      O24832   3.458   0.433   1.701  0.0071  0.3634  0.3877
 4338TP3     H124833   3.424   0.497   1.639 -1.5569  2.1357  3.0432
 4338TP3     H224834   3.498   0.485   1.770 -0.0509 -1.5522  1.8964
 4339TP3      O24835   1.116   3.248   9.741 -0.9259  0.4069  0.2130
 4339TP3     H124836   1.162   3.317   9.693 -3.5211  2.0482 -0.0369
 4339TP3     H224837   1.148   3.256   9.831  0.0309  0.8415 -0.1592
 4340TP3      O24838   3.251   5.016   3.121 -0.3032 -0.5810  0.0691
 4340TP3     H124839   3.220   5.098   3.161 -0.1914 -0.5498  0.0936
 4340TP3     H224840   3.177   4.956   3.129 -0.9580  0.0101 -1.4188
 4341TP3      O24841   4.042   1.530   3.433  0.4700 -0.6245 -0.2493
 4341TP3     H124842   3.969   1.524   3.494 -0.4484  1.7536 -1.0307
 4341TP3     H224843   4.103   1.462   3.461 -0.6990 -0.6942  2.2502
 4342TP3      O24844   0.106   1.936   0.971 -0.0834 -0.6312  0.4373
 4342TP3     H124845   0.107   1.914   1.064  4.2094 -1.0119  0.3970
 4342TP3     H224846   0.092   1.853   0.926 -2.6508 -0.3751  0.7116
 4343TP3      O24847   0.001   1.308   3.039  0.2674 -0.4920  0.3595
 4343TP3     H124848  -0.024   1.270   3.123  1.0025 -0.0360  0.7889
 4343TP3     H224849   0.096   1.318   3.044  0.1210  1.1812  0.1770
 4344TP3      O24850   2.011   1.842   2.699  0.0498  0.2586 -0.3856
 4344TP3     H124851   1.981   1.916   2.751  1.1003 -0.0431  0.6707
 4344TP3     H224852   2.068   1.880   2.633 -0.7710  0.5727 -0.9200
 4345TP3      O24853   0.528   1.399   2.009  0.3055 -0.0501  0.4659
 4345TP3     H124854   0.619   1.429   2.015  0.7501 -1.0507 -0.9258
 4345TP3     H224855   0.518   1.337   2.081  0.2601  1.2076  1.5550
 4346TP3      O24856   3.545   1.957   1.646 -0.9890 -0.2090 -0.0841
 4346TP3     H124857   3.571   2.034   1.594 -1.3562  0.1808  0.3057
 4346TP3     H224858   3.598   1.886   1.610  0.3799  0.5034  0.4700
 4347TP3      O24859   2.441   0.191   0.934  0.0106 -0.2129  0.2431
 4347TP3     H124860   2.483   0.186   0.848 -0.1661  0.2420  0.1312
 4347TP3     H224861   2.350   0.211   0.916 -0.6223 -2.7116  0.4158
 4348TP3      O24862   5.204   1.166   0.970  0.0616  0.2892 -0.4557
 4348TP3     H124863   5.289   1.205   0.990  1.3063 -2.9092  0.7508
 4348TP3     H224864   5.148   1.194   1.043  1.0916 -0.6530  0.7162
 4349TP3      O24865   3.142   2.517   2.107 -0.3175 -0.1682  0.6164
 4349TP3     H124866   3.200   2.592   2.121  0.7193 -1.2283  2.2087
 4349TP3     H224867   3.054   2.552   2.119 -0.0321  1.4285 -1.6746
 4350TP3      O24868   5.314   1.875   2.179  0.5060  0.0704 -0.1530
 4350TP3     H124869   5.364   1.936   2.125  0.4163 -0.1700 -0.5128
 4350TP3     H224870   5.369   1.859   2.256  0.1981  1.1869  0.3018
 4351TP3      O24871   2.888   0.207   0.563 -0.2134 -0.1715 -0.1429
 4351TP3     H124872   2.915   0.290   0.524  0.0103 -0.0130  0.3452
 4351TP3     H224873   2.814   0.229   0.619 -0.4817 -0.3864 -0.4053
 4352TP3      O24874   0.386   0.606   1.491  0.4676  0.4755  0.3281
 4352TP3     H124875   0.352   0.689   1.457 -0.8345 -0.0398  0.3309
 4352TP3     H224876   0.418   0.627   1.579 -1.0019  0.7347  0.8216
 4353TP3      O24877   0.680   1.460   2.781  0.0685  0.2542 -0.1812
 4353TP3     H124878   0.601   1.467   2.728  0.4969  0.3045 -0.8187
 4353TP3     H224879   0.653   1.492   2.868 -1.0413 -1.3151  0.0776
 4354TP3      O24880   0.829   4.362   9.435 -0.7727 -0.2003  0.2293
 4354TP3     H124881   0.785   4.342   9.518 -0.7295 -2.2968 -0.2487
 4354TP3     H224882   0.896   4.426   9.459 -2.6093  1.3875  1.3331
 4355TP3      O24883   4.068   1.201  10.176  0.0299  0.1520  0.0172
 4355TP3     H124884   4.106   1.288  10.165 -0.6940  0.5036  0.2680
 4355TP3     H224885   4.143   1.142  10.175  0.4841  0.7356 -0.6180
 4356TP3      O24886   4.139   4.839   3.561 -0.3468  0.7831 -0.6511
 4356TP3     H124887   4.159   4.759   3.610 -0.6867  2.1625  1.8273
 4356TP3     H224888   4.195   4.834   3.484  1.2596 -0.8156  0.5743
 4357TP3      O24889   4.962   5.004   1.598 -0.0835  0.1594  0.2140
 4357TP3     H124890   5.051   4.995   1.564 -0.1467  2.2831 -0.5872
 4357TP3     H224891   4.909   4.945   1.544  0.1918  1.8695 -2.0066
 4358TP3      O24892   4.266   2.519   2.788  0.7316 -0.4594 -0.2694
 4358TP3     H124893   4.228   2.582   2.850 -0.2185 -0.8088 -0.4988
 4358TP3     H224894   4.331   2.472   2.840  0.5619 -0.1482  0.2349
 4359TP3      O24895   4.325   1.590   2.582 -0.1276 -0.4716 -0.1682
 4359TP3     H124896   4.295   1.504   2.612 -0.0520 -0.6773 -0.6791
 4359TP3     H224897   4.337   1.580   2.488  0.8045 -0.1678 -0.0877
 4360TP3      O24898   3.450   4.701   3.047  0.2195 -0.2308  0.3024
 4360TP3     H124899   3.385   4.682   3.114  1.5190  0.6718  1.8399
 4360TP3     H224900   3.443   4.628   2.985 -2.3384 -0.0772  0.3515
 4361TP3      O24901   3.487   1.447   2.622 -0.4182 -1.1152 -0.5398
 4361TP3     H124902   3.443   1.414   2.700  0.5732 -1.1461  0.0099
 4361TP3     H224903   3.417   1.491   2.572 -0.6832  0.5754  1.2674
 4362TP3      O24904   2.870   1.135   3.181  0.1380  0.5472 -0.0409
 4362TP3     H124905   2.868   1.093   3.094 -2.1067 -0.7266  0.6016
 4362TP3     H224906   2.961   1.166   3.190  0.7520 -0.4902 -2.2783
 4363TP3      O24907   5.304   0.475   0.109 -1.1492  0.5448  0.3548
 4363TP3     H124908   5.322   0.475   0.203 -1.0858 -0.2472  0.3518
 4363TP3     H224909   5.383   0.437   0.069 -1.6373 -0.1952  0.0840
 4364TP3      O24910   0.461   5.505   1.861  0.4754  0.1735 -0.1073
 4364TP3     H124911   0.396   5.554   1.811  1.4112 -0.3181 -1.8661
 4364TP3     H224912   0.541   5.557   1.853  1.5321 -1.6514 -2.1551
 4365TP3      O24913   4.534   0.603   1.896 -0.1629  0.2948 -0.0788
 4365TP3     H124914   4.463   0.605   1.960 -0.8142 -0.0577 -0.7717
 4365TP3     H224915   4.575   0.517   1.908 -0.4681  0.1122 -0.3193
 4366TP3      O24916   5.423   1.803   2.435  0.0922  0.3712 -0.6231
 4366TP3     H124917   5.503   1.763   2.469 -0.4057  0.4453  0.6762
 4366TP3     H224918   5.359   1.733   2.434 -0.1692  0.6049 -0.4582
 4367TP3      O24919   2.058   0.666   2.806  0.2902  0.4673 -0.1595
 4367TP3     H124920   2.071   0.634   2.895 -0.2509 -0.1479 -0.2963
 4367TP3     H224921   2.027   0.756   2.817  1.4134  0.8136  0.2345
 4368TP3      O24922   4.893   4.781   1.443  0.0266 -0.0053  0.0457
 4368TP3     H124923   4.948   4.714   1.484 -0.4907 -0.1115  0.5629
 4368TP3     H224924   4.849   4.735   1.371 -0.7505 -0.3600  0.7428
 4369TP3      O24925   3.653   0.145   2.696  0.1243 -0.2145 -0.2906
 4369TP3     H124926   3.644   0.090   2.774  0.8330  0.1040  0.0235
 4369TP3     H224927   3.616   0.093   2.625 -0.3514 -0.5884  0.2198
 4370TP3      O24928   0.425   1.397   0.712 -0.2277  0.2577 -0.3702
 4370TP3     H124929   0.512   1.378   0.747  0.2066  2.3059 -0.3089
 4370TP3     H224930   0.394   1.471   0.763 -0.7138  1.5554 -2.5040
 4371TP3      O24931   3.872   0.536   0.706  0.2992 -0.1619  0.0226
 4371TP3     H124932   3.850   0.627   0.685 -0.3763  0.4928  3.3138
 4371TP3     H224933   3.788   0.491   0.708  0.4599 -0.4502  0.2670
 4372TP3      O24934   4.048   1.593   2.443 -0.1971 -0.0215 -0.0803
 4372TP3     H124935   4.140   1.595   2.416 -0.3701  1.4615 -0.6047
 4372TP3     H224936   4.023   1.685   2.450 -1.4544 -0.4076  0.7405
 4373TP3      O24937   2.804   0.029   9.987 -0.5752  0.2109  0.3449
 4373TP3     H124938   2.829   0.079   9.909 -1.4364 -0.5270 -0.4127
 4373TP3     H224939   2.709   0.024   9.983 -0.5419 -0.9184  0.7697
 4374TP3      O24940   0.286   3.302   2.743  0.0340 -0.5672 -0.2333
 4374TP3     H124941   0.353   3.361   2.708  0.0649 -0.8598 -0.6696
 4374TP3     H224942   0.213   3.310   2.681 -0.3596 -0.2066  0.2676
 4375TP3      O24943   3.721   5.344   1.987 -0.1419  0.2436 -0.5194
 4375TP3     H124944   3.657   5.293   1.938 -1.0830  0.1495  0.7714
 4375TP3     H224945   3.791   5.361   1.925  0.4879 -3.1357 -0.8371
 4376TP3      O24946   0.090   2.432   1.034  0.2023 -0.7264 -0.0440
 4376TP3     H124947   0.130   2.349   1.011  1.7673 -0.3807  1.3434
 4376TP3     H224948   0.005   2.408   1.071 -0.2077 -1.5590 -1.4741
 4377TP3      O24949   0.206   2.109   2.050 -0.0469 -0.4209  0.5024
 4377TP3     H124950   0.207   2.188   2.105  1.1545  0.3042 -0.5315
 4377TP3     H224951   0.114   2.099   2.025  0.0811  1.9857 -1.1796
 4378TP3      O24952   0.977   4.131   0.048 -0.6597 -1.0092 -0.2067
 4378TP3     H124953   1.046   4.133   0.115  0.1706  1.1431 -1.0683
 4378TP3     H224954   0.936   4.046   0.058 -0.0940 -1.0022  2.5886
 4379TP3      O24955   4.716   0.759   0.638 -0.2392 -0.3608  0.1510
 4379TP3     H124956   4.769   0.685   0.668 -0.5272 -1.0670 -1.0478
 4379TP3     H224957   4.627   0.723   0.632  0.1435 -0.8170 -3.4870
 4380TP3      O24958   3.829   1.105   0.723 -0.4215 -0.6478 -0.3939
 4380TP3     H124959   3.745   1.094   0.769 -0.8742  2.2167 -0.4356
 4380TP3     H224960   3.882   1.158   0.783 -0.0455  0.8492 -2.0169
 4381TP3      O24961   3.186   1.501   3.318 -0.2264  0.2325  0.0970
 4381TP3     H124962   3.196   1.525   3.410 -0.1138 -1.2181  0.4869
 4381TP3     H224963   3.276   1.492   3.286 -0.2665  0.6224 -0.1273
 4382TP3      O24964   4.502   3.833   2.199  0.0399  0.2203 -0.4019
 4382TP3     H124965   4.466   3.860   2.284 -0.6655 -1.5404 -0.1129
 4382TP3     H224966   4.597   3.840   2.209 -0.0710  0.7550  0.2852
 4383TP3      O24967   0.611   1.590   0.527 -0.1622 -0.1724  0.0861
 4383TP3     H124968   0.564   1.512   0.496 -0.8350  0.0721  0.4875
 4383TP3     H224969   0.663   1.558   0.601 -1.2283 -0.0314  0.9057
 4384TP3      O24970   4.748   0.682   1.164 -0.0208 -0.1922 -0.5705
 4384TP3     H124971   4.663   0.636   1.163 -0.2659  0.2289  0.9755
 4384TP3     H224972   4.812   0.612   1.175 -0.3384 -0.2733  0.8477
 4385TP3      O24973   4.708   2.257   3.061 -0.4151 -0.1073  0.5306
 4385TP3     H124974   4.773   2.311   3.105  0.3022  0.0171 -0.6529
 4385TP3     H224975   4.647   2.231   3.130  0.3096  0.6305  1.4557
 4386TP3      O24976   2.034   1.963   2.014  0.3523 -0.1142 -0.2503
 4386TP3     H124977   1.952   2.010   2.034  0.2921  0.5506 -2.0089
 4386TP3     H224978   2.048   1.978   1.921  3.6436  1.5926  0.4723
 4387TP3      O24979   1.563   1.065   1.162  0.2636  0.6562  0.2704
 4387TP3     H124980   1.501   0.992   1.154  2.2570 -1.3447  2.4496
 4387TP3     H224981   1.649   1.023   1.162  1.5188  3.1573  0.2238
 4388TP3      O24982   4.192   3.334   1.397  0.2387 -0.2400 -0.4402
 4388TP3     H124983   4.218   3.276   1.325  0.2989 -0.8681  0.0837
 4388TP3     H224984   4.195   3.279   1.475  2.4043  1.0135  0.3937
 4389TP3      O24985   4.653   0.067   1.838  0.8514 -0.2476  0.2866
 4389TP3     H124986   4.662   0.070   1.743 -1.9845  2.2250 -0.0010
 4389TP3     H224987   4.583   0.002   1.853  0.5379  0.1562  0.5901
 4390TP3      O24988   3.775   4.810   1.821  0.2731 -0.3135  0.4306
 4390TP3     H124989   3.861   4.852   1.815  1.0010 -1.5424  1.7838
 4390TP3     H224990   3.789   4.721   1.790 -0.8329 -0.1195 -0.6477
 4391TP3      O24991   4.902   5.490   2.394  0.0237  0.2858  0.2243
 4391TP3     H124992   4.968   5.454   2.454 -1.0729  0.9611  1.8825
 4391TP3     H224993   4.874   5.572   2.436 -3.5537 -1.1398  0.7613
 4392TP3      O24994   3.182   5.081   2.300 -0.4748  0.3984 -0.1218
 4392TP3     H124995   3.255   5.123   2.346  0.8275  0.1772 -1.9191
 4392TP3     H224996   3.177   4.993   2.339  0.9776  0.0196 -0.7684
 4393TP3      O24997   3.753   2.517   2.397  0.0951 -0.2021  0.1633
 4393TP3     H124998   3.742   2.458   2.322  0.8485  2.3028 -1.9898
 4393TP3     H224999   3.680   2.496   2.454 -2.0728 -0.3618 -2.5555
 4394TP3      O25000   5.088   0.775   3.109  0.4338  0.1126  0.3417
 4394TP3     H125001   5.041   0.845   3.155  1.9722  0.3908  1.5186
 4394TP3     H225002   5.109   0.711   3.177 -1.1071 -1.6259 -0.7542
 4395TP3      O25003   4.196   4.680   1.875  0.1774 -0.7337 -0.3506
 4395TP3     H125004   4.172   4.722   1.958 -0.2579  0.9716 -1.3308
 4395TP3     H225005   4.285   4.711   1.858  0.9786 -2.5401  0.3785
 4396TP3      O25006   4.758   3.474   1.385  0.2894  0.1571  0.1704
 4396TP3     H125007   4.765   3.569   1.382  0.5140  0.1317 -0.0788
 4396TP3     H225008   4.718   3.456   1.471  2.2127  0.3594  1.1240
 4397TP3      O25009   3.864   0.330   2.701 -0.2148 -0.4639  0.2675
 4397TP3     H125010   3.893   0.353   2.613 -0.3283 -0.8623  0.1247
 4397TP3     H225011   3.792   0.269   2.687  0.1188 -0.9472  0.6443
 4398TP3      O25012   4.369   4.533   2.527  0.1655 -0.0929 -0.3790
 4398TP3     H125013   4.430   4.462   2.548 -0.1255  0.0466  0.9788
 4398TP3     H225014   4.315   4.498   2.456  0.4673 -0.9794 -0.1756
 4399TP3      O25015   4.041   0.284   1.357 -0.4222  0.3793  0.2958
 4399TP3     H125016   4.104   0.236   1.410  0.8837  1.0793 -0.5835
 4399TP3     H225017   4.066   0.376   1.367 -0.3434  0.5463 -1.2448
 4400TP3      O25018   4.377   2.457   0.321  0.2676  0.2354 -0.7435
 4400TP3     H125019   4.350   2.368   0.300  0.3706 -0.0274  0.1973
 4400TP3     H225020   4.302   2.494   0.368  1.1029 -0.1441  0.9434
 4401TP3      O25021   3.477   1.836   2.842 -0.3720 -0.0199 -0.3606
 4401TP3     H125022   3.402   1.818   2.898  0.7177  0.0572  1.1264
 4401TP3     H225023   3.474   1.931   2.828 -0.7523 -0.0662 -0.6007
 4402TP3      O25024   3.769   1.843   2.300 -0.2378  0.2937  0.0404
 4402TP3     H125025   3.862   1.852   2.322 -0.2342  0.1620  0.0807
 4402TP3     H225026   3.725   1.833   2.385 -0.2393 -0.0850 -0.0041
 4403TP3      O25027   4.500   0.326   3.231 -0.4210 -0.2383  0.3545
 4403TP3     H125028   4.457   0.411   3.232  1.6739  0.8704  1.5343
 4403TP3     H225029   4.582   0.341   3.184 -0.5358 -1.8896 -0.4167
 4404TP3      O25030   4.369   0.367   8.755  0.6887 -0.9390  0.7093
 4404TP3     H125031   4.335   0.444   8.710  1.0869 -1.0638  0.1874
 4404TP3     H225032   4.292   0.326   8.795  0.6499  0.4920  2.1740
 4405TP3      O25033   2.153   0.366   1.863 -0.5382  0.2845  0.2053
 4405TP3     H125034   2.141   0.439   1.802 -1.7361 -0.8136 -0.9296
 4405TP3     H225035   2.122   0.400   1.947  2.1289  2.1662  0.5039
 4406TP3      O25036   3.432   0.530   1.106  0.2382  0.4780 -0.4975
 4406TP3     H125037   3.440   0.461   1.040  0.0950 -1.3624  1.3616
 4406TP3     H225038   3.520   0.540   1.142  0.4407  1.8860 -1.3412
 4407TP3      O25039   4.274   1.326   2.559 -0.0150 -0.6243  0.1067
 4407TP3     H125040   4.293   1.290   2.646 -0.3121 -0.9297  0.0467
 4407TP3     H225041   4.203   1.271   2.526  0.4375 -0.8226 -0.5357
 4408TP3      O25042   4.431   4.797   2.484 -0.0680  0.3908 -0.4044
 4408TP3     H125043   4.416   4.710   2.521  1.3963 -1.0488 -3.0575
 4408TP3     H225044   4.518   4.822   2.516 -0.5975  1.0342  0.5742
 4409TP3      O25045   4.089   5.167   2.279 -0.2922 -0.6101  0.2660
 4409TP3     H125046   4.105   5.075   2.298 -1.7509 -1.0363 -0.5404
 4409TP3     H225047   4.120   5.214   2.357 -1.3502 -1.9100  1.4782
 4410TP3      O25048   4.895   0.858   1.015  0.3003  0.2456  0.1321
 4410TP3     H125049   4.978   0.812   1.003 -0.0929 -0.7425  1.0953
 4410TP3     H225050   4.834   0.790   1.044 -0.7922  1.0034 -0.3445
 4411TP3      O25051   3.990   2.197   2.836  0.4884  0.5719  0.3227
 4411TP3     H125052   4.005   2.265   2.771 -0.9753 -0.0824 -0.7342
 4411TP3     H225053   3.904   2.219   2.874  0.6282  0.0830  0.9280
 4412TP3      O25054   2.002   1.464   0.962  0.2686  0.0658  0.6816
 4412TP3     H125055   1.969   1.454   1.052  1.8552  1.2545  1.4347
 4412TP3     H225056   1.927   1.496   0.912 -0.6638 -0.7237  1.5582
 4413TP3      O25057   0.954   1.651   2.477 -0.0906 -0.0345 -0.3752
 4413TP3     H125058   1.026   1.714   2.486 -0.2732  0.1183  0.0424
 4413TP3     H225059   0.898   1.668   2.553 -0.4566 -0.2950 -0.5847
 4414TP3      O25060   0.217   2.848   2.932 -0.4873  0.1664 -0.1625
 4414TP3     H125061   0.273   2.799   2.872 -0.7728  0.0217 -0.3100
 4414TP3     H225062   0.256   2.833   3.018 -0.4111 -0.0919 -0.2419
 4415TP3      O25063   0.659   1.045   1.804 -0.2183 -0.1783  0.4581
 4415TP3     H125064   0.633   1.102   1.877 -0.4481  0.8031 -0.3852
 4415TP3     H225065   0.690   0.965   1.847  0.1306  0.5824  1.6512
 4416TP3      O25066   3.674   1.637   1.309 -0.3321  0.3239 -0.1935
 4416TP3     H125067   3.587   1.637   1.348 -1.5083 -1.8725 -2.6483
 4416TP3     H225068   3.687   1.547   1.279  2.5168  0.7823 -0.4985
 4417TP3      O25069   2.301   5.222   0.975 -0.1514 -0.1930 -0.1203
 4417TP3     H125070   2.325   5.315   0.978  0.9062 -0.4665  0.2885
 4417TP3     H225071   2.214   5.221   0.937  0.3337  0.8749 -1.2973
 4418TP3      O25072   3.874   1.438   0.619  0.0229  0.1828  0.0517
 4418TP3     H125073   3.950   1.477   0.575 -0.5607 -0.9526 -2.0428
 4418TP3     H225074   3.857   1.358   0.570 -2.3905  0.2993  0.6536
 4419TP3      O25075   0.293   1.624   1.673  0.5249 -0.2767 -0.2555
 4419TP3     H125076   0.360   1.665   1.728  0.8759 -0.3170 -0.6502
 4419TP3     H225077   0.251   1.560   1.731  0.5587  0.0282  0.1091
 4420TP3      O25078   0.748   4.708   7.628 -0.6648 -0.3008  0.0955
 4420TP3     H125079   0.835   4.740   7.602 -0.0724 -1.0433  1.1526
 4420TP3     H225080   0.701   4.699   7.545  0.3246 -0.0843 -0.5034
 4421TP3      O25081   1.959   1.141   1.563 -0.2164 -0.3419 -0.0744
 4421TP3     H125082   1.992   1.213   1.616 -1.9168  0.1175  0.4130
 4421TP3     H225083   2.004   1.150   1.479  0.0951  0.8825  0.2133
 4422TP3      O25084   4.883   5.526   9.928 -0.4063 -0.5069  0.6141
 4422TP3     H125085   4.886   5.482  10.013  0.2207 -0.3028  0.6992
 4422TP3     H225086   4.972   5.519   9.894  0.1069  2.0795  1.3181
 4423TP3      O25087   2.311   0.687   2.639  0.4279  0.0317  0.0843
 4423TP3     H125088   2.249   0.660   2.707  0.8814 -0.6816  0.2256
 4423TP3     H225089   2.393   0.644   2.663  0.9388  0.8414 -0.1889
 4424TP3      O25090   1.039   1.606   0.445  0.0231 -0.2714  0.4087
 4424TP3     H125091   1.092   1.538   0.485  1.4307  1.1307  0.9742
 4424TP3     H225092   1.031   1.673   0.513  0.8201  1.2743 -0.9784
 4425TP3      O25093   4.753   3.001   2.433 -0.0037 -0.0951 -0.2126
 4425TP3     H125094   4.711   2.935   2.377  1.0290 -0.7129 -0.2788
 4425TP3     H225095   4.836   3.020   2.389 -0.8799  2.2647 -0.9056
 4426TP3      O25096   4.677   0.037   1.475  0.3219  0.1656  0.0713
 4426TP3     H125097   4.584   0.015   1.465  0.0932  1.8038 -1.7862
 4426TP3     H225098   4.723  -0.045   1.457 -0.5641  0.5832 -4.7695
 4427TP3      O25099   2.136   1.683   0.632  0.2565  0.5429  0.5192
 4427TP3     H125100   2.053   1.720   0.602 -0.1234 -0.2505  0.5947
 4427TP3     H225101   2.184   1.758   0.667 -0.2966  1.0568  0.1930
 4428TP3      O25102   0.846   1.811   3.045 -0.2364 -0.1237  0.0200
 4428TP3     H125103   0.817   1.758   3.120 -1.3094 -0.6422 -0.7418
 4428TP3     H225104   0.765   1.847   3.009  0.3507  0.7840 -0.3955
 4429TP3      O25105   5.129   2.781   2.251 -0.0553  0.4268  0.1633
 4429TP3     H125106   5.059   2.718   2.271  0.8365 -0.4957  0.3769
 4429TP3     H225107   5.167   2.749   2.169 -0.1349  1.1603 -0.1660
 4430TP3      O25108   0.403   2.455   1.912  0.2568  0.9131 -0.5673
 4430TP3     H125109   0.486   2.415   1.883 -0.3767 -1.9008  1.3022
 4430TP3     H225110   0.338   2.420   1.851  0.1366  1.5363 -0.7998
 4431TP3      O25111   4.561   0.456  10.261  0.0510  0.0389  0.0437
 4431TP3     H125112   4.487   0.494  10.308 -0.4387 -1.2350  0.3259
 4431TP3     H225113   4.562   0.364  10.288  2.2681  0.2325  0.7249
 4432TP3      O25114   4.902   5.409  10.190  0.1314  0.1302 -0.2852
 4432TP3     H125115   4.811   5.379  10.192  0.3309 -0.6478 -1.7592
 4432TP3     H225116   4.905   5.481  10.253 -1.4763  0.0710 -0.1159
 4433TP3      O25117   0.245   0.157   2.957  0.0742  0.2408 -0.6152
 4433TP3     H125118   0.202   0.133   2.875 -1.2788  2.1379 -0.4942
 4433TP3     H225119   0.298   0.234   2.934 -1.5352  1.7355  0.6070
 4434TP3      O25120   5.432   1.385   0.940  0.1296  0.5853  0.1887
 4434TP3     H125121   5.465   1.434   0.864  0.1635 -1.1532 -0.9343
 4434TP3     H225122   5.506   1.382   1.000  0.8972 -0.1403 -0.7712
 4435TP3      O25123   3.644   3.539   2.237  0.5596 -0.4883 -0.1939
 4435TP3     H125124   3.598   3.458   2.218  0.4222 -0.7509  1.1710
 4435TP3     H225125   3.724   3.512   2.282  2.9099 -0.1311 -4.0017
 4436TP3      O25126   3.413   0.764   0.430  0.8313  0.1364 -0.6258
 4436TP3     H125127   3.389   0.723   0.513 -0.6124 -0.0729 -1.1289
 4436TP3     H225128   3.508   0.772   0.433  0.7113  0.9541  1.4374
 4437TP3      O25129   1.158   4.145   0.314  0.5263 -0.3381 -0.2884
 4437TP3     H125130   1.251   4.127   0.320  0.3466 -1.2855 -0.2114
 4437TP3     H225131   1.129   4.158   0.404  0.1952 -2.1516 -0.1064
 4438TP3      O25132   0.334   1.576   2.858  0.0385  0.5146 -0.7659
 4438TP3     H125133   0.367   1.595   2.946  0.7419 -3.8044  0.0576
 4438TP3     H225134   0.305   1.484   2.864 -3.5858  1.3397 -3.9937
 4439TP3      O25135   0.023   0.587   2.147  0.2587  0.5858  0.2436
 4439TP3     H125136   0.043   0.663   2.201  0.9915  0.7900 -0.3118
 4439TP3     H225137   0.096   0.527   2.161 -0.4439 -0.1406  0.8873
 4440TP3      O25138   0.727   3.050   2.485 -0.8922  0.0848  0.1313
 4440TP3     H125139   0.670   3.126   2.477 -1.0148  0.0918  1.0993
 4440TP3     H225140   0.677   2.979   2.445 -0.7039  0.5383 -0.9408
 4441TP3      O25141   4.065   2.362   2.406 -0.2920  0.1694  0.3868
 4441TP3     H125142   3.995   2.304   2.376 -0.7323  0.1989  1.3099
 4441TP3     H225143   4.026   2.449   2.404  0.0798  0.3222 -0.1528
 4442TP3      O25144   3.768   4.243   1.236  0.0766  0.2844 -0.1603
 4442TP3     H125145   3.777   4.243   1.140 -0.5415  2.0808 -0.2434
 4442TP3     H225146   3.812   4.163   1.264 -0.5875 -0.7698 -2.0217
 4443TP3      O25147   3.173   3.081   2.731 -0.1347  0.4464 -0.3674
 4443TP3     H125148   3.180   3.166   2.687  2.0152  0.2767 -0.3967
 4443TP3     H225149   3.235   3.087   2.803 -0.3041 -0.9471 -0.1007
 4444TP3      O25150   4.903   0.537   2.425  0.5033 -0.4863 -0.2640
 4444TP3     H125151   4.942   0.527   2.338  0.5782 -2.3694 -0.0363
 4444TP3     H225152   4.959   0.485   2.483 -0.1091 -0.0530  0.7441
 4445TP3      O25153   1.666   1.031   1.827  0.0239 -0.0636 -0.0651
 4445TP3     H125154   1.639   1.064   1.741  0.2402 -0.9176 -0.4660
 4445TP3     H225155   1.725   0.958   1.807 -0.7270 -0.9174  0.8145
 4446TP3      O25156   2.126   4.939   0.305 -0.2303  0.1827 -0.0849
 4446TP3     H125157   2.091   4.950   0.394  1.5253 -0.8038  0.7504
 4446TP3     H225158   2.220   4.947   0.315 -0.0476  0.7232 -1.9905
 4447TP3      O25159   5.032   5.458   1.860 -0.0814 -0.4722 -0.1538
 4447TP3     H125160   4.965   5.518   1.892  0.1254 -0.0888 -0.4397
 4447TP3     H225161   5.020   5.458   1.765 -0.8934 -1.8397 -0.0649
 4448TP3      O25162   4.035   4.247   0.599  0.1382 -0.2503 -0.3835
 4448TP3     H125163   3.957   4.219   0.647  0.2327  2.3111  1.3804
 4448TP3     H225164   4.007   4.254   0.508 -1.1799 -1.1488 -0.0552
 4449TP3      O25165   4.715   0.481   2.160 -0.2857  0.1737 -0.0655
 4449TP3     H125166   4.697   0.387   2.149 -0.5091  0.1980  0.0738
 4449TP3     H225167   4.796   0.496   2.112  0.0943 -0.2197  0.4453
 4450TP3      O25168   4.029   2.854   2.351 -0.0053 -0.2043 -0.5366
 4450TP3     H125169   4.046   2.925   2.289 -0.5355  0.6094  0.2497
 4450TP3     H225170   4.112   2.844   2.398  0.2293 -0.4671 -0.9893
 4451TP3      O25171   3.797   5.092   9.151  0.8308  0.5686  0.2501
 4451TP3     H125172   3.747   5.152   9.208  1.3865  0.6961  0.6124
 4451TP3     H225173   3.857   5.150   9.103 -0.0656  0.5293 -0.9308
 4452TP3      O25174   0.128   1.386   2.190 -0.2893 -0.2212 -0.0604
 4452TP3     H125175   0.111   1.399   2.096  0.8692 -1.8240 -0.5307
 4452TP3     H225176   0.088   1.301   2.209 -0.3304  0.0063  0.8504
 4453TP3      O25177   4.935   3.138   1.654 -0.5919  0.3547  0.0415
 4453TP3     H125178   4.959   3.091   1.734  0.9808 -0.0310 -0.6558
 4453TP3     H225179   4.900   3.222   1.686  0.0823  0.2386  1.1356
 4454TP3      O25180   0.308   1.885   1.950 -0.6412 -0.4682 -0.0740
 4454TP3     H125181   0.298   1.968   1.997  0.0078 -0.4788  0.0890
 4454TP3     H225182   0.221   1.869   1.912 -0.6277  0.5589 -0.5602
 4455TP3      O25183   2.966   1.088   1.315 -0.6997 -0.3832  0.3099
 4455TP3     H125184   3.060   1.094   1.295 -0.4454 -2.1240  0.8249
 4455TP3     H225185   2.947   1.167   1.364 -0.0673  1.1897 -1.9051
 4456TP3      O25186   4.188   1.204   1.868  0.0743  0.1990 -0.3951
 4456TP3     H125187   4.235   1.132   1.825  0.2949  0.8618 -1.2802
 4456TP3     H225188   4.219   1.203   1.958  1.8285  0.6712 -0.9811
 4457TP3      O25189   4.898   4.318   1.839  0.1801  0.0905 -0.2089
 4457TP3     H125190   4.961   4.266   1.791 -1.2829 -1.1777 -0.8049
 4457TP3     H225191   4.934   4.324   1.928  0.0383 -2.5604  0.0683
 4458TP3      O25192   1.418   0.527   9.682  0.4568  0.1519  0.2345
 4458TP3     H125193   1.332   0.543   9.721  0.7764 -0.2225  1.1150
 4458TP3     H225194   1.418   0.434   9.659  0.4221  0.2782 -0.2692
 4459TP3      O25195   4.630   3.298   2.989 -0.1591  0.1537  0.4152
 4459TP3     H125196   4.569   3.315   3.060 -0.5235 -0.4569  0.2452
 4459TP3     H225197   4.714   3.285   3.032 -0.1063  1.1741  0.6354
 4460TP3      O25198   5.308   1.613   2.128  0.4579 -0.2065  0.3208
 4460TP3     H125199   5.404   1.607   2.120  0.5081  1.0700 -0.0576
 4460TP3     H225200   5.291   1.705   2.145 -0.6840 -0.5153  0.8871
 4461TP3      O25201   4.516   3.305   2.685 -0.6805 -0.1442 -0.4218
 4461TP3     H125202   4.423   3.296   2.705 -0.6657  1.2533  0.3896
 4461TP3     H225203   4.559   3.307   2.771  0.2171 -1.8198 -0.8155
 4462TP3      O25204   5.197   4.812   0.898 -0.2433  0.2423 -0.3321
 4462TP3     H125205   5.220   4.902   0.923 -1.8863  0.6485 -0.1829
 4462TP3     H225206   5.175   4.818   0.805 -1.3241  0.1949 -0.0822
 4463TP3      O25207   0.735   1.887   0.797 -0.9271 -0.3500  0.2733
 4463TP3     H125208   0.810   1.852   0.749  0.6265 -0.2044  2.5136
 4463TP3     H225209   0.707   1.816   0.854 -1.3901  0.1727  0.7096
 4464TP3      O25210   3.188   2.742   2.319  0.1225 -0.3154 -0.6445
 4464TP3     H125211   3.271   2.787   2.330 -0.1203  0.0854 -0.4468
 4464TP3     H225212   3.125   2.812   2.301  0.0545 -0.7205 -2.0411
 4465TP3      O25213   3.086   3.521   1.940 -0.0380 -0.5094  0.6100
 4465TP3     H125214   3.028   3.518   2.015  0.5309 -1.4572  1.0195
 4465TP3     H225215   3.029   3.538   1.865 -0.3355  2.8877  1.5443
 4466TP3      O25216   4.366   2.418   2.444 -0.2563  0.1188 -0.0550
 4466TP3     H125217   4.280   2.386   2.417  0.0994  0.0532 -1.1599
 4466TP3     H225218   4.348   2.481   2.514 -1.2703  0.7984 -0.9130
 4467TP3      O25219   5.385   1.275   9.938  0.1040  0.1887  0.5679
 4467TP3     H125220   5.294   1.261   9.912  0.1077 -2.0019  1.6013
 4467TP3     H225221   5.431   1.292   9.856 -0.9213 -0.5910 -0.1813
 4468TP3      O25222   4.459   2.022   3.063 -0.1634  0.0015 -0.1241
 4468TP3     H125223   4.491   2.098   3.111 -1.8991  0.3237  0.5879
 4468TP3     H225224   4.373   2.050   3.030 -1.1942 -1.8816  0.8449
 4469TP3      O25225   2.968   0.142   2.627 -0.0139  0.2246 -0.4039
 4469TP3     H125226   2.953   0.080   2.556 -1.2859  0.9238 -0.7742
 4469TP3     H225227   3.053   0.119   2.663  0.0054 -1.0278 -1.2503
 4470TP3      O25228   2.505   2.463   0.912  0.4094 -0.1950 -0.1234
 4470TP3     H125229   2.454   2.382   0.913 -1.8226  1.1652 -0.7035
 4470TP3     H225230   2.526   2.477   0.820 -0.5857  0.7155 -0.2201
 4471TP3      O25231   4.795   0.380   3.165 -0.2227  0.0663  0.4983
 4471TP3     H125232   4.754   0.467   3.161 -0.1347  0.0934  0.1761
 4471TP3     H225233   4.795   0.358   3.258 -0.4440  0.3183  0.5582
 4472TP3      O25234   5.015   0.914   9.651  0.1412  0.0687  0.2300
 4472TP3     H125235   5.007   1.005   9.622  4.4170  0.0627 -1.3270
 4472TP3     H225236   5.044   0.921   9.742  1.9239  0.3405 -0.3352
 4473TP3      O25237   3.477   0.209   1.348  0.4366 -0.0981 -0.2466
 4473TP3     H125238   3.551   0.212   1.288 -0.2123  1.8169 -0.9847
 4473TP3     H225239   3.401   0.226   1.292 -0.4657 -1.0949  0.6639
 4474TP3      O25240   4.272   2.896   2.467 -0.0941 -0.0679  0.6091
 4474TP3     H125241   4.285   2.983   2.431 -0.1199 -0.3152 -0.0050
 4474TP3     H225242   4.360   2.860   2.474 -0.0342  0.2385  1.4479
 4475TP3      O25243   2.041   0.628   3.088  0.0860 -0.1619  0.3208
 4475TP3     H125244   2.092   0.709   3.077  2.3989 -1.7925 -1.5184
 4475TP3     H225245   2.078   0.586   3.165 -0.7322  0.2473  0.9414
 4476TP3      O25246   2.895   0.941   2.431  0.0569 -0.1949 -0.2465
 4476TP3     H125247   2.963   0.886   2.470 -0.0262 -0.1581 -0.0479
 4476TP3     H225248   2.816   0.921   2.482  0.2262  0.7465  0.3800
 4477TP3      O25249   4.626   0.945   2.480  1.1773 -0.2681 -0.6132
 4477TP3     H125250   4.663   0.863   2.447  0.1440 -1.2711  0.6702
 4477TP3     H225251   4.531   0.932   2.475  1.0068  0.6087  0.1944
 4478TP3      O25252   5.344   0.790   3.020 -0.3169  0.3442  0.4211
 4478TP3     H125253   5.249   0.789   3.032 -0.2783 -0.3090  0.6687
 4478TP3     H225254   5.357   0.833   2.936 -0.9791 -2.1106 -0.9625
 4479TP3      O25255   0.081   0.753   0.879  0.8163  0.0975 -0.1230
 4479TP3     H125256   0.005   0.780   0.929  0.7640  0.9597 -0.6581
 4479TP3     H225257   0.095   0.662   0.904 -0.0953  0.0807  0.3413
 4480TP3      O25258   4.811   2.929   1.531  0.0964 -0.8487 -0.0967
 4480TP3     H125259   4.857   3.006   1.566 -0.7622 -0.5113  0.3077
 4480TP3     H225260   4.857   2.908   1.450  1.0455 -0.5972  0.3726
 4481TP3      O25261   5.482   4.467   2.626  0.3034 -0.2147 -0.3084
 4481TP3     H125262   5.410   4.409   2.652  0.8250 -0.7585 -0.0437
 4481TP3     H225263   5.445   4.555   2.632 -0.8140 -0.5632 -1.7400
 4482TP3      O25264   4.298   0.873   2.926 -0.0653 -0.0810 -0.3375
 4482TP3     H125265   4.302   0.962   2.962 -0.8386  0.8122 -2.3606
 4482TP3     H225266   4.277   0.818   3.001  0.0626  1.4942  0.8882
 4483TP3      O25267   0.933   1.942   2.175  0.6128  0.1276 -0.0954
 4483TP3     H125268   0.857   1.933   2.233  0.2973  2.5618 -0.0553
 4483TP3     H225269   0.922   2.029   2.136  2.9285  0.1314 -0.7748
 4484TP3      O25270   5.136   0.095   3.193  0.0148  0.3511  0.1747
 4484TP3     H125271   5.230   0.083   3.205  0.3632 -0.2676 -2.8491
 4484TP3     H225272   5.101   0.006   3.195 -0.4225  0.5305  0.5274
 4485TP3      O25273   3.762   4.118   2.529  0.0269 -0.1185  0.8502
 4485TP3     H125274   3.706   4.067   2.588 -1.3468  0.7824  0.3481
 4485TP3     H225275   3.729   4.207   2.536 -0.1921 -0.0142 -1.3540
 4486TP3      O25276   4.874   3.624   0.838 -0.1526 -0.0956 -1.1899
 4486TP3     H125277   4.821   3.606   0.915  0.5620 -0.8995 -0.8861
 4486TP3     H225278   4.819   3.598   0.764  0.2544 -2.0318 -0.8238
 4487TP3      O25279   4.740   0.153   2.508 -0.2387 -0.0236  0.5741
 4487TP3     H125280   4.782   0.235   2.485  0.6446 -0.2739  1.2691
 4487TP3     H225281   4.674   0.177   2.573  0.1430  0.1171  0.9142
 4488TP3      O25282   4.526   0.784   0.980 -0.3500 -0.3421 -0.4480
 4488TP3     H125283   4.499   0.692   0.987  0.7694 -0.6480  0.0017
 4488TP3     H225284   4.538   0.797   0.886 -1.9526 -0.2170 -0.6534
 4489TP3      O25285   4.145   1.693   9.525  0.5623 -0.1923  0.0982
 4489TP3     H125286   4.201   1.769   9.513  0.3418 -0.2138 -1.1340
 4489TP3     H225287   4.078   1.701   9.457  0.0610 -1.0503  0.4819
 4490TP3      O25288   3.848   1.469   2.302 -0.6723  0.0520  0.3840
 4490TP3     H125289   3.772   1.525   2.316 -1.6705 -1.7605  2.5403
 4490TP3     H225290   3.900   1.480   2.382 -0.1234 -0.9150  0.1693
 4491TP3      O25291   3.117   0.801   2.551 -0.1498  0.7551  0.2836
 4491TP3     H125292   3.120   0.710   2.581 -2.5313  0.3180 -0.6901
 4491TP3     H225293   3.196   0.811   2.498 -0.4947 -1.1311 -0.6423
 4492TP3      O25294   5.433   1.125   3.263  0.6067 -0.3124  0.1099
 4492TP3     H125295   5.455   1.185   3.335  1.5383 -0.9925  0.4131
 4492TP3     H225296   5.442   1.038   3.302 -0.8793 -0.6476 -0.2849
 4493TP3      O25297   0.946   1.173   2.240 -0.2407 -0.1988 -0.2389
 4493TP3     H125298   0.903   1.248   2.198 -0.8729 -1.1270 -1.2970
 4493TP3     H225299   0.932   1.187   2.334 -2.1471 -0.0423 -0.5270
 4494TP3      O25300   5.115   0.900   1.350  0.2043 -0.0990  0.2938
 4494TP3     H125301   5.042   0.873   1.405  0.5339 -0.3585  0.6040
 4494TP3     H225302   5.166   0.959   1.406  1.3083 -1.4689  0.7425
 4495TP3      O25303   2.697   5.289   1.287 -0.2909  0.4344 -0.7960
 4495TP3     H125304   2.663   5.366   1.332  0.6299  0.2068  0.2985
 4495TP3     H225305   2.777   5.319   1.244  0.3398 -0.0030  0.0393
 4496TP3      O25306   0.433   1.324   2.629 -0.1974  0.2283  0.8866
 4496TP3     H125307   0.449   1.354   2.540  2.1761  1.8332  1.8118
 4496TP3     H225308   0.345   1.287   2.627 -0.5295  1.1330 -1.8779
 4497TP3      O25309   4.933   0.062   1.624 -0.5665 -0.3341  0.1173
 4497TP3     H125310   4.843   0.079   1.596 -0.7431  0.1598  0.9811
 4497TP3     H225311   4.978   0.145   1.613 -0.5606 -0.2189  1.0125
 4498TP3      O25312   0.092   5.442   1.204  0.2017 -0.3873 -0.5279
 4498TP3     H125313   0.127   5.477   1.123  0.0047 -0.9749 -0.8735
 4498TP3     H225314   0.053   5.518   1.249  0.2869 -0.0707 -0.9933
 4499TP3      O25315   0.145   5.250   0.540  0.1706  0.1795 -0.7610
 4499TP3     H125316   0.087   5.244   0.464 -0.2344  2.8042 -0.6923
 4499TP3     H225317   0.086   5.255   0.615  0.5143  0.7850 -0.5286
 4500TP3      O25318   0.372   2.561   0.589 -0.1292 -0.3895 -0.2411
 4500TP3     H125319   0.447   2.554   0.530 -0.2694 -0.9577 -0.3606
 4500TP3     H225320   0.309   2.616   0.542  0.2303  0.1270 -0.1181
 4501TP3      O25321   0.479   5.005   1.594  0.2033 -0.2643 -0.4793
 4501TP3     H125322   0.480   5.095   1.626  0.3168 -0.3352 -0.2793
 4501TP3     H225323   0.385   4.983   1.589  0.1772 -0.1532 -0.4751
 4502TP3      O25324   3.755   0.462   2.918 -0.3220 -0.3163  0.1237
 4502TP3     H125325   3.775   0.383   2.869 -1.2475 -0.1955 -0.4629
 4502TP3     H225326   3.782   0.442   3.008  2.1677 -0.2334 -0.5619
 4503TP3      O25327   4.124   3.677   1.569 -0.1880 -0.2169 -0.3288
 4503TP3     H125328   4.141   3.714   1.482 -0.3726  0.6992  0.0190
 4503TP3     H225329   4.129   3.752   1.628  1.0308 -1.0175  0.5978
 4504TP3      O25330   3.297   1.428   1.445 -0.0897  0.1711 -0.1343
 4504TP3     H125331   3.212   1.406   1.483 -0.0438  0.4124  0.1070
 4504TP3     H225332   3.356   1.359   1.475  0.6033  1.8924  2.5847
 4505TP3      O25333   3.804   3.864   1.684 -0.1683  0.0459 -1.1127
 4505TP3     H125334   3.820   3.918   1.762 -3.0320  1.4399 -1.4575
 4505TP3     H225335   3.792   3.927   1.613  0.4576 -1.1761 -2.3276
 4506TP3      O25336   4.945   1.281   1.572  0.3021 -0.2012 -0.1869
 4506TP3     H125337   5.018   1.319   1.524  1.8136  1.4034  3.2342
 4506TP3     H225338   4.985   1.218   1.632 -1.3137 -0.6743  0.4288
 4507TP3      O25339   5.485   1.087   2.469  0.6002  0.3761 -0.4211
 4507TP3     H125340   5.428   1.029   2.520  1.0088 -0.4247 -0.8575
 4507TP3     H225341   5.456   1.075   2.379 -0.3141  2.0095 -0.3467
 4508TP3      O25342   3.959   3.382   0.547 -0.8822 -0.3277  0.1091
 4508TP3     H125343   4.051   3.385   0.520 -0.5085  1.5175  1.5425
 4508TP3     H225344   3.913   3.431   0.479 -0.5493  0.3755  0.3858
 4509TP3      O25345   4.380   1.290   2.835  0.7367 -0.8141  0.1570
 4509TP3     H125346   4.470   1.312   2.857  0.1786 -0.2224  1.9151
 4509TP3     H225347   4.357   1.220   2.896 -0.8647  0.8940  1.5761
 4510TP3      O25348   3.136   4.134   2.857 -0.1580 -0.4951  0.3588
 4510TP3     H125349   3.109   4.071   2.924 -1.1924 -0.1136  0.3155
 4510TP3     H225350   3.207   4.183   2.897 -0.8862 -0.1468  1.2576
 4511TP3      O25351   4.728   1.564   3.430  0.1062  0.5798 -0.3275
 4511TP3     H125352   4.659   1.500   3.416  0.3763  0.0334  0.7729
 4511TP3     H225353   4.784   1.525   3.498  1.7191  0.8233 -1.4852
 4512TP3      O25354   4.745   2.550   3.669  0.0864  0.4418  0.2295
 4512TP3     H125355   4.819   2.545   3.730  0.1144 -0.0092  0.1585
 4512TP3     H225356   4.753   2.471   3.616 -1.6670 -0.6863  1.5952
 4513TP3      O25357   3.523   4.939   1.713 -0.2552  0.0675  0.2569
 4513TP3     H125358   3.472   4.862   1.687 -0.5754  0.0370  0.9682
 4513TP3     H225359   3.602   4.903   1.754  0.0580  0.1174 -0.2962
 4514TP3      O25360   4.444   1.856   2.184 -0.4466  0.0098 -0.0044
 4514TP3     H125361   4.451   1.835   2.091 -4.5026  3.7642 -1.3550
 4514TP3     H225362   4.523   1.906   2.204  0.1317 -0.2276 -1.6335
 4515TP3      O25363   5.320   2.393   3.155  0.5076  0.7838  0.3802
 4515TP3     H125364   5.364   2.477   3.142  0.0844  1.3800  2.5613
 4515TP3     H225365   5.230   2.409   3.127  1.1337  0.1528 -2.1155
 4516TP3      O25366   5.352   1.473   2.933 -0.2908  0.0783 -0.3267
 4516TP3     H125367   5.367   1.424   2.851  0.6410 -1.3640  0.6836
 4516TP3     H225368   5.411   1.432   2.996 -2.5194 -0.2387  1.6224
 4517TP3      O25369   4.691   2.896   3.026  0.4188 -0.0515  0.4587
 4517TP3     H125370   4.721   2.954   3.096 -0.0248  1.5892 -0.6992
 4517TP3     H225371   4.719   2.939   2.945  0.1645 -1.4952 -0.4166
 4518TP3      O25372   1.136   3.138   2.652 -0.3172  0.3071  0.6109
 4518TP3     H125373   1.068   3.170   2.711 -0.1804  0.3253  0.7587
 4518TP3     H225374   1.165   3.216   2.605  0.9612  0.6402  1.9302
 4519TP3      O25375   3.897   1.413   2.696  0.2252 -0.2388 -0.8027
 4519TP3     H125376   3.804   1.434   2.704  0.2925  0.3501 -1.4774
 4519TP3     H225377   3.939   1.497   2.674  1.1868 -0.1090  1.3653
 4520TP3      O25378   3.913   2.074   2.577 -0.3620 -0.0810 -0.9207
 4520TP3     H125379   3.818   2.077   2.593 -0.6011  1.7438 -2.4674
 4520TP3     H225380   3.951   2.128   2.646 -0.4749 -0.5872 -0.4622
 4521TP3      O25381   2.805   0.549   2.250 -0.4151  0.3602  0.2143
 4521TP3     H125382   2.885   0.597   2.270 -0.5350  0.6469  0.0125
 4521TP3     H225383   2.742   0.617   2.225  0.0759 -0.0466 -2.3223
 4522TP3      O25384   5.156   5.358   2.973 -0.0912 -0.7741 -0.1479
 4522TP3     H125385   5.079   5.318   2.934  0.4848 -4.1991  1.9886
 4522TP3     H225386   5.141   5.353   3.067  1.7123  0.6501  0.2465
 4523TP3      O25387   0.323   0.539   2.466 -0.4328 -0.4917 -1.0578
 4523TP3     H125388   0.415   0.519   2.452  0.2809  1.0914  0.9712
 4523TP3     H225389   0.303   0.501   2.552 -0.3262  3.1563  0.6816
 4524TP3      O25390   0.940   0.607   1.905 -0.0841 -0.3722 -0.1181
 4524TP3     H125391   0.900   0.691   1.928 -2.2956 -1.1418 -1.0030
 4524TP3     H225392   1.033   0.619   1.923 -0.6526  1.5717  1.7756
 4525TP3      O25393   4.821   5.386   0.841 -0.0790  1.0130  0.8419
 4525TP3     H125394   4.760   5.387   0.767 -1.0402 -3.2459  1.4410
 4525TP3     H225395   4.779   5.439   0.908 -1.9136  0.2976  0.2902
 4526TP3      O25396   1.142   1.119   9.893  0.2972 -0.7824 -0.0856
 4526TP3     H125397   1.048   1.136   9.894  0.6627  1.2810 -0.1659
 4526TP3     H225398   1.153   1.041   9.948 -1.3069 -0.2307  1.0445
 4527TP3      O25399   0.185   4.250   1.183 -0.4096  0.0508  0.6413
 4527TP3     H125400   0.209   4.166   1.223  0.7828 -0.2777 -0.7226
 4527TP3     H225401   0.268   4.288   1.155 -1.0945  0.9541 -0.1990
 4528TP3      O25402   3.151   4.374   0.767 -0.4199  0.3614  0.3555
 4528TP3     H125403   3.058   4.376   0.790 -0.6595  1.4168 -0.6494
 4528TP3     H225404   3.188   4.305   0.822 -1.8888 -0.3890  0.4256
 4529TP3      O25405   5.302   0.205   0.334  0.3275 -0.3760  0.2410
 4529TP3     H125406   5.210   0.231   0.325  0.8248  0.8093 -1.5281
 4529TP3     H225407   5.340   0.273   0.391  0.6525  0.4658 -0.9699
 4530TP3      O25408   4.925   1.327   1.255  0.1304 -0.1196 -0.4372
 4530TP3     H125409   4.931   1.238   1.221 -1.2214 -0.7555  0.9364
 4530TP3     H225410   4.866   1.321   1.330 -0.2466  1.9946 -0.5131
 4531TP3      O25411   3.527   5.145   2.242 -0.8980 -0.2939  0.3784
 4531TP3     H125412   3.604   5.184   2.202 -2.4359  0.9531 -1.4387
 4531TP3     H225413   3.516   5.061   2.197 -1.9132  0.5520 -0.9548
 4532TP3      O25414   3.721   0.235   1.131 -0.5650 -0.8395 -0.4280
 4532TP3     H125415   3.726   0.323   1.169 -1.1509 -1.0956  0.2568
 4532TP3     H225416   3.809   0.218   1.098 -0.0941 -0.5343  0.6598
 4533TP3      O25417   4.889   3.982   0.524  0.2180 -0.3204  0.2261
 4533TP3     H125418   4.827   4.030   0.469 -0.3550  0.7049  1.7641
 4533TP3     H225419   4.968   4.036   0.524  0.1238 -0.1836  0.6378
 4534TP3      O25420   5.318   0.870   3.396  0.3797  0.2815 -0.2846
 4534TP3     H125421   5.241   0.925   3.409  0.5143  0.3128  0.3711
 4534TP3     H225422   5.285   0.792   3.351 -0.0830  0.1416  0.2964
 4535TP3      O25423   4.501   0.475   2.910 -0.1023  0.4568 -0.5870
 4535TP3     H125424   4.468   0.544   2.852 -0.2861  0.6667 -0.2409
 4535TP3     H225425   4.501   0.516   2.997 -5.5543 -1.6365  0.6559
 4536TP3      O25426   5.088   0.412   2.931  0.0696 -0.0928  0.0052
 4536TP3     H125427   5.145   0.344   2.893 -1.8850 -2.3837  1.0197
 4536TP3     H225428   5.103   0.404   3.025 -0.7145  0.3950  0.1685
 4537TP3      O25429   3.621   1.352   9.891  0.1951  0.0628 -0.3039
 4537TP3     H125430   3.534   1.389   9.908 -0.3409 -1.2845 -0.0585
 4537TP3     H225431   3.669   1.365   9.973  0.1744  0.6818 -0.3900
 4538TP3      O25432   0.464   4.139   1.223  0.6813  0.1484  0.0879
 4538TP3     H125433   0.468   4.150   1.318 -0.1845  1.3820 -0.0008
 4538TP3     H225434   0.410   4.061   1.210  0.2168  0.3777  0.6074
 4539TP3      O25435   5.170   1.324   3.638  0.3046  0.1587  0.1473
 4539TP3     H125436   5.154   1.304   3.731  0.2960  0.9278  0.3152
 4539TP3     H225437   5.199   1.241   3.601  0.7132 -0.0562  0.9284
 4540TP3      O25438   0.991   1.452   0.969  0.5964 -0.3621  0.4494
 4540TP3     H125439   1.028   1.507   1.038  0.3070 -0.8203  0.9673
 4540TP3     H225440   0.946   1.382   1.015  1.6153 -1.4728 -0.2158
 4541TP3      O25441   5.374   2.442   2.030 -0.1169 -0.7187 -0.7416
 4541TP3     H125442   5.454   2.492   2.016 -0.6076 -0.1677 -1.6748
 4541TP3     H225443   5.392   2.387   2.106  1.5163 -1.3572 -1.5727
 4542TP3      O25444   0.290   2.306   2.711 -0.6018 -0.7200  0.2316
 4542TP3     H125445   0.235   2.228   2.707  0.6097 -1.5940  0.3782
 4542TP3     H225446   0.378   2.274   2.694 -0.3502  0.9265 -1.7605
 4543TP3      O25447   1.255   3.599   1.029 -0.3656 -0.3947 -0.0116
 4543TP3     H125448   1.285   3.574   1.116  0.5235  1.2195  0.1655
 4543TP3     H225449   1.191   3.668   1.044  1.4881  1.5521 -0.6900
 4544TP3      O25450   5.350   3.188   1.088  0.0578 -0.5848 -0.3151
 4544TP3     H125451   5.397   3.270   1.073  1.5150 -1.7114 -2.1398
 4544TP3     H225452   5.257   3.211   1.081  0.3273  1.4139  1.9698
 4545TP3      O25453   4.734   3.879   0.029  0.0657 -0.2602 -0.2594
 4545TP3     H125454   4.662   3.856   0.088 -0.3967 -0.7078 -0.9927
 4545TP3     H225455   4.730   3.975   0.023  0.5903 -0.1423  1.0204
 4546TP3      O25456   0.015   0.835   3.523  0.2407  0.0105 -0.5108
 4546TP3     H125457  -0.069   0.845   3.477 -1.1014  0.0816  1.8955
 4546TP3     H225458   0.038   0.924   3.550  1.1743  0.0033 -1.2282
 4547TP3      O25459   5.511   3.669   1.379 -0.0553 -0.0356 -0.0169
 4547TP3     H125460   5.582   3.664   1.443  1.2178  0.1663 -1.3794
 4547TP3     H225461   5.431   3.672   1.431  1.0422  1.9535  1.5958
 4548TP3      O25462   5.015   0.860   1.826 -0.3179 -0.0249  0.1555
 4548TP3     H125463   5.103   0.839   1.795  0.2852  1.7602  0.6356
 4548TP3     H225464   4.997   0.794   1.893  0.6223 -0.4502 -0.0019
 4549TP3      O25465   1.244   2.600   9.659 -0.7059 -0.5370  0.4529
 4549TP3     H125466   1.167   2.551   9.631  0.6873 -2.2956 -0.3749
 4549TP3     H225467   1.248   2.674   9.599 -0.7704 -1.3888 -0.6253
 4550TP3      O25468   1.182   1.085   2.528 -0.5533  0.3527 -0.3043
 4550TP3     H125469   1.221   1.116   2.446 -2.0883 -0.6501 -1.4339
 4550TP3     H225470   1.219   0.998   2.540  2.0093  1.6488  1.6889
 4551TP3      O25471   3.493   3.599   1.338  0.3249  0.2186 -0.4130
 4551TP3     H125472   3.425   3.577   1.274 -1.5181  0.5997  1.3680
 4551TP3     H225473   3.539   3.517   1.353 -1.0891 -0.5321 -0.0872
 4552TP3      O25474   1.378   3.264   2.965 -0.5052  0.2180  0.1572
 4552TP3     H125475   1.385   3.298   3.054  0.9427  1.1257 -0.2814
 4552TP3     H225476   1.431   3.184   2.965 -1.0522 -0.1407  0.2924
 4553TP3      O25477   5.411   2.480   2.744  0.2149 -0.2234 -0.3858
 4553TP3     H125478   5.482   2.427   2.781 -0.1770  0.4990  1.4258
 4553TP3     H225479   5.455   2.535   2.679  1.1818 -0.4003  0.0998
 4554TP3      O25480   1.397   4.114   1.531  0.0343 -0.6255  0.6333
 4554TP3     H125481   1.458   4.102   1.604  3.2291  0.0956 -1.7838
 4554TP3     H225482   1.425   4.049   1.466 -0.7665  0.7720 -1.1449
 4555TP3      O25483   5.524   4.682   0.314  0.1537 -0.2426  0.4377
 4555TP3     H125484   5.478   4.624   0.375  2.9953 -1.7743  1.1846
 4555TP3     H225485   5.455   4.738   0.279 -1.7726 -0.0767  4.1884
 4556TP3      O25486   0.921   3.548   1.856  0.1876  0.3040 -0.4118
 4556TP3     H125487   0.992   3.593   1.810  0.6968  1.0701  1.0681
 4556TP3     H225488   0.957   3.530   1.943 -1.1901  0.0717  0.1270
 4557TP3      O25489   4.424   4.789   0.883 -0.1292 -0.4315  0.4511
 4557TP3     H125490   4.341   4.783   0.835  2.2345  1.1732 -4.1404
 4557TP3     H225491   4.460   4.701   0.878 -0.0513 -0.3514 -0.4117
 4558TP3      O25492   1.383   4.445   2.501 -0.0331 -0.4378 -0.4457
 4558TP3     H125493   1.295   4.482   2.505  0.5228  0.8303  0.2289
 4558TP3     H225494   1.390   4.409   2.413 -1.3799 -0.9403 -0.3546
 4559TP3      O25495   2.704   1.511   9.880  0.6039  0.0170 -0.3724
 4559TP3     H125496   2.648   1.552   9.946 -2.1555 -1.7917 -1.4751
 4559TP3     H225497   2.721   1.579   9.816 -1.3093  0.3290 -0.5825
 4560TP3      O25498   1.310   2.675   0.863 -0.3168  0.5927 -0.4279
 4560TP3     H125499   1.300   2.673   0.958 -0.9543  1.5482 -0.4710
 4560TP3     H225500   1.399   2.708   0.850  0.1383 -0.5015 -0.1570
 4561TP3      O25501   0.020   2.844   3.151  0.0979 -0.1470 -0.5006
 4561TP3     H125502   0.112   2.825   3.131  0.4145  0.9752 -0.1197
 4561TP3     H225503   0.012   2.939   3.142 -0.0736  0.2782  3.3055
 4562TP3      O25504   4.470   3.576   1.189  0.0232 -0.2435 -0.4109
 4562TP3     H125505   4.484   3.611   1.277  1.1176  1.4550 -1.2330
 4562TP3     H225506   4.449   3.484   1.203  0.2407 -0.0113  1.6246
 4563TP3      O25507   1.992   2.747   2.556 -0.5371  0.6415 -0.1546
 4563TP3     H125508   2.024   2.836   2.544 -2.4191  1.3029 -0.5292
 4563TP3     H225509   2.066   2.691   2.532  0.0142  2.0831 -1.9126
 4564TP3      O25510   1.915   1.894   1.619 -0.1303  0.4171 -0.2178
 4564TP3     H125511   1.955   1.936   1.543  0.0057  0.3523 -0.1823
 4564TP3     H225512   1.828   1.933   1.625 -0.7615 -0.7753 -1.4025
 4565TP3      O25513   0.028   1.937   1.304  0.1855  0.2099 -0.2157
 4565TP3     H125514   0.054   1.845   1.293  1.3961  0.7098 -1.7153
 4565TP3     H225515  -0.060   1.941   1.267  0.2270 -0.2990 -0.3738
 4566TP3      O25516   2.000   2.611   1.819  0.4328  0.8901  0.1195
 4566TP3     H125517   1.906   2.609   1.796  0.3555 -1.1586  0.5349
 4566TP3     H225518   2.013   2.533   1.873  2.3013  1.4044  0.4288
 4567TP3      O25519   1.686   4.476   2.478 -0.5259 -0.0615 -0.6589
 4567TP3     H125520   1.592   4.463   2.489 -0.1937 -1.1747  1.0595
 4567TP3     H225521   1.722   4.387   2.475  0.9278  0.3257  3.1089
 4568TP3      O25522   1.158   3.623   3.424 -0.1216 -0.2941  0.2981
 4568TP3     H125523   1.102   3.633   3.347 -2.8448  0.7501  2.2968
 4568TP3     H225524   1.193   3.535   3.417 -1.1384 -0.5759 -1.6233
 4569TP3      O25525   4.990   0.092   1.031  0.4158 -0.0340  0.0791
 4569TP3     H125526   5.033   0.007   1.023 -0.9253 -0.6451 -0.8976
 4569TP3     H225527   4.959   0.095   1.122  1.2461 -0.2012  0.3719
 4570TP3      O25528   2.076   0.048   0.772  0.0339 -0.0734  0.2785
 4570TP3     H125529   2.152   0.090   0.733 -1.0433  1.6703  0.0126
 4570TP3     H225530   2.037  -0.001   0.699  0.7567 -0.7837  0.3611
 4571TP3      O25531   2.123   1.693   1.536  0.3650 -0.1773 -0.1919
 4571TP3     H125532   2.097   1.602   1.544 -1.1103  0.4088  2.5145
 4571TP3     H225533   2.041   1.742   1.541  1.1492  1.3004 -1.3535
 4572TP3      O25534   1.723   4.853   0.319  0.2936 -0.6485 -0.3857
 4572TP3     H125535   1.651   4.802   0.356  1.8804 -3.7145 -1.3581
 4572TP3     H225536   1.709   4.848   0.224 -0.4973  2.2512 -0.4591
 4573TP3      O25537   0.903   2.038   1.246  0.7263  0.1313 -0.0543
 4573TP3     H125538   0.892   1.960   1.300 -2.8208  0.3384 -0.3407
 4573TP3     H225539   0.932   2.106   1.307 -3.3858  0.4118  1.7308
 4574TP3      O25540   5.395   4.331   1.132 -0.4623  0.1687 -0.4987
 4574TP3     H125541   5.399   4.235   1.134  0.6588  0.1079 -3.2593
 4574TP3     H225542   5.473   4.358   1.180 -0.6129 -0.3146  0.0266
 4575TP3      O25543   1.260   3.867   3.146 -0.5047  0.2009  1.3721
 4575TP3     H125544   1.336   3.844   3.199  0.6225  0.2103 -0.2268
 4575TP3     H225545   1.295   3.917   3.073 -2.0038 -0.1159  0.4012
 4576TP3      O25546   1.609   3.530   0.458 -0.2008  0.5791  0.0744
 4576TP3     H125547   1.571   3.572   0.535  1.5505  0.5671  0.9824
 4576TP3     H225548   1.702   3.552   0.463  0.4074 -1.7326 -0.5342
 4577TP3      O25549   2.306   2.439   1.305 -0.0189  0.3143 -0.4312
 4577TP3     H125550   2.344   2.510   1.253  0.4252  0.7108  0.4262
 4577TP3     H225551   2.229   2.477   1.346 -0.1288  0.1247 -0.4609
 4578TP3      O25552   0.809   2.875   2.671  0.8067  0.1656  0.3763
 4578TP3     H125553   0.720   2.842   2.653  1.3383 -0.9992 -0.2139
 4578TP3     H225554   0.817   2.953   2.617  0.5188 -0.3523 -0.4303
 4579TP3      O25555   1.723   5.034  10.049  0.3359 -0.8845 -0.0741
 4579TP3     H125556   1.687   5.069  10.131  3.4663  3.5659 -0.4194
 4579TP3     H225557   1.813   5.010  10.071  1.1277  0.1213 -2.1268
 4580TP3      O25558   1.289   3.258   2.455 -0.0338 -0.1410  0.1497
 4580TP3     H125559   1.353   3.287   2.519 -0.0724  0.0038  0.1219
 4580TP3     H225560   1.244   3.338   2.427 -0.5497 -0.2944  0.5207
 4581TP3      O25561   1.408   1.438   2.461  0.3170  0.1935  0.7013
 4581TP3     H125562   1.328   1.440   2.409 -0.0646  1.0523  1.3179
 4581TP3     H225563   1.383   1.397   2.544  0.6648 -0.1129  0.6602
 4582TP3      O25564   0.525   3.219   2.427  0.2893 -0.1595 -0.0154
 4582TP3     H125565   0.470   3.255   2.497  0.7636 -1.1795  0.8925
 4582TP3     H225566   0.518   3.283   2.356 -0.5583  0.6614  0.7928
 4583TP3      O25567   1.760   0.728   2.381 -0.0595  0.2362 -0.2809
 4583TP3     H125568   1.733   0.804   2.331 -0.5561  0.4359  0.2764
 4583TP3     H225569   1.743   0.752   2.472  1.2724  0.0624  0.0242
 4584TP3      O25570   1.937   3.405   2.077 -0.3060  0.3905  0.0955
 4584TP3     H125571   1.920   3.455   1.997  1.5329 -1.3018 -1.3947
 4584TP3     H225572   1.998   3.460   2.127 -2.6377  2.1442  1.0936
 4585TP3      O25573   2.643   5.090   2.559 -0.1702 -0.2328 -0.0720
 4585TP3     H125574   2.615   5.034   2.488  0.1031 -0.2630 -0.1579
 4585TP3     H225575   2.666   5.030   2.630 -0.6450 -0.1924  0.1137
 4586TP3      O25576   0.250   1.559   0.449  0.0248  0.3175  1.3563
 4586TP3     H125577   0.162   1.597   0.445 -0.3042 -0.6159 -0.5131
 4586TP3     H225578   0.309   1.633   0.434 -0.6177  0.1527 -2.4222
 4587TP3      O25579   3.525   2.314   9.716 -0.2334 -0.1305 -0.3354
 4587TP3     H125580   3.460   2.377   9.747  1.1458  1.2445 -0.2154
 4587TP3     H225581   3.495   2.290   9.628 -1.8065 -0.7903  0.3470
 4588TP3      O25582   1.321   2.720   2.774  0.5416 -0.0739  0.3158
 4588TP3     H125583   1.238   2.749   2.735 -0.2060 -2.1285  0.2962
 4588TP3     H225584   1.339   2.783   2.843 -0.8270  0.6361  0.0410
 4589TP3      O25585   0.270   3.599   3.188  0.7526  0.1927 -0.4922
 4589TP3     H125586   0.257   3.691   3.162  0.0326  0.1017 -0.4713
 4589TP3     H225587   0.194   3.553   3.153  1.5339 -0.5592 -1.2310
 4590TP3      O25588   5.348   2.793  10.134 -0.0243  0.6177 -0.8026
 4590TP3     H125589   5.327   2.718  10.078 -1.8022  1.2428 -1.0101
 4590TP3     H225590   5.402   2.756  10.204  2.6419 -0.0922 -3.1451
 4591TP3      O25591   0.578   4.095   1.459  0.1393 -0.1578  0.1829
 4591TP3     H125592   0.664   4.117   1.494 -0.0269 -0.6860  0.9252
 4591TP3     H225593   0.588   4.007   1.423 -0.3687 -0.6638  1.2515
 4592TP3      O25594   1.029   3.911   2.079 -0.3625 -0.1279  0.0714
 4592TP3     H125595   0.943   3.953   2.069 -1.1042 -1.8697 -0.9966
 4592TP3     H225596   1.011   3.831   2.127  0.4530 -1.1732 -1.3244
 4593TP3      O25597   0.533   4.804   2.564  0.0301 -0.1456  0.5987
 4593TP3     H125598   0.529   4.878   2.626 -1.3096  0.6938 -0.4675
 4593TP3     H225599   0.458   4.817   2.506  1.3622 -0.8277 -1.3212
 4594TP3      O25600   1.704   2.695   2.524 -0.4686 -0.7455  0.0520
 4594TP3     H125601   1.666   2.776   2.490 -1.2101 -1.2419 -0.3148
 4594TP3     H225602   1.797   2.702   2.501 -0.8546 -0.8232 -1.6388
 4595TP3      O25603   4.832   5.154   2.007 -0.0555  0.0715 -0.4977
 4595TP3     H125604   4.785   5.193   2.081 -0.1689  1.4858 -1.2986
 4595TP3     H225605   4.782   5.181   1.930 -0.1062 -1.6314 -1.0813
 4596TP3      O25606   1.101   2.530   2.688  0.2705  0.4138  0.3368
 4596TP3     H125607   1.184   2.500   2.725  0.0606  0.8875  1.2052
 4596TP3     H225608   1.073   2.601   2.746 -1.5289 -0.7820  0.9819
 4597TP3      O25609   1.825   2.011   2.585 -0.0062 -0.2554 -0.4113
 4597TP3     H125610   1.842   2.096   2.626  0.6744  0.3771 -1.9596
 4597TP3     H225611   1.732   2.013   2.563 -0.4302 -0.6870  1.2503
 4598TP3      O25612   2.344   2.535   2.713  0.2983 -0.8766  0.6171
 4598TP3     H125613   2.401   2.526   2.789  1.1385  1.0264  0.2515
 4598TP3     H225614   2.375   2.615   2.669 -0.9463 -1.2731 -1.0489
 4599TP3      O25615   5.311   2.149   9.944  0.2189 -0.3552 -0.2202
 4599TP3     H125616   5.241   2.212   9.966  0.7362  0.4343 -0.8026
 4599TP3     H225617   5.387   2.182   9.992  0.3856 -0.7822 -0.1957
 4600TP3      O25618   4.927   3.009   0.089 -0.4644 -0.5013  0.6480
 4600TP3     H125619   4.990   3.004   0.161  0.1281  1.3092  0.2928
 4600TP3     H225620   4.976   3.048   0.017 -1.4452 -0.9542 -0.2827
 4601TP3      O25621   2.226   1.734   1.124 -0.8560 -0.0760  0.3010
 4601TP3     H125622   2.161   1.689   1.178  0.3199 -1.5593  0.5061
 4601TP3     H225623   2.236   1.678   1.047 -1.5966  1.3888 -0.8864
 4602TP3      O25624   1.037   4.668   1.838  0.3594 -0.0694  0.5427
 4602TP3     H125625   0.956   4.619   1.821  1.5986 -1.5292 -1.2900
 4602TP3     H225626   1.079   4.620   1.910  0.5899 -0.5161  0.1117
 4603TP3      O25627   2.007   2.777   0.568  0.1455 -0.4336  0.2312
 4603TP3     H125628   1.930   2.745   0.521 -0.9703  0.9684  1.0759
 4603TP3     H225629   2.079   2.722   0.536 -0.7431 -0.1586 -2.4165
 4604TP3      O25630   1.080   4.050   2.867 -0.3220 -0.2802 -1.1012
 4604TP3     H125631   1.156   4.065   2.923 -1.1607 -0.6649  0.1814
 4604TP3     H225632   1.086   4.118   2.800  0.4357  0.5262 -0.2414
 4605TP3      O25633   0.992   3.436   2.517 -0.0913  0.2693  0.4445
 4605TP3     H125634   1.025   3.482   2.594  2.6424 -1.5753  0.4552
 4605TP3     H225635   0.982   3.504   2.450 -0.3109  1.5237  1.7335
 4606TP3      O25636   0.936   0.547   3.158 -0.3581 -0.5032  0.0039
 4606TP3     H125637   0.863   0.609   3.148  0.0681 -0.0799 -0.5112
 4606TP3     H225638   0.982   0.578   3.236  0.7397  0.7493 -1.1242
 4607TP3      O25639   1.538   2.085   1.392 -0.0270 -0.3264 -0.4845
 4607TP3     H125640   1.461   2.124   1.433  0.5424  0.2229  0.0802
 4607TP3     H225641   1.603   2.082   1.462  0.7444  0.0015 -1.1825
 4608TP3      O25642   0.949   2.199   3.204 -0.3433 -0.4501 -0.5599
 4608TP3     H125643   0.942   2.290   3.174 -2.5091 -0.3444  0.1907
 4608TP3     H225644   0.912   2.200   3.292  2.2365 -1.5351  0.6046
 4609TP3      O25645   3.903   2.895   0.065  0.5842  0.0218  0.0248
 4609TP3     H125646   3.856   2.940   0.135  1.0573 -1.8865  1.6164
 4609TP3     H225647   3.935   2.814   0.105  1.2172 -0.9342 -2.2918
 4610TP3      O25648   2.191   4.182   2.787 -0.3273  0.1305 -0.0877
 4610TP3     H125649   2.194   4.168   2.882 -1.0031  0.2469 -0.0489
 4610TP3     H225650   2.144   4.264   2.776 -2.2430 -1.0145 -0.6319
 4611TP3      O25651   1.377   2.792   1.187 -0.5334 -0.0941 -0.1370
 4611TP3     H125652   1.352   2.847   1.262  0.1639 -0.8485  0.6688
 4611TP3     H225653   1.408   2.854   1.121 -0.2623  0.5166  0.5608
 4612TP3      O25654   1.046   1.437   1.488 -0.0966 -0.0597 -0.1546
 4612TP3     H125655   1.081   1.446   1.577  0.3551 -1.6466 -0.1616
 4612TP3     H225656   1.122   1.412   1.435 -0.5573 -0.0535 -0.8241
 4613TP3      O25657   4.719   1.448  10.314 -0.4584  0.1662 -0.0604
 4613TP3     H125658   4.654   1.495  10.262 -1.3007 -1.3887 -0.4444
 4613TP3     H225659   4.673   1.426  10.395 -0.4970 -1.1429 -0.4316
 4614TP3      O25660   0.605   1.697   1.010  0.3876  0.1198 -0.7688
 4614TP3     H125661   0.610   1.615   1.060 -0.5175 -0.1349 -1.0827
 4614TP3     H225662   0.570   1.761   1.073  1.0607  0.2630 -0.5342
 4615TP3      O25663   0.432   5.331   8.780 -0.1107 -0.3421 -0.2258
 4615TP3     H125664   0.444   5.423   8.804  0.4449  0.2781 -2.6737
 4615TP3     H225665   0.455   5.282   8.859  3.7833  1.4567 -0.1028
 4616TP3      O25666   0.556   3.235   3.746  0.0935  0.0045 -0.1915
 4616TP3     H125667   0.612   3.246   3.669  0.4346  0.0508  0.0584
 4616TP3     H225668   0.523   3.145   3.740  4.2075 -1.8276  2.2511
 4617TP3      O25669   0.976   2.698   2.846  0.3681  0.1682 -0.5238
 4617TP3     H125670   0.919   2.760   2.800  0.6140  0.1391 -0.8786
 4617TP3     H225671   0.926   2.670   2.922  0.3625  1.0186 -0.2065
 4618TP3      O25672   2.697   2.240   0.286  0.2135 -0.1212  0.2022
 4618TP3     H125673   2.626   2.265   0.344 -0.6137  1.9371 -1.6013
 4618TP3     H225674   2.767   2.301   0.307  1.6216 -2.3197  2.1683
 4619TP3      O25675   1.118   2.838   1.702  0.5298  0.4091  0.4642
 4619TP3     H125676   1.080   2.754   1.676  1.7974  0.1046 -0.4342
 4619TP3     H225677   1.049   2.881   1.754 -1.5741  0.4831 -2.3164
 4620TP3      O25678   4.163   4.979   2.925  0.1895 -0.0487  0.3756
 4620TP3     H125679   4.183   5.059   2.876  2.1547 -0.8524 -0.1969
 4620TP3     H225680   4.100   4.933   2.870 -0.3877  0.7568  0.3495
 4621TP3      O25681   2.167   2.579   2.058  0.2158  0.1411 -0.0194
 4621TP3     H125682   2.124   2.496   2.040 -0.5100  0.4583  0.2327
 4621TP3     H225683   2.239   2.556   2.117  0.4984 -0.4075 -0.5584
 4622TP3      O25684   0.446   4.808   0.191 -0.2090 -0.0993 -0.0602
 4622TP3     H125685   0.381   4.816   0.261 -1.8115  0.6707 -1.5899
 4622TP3     H225686   0.503   4.883   0.202 -2.1218  1.5567 -1.2356
 4623TP3      O25687   1.478   3.038   0.681 -0.1531 -0.5077  0.2402
 4623TP3     H125688   1.534   2.962   0.667  0.3547  0.0105 -0.6468
 4623TP3     H225689   1.511   3.104   0.619 -0.2671  0.5989  1.3361
 4624TP3      O25690   1.297   2.599   3.188 -0.1070  0.2367  0.2593
 4624TP3     H125691   1.333   2.683   3.159 -2.3760  1.4494  0.7726
 4624TP3     H225692   1.267   2.616   3.277 -0.3363 -1.1962  0.4547
 4625TP3      O25693   1.650   1.282   0.631  0.2187 -0.2075 -0.3458
 4625TP3     H125694   1.593   1.263   0.557 -1.5128 -1.5313  1.2887
 4625TP3     H225695   1.650   1.201   0.683  1.9018  0.4792  0.7846
 4626TP3      O25696   4.353   4.911   3.105 -0.2257 -0.1823 -0.1158
 4626TP3     H125697   4.285   4.932   3.041 -1.7556 -2.5187  0.6600
 4626TP3     H225698   4.421   4.868   3.053 -1.1901 -1.5232 -0.3159
 4627TP3      O25699   5.142   4.732   0.613  0.0447  0.5977  0.0462
 4627TP3     H125700   5.126   4.786   0.536 -1.1932 -1.3055 -1.0653
 4627TP3     H225701   5.055   4.719   0.651  0.4104 -0.0940  0.6535
 4628TP3      O25702   5.513   3.877   0.789  0.6497 -0.3113 -0.0395
 4628TP3     H125703   5.429   3.921   0.773  0.5170 -0.8895 -0.9603
 4628TP3     H225704   5.564   3.941   0.838 -0.2039  0.1787  0.2306
 4629TP3      O25705   1.873   2.082   2.965  0.0368 -0.3437  0.4374
 4629TP3     H125706   1.805   2.065   3.030 -0.2242 -0.9086  0.0202
 4629TP3     H225707   1.955   2.083   3.015 -0.1592 -0.8123  0.7671
 4630TP3      O25708   1.460   3.906   3.331  0.2361  0.1382  0.4055
 4630TP3     H125709   1.413   3.914   3.415 -0.9968  2.4605 -0.4675
 4630TP3     H225710   1.486   3.996   3.310 -1.0941 -0.1360 -2.6135
 4631TP3      O25711   1.412   3.082   1.427  0.1545 -0.5694  0.0101
 4631TP3     H125712   1.352   3.156   1.417  0.3509 -0.3015  0.7484
 4631TP3     H225713   1.359   3.012   1.465  0.4115 -0.1559  1.1839
 4632TP3      O25714   1.528   3.469   2.856  0.3249  0.5909  0.3982
 4632TP3     H125715   1.525   3.513   2.941  1.2658  1.0030  0.2240
 4632TP3     H225716   1.490   3.383   2.872  1.4684  0.2726  1.4840
 4633TP3      O25717   3.285   3.773   0.599  0.3743 -0.4013  0.4638
 4633TP3     H125718   3.354   3.811   0.653  1.0334  1.1927 -1.4262
 4633TP3     H225719   3.204   3.803   0.640  0.8687  0.8264  0.5836
 4634TP3      O25720   1.675   2.822   9.948 -0.1028  0.4489 -0.4849
 4634TP3     H125721   1.619   2.891   9.911  0.2819  0.1548 -1.6497
 4634TP3     H225722   1.764   2.857   9.940  0.0509  0.0279 -0.6326
 4635TP3      O25723   1.393   1.682   2.686  0.0974  0.0184  0.1307
 4635TP3     H125724   1.343   1.700   2.607 -0.9972 -0.2405  0.7544
 4635TP3     H225725   1.387   1.587   2.697 -1.3604  0.2614  1.5696
 4636TP3      O25726   0.625   1.519   1.258  0.0647 -0.1866 -0.9887
 4636TP3     H125727   0.719   1.532   1.274 -0.1931 -0.0183  0.4125
 4636TP3     H225728   0.582   1.556   1.335 -1.0602 -2.0656 -0.6988
 4637TP3      O25729   0.876   3.224   2.313  0.1444 -0.5222  0.1086
 4637TP3     H125730   0.891   3.281   2.388 -1.7697 -2.0348  1.6640
 4637TP3     H225731   0.862   3.137   2.350  2.0919 -1.8916 -2.1786
 4638TP3      O25732   0.301   3.736   2.334 -0.4731  0.5307 -0.4832
 4638TP3     H125733   0.293   3.656   2.386  2.6340  1.5257  1.6331
 4638TP3     H225734   0.383   3.726   2.286 -0.9579  1.6781 -1.5896
 4639TP3      O25735   1.022   3.569   0.264 -0.4653  0.0676 -0.4425
 4639TP3     H125736   1.036   3.490   0.316  1.1190  0.6468  0.0482
 4639TP3     H225737   1.108   3.589   0.227 -0.2496  2.8604  1.3222
 4640TP3      O25738   1.916   3.971   1.057 -0.4535 -0.3391 -0.2078
 4640TP3     H125739   1.931   3.941   1.147 -0.8966  0.7949  0.2474
 4640TP3     H225740   1.990   3.935   1.008 -0.9844 -2.1984  0.3050
 4641TP3      O25741   3.431   4.538   2.542 -0.0584 -0.5065 -0.3697
 4641TP3     H125742   3.464   4.562   2.456  0.3424 -1.8244 -0.5987
 4641TP3     H225743   3.408   4.621   2.583  2.9740  0.4187 -0.4498
 4642TP3      O25744   1.920   3.134   1.966  0.3660 -0.3282 -0.4478
 4642TP3     H125745   1.989   3.201   1.963 -0.0188  0.0489 -1.2484
 4642TP3     H225746   1.859   3.166   2.032  1.1204 -0.8260  0.4927
 4643TP3      O25747   2.016   5.069   8.154 -0.4098 -0.4231  0.0571
 4643TP3     H125748   1.939   5.056   8.098  0.1068 -0.4208 -0.6717
 4643TP3     H225749   2.079   5.004   8.122 -0.3314 -0.8484  1.0650
 4644TP3      O25750   3.933   0.831   0.106 -0.5884  0.7429  0.2128
 4644TP3     H125751   3.928   0.907   0.048 -0.8355  1.3348  0.9946
 4644TP3     H225752   3.887   0.761   0.058 -1.4231  1.4262 -0.0035
 4645TP3      O25753   1.663   4.421   3.118  0.6818  0.1973 -0.8819
 4645TP3     H125754   1.711   4.338   3.121 -0.6826 -0.5991 -0.1025
 4645TP3     H225755   1.580   4.398   3.076 -0.6357  0.6429  1.3912
 4646TP3      O25756   1.308   2.602   2.501  0.0981 -0.3325  1.3286
 4646TP3     H125757   1.357   2.647   2.570 -1.0737  1.2100  1.1824
 4646TP3     H225758   1.221   2.590   2.537 -1.0921  2.2222 -0.5533
 4647TP3      O25759   2.298   3.979   8.828 -0.1992 -0.4686  0.0561
 4647TP3     H125760   2.263   3.910   8.885  0.5902 -0.5559  0.4326
 4647TP3     H225761   2.289   3.942   8.739 -1.4717 -0.3100  0.0992
 4648TP3      O25762   1.922   3.587   1.809  0.3502 -0.0892  0.2440
 4648TP3     H125763   1.996   3.613   1.863  1.4298 -1.3037 -0.6016
 4648TP3     H225764   1.961   3.563   1.725 -1.1866  0.8587 -0.7723
 4649TP3      O25765   0.691   2.069   1.849 -0.9195 -0.7240 -0.7482
 4649TP3     H125766   0.664   2.134   1.784  0.8146  0.2912 -0.4824
 4649TP3     H225767   0.786   2.065   1.841 -0.4846  0.6055  2.8127
 4650TP3      O25768   1.511   2.051   2.850 -0.6371  0.4355 -0.0246
 4650TP3     H125769   1.589   2.033   2.901 -2.2982  0.8362  2.7414
 4650TP3     H225770   1.448   2.087   2.913 -3.2123 -0.2745 -2.0736
 4651TP3      O25771   1.737   3.435   3.102  0.0081 -0.0463  0.2283
 4651TP3     H125772   1.825   3.458   3.133 -0.4216  0.2579  1.2508
 4651TP3     H225773   1.697   3.389   3.175 -0.8154  0.1331 -0.0975
 4652TP3      O25774   0.694   0.791   1.919 -0.1395 -0.4756 -0.4436
 4652TP3     H125775   0.617   0.734   1.931  0.0982 -0.6208  0.4125
 4652TP3     H225776   0.723   0.811   2.008  0.9460 -0.5889 -0.7647
 4653TP3      O25777   3.196   5.170   0.995  0.1182  0.3566 -0.0025
 4653TP3     H125778   3.110   5.138   1.020  0.3207  0.4127  0.7903
 4653TP3     H225779   3.204   5.255   1.039 -0.1243  1.1690 -1.4968
 4654TP3      O25780   0.913   1.187   2.812  0.3292 -0.2823 -0.0551
 4654TP3     H125781   0.964   1.257   2.770  1.5249 -1.4970 -0.6496
 4654TP3     H225782   0.824   1.198   2.777  0.3758  1.2446  0.2492
 4655TP3      O25783   0.204   0.511   1.888 -0.1735  0.2788  0.1830
 4655TP3     H125784   0.223   0.556   1.971  0.9867  0.1096  0.0224
 4655TP3     H225785   0.266   0.550   1.826 -3.0797  2.6048 -1.3634
 4656TP3      O25786   0.926   4.198   2.637 -0.8208  0.2302  0.3687
 4656TP3     H125787   1.007   4.198   2.586 -1.5336  2.2743 -0.7911
 4656TP3     H225788   0.877   4.123   2.603 -0.2853  0.1989 -0.3582
 4657TP3      O25789   5.476   1.682   9.892  0.5604 -0.1929  0.2874
 4657TP3     H125790   5.517   1.731   9.963 -0.7773 -0.4222  1.2325
 4657TP3     H225791   5.509   1.593   9.902 -1.1817 -0.6914  1.8836
 4658TP3      O25792   1.578   3.673   2.554 -0.1486  0.5231  0.8023
 4658TP3     H125793   1.673   3.672   2.540 -0.0666  0.1854  1.3607
 4658TP3     H225794   1.558   3.765   2.573  0.1925  0.4570  1.5018
 4659TP3      O25795   2.153   3.992   1.396 -0.0759 -0.3890  0.1819
 4659TP3     H125796   2.171   4.002   1.490 -1.7810 -1.9885  0.6945
 4659TP3     H225797   2.238   3.968   1.358  0.7249  0.6952  1.2146
 4660TP3      O25798   2.856   4.045   9.914  0.8045  0.1998 -0.4225
 4660TP3     H125799   2.839   4.104   9.988  0.2911 -0.9375  0.3982
 4660TP3     H225800   2.769   4.014   9.888  1.0991 -0.6585 -0.4227
 4661TP3      O25801   0.605   2.176   0.501 -0.0151  0.2915 -0.1832
 4661TP3     H125802   0.581   2.087   0.475  1.4137  0.1357 -1.0003
 4661TP3     H225803   0.606   2.174   0.597 -2.2705  0.0525 -0.1386
 4662TP3      O25804   0.998   2.989   0.639  0.0443  0.3733  0.3325
 4662TP3     H125805   1.087   2.956   0.648 -0.3198 -0.7485 -0.1116
 4662TP3     H225806   1.004   3.082   0.661  1.3084  0.2811  0.3737
 4663TP3      O25807   0.806   2.365   1.664  0.1161  0.9506  0.5995
 4663TP3     H125808   0.773   2.280   1.634 -0.2467  1.7550 -1.3229
 4663TP3     H225809   0.739   2.396   1.725 -0.0740  0.1590  0.8004
 4664TP3      O25810   4.052   2.393   2.662 -0.5675  0.4047  0.5219
 4664TP3     H125811   4.130   2.441   2.690 -0.7447 -0.3849  2.4693
 4664TP3     H225812   4.059   2.390   2.567  1.6905  0.5013  0.6466
 4665TP3      O25813   4.329   0.597   2.083 -0.1120 -0.2082  0.3335
 4665TP3     H125814   4.245   0.633   2.055 -0.8731 -1.3874  1.0842
 4665TP3     H225815   4.306   0.522   2.137  1.4409 -0.9300  0.0032
 4666TP3      O25816   4.182   0.170   2.354 -0.8278  0.2366 -0.3481
 4666TP3     H125817   4.196   0.248   2.300 -1.3364  0.7685  0.2860
 4666TP3     H225818   4.252   0.110   2.327 -0.7082  0.7335 -1.1605
 4667TP3      O25819   0.543   4.604   1.625  0.0110 -0.1535 -0.2059
 4667TP3     H125820   0.543   4.508   1.619 -0.7468 -0.0705 -1.8316
 4667TP3     H225821   0.456   4.626   1.658  0.9032 -0.1146  2.1783
 4668TP3      O25822   0.926   3.224   2.806 -0.2568 -0.0348  0.1581
 4668TP3     H125823   0.937   3.266   2.891  0.9720 -0.9826  0.4860
 4668TP3     H225824   0.837   3.247   2.779  0.1885  2.3053  0.5602
 4669TP3      O25825   3.524   4.045   1.366 -0.4523 -0.3560  0.2611
 4669TP3     H125826   3.481   4.130   1.365  0.0654 -0.1006 -0.2435
 4669TP3     H225827   3.485   3.998   1.293  1.0329  0.3321 -0.9981
 4670TP3      O25828   0.023   3.137   3.139 -0.2477 -0.1715  0.0856
 4670TP3     H125829   0.060   3.139   3.051 -2.2451  1.0472 -0.7686
 4670TP3     H225830   0.016   3.230   3.164  0.6697 -0.5054  1.7148
 4671TP3      O25831   4.494   2.084   0.634  0.6131  0.1079  0.0112
 4671TP3     H125832   4.495   1.988   0.631 -3.8556 -0.0214 -0.8748
 4671TP3     H225833   4.443   2.105   0.712 -1.5640  1.6548 -1.7521
 4672TP3      O25834   0.097   4.344   2.448 -0.0206 -0.5276 -0.0672
 4672TP3     H125835   0.071   4.252   2.451  1.8836 -1.1209 -0.9673
 4672TP3     H225836   0.041   4.387   2.512 -2.6637 -1.8696 -1.4152
 4673TP3      O25837   0.163   4.031   1.473 -0.3609 -0.1228  0.2568
 4673TP3     H125838   0.179   3.977   1.551  0.2669  0.0715  0.2668
 4673TP3     H225839   0.081   4.077   1.492  0.5171  1.0208  1.4380
 4674TP3      O25840   2.143   4.326   2.202  0.3401  0.2469  0.7821
 4674TP3     H125841   2.156   4.383   2.278 -0.9747  1.1222  0.3851
 4674TP3     H225842   2.171   4.379   2.127  1.3532 -0.5008  0.6314
 4675TP3      O25843   4.578   5.358   3.402  0.0129  0.3133  0.5846
 4675TP3     H125844   4.566   5.264   3.419 -0.1145  0.3170  0.5095
 4675TP3     H225845   4.673   5.370   3.405  0.1029 -0.0410 -0.6109
 4676TP3      O25846   1.464   1.326   2.040 -0.3832 -0.0984 -0.0727
 4676TP3     H125847   1.417   1.281   1.970 -0.3031 -3.3514  1.8857
 4676TP3     H225848   1.402   1.393   2.070 -2.2841 -1.7634 -0.1298
 4677TP3      O25849   1.418   4.056   1.121 -0.3751  0.1984  0.2911
 4677TP3     H125850   1.438   4.146   1.149  0.5113  0.0312  0.2241
 4677TP3     H225851   1.362   4.067   1.045 -0.2585  0.7038  0.2729
 4678TP3      O25852   3.251   3.217   0.359 -0.3840 -0.1381 -0.3305
 4678TP3     H125853   3.301   3.215   0.277 -0.1185  0.7303 -0.2032
 4678TP3     H225854   3.302   3.165   0.420 -0.6325 -0.8725 -0.7424
 4679TP3      O25855   0.644   2.826   3.052  0.6180  0.1750 -0.7216
 4679TP3     H125856   0.622   2.825   3.146 -0.7984  0.6403 -1.0406
 4679TP3     H225857   0.715   2.761   3.044  0.3587 -0.2904  0.5758
 4680TP3      O25858   2.546   2.677   2.543  0.3860  0.5173  0.2743
 4680TP3     H125859   2.509   2.749   2.493  1.6353  1.6772  0.9916
 4680TP3     H225860   2.622   2.715   2.588  0.0325 -0.8136  2.0410
 4681TP3      O25861   1.393   2.551  10.144  0.1853 -0.3721 -0.0781
 4681TP3     H125862   1.398   2.462  10.180 -1.0455 -0.2876  0.3161
 4681TP3     H225863   1.301   2.562  10.119 -0.2618  1.6936  2.2418
 4682TP3      O25864   1.159   2.456   3.016 -0.5809 -0.1173 -0.2757
 4682TP3     H125865   1.228   2.503   3.063 -0.2127 -0.8326 -0.0915
 4682TP3     H225866   1.080   2.470   3.068 -0.3373 -0.2495  0.1274
 4683TP3      O25867   1.524   2.033   2.252 -0.2628  0.4667 -0.3974
 4683TP3     H125868   1.483   2.108   2.210 -0.5951 -0.6906 -2.1783
 4683TP3     H225869   1.457   1.999   2.311 -0.0674  1.6222  0.5178
 4684TP3      O25870   1.515   3.199   2.325 -0.3291 -0.2068 -0.0360
 4684TP3     H125871   1.505   3.117   2.276 -1.2803  0.2684 -0.6544
 4684TP3     H225872   1.434   3.206   2.376  0.2293 -0.1974  0.8683
 4685TP3      O25873   1.156   1.451   2.379 -0.1926  0.7442  0.6789
 4685TP3     H125874   1.085   1.515   2.390 -1.0614  0.7205 -3.7181
 4685TP3     H225875   1.112   1.367   2.376  0.0059  0.6760 -1.4273
 4686TP3      O25876   0.071   1.011   1.714 -0.1278  0.1429  0.7403
 4686TP3     H125877   0.054   1.076   1.782  1.9854  2.6102 -0.9618
 4686TP3     H225878   0.152   0.967   1.743  1.1474  1.6580 -0.4619
 4687TP3      O25879   0.240   0.815   2.476  0.1475  0.4789 -0.3099
 4687TP3     H125880   0.284   0.835   2.559 -1.0587 -0.2556  0.5244
 4687TP3     H225881   0.276   0.731   2.449 -0.9631 -0.2847  0.5451
 4688TP3      O25882   0.262   1.910   3.502 -0.4002  0.0648  0.6329
 4688TP3     H125883   0.212   1.924   3.582  1.8363  0.1297  2.0362
 4688TP3     H225884   0.353   1.917   3.528  0.3784  0.6036 -2.0178
 4689TP3      O25885   1.222   2.716   2.269  1.1491 -0.2391  0.1476
 4689TP3     H125886   1.279   2.658   2.320  1.1837  0.1518  0.5560
 4689TP3     H225887   1.135   2.678   2.280  0.9216  0.7239  1.7807
 4690TP3      O25888   1.123   1.664   3.770 -0.0371  0.5168  0.7653
 4690TP3     H125889   1.065   1.719   3.717  0.3264 -0.1292 -0.3167
 4690TP3     H225890   1.211   1.696   3.750  0.1329 -0.0602  0.5991
 4691TP3      O25891   0.146   2.368   3.442  0.0232  0.0249 -0.0852
 4691TP3     H125892   0.053   2.381   3.456  0.0415 -1.0231  1.0644
 4691TP3     H225893   0.178   2.454   3.413 -1.2097  0.4962 -0.0733
 4692TP3      O25894   0.759   3.214   1.645 -0.3561  0.9352 -0.2582
 4692TP3     H125895   0.849   3.187   1.665 -0.3011 -0.4815 -2.1904
 4692TP3     H225896   0.754   3.305   1.674  1.0772  0.4311  1.7030
 4693TP3      O25897   5.236   1.846   2.718  1.0221  0.3319  0.5808
 4693TP3     H125898   5.147   1.813   2.705  0.4857  2.3066 -0.8891
 4693TP3     H225899   5.290   1.788   2.664  0.3369  0.5204 -0.3313
 4694TP3      O25900   1.710   5.216   2.239 -0.2743  0.4401 -0.7940
 4694TP3     H125901   1.788   5.165   2.258  0.8431  1.6415 -2.0111
 4694TP3     H225902   1.651   5.155   2.194  0.8496  0.0872 -1.8175
 4695TP3      O25903   1.204   4.188   2.347 -0.6796  0.0386 -0.2685
 4695TP3     H125904   1.135   4.135   2.307 -1.2938  0.4794  0.1860
 4695TP3     H225905   1.233   4.247   2.277 -1.0875  0.1623 -0.3335
 4696TP3      O25906   2.102   4.057   1.836  0.2682 -0.1125 -0.1866
 4696TP3     H125907   2.087   4.123   1.768  1.2840 -0.0153 -0.3265
 4696TP3     H225908   2.019   4.012   1.844 -0.0874  0.3872 -0.9539
 4697TP3      O25909   1.243   1.825   2.451  0.2001  0.2656  0.1882
 4697TP3     H125910   1.274   1.870   2.372 -1.0650  1.1051  0.1377
 4697TP3     H225911   1.240   1.894   2.517 -1.1382  0.1418  0.2833
 4698TP3      O25912   2.172   2.578   2.472  0.2008 -0.1638 -0.2609
 4698TP3     H125913   2.244   2.580   2.535 -1.2016 -0.0088  1.3505
 4698TP3     H225914   2.175   2.490   2.434  0.2338 -0.6922  0.9655
 4699TP3      O25915   1.823   3.064   3.291  0.1603 -0.3607  0.8614
 4699TP3     H125916   1.885   3.107   3.232  1.3668 -2.5085  0.4951
 4699TP3     H225917   1.740   3.110   3.276  1.3421  1.6957  0.3931
 4700TP3      O25918   0.986   3.936   3.603 -0.1596 -0.1947  0.5507
 4700TP3     H125919   0.938   4.017   3.619  0.2986  0.3261 -0.6312
 4700TP3     H225920   0.939   3.894   3.531  1.5729  0.7106 -1.1703
 4701TP3      O25921   2.144   3.523   2.405 -0.2229  0.5182  0.2086
 4701TP3     H125922   2.195   3.516   2.486  0.5320 -1.0033 -0.3785
 4701TP3     H225923   2.094   3.442   2.401  1.0739 -0.2385 -1.7114
 4702TP3      O25924   2.102   3.018   2.559 -0.1801 -0.4058 -0.0277
 4702TP3     H125925   2.084   3.094   2.503  0.4568  0.0236  0.3411
 4702TP3     H225926   2.084   3.050   2.647  0.1325 -0.6733  0.1315
 4703TP3      O25927   2.881   1.644   0.779 -0.1453 -0.5450 -0.0590
 4703TP3     H125928   2.876   1.738   0.796 -0.1910 -0.6243  0.3646
 4703TP3     H225929   2.793   1.612   0.797  0.1920 -0.8757  1.0211
 4704TP3      O25930   0.262   3.542   0.404  0.2122 -0.1627 -0.1511
 4704TP3     H125931   0.309   3.620   0.434  0.8538 -0.3684 -0.6064
 4704TP3     H225932   0.173   3.553   0.438 -0.0528  1.4062 -1.2703
 4705TP3      O25933   1.017   3.905   3.287  0.0932  0.4288 -0.3414
 4705TP3     H125934   0.993   3.816   3.260 -0.0248  1.0903 -2.5444
 4705TP3     H225935   1.109   3.913   3.260 -0.3346  1.4612 -1.5402
 4706TP3      O25936   1.475   2.442   2.914 -0.5278 -0.0418 -0.1585
 4706TP3     H125937   1.516   2.425   2.829 -0.1031  1.4779 -0.2715
 4706TP3     H225938   1.428   2.524   2.902 -2.0906 -0.8111  0.5257
 4707TP3      O25939   2.781   2.333   0.841  0.1608  0.4992  0.0677
 4707TP3     H125940   2.707   2.274   0.856 -0.1923  0.9154 -0.0147
 4707TP3     H225941   2.782   2.346   0.746  1.2164 -0.6309 -0.0746
 4708TP3      O25942   4.176   3.143   1.589 -0.2675  0.7174 -0.0238
 4708TP3     H125943   4.192   3.049   1.597 -0.4426  0.5804 -1.1404
 4708TP3     H225944   4.104   3.160   1.650  0.1242  0.2271  0.5800
 4709TP3      O25945   1.385   3.565   3.076 -0.3437 -0.0877  0.1247
 4709TP3     H125946   1.387   3.482   3.123 -3.3597 -0.0621  0.4024
 4709TP3     H225947   1.303   3.605   3.103  0.4455  2.3766 -1.0625
 4710TP3      O25948   1.601   3.239   3.235 -0.1796 -0.6489 -0.1790
 4710TP3     H125949   1.526   3.297   3.230  1.0963  1.0426 -0.2006
 4710TP3     H225950   1.576   3.162   3.185 -1.8046 -0.0162 -0.3502
 4711TP3      O25951   2.088   2.581   1.382 -0.6129 -0.9892  0.4389
 4711TP3     H125952   2.008   2.580   1.435 -1.2128 -1.0549 -0.4583
 4711TP3     H225953   2.094   2.671   1.350  1.0197 -0.3218  2.5011
 4712TP3      O25954   1.523   3.502   2.252  0.1609  0.2852  0.5911
 4712TP3     H125955   1.586   3.435   2.280 -0.2796 -0.1216  0.6298
 4712TP3     H225956   1.438   3.468   2.282 -0.2357  0.1779 -0.6012
 4713TP3      O25957   1.617   2.481   2.667 -0.2174  0.3166 -0.1001
 4713TP3     H125958   1.705   2.443   2.677 -0.3245  0.8300  3.2350
 4713TP3     H225959   1.628   2.548   2.600  1.6977 -0.3911 -0.5211
 4714TP3      O25960   1.976   3.221   3.137 -0.1294 -0.1100 -0.0220
 4714TP3     H125961   1.956   3.310   3.166 -0.1266  0.4495 -1.6842
 4714TP3     H225962   2.055   3.231   3.084  0.7040 -1.3228  0.9753
 4715TP3      O25963   0.264   1.855   3.882 -0.4345 -0.2718  0.3106
 4715TP3     H125964   0.207   1.832   3.956 -0.1263 -0.3279  0.5311
 4715TP3     H225965   0.321   1.778   3.871 -0.9199 -0.5379 -0.4126
 4716TP3      O25966   1.560   0.463   1.948 -0.1895 -0.7463 -0.0134
 4716TP3     H125967   1.478   0.426   1.915 -0.9785  0.6272  0.3634
 4716TP3     H225968   1.541   0.487   2.038  0.0137  1.3699 -0.5051
 4717TP3      O25969   2.730   2.063   1.548 -0.3643  0.2976 -0.3207
 4717TP3     H125970   2.676   2.034   1.475  0.4156  0.6949 -1.0666
 4717TP3     H225971   2.811   2.012   1.540  0.4115  1.5873 -0.7520
 4718TP3      O25972   5.482   1.966   2.842  0.4113  0.0849  0.4423
 4718TP3     H125973   5.477   2.042   2.901  0.5328 -1.3585  2.3600
 4718TP3     H225974   5.392   1.950   2.814  0.2614  0.3876  0.7531
 4719TP3      O25975   5.177   2.783   0.244 -0.0231  0.4180  0.1377
 4719TP3     H125976   5.114   2.742   0.184 -0.4783  0.1367  0.8075
 4719TP3     H225977   5.158   2.744   0.329  2.2433 -1.0588  0.0367
 4720TP3      O25978   1.740   1.981   2.106  0.2525 -0.1280  0.0840
 4720TP3     H125979   1.786   1.943   2.181 -0.5795 -0.1875  0.5647
 4720TP3     H225980   1.652   1.998   2.138  0.0103  0.2267 -0.7650
 4721TP3      O25981   2.096   1.357   1.972  0.0924  0.6051 -0.2580
 4721TP3     H125982   2.047   1.321   2.046  1.1081  1.1781  0.7031
 4721TP3     H225983   2.068   1.449   1.968 -0.9456  0.2500 -1.4135
 4722TP3      O25984   4.935   0.776   2.551 -0.2354  0.4150 -0.4232
 4722TP3     H125985   4.944   0.747   2.641 -1.6312  1.0716 -0.0578
 4722TP3     H225986   4.928   0.694   2.501 -1.8961  0.0489  0.3537
 4723TP3      O25987   1.425   3.554   1.717  0.6063  0.4495  0.2202
 4723TP3     H125988   1.471   3.638   1.714 -0.9578  1.2769 -1.4827
 4723TP3     H225989   1.370   3.559   1.795  0.5475  0.9865  0.1419
 4724TP3      O25990   1.474   2.892   1.921 -0.6011 -0.4920  0.1008
 4724TP3     H125991   1.385   2.898   1.957 -0.3493 -1.3147  0.8763
 4724TP3     H225992   1.514   2.976   1.944 -0.3794 -1.0794  1.9527
 4725TP3      O25993   1.540   4.069   1.768 -0.6586 -0.0070  0.6087
 4725TP3     H125994   1.571   3.989   1.811 -1.7582 -0.7548  0.0189
 4725TP3     H225995   1.507   4.123   1.839 -0.3759 -0.2820  0.9534
 4726TP3      O25996   0.014   4.089   3.105 -0.4252  0.3822 -0.3070
 4726TP3     H125997  -0.079   4.094   3.130  0.0159 -0.8111  1.6506
 4726TP3     H225998   0.052   4.171   3.137 -0.8478  0.9990 -1.3599
 4727TP3      O25999   1.151   4.569   2.051 -0.1739  0.2697  0.2508
 4727TP3     H126000   1.236   4.607   2.073  1.4542 -2.2536 -1.3556
 4727TP3     H226001   1.090   4.607   2.114  2.3492  1.2829  2.1572
 4728TP3      O26002   2.489   3.739   2.276 -0.8262  0.5998  0.8622
 4728TP3     H126003   2.428   3.693   2.219  1.2585  1.1992 -1.9529
 4728TP3     H226004   2.439   3.813   2.309 -2.3314 -0.2341  0.5289
 4729TP3      O26005   3.371   2.367   2.056 -0.0058  0.1698 -0.3891
 4729TP3     H126006   3.395   2.362   2.149  0.3076 -0.7261 -0.5051
 4729TP3     H226007   3.282   2.403   2.056 -0.5495 -1.1101  0.3522
 4730TP3      O26008   4.549   3.083   3.375 -0.4500  0.3361  0.0150
 4730TP3     H126009   4.625   3.062   3.320 -0.8534  0.0321 -0.4248
 4730TP3     H226010   4.569   3.042   3.459  0.7062  1.7833  0.4750
 4731TP3      O26011   2.838   3.776   1.956  0.2143 -0.3654 -0.1397
 4731TP3     H126012   2.762   3.834   1.947  1.8130  2.0056  1.0639
 4731TP3     H226013   2.861   3.780   2.049  2.2454 -0.4559 -0.6039
 4732TP3      O26014   0.901   4.333  10.197  0.1506  0.3572  0.1261
 4732TP3     H126015   0.885   4.280  10.118  0.2807  0.4315  0.0493
 4732TP3     H226016   0.926   4.269  10.264 -1.0228  0.1728  0.4071
 4733TP3      O26017   2.498   3.630   0.337  0.1566  0.3268  0.0268
 4733TP3     H126018   2.499   3.724   0.319 -0.9613  0.4960  0.8056
 4733TP3     H226019   2.436   3.594   0.273  0.3519  0.1548 -0.0682
 4734TP3      O26020   1.472   3.413   2.579  0.0637  0.5513  0.0165
 4734TP3     H126021   1.520   3.377   2.654 -3.8570  1.4801  3.0667
 4734TP3     H226022   1.521   3.491   2.555  1.6149 -0.0005  1.2738
 4735TP3      O26023   1.149   1.942   2.828 -0.0548  0.3175  0.8096
 4735TP3     H126024   1.122   2.030   2.855  2.4526  1.2618  0.3037
 4735TP3     H226025   1.210   1.956   2.756  0.6095 -1.8474  0.9177
 4736TP3      O26026   0.018   3.803   1.147  0.2412 -0.2828 -0.0728
 4736TP3     H126027  -0.004   3.736   1.212 -0.1577  0.0658  0.1576
 4736TP3     H226028   0.108   3.829   1.169  0.0897 -0.1300  0.3715
 4737TP3      O26029   0.233   4.106   2.057  0.0197  0.3771  0.3890
 4737TP3     H126030   0.172   4.054   2.110 -0.3153  0.7041  0.3274
 4737TP3     H226031   0.319   4.075   2.082 -0.1692 -0.0359  0.5366
 4738TP3      O26032   2.545   2.104   1.766  0.5522 -0.0605 -0.0026
 4738TP3     H126033   2.576   2.047   1.837  0.4705  0.8632  0.7838
 4738TP3     H226034   2.608   2.089   1.695  2.1247  0.8607  1.1463
 4739TP3      O26035   0.065   0.912  10.253 -0.1982  0.3045  0.8195
 4739TP3     H126036   0.007   0.972  10.206  0.4401 -0.6850 -1.3131
 4739TP3     H226037   0.069   0.947  10.342 -2.6165  1.4119  0.5519
 4740TP3      O26038   2.403   2.922  10.182 -0.1560 -0.3761 -0.0265
 4740TP3     H126039   2.392   2.948  10.273 -0.9938 -0.2044 -0.1674
 4740TP3     H226040   2.497   2.912  10.171  0.0645  0.9742  0.4879
 4741TP3      O26041   1.290   1.071   3.068 -0.3383 -0.3072 -0.0671
 4741TP3     H126042   1.274   0.981   3.096  1.5678 -0.2738  1.2015
 4741TP3     H226043   1.283   1.123   3.148 -0.0529  0.4983 -0.5573
 4742TP3      O26044   5.423   2.903   0.336  0.1452  0.0728 -0.1233
 4742TP3     H126045   5.496   2.881   0.278 -0.0647  0.4588 -0.5331
 4742TP3     H226046   5.346   2.863   0.296  0.0947 -0.1833  0.2171
 4743TP3      O26047   1.897   5.348   0.945  0.2053 -0.4073 -0.2940
 4743TP3     H126048   1.925   5.374   1.033 -0.1901 -0.9838  0.0008
 4743TP3     H226049   1.967   5.292   0.913  1.3972  1.5542 -1.2020
 4744TP3      O26050   1.104   2.850   1.043  0.2303 -0.3877 -0.2344
 4744TP3     H126051   1.164   2.874   1.113  0.9156 -1.0370 -0.5942
 4744TP3     H226052   1.067   2.933   1.013 -0.4230 -0.1443  1.2047
 4745TP3      O26053   2.086   5.440   1.470  0.2737 -0.2292  0.0139
 4745TP3     H126054   2.037   5.373   1.421 -0.9347  1.0767 -0.6099
 4745TP3     H226055   2.162   5.393   1.504  0.3865 -1.5283 -1.8891
 4746TP3      O26056   5.222   2.908   2.443 -0.5471  0.7669  0.0525
 4746TP3     H126057   5.213   2.831   2.499  1.8571  0.8454  0.6184
 4746TP3     H226058   5.193   2.878   2.357 -2.8536  0.2238  0.9992
 4747TP3      O26059   5.478   1.549   0.381 -0.8041  0.1589  0.0639
 4747TP3     H126060   5.472   1.531   0.287 -2.8280  1.1305 -0.0268
 4747TP3     H226061   5.407   1.498   0.420  0.8422 -1.2697  1.2545
 4748TP3      O26062   0.392   1.276   2.239  0.1494 -0.2183  0.4853
 4748TP3     H126063   0.321   1.341   2.243 -1.5647 -1.7018 -3.1068
 4748TP3     H226064   0.352   1.195   2.270  0.9361 -0.5902  0.5348
 4749TP3      O26065   3.051   4.669   0.401 -0.1250 -0.1112  0.1316
 4749TP3     H126066   3.044   4.575   0.421 -0.9765  0.0183  0.4919
 4749TP3     H226067   2.991   4.682   0.328 -1.9018  0.5811  1.6528
 4750TP3      O26068   1.264   0.459   1.834  0.4536 -0.2213  0.0628
 4750TP3     H126069   1.225   0.545   1.849 -2.6164 -1.4602 -0.5284
 4750TP3     H226070   1.269   0.451   1.739 -1.5849 -1.6615  0.0470
 4751TP3      O26071   5.377   2.194   3.345 -0.8353  0.4229 -0.3016
 4751TP3     H126072   5.418   2.246   3.414  0.1985  1.5886 -1.7506
 4751TP3     H226073   5.360   2.256   3.275 -0.2816 -1.0475 -1.7820
 4752TP3      O26074   5.101   1.753   3.479  0.2896  0.3355 -0.3716
 4752TP3     H126075   5.012   1.788   3.473 -0.3785 -1.2144  0.2777
 4752TP3     H226076   5.090   1.664   3.513  2.0466 -0.0565 -0.7568
 4753TP3      O26077   4.737   1.371   8.202  0.2104  0.3781  0.8006
 4753TP3     H126078   4.768   1.462   8.199  1.2330  0.1087  2.5978
 4753TP3     H226079   4.690   1.365   8.285  0.3358 -0.7871  0.7884
 4754TP3      O26080   1.237   3.402   2.775 -0.2621  0.2126  0.1223
 4754TP3     H126081   1.262   3.329   2.832  0.3595  2.1850  2.4800
 4754TP3     H226082   1.317   3.454   2.767  0.0283 -0.6776 -3.6832
 4755TP3      O26083   3.656   3.726   1.999  0.1067  0.5370 -0.5677
 4755TP3     H126084   3.660   3.686   1.912 -0.5246  0.7712 -0.7039
 4755TP3     H226085   3.669   3.652   2.059 -0.6521  0.1845 -0.8306
 4756TP3      O26086   4.368   3.899   1.956  0.3128  0.4797 -0.0732
 4756TP3     H126087   4.404   3.862   2.037  0.1813  0.0596 -0.2052
 4756TP3     H226088   4.417   3.980   1.943  0.2484  0.6139  0.4948
 4757TP3      O26089   0.806   1.069   9.042  0.0435  0.3487 -0.4174
 4757TP3     H126090   0.728   1.088   8.991  0.0837  0.1872 -0.5409
 4757TP3     H226091   0.789   1.107   9.128 -0.4427 -0.2654 -0.2400
 4758TP3      O26092   2.865   2.617   0.886 -0.2536 -0.2846 -0.8571
 4758TP3     H126093   2.841   2.552   0.820  0.0913 -0.7273 -0.5423
 4758TP3     H226094   2.863   2.570   0.969 -3.4415  0.8912 -0.1679
 4759TP3      O26095   4.902   2.881   1.266  0.1069 -0.4328 -0.4622
 4759TP3     H126096   4.836   2.927   1.213  0.7484 -2.4315 -3.0801
 4759TP3     H226097   4.877   2.789   1.260  1.7777 -0.9635  0.5056
 4760TP3      O26098   3.092   2.291   2.636 -0.5725 -0.1656 -0.4244
 4760TP3     H126099   3.099   2.359   2.570  0.0546 -0.5026 -0.7103
 4760TP3     H226100   3.118   2.211   2.591  0.3167 -0.3234  0.3472
 4761TP3      O26101   3.168   1.195   2.901  0.0616  0.1379 -0.0394
 4761TP3     H126102   3.120   1.261   2.851  0.0679 -0.7094 -1.1892
 4761TP3     H226103   3.141   1.112   2.862 -1.6354 -0.7270  2.8169
 4762TP3      O26104   2.787   3.618   0.998  0.1162 -0.1246  0.3371
 4762TP3     H126105   2.831   3.534   1.006  0.6656  0.1975  0.6851
 4762TP3     H226106   2.750   3.634   1.085  3.4341  1.8903  1.4339
 4763TP3      O26107   2.303   2.062   2.087 -0.3216 -0.0143  0.4409
 4763TP3     H126108   2.226   2.005   2.076  0.1913 -0.7301  0.5440
 4763TP3     H226109   2.290   2.101   2.174 -0.7466  0.1409  0.3111
 4764TP3      O26110   2.461   3.671   1.392  0.1052 -0.3941 -0.6521
 4764TP3     H126111   2.411   3.746   1.362  0.6885 -0.8048 -2.7186
 4764TP3     H226112   2.395   3.604   1.411 -0.4142  0.5818  1.1856
 4765TP3      O26113   5.372   1.160   2.197  0.2335  0.4384 -0.5416
 4765TP3     H126114   5.302   1.226   2.193  0.9541  1.1673 -1.2620
 4765TP3     H226115   5.335   1.083   2.153 -1.4804 -0.4808  2.3291
 4766TP3      O26116   2.095   2.532   3.093 -0.3843  0.1741 -0.0023
 4766TP3     H126117   2.185   2.537   3.060  0.0504  1.1865  1.2803
 4766TP3     H226118   2.095   2.589   3.170 -1.9282 -0.4462  0.4694
 4767TP3      O26119   3.298   3.509   2.916 -0.0285  0.1041 -0.4361
 4767TP3     H126120   3.280   3.434   2.973 -0.1467 -0.3443 -1.0540
 4767TP3     H226121   3.250   3.490   2.835 -1.9705  1.9412  0.2276
 4768TP3      O26122   2.323   0.298   1.330  0.4584  0.4509 -0.2056
 4768TP3     H126123   2.395   0.309   1.392  1.1255  0.5990 -0.9955
 4768TP3     H226124   2.366   0.294   1.244 -0.4340  0.0269 -0.6398
 4769TP3      O26125   2.944   3.518   2.185 -0.3330  0.5300  0.2413
 4769TP3     H126126   2.918   3.460   2.257  0.1204  0.1235  0.0803
 4769TP3     H226127   2.875   3.584   2.182 -0.3943  0.5062  1.0021
 4770TP3      O26128   1.496   4.886   1.843  0.0652  0.3226  0.0533
 4770TP3     H126129   1.425   4.834   1.807  0.6339  0.7718 -1.7818
 4770TP3     H226130   1.573   4.858   1.794  1.1815 -0.2045  2.0445
 4771TP3      O26131   2.193   4.391   0.511  0.3202  0.3070  0.2311
 4771TP3     H126132   2.214   4.376   0.603 -0.3526  0.1759  0.3658
 4771TP3     H226133   2.121   4.330   0.492 -0.2208  1.0414 -0.1115
 4772TP3      O26134   3.115   1.671   1.989 -0.3869 -0.3575  0.3973
 4772TP3     H126135   3.081   1.715   1.911 -2.8428 -0.1603  1.5363
 4772TP3     H226136   3.112   1.738   2.057  0.1984 -1.0046  1.0667
 4773TP3      O26137   4.814   0.877   1.394  0.4374  0.6553 -0.3314
 4773TP3     H126138   4.783   0.964   1.421 -0.9323  0.3049 -0.7285
 4773TP3     H226139   4.793   0.872   1.300 -1.2664 -0.8291  0.0997
 4774TP3      O26140   2.766   0.390   0.201 -0.3529  0.0469  0.2923
 4774TP3     H126141   2.826   0.418   0.132  0.5817 -1.3130  0.5323
 4774TP3     H226142   2.684   0.371   0.155  0.5645 -1.8397 -0.5998
 4775TP3      O26143   4.236   3.929   0.350 -0.1893 -0.3859 -0.2041
 4775TP3     H126144   4.220   3.845   0.307 -2.2176 -1.5719  2.7253
 4775TP3     H226145   4.170   3.987   0.312 -0.8767 -0.9726  0.0764
 4776TP3      O26146   3.368   3.592   1.582  0.8130 -0.0913  0.0111
 4776TP3     H126147   3.380   3.639   1.664 -0.0750 -0.0077  0.0872
 4776TP3     H226148   3.388   3.656   1.514  0.2313  0.2094  0.1277
 4777TP3      O26149   2.964   4.880   2.961  0.2549 -0.3502 -0.8128
 4777TP3     H126150   2.962   4.784   2.969 -0.5989 -0.5245 -2.8771
 4777TP3     H226151   3.041   4.897   2.906  0.4182  0.1698 -0.4284
 4778TP3      O26152   3.898   1.206   1.557 -0.2425  0.6765 -0.1177
 4778TP3     H126153   3.978   1.258   1.560  0.0340  0.3646 -1.7922
 4778TP3     H226154   3.924   1.121   1.593  0.1591  0.5956 -0.5996
 4779TP3      O26155   1.834   0.192   0.799 -0.0275 -0.7423  0.0226
 4779TP3     H126156   1.922   0.158   0.806  1.2887  2.1682 -1.3141
 4779TP3     H226157   1.812   0.182   0.706  1.1500  3.4971 -0.8514
 4780TP3      O26158   3.454   3.099   2.104 -0.3511  0.3473  0.7000
 4780TP3     H126159   3.434   3.192   2.101 -0.1250  0.3611 -0.6620
 4780TP3     H226160   3.413   3.063   2.025  0.3685 -0.5472  0.7189
 4781TP3      O26161   0.286   2.276  10.144  0.0242 -0.2530 -0.5204
 4781TP3     H126162   0.340   2.289  10.221  0.9049 -0.6894 -1.0537
 4781TP3     H226163   0.319   2.194  10.105  0.9507  1.0142 -2.4777
 4782TP3      O26164   3.961   4.035   2.324  0.6050 -0.0632  0.2038
 4782TP3     H126165   3.884   4.046   2.380  1.5966  2.1039  1.1974
 4782TP3     H226166   3.942   4.089   2.247  1.5203  1.3026  0.9057
 4783TP3      O26167   1.693   4.802   1.678 -0.7425  0.4321  0.0247
 4783TP3     H126168   1.759   4.810   1.609  0.2769 -0.9737  0.8022
 4783TP3     H226169   1.671   4.709   1.678 -1.7615  0.6722  0.6673
 4784TP3      O26170   2.902   1.285   2.107  0.4013  0.0740  0.1844
 4784TP3     H126171   2.916   1.197   2.143  1.6100  0.2337  0.0991
 4784TP3     H226172   2.989   1.324   2.104 -0.3528  1.9945  2.0334
 4785TP3      O26173   1.749   4.277   2.736  0.2899 -0.3223 -0.1890
 4785TP3     H126174   1.654   4.284   2.742  0.4435  2.7236 -0.3939
 4785TP3     H226175   1.766   4.246   2.647 -0.5219 -1.5222  0.0714
 4786TP3      O26176   4.775   3.224   2.574 -0.1481  0.2315  0.0296
 4786TP3     H126177   4.685   3.249   2.594 -0.2993  0.7267 -1.2600
 4786TP3     H226178   4.767   3.144   2.523  0.1309  0.5208 -0.4646
 4787TP3      O26179   3.556   3.766   2.360  0.4104 -0.2697 -0.0929
 4787TP3     H126180   3.592   3.689   2.317 -0.5450  0.2775 -1.9516
 4787TP3     H226181   3.559   3.834   2.292  1.4356  1.3966  1.5720
 4788TP3      O26182   4.284   4.649   1.540  0.0473  0.2234  0.3986
 4788TP3     H126183   4.255   4.693   1.620  0.2351  0.7991  0.1515
 4788TP3     H226184   4.359   4.596   1.568 -0.6039 -0.4835  0.8347
 4789TP3      O26185   3.314   2.247   0.989 -0.0745 -0.0889  0.3732
 4789TP3     H126186   3.269   2.272   1.070 -0.6664  1.6437 -0.4607
 4789TP3     H226187   3.263   2.288   0.919  0.3338 -1.7160 -0.9004
 4790TP3      O26188   2.663   4.307   1.852  0.1254  0.5504 -0.0259
 4790TP3     H126189   2.634   4.303   1.943  0.6839  1.8575  0.2189
 4790TP3     H226190   2.610   4.377   1.813  0.2496  0.3452 -0.5682
 4791TP3      O26191   2.044   3.152   2.797  0.4261  0.8145  0.0938
 4791TP3     H126192   1.960   3.184   2.831  0.0978  0.5276 -0.4389
 4791TP3     H226193   2.105   3.164   2.870 -0.3636 -0.1778  0.9517
 4792TP3      O26194   3.128   4.088   0.507 -0.0643  0.2572  0.0977
 4792TP3     H126195   3.176   4.043   0.437  1.9780 -0.2788  1.7864
 4792TP3     H226196   3.102   4.019   0.567 -0.0119  0.9436  0.9154
 4793TP3      O26197   4.454   3.760   0.432  0.3377 -0.0517 -0.3404
 4793TP3     H126198   4.405   3.835   0.399 -0.0047 -0.5153 -0.8959
 4793TP3     H226199   4.534   3.759   0.379 -0.1582 -0.7260 -1.0914
 4794TP3      O26200   5.369   3.483   0.283  0.3089  0.3437  0.1740
 4794TP3     H126201   5.412   3.520   0.360 -1.3453  2.0116  0.3289
 4794TP3     H226202   5.298   3.545   0.262 -1.8851 -2.1723 -0.1938
 4795TP3      O26203   0.350   1.629   0.846  0.0339  0.1353  0.7528
 4795TP3     H126204   0.421   1.664   0.900  0.1598  1.3366 -0.1736
 4795TP3     H226205   0.335   1.696   0.780 -1.2343 -0.5994  0.2820
 4796TP3      O26206   3.488   5.139   1.539  0.1215 -0.0048 -0.3096
 4796TP3     H126207   3.516   5.082   1.611  1.5590 -1.0512 -1.6652
 4796TP3     H226208   3.393   5.142   1.548  0.2123 -0.7094  1.1899
 4797TP3      O26209   2.613   5.501   1.444 -0.3640 -0.4177 -0.4138
 4797TP3     H126210   2.543   5.501   1.379  0.6952  1.4208 -1.5928
 4797TP3     H226211   2.613   5.590   1.480  0.6270 -0.7315  0.3914
 4798TP3      O26212   3.765   3.392   1.891  0.0175  0.5762  0.3192
 4798TP3     H126213   3.783   3.459   1.825  1.4976 -2.6465 -2.7269
 4798TP3     H226214   3.670   3.384   1.893 -0.0229 -0.1004 -2.3716
 4799TP3      O26215   2.445   2.818   2.799 -0.3891 -0.0301 -0.3267
 4799TP3     H126216   2.490   2.890   2.843 -0.3859  0.0067 -0.3890
 4799TP3     H226217   2.505   2.744   2.805 -1.3266 -0.6483  1.6914
 4800TP3      O26218   1.501   1.660   2.140  0.2028  0.8163 -0.2051
 4800TP3     H126219   1.409   1.636   2.146  0.0861  1.5439  0.9008
 4800TP3     H226220   1.535   1.647   2.228  1.8160 -2.0928 -1.1956
 4801TP3      O26221   4.691   1.239   2.326 -0.1124 -0.3954  0.3990
 4801TP3     H126222   4.676   1.165   2.385 -0.9571  0.5529  1.4050
 4801TP3     H226223   4.606   1.283   2.321 -0.0566 -0.4566 -1.5438
 4802TP3      O26224   3.653   2.082   2.588 -0.1293  0.0890  0.4771
 4802TP3     H126225   3.605   2.118   2.513  0.3972  0.6342  0.4053
 4802TP3     H226226   3.616   2.126   2.664  0.0353  0.2726  0.4501
 4803TP3      O26227   3.559   1.342   2.225 -0.5136  0.7580  0.1778
 4803TP3     H126228   3.547   1.299   2.310 -1.1409  0.5614 -0.0098
 4803TP3     H226229   3.581   1.432   2.247 -2.2186  1.0960  0.5302
 4804TP3      O26230   2.242   1.214   2.476 -0.1812 -0.0842  0.2741
 4804TP3     H126231   2.172   1.279   2.463  0.2304  0.1864 -0.5688
 4804TP3     H226232   2.206   1.133   2.440  0.5374  0.4126 -1.5719
 4805TP3      O26233   2.655   3.006   1.082  0.3587  0.1767 -0.7397
 4805TP3     H126234   2.692   2.960   1.007  0.0058 -1.5258  0.1067
 4805TP3     H226235   2.568   3.034   1.053  0.9141  1.0655 -1.5432
 4806TP3      O26236   3.963   2.204   1.961 -0.2320  0.4888  0.1375
 4806TP3     H126237   4.014   2.140   2.011 -0.4038 -0.3329 -0.7468
 4806TP3     H226238   4.024   2.238   1.896 -0.2256  1.0325  0.4172
 4807TP3      O26239   3.410   1.086   2.815  0.5768  0.3635 -0.0622
 4807TP3     H126240   3.323   1.126   2.812  0.8013  0.8666  0.1201
 4807TP3     H226241   3.404   1.012   2.755 -0.4083 -0.4644  1.0131
 4808TP3      O26242   3.707   0.638   2.696  0.1989  0.3388 -0.1395
 4808TP3     H126243   3.733   0.560   2.744  0.5617  0.3572 -0.3074
 4808TP3     H226244   3.789   0.683   2.676 -0.0491  1.0854  0.4932
 4809TP3      O26245   2.372   3.167   2.680  0.2106 -0.2325  0.2752
 4809TP3     H126246   2.413   3.146   2.764 -0.2728 -2.4388 -0.0308
 4809TP3     H226247   2.281   3.187   2.702  0.8433  2.4828  0.6644
 4810TP3      O26248   2.579   0.732   0.244 -0.4955 -0.1423 -0.2099
 4810TP3     H126249   2.554   0.769   0.159  0.2944 -1.6381 -1.1242
 4810TP3     H226250   2.555   0.640   0.237  2.0468 -0.8783  0.1448
 4811TP3      O26251   2.618   1.556   1.182 -0.2771  0.1608  0.3080
 4811TP3     H126252   2.633   1.467   1.214 -0.5098  0.0317  0.0567
 4811TP3     H226253   2.703   1.583   1.146 -1.0959 -1.2944 -2.8908
 4812TP3      O26254   2.522   3.383   1.563  0.2842  0.1281  0.1554
 4812TP3     H126255   2.478   3.361   1.645  1.9750 -0.3783  0.9535
 4812TP3     H226256   2.458   3.363   1.495 -1.4120  1.2518  1.3684
 4813TP3      O26257   2.080   1.584   2.714  0.1017  0.6346  0.4524
 4813TP3     H126258   2.032   1.542   2.643 -0.6672 -0.7830  1.7994
 4813TP3     H226259   2.045   1.674   2.716 -0.3225  0.4973 -0.5290
 4814TP3      O26260   1.614   0.117   2.634  0.2479 -0.0691 -0.3390
 4814TP3     H126261   1.590   0.043   2.690  0.4002 -0.5866 -0.9525
 4814TP3     H226262   1.536   0.172   2.632  0.0821 -0.2874  0.0006
 4815TP3      O26263   0.729   3.503   2.593 -0.1724  0.0399  0.1055
 4815TP3     H126264   0.722   3.498   2.688 -0.7896 -1.2246 -0.0012
 4815TP3     H226265   0.817   3.472   2.574 -0.5934 -1.1846  0.1531
 4816TP3      O26266   3.443   2.450   2.916  0.0212  0.0645  0.4122
 4816TP3     H126267   3.490   2.444   3.000  1.5081 -0.2226 -0.4263
 4816TP3     H226268   3.448   2.362   2.879 -0.6886  0.1760  0.0500
 4817TP3      O26269   2.708   1.677   2.409 -0.2060 -0.2017  0.1850
 4817TP3     H126270   2.752   1.603   2.367 -1.4753 -1.5514  1.1811
 4817TP3     H226271   2.618   1.674   2.376  0.0305  1.6412 -0.6981
 4818TP3      O26272   1.772   1.451   1.143  0.3506 -0.1189 -0.2857
 4818TP3     H126273   1.793   1.359   1.132 -0.0678 -0.1775 -0.6172
 4818TP3     H226274   1.676   1.455   1.135 -0.1505 -0.2930  4.3742
 4819TP3      O26275   5.020   3.099   2.388 -1.0200 -0.2759  0.6512
 4819TP3     H126276   5.009   3.175   2.445  2.6256  0.7418  0.0736
 4819TP3     H226277   5.066   3.035   2.442  0.1396 -0.2754 -0.3138
 4820TP3      O26278   1.898   3.054   3.638  0.0681 -0.0028  0.6087
 4820TP3     H126279   1.869   3.140   3.669 -1.4243  1.2030 -3.7126
 4820TP3     H226280   1.852   2.992   3.695 -0.2316  2.0214  2.6630
 4821TP3      O26281   2.346   3.296   1.749 -0.2340  0.1812  0.9093
 4821TP3     H126282   2.256   3.263   1.747 -0.3052  0.4244 -0.5178
 4821TP3     H226283   2.373   3.287   1.840 -2.2203  1.4647  1.6611
 4822TP3      O26284   2.505   1.918   1.971 -0.0144  0.0955  0.6915
 4822TP3     H126285   2.412   1.937   1.982 -0.0968  0.1620 -0.1536
 4822TP3     H226286   2.544   1.942   2.056 -0.7730 -0.0175  1.0787
 4823TP3      O26287   2.947   3.314   1.651  0.2516 -0.5974 -0.0221
 4823TP3     H126288   2.922   3.400   1.684  2.2506  1.2697 -3.1620
 4823TP3     H226289   2.866   3.277   1.617 -0.6350 -0.0342  1.4337
 4824TP3      O26290   3.687   1.814   2.590 -0.0721 -0.8763  0.3314
 4824TP3     H126291   3.682   1.909   2.581 -0.3393 -0.9716 -0.5604
 4824TP3     H226292   3.596   1.786   2.599  0.1380 -0.8432  2.8562
 4825TP3      O26293   4.499   2.768   2.497  0.3255  0.4913 -0.1916
 4825TP3     H126294   4.526   2.791   2.409 -0.0774 -0.7938 -0.6672
 4825TP3     H226295   4.549   2.689   2.518 -1.1870 -0.4861 -0.1423
 4826TP3      O26296   3.349   1.960   9.238 -0.0499 -0.2059  0.3025
 4826TP3     H126297   3.404   1.931   9.166  0.2858 -0.0204  0.4819
 4826TP3     H226298   3.351   2.055   9.234  0.4521 -0.1902  0.9176
 4827TP3      O26299   1.618   0.489   9.860 -0.3230 -0.6978 -0.0919
 4827TP3     H126300   1.681   0.454   9.797  2.2631  1.9026  0.9506
 4827TP3     H226301   1.544   0.517   9.806  1.5348  0.7940 -1.9525
 4828TP3      O26302   2.965   3.596   1.378 -0.1613  0.2502 -0.1475
 4828TP3     H126303   3.011   3.514   1.356  0.8363  1.1241 -1.4117
 4828TP3     H226304   2.991   3.613   1.469  1.5250  0.3746 -0.6226
 4829TP3      O26305   1.230   2.427   0.758 -0.1050  0.0442 -0.2711
 4829TP3     H126306   1.271   2.361   0.815  0.4854 -0.3762 -1.1569
 4829TP3     H226307   1.253   2.511   0.798 -0.0841 -0.2594  0.3609
 4830TP3      O26308   2.367   2.232   0.891 -0.5877  0.0392 -0.1233
 4830TP3     H126309   2.306   2.168   0.928 -0.4853  0.2683  0.4421
 4830TP3     H226310   2.452   2.189   0.896 -0.8161 -0.6738 -1.8053
 4831TP3      O26311   3.460   2.630   2.645 -0.1620 -0.0746 -0.3738
 4831TP3     H126312   3.430   2.636   2.736  0.3795 -2.5222 -0.0071
 4831TP3     H226313   3.511   2.710   2.632 -0.6795  0.5517  1.3215
 4832TP3      O26314   3.440   3.329   2.610  0.0987  0.0020  0.1812
 4832TP3     H126315   3.493   3.250   2.601 -0.6331 -0.4451 -0.2591
 4832TP3     H226316   3.504   3.400   2.609  0.6035 -0.4536 -1.5586
 4833TP3      O26317   3.741   1.521   3.171 -0.5695  0.1280 -0.1111
 4833TP3     H126318   3.715   1.450   3.230  3.0514 -0.9762  0.2720
 4833TP3     H226319   3.687   1.509   3.093 -2.4143 -0.9597  1.3069
 4834TP3      O26320   0.832   4.133   2.348  0.0106 -0.5393 -0.0769
 4834TP3     H126321   0.766   4.152   2.282 -0.2715 -1.1235  0.0291
 4834TP3     H226322   0.874   4.217   2.365  0.0306 -0.3719 -0.9374
 4835TP3      O26323   1.272   2.072   2.606  0.2128 -0.1451 -0.2732
 4835TP3     H126324   1.342   2.137   2.606  0.0621  0.0254  1.6766
 4835TP3     H226325   1.193   2.123   2.586  0.1417  0.2333  0.9416
 4836TP3      O26326   2.885   4.348   0.852 -0.3615 -0.2021 -0.1470
 4836TP3     H126327   2.900   4.394   0.935  1.4568 -0.8835 -0.0670
 4836TP3     H226328   2.795   4.371   0.827 -0.0508  2.0294  0.7160
 4837TP3      O26329   2.378   3.757   2.978  0.0625 -0.2050  0.7319
 4837TP3     H126330   2.321   3.792   2.909  0.6101 -0.1230  0.3211
 4837TP3     H226331   2.319   3.708   3.035 -0.6071  0.8190  0.9313
 4838TP3      O26332   2.466   3.849   1.976  0.1052 -0.6241 -0.1502
 4838TP3     H126333   2.406   3.921   1.998 -1.2803 -1.6119 -0.6598
 4838TP3     H226334   2.541   3.862   2.034 -1.7632 -0.9149  2.4190
 4839TP3      O26335   3.611   0.009   0.345  0.3191 -0.5149  0.5180
 4839TP3     H126336   3.520  -0.010   0.366  0.3096  0.0176  0.9954
 4839TP3     H226337   3.658  -0.073   0.361 -0.1685 -0.9602 -0.3240
 4840TP3      O26338   2.188   1.098  10.058  0.2919  0.8433  0.0710
 4840TP3     H126339   2.176   1.163  10.127 -0.0715  2.0734 -1.1019
 4840TP3     H226340   2.119   1.119   9.994 -1.9919 -2.7961  1.2077
 4841TP3      O26341   5.522   4.240   0.667 -0.7061  0.1428 -0.8028
 4841TP3     H126342   5.456   4.295   0.708  1.3252  1.8948  0.1860
 4841TP3     H226343   5.554   4.184   0.738  0.4218  0.8461 -0.7417
 4842TP3      O26344   2.355   2.217   2.873  0.5968  0.4632  0.4543
 4842TP3     H126345   2.403   2.297   2.897 -1.2024  1.8128 -0.3082
 4842TP3     H226346   2.270   2.249   2.842  0.0278 -1.7342 -0.3184
 4843TP3      O26347   3.614   2.676   1.773 -0.6842 -0.3054  0.2406
 4843TP3     H126348   3.581   2.592   1.805  2.2891 -0.5659  2.8794
 4843TP3     H226349   3.641   2.723   1.851  0.8091  1.7488 -1.4347
 4844TP3      O26350   2.265   4.030   2.037  0.0577  0.4173 -0.1961
 4844TP3     H126351   2.192   4.039   1.975 -1.9455  1.8453  2.2660
 4844TP3     H226352   2.239   4.083   2.113  2.2342 -1.5443  2.0276
 4845TP3      O26353   3.155   4.918   1.806  0.1444 -0.1407  0.7590
 4845TP3     H126354   3.225   4.984   1.803  1.0560 -1.1588 -1.0082
 4845TP3     H226355   3.191   4.847   1.859  0.2966 -0.4867  0.1944
 4846TP3      O26356   4.274   2.007   2.321  0.1213 -0.0454  0.3137
 4846TP3     H126357   4.337   2.052   2.376  0.1134  0.0717  0.2278
 4846TP3     H226358   4.327   1.952   2.263  0.1056 -0.5075  0.7393
 4847TP3      O26359   3.395   1.975   1.250  0.0665 -0.6761  0.1289
 4847TP3     H126360   3.329   1.960   1.182 -0.5831  1.0725  0.3530
 4847TP3     H226361   3.387   1.898   1.307 -0.6637 -1.2560 -0.7263
 4848TP3      O26362   3.039   2.895   0.733 -0.0094 -0.2345  0.7715
 4848TP3     H126363   3.083   2.978   0.716  0.9855 -0.9144 -0.0024
 4848TP3     H226364   3.009   2.865   0.647 -0.5991 -0.5487  1.0808
 4849TP3      O26365   4.258   3.181   1.185  0.1736  0.2369  0.3790
 4849TP3     H126366   4.228   3.238   1.114  1.2572  0.1117 -0.1986
 4849TP3     H226367   4.352   3.171   1.169  0.2606 -0.5180  1.3229
 4850TP3      O26368   3.945   1.174   2.834 -0.1535 -0.3962 -0.0316
 4850TP3     H126369   3.945   1.223   2.752  0.2741 -1.6743 -0.8203
 4850TP3     H226370   3.853   1.163   2.856 -0.3749 -2.2398 -1.7210
 4851TP3      O26371   2.117   2.100   2.358  0.4974 -0.2366 -0.4150
 4851TP3     H126372   2.056   2.165   2.325  1.9059  1.2002 -0.2647
 4851TP3     H226373   2.122   2.117   2.452  2.6581  1.0410 -0.7160
 4852TP3      O26374   3.885   2.501   2.099  0.1967 -0.6800 -0.1358
 4852TP3     H126375   3.965   2.522   2.050  1.2916 -0.9119  1.5057
 4852TP3     H226376   3.902   2.414   2.135 -0.6970 -0.6115  0.4531
 4853TP3      O26377   3.902   0.641   1.334 -0.4937 -0.2744  0.9832
 4853TP3     H126378   3.887   0.723   1.287  1.2786 -0.4388  0.0957
 4853TP3     H226379   3.882   0.661   1.425  1.1010  1.5075  0.9672
 4854TP3      O26380   4.002   0.001  10.010  0.0713  0.1604  0.2735
 4854TP3     H126381   3.993  -0.060  10.083  1.2014 -1.1090 -0.6405
 4854TP3     H226382   4.094   0.025  10.010  0.3429 -0.8044 -1.4772
 4855TP3      O26383   3.340   2.052   2.547  0.0638  0.4104  0.2353
 4855TP3     H126384   3.331   1.962   2.580  3.1586 -0.1144 -0.1731
 4855TP3     H226385   3.371   2.102   2.622 -0.2471  0.8223  0.0869
 4856TP3      O26386   4.577   0.952   1.207 -0.2910 -0.2946 -0.4149
 4856TP3     H126387   4.579   1.040   1.169 -1.7004 -0.8790 -1.8994
 4856TP3     H226388   4.606   0.895   1.135  2.4643 -0.8910  1.0956
 4857TP3      O26389   2.386   4.784   1.047 -0.4504  0.2234 -0.1669
 4857TP3     H126390   2.437   4.826   0.978 -0.6305  1.2597  0.3213
 4857TP3     H226391   2.399   4.839   1.124  0.1482 -1.1994  0.7776
 4858TP3      O26392   0.628   3.142   1.431  0.2143  0.1432 -0.0776
 4858TP3     H126393   0.670   3.057   1.440 -3.2783 -1.6434 -0.0179
 4858TP3     H226394   0.662   3.193   1.504  0.4881 -1.9994  1.3275
 4859TP3      O26395   3.198   1.723   2.890 -0.0304 -0.2407 -0.4129
 4859TP3     H126396   3.128   1.665   2.919 -0.2086  0.5119  0.6909
 4859TP3     H226397   3.155   1.788   2.834  0.1870 -1.2170 -1.7405
 4860TP3      O26398   1.660   1.998   3.159 -0.3928  0.0174 -0.5616
 4860TP3     H126399   1.603   2.031   3.229 -0.8678 -0.6576 -0.6299
 4860TP3     H226400   1.679   1.908   3.184 -0.1908 -0.0807 -1.0665
 4861TP3      O26401   1.577   3.425   0.858  0.1119  0.0559  0.4855
 4861TP3     H126402   1.564   3.520   0.864  0.3152 -0.0107  2.2765
 4861TP3     H226403   1.602   3.399   0.946 -0.8882 -1.8048  0.2485
 4862TP3      O26404   2.268   3.517   2.639  0.6587  0.1526 -0.5153
 4862TP3     H126405   2.244   3.609   2.653  1.6997  0.5363 -1.1545
 4862TP3     H226406   2.292   3.485   2.726 -2.0050 -0.2128  0.1171
 4863TP3      O26407   2.674   3.015   2.893  0.0943 -0.4699  0.1575
 4863TP3     H126408   2.588   3.049   2.919  0.4579 -0.0827  0.8755
 4863TP3     H226409   2.731   3.092   2.896  0.2818 -0.5606 -1.1458
 4864TP3      O26410   3.417   2.882   2.252  0.1856  0.2724 -0.1626
 4864TP3     H126411   3.378   2.820   2.190  4.3687 -1.1807 -1.4855
 4864TP3     H226412   3.432   2.961   2.200 -1.8171  1.1838  0.6003
 4865TP3      O26413   3.019   3.235   3.045  0.5327  0.3352  0.1317
 4865TP3     H126414   2.992   3.292   2.973 -0.2735  1.6275  1.4139
 4865TP3     H226415   3.101   3.273   3.076  0.3263  0.4201  0.5760
 4866TP3      O26416   2.696   0.913   0.437  0.3759  0.1374  0.4750
 4866TP3     H126417   2.625   0.876   0.384  1.1529  0.2914 -0.7016
 4866TP3     H226418   2.705   1.003   0.405  0.9525  0.1879  0.7643
 4867TP3      O26419   1.317   2.971   2.236 -0.4653  0.4514 -0.4437
 4867TP3     H126420   1.306   2.877   2.247 -0.9676  0.5169 -0.3588
 4867TP3     H226421   1.285   2.988   2.147  0.4559  0.4113 -0.7853
 4868TP3      O26422   4.537   2.180   1.632  0.4245 -0.5401  0.0025
 4868TP3     H126423   4.621   2.207   1.595  0.6739 -0.8148  0.3620
 4868TP3     H226424   4.551   2.089   1.659  0.8647  0.2473  2.5945
 4869TP3      O26425   2.094   3.599   1.051  0.6007 -0.4235  0.6889
 4869TP3     H126426   2.082   3.645   0.968  0.5235  0.3808  1.1325
 4869TP3     H226427   2.122   3.511   1.027  1.0358 -0.0492 -0.1778
 4870TP3      O26428   4.320   3.734   1.025 -0.0960  0.0059  0.2974
 4870TP3     H126429   4.368   3.742   0.943 -0.8957 -1.1957 -0.2985
 4870TP3     H226430   4.368   3.668   1.075 -0.8889 -0.9183 -0.1439
 4871TP3      O26431   2.058   2.680   3.303  0.0345  0.1374 -0.0672
 4871TP3     H126432   2.059   2.771   3.335  0.3500 -0.1904  0.8931
 4871TP3     H226433   1.965   2.661   3.289 -0.1332  0.2379  0.8533
 4872TP3      O26434   1.160   3.320   1.887 -0.0185  0.3070  0.1676
 4872TP3     H126435   1.085   3.331   1.945 -0.0922  2.5459 -0.2990
 4872TP3     H226436   1.211   3.401   1.898  1.5016 -0.5011 -0.6897
 4873TP3      O26437   1.341   1.843   1.119 -0.2401 -0.3159 -0.2497
 4873TP3     H126438   1.323   1.768   1.176 -0.0398 -0.1354  0.0553
 4873TP3     H226439   1.403   1.896   1.169 -1.4856  0.7916  0.1544
 4874TP3      O26440   3.029   1.342   2.712  0.3322 -0.5678  0.1230
 4874TP3     H126441   2.980   1.311   2.636  1.2548 -0.8362 -0.3691
 4874TP3     H226442   2.976   1.414   2.747 -2.3906 -3.2846  1.9055
 4875TP3      O26443   2.323   1.624   1.893  0.1001  0.0662  0.4415
 4875TP3     H126444   2.260   1.572   1.843 -0.4648  0.9120  0.2591
 4875TP3     H226445   2.375   1.670   1.826  1.1301 -0.8774  0.5839
 4876TP3      O26446   3.752   1.775   3.256 -0.1496 -0.1356  0.1134
 4876TP3     H126447   3.758   1.685   3.226 -2.8224 -0.8310  1.4760
 4876TP3     H226448   3.747   1.827   3.176  0.2270 -1.2944 -0.6663
 4877TP3      O26449   3.515   3.861   0.731  0.3182 -0.0085  0.0422
 4877TP3     H126450   3.594   3.877   0.680  1.1299  1.1538  1.6215
 4877TP3     H226451   3.543   3.803   0.802 -0.3878 -0.1100  0.2448
 4878TP3      O26452   3.348   1.569   0.722  0.6186 -0.0577 -0.5742
 4878TP3     H126453   3.346   1.661   0.699  0.1773  0.0679 -0.0586
 4878TP3     H226454   3.255   1.545   0.729  0.7329 -0.5109 -0.6049
 4879TP3      O26455   1.553   2.347   1.774 -0.2317  0.7066  0.2532
 4879TP3     H126456   1.585   2.284   1.839 -0.4782  1.4314  1.0833
 4879TP3     H226457   1.534   2.426   1.824 -0.0096  1.4232 -0.7737
 4880TP3      O26458   2.665   2.302   2.364  0.1016 -0.2112 -0.5843
 4880TP3     H126459   2.570   2.305   2.350  0.0611 -1.0258 -0.4677
 4880TP3     H226460   2.693   2.393   2.351 -0.8137  0.2078  0.2193
 4881TP3      O26461   0.187   0.465   0.863 -0.0975 -0.1499 -0.5626
 4881TP3     H126462   0.277   0.491   0.847 -0.2313  1.3414  1.0518
 4881TP3     H226463   0.163   0.415   0.785  1.4467  1.1913 -1.9375
 4882TP3      O26464   1.657   4.236  10.314  0.4176 -0.1080  0.1491
 4882TP3     H126465   1.680   4.189  10.394 -2.2324 -2.0554 -0.1434
 4882TP3     H226466   1.655   4.168  10.246  2.2787  1.4558 -1.5219
 4883TP3      O26467   2.402   3.212   2.384 -0.2518 -0.0474  0.0952
 4883TP3     H126468   2.357   3.161   2.451  0.2602 -2.2776 -1.2117
 4883TP3     H226469   2.464   3.266   2.433  0.0081 -1.5357  1.4601
 4884TP3      O26470   3.256   2.391   1.788  0.2647 -0.0586 -0.1822
 4884TP3     H126471   3.308   2.311   1.797 -0.4938 -0.3262  2.1257
 4884TP3     H226472   3.310   2.458   1.830  0.9544  0.7229 -2.2179
 4885TP3      O26473   2.139   3.374   0.419 -0.2685  0.0961  0.0230
 4885TP3     H126474   2.156   3.382   0.513 -1.0703  0.9735  0.1119
 4885TP3     H226475   2.069   3.309   0.413  0.5788 -0.8029 -0.0532
 4886TP3      O26476   3.817   2.744   2.488 -0.4172 -0.2121  0.3155
 4886TP3     H126477   3.787   2.657   2.462  0.1809 -0.1087 -0.7657
 4886TP3     H226478   3.878   2.770   2.419 -0.8229  1.1956  0.4688
 4887TP3      O26479   1.250   3.154   1.091  0.0015 -0.1068  0.6944
 4887TP3     H126480   1.340   3.120   1.088  0.3813  0.9325  0.0728
 4887TP3     H226481   1.235   3.189   1.003 -0.8386  0.1735  0.9441
 4888TP3      O26482   2.478   4.394   2.256  0.5127 -0.0386 -0.4857
 4888TP3     H126483   2.424   4.400   2.335  0.6390 -1.7290 -0.2669
 4888TP3     H226484   2.434   4.452   2.193 -0.2723  0.3600  0.4212
 4889TP3      O26485   2.467   2.050   2.582  0.1384  0.2013  0.1989
 4889TP3     H126486   2.538   1.989   2.604 -0.2506 -0.2245  0.2886
 4889TP3     H226487   2.420   2.007   2.511  1.2083  1.4391 -1.2856
 4890TP3      O26488   2.604   1.551   2.829 -0.5882 -0.0908  0.0736
 4890TP3     H126489   2.569   1.522   2.913 -1.6630  1.9391  0.3442
 4890TP3     H226490   2.607   1.646   2.835  0.1831  0.0351 -1.8497
 4891TP3      O26491   3.954   3.126   0.942  0.2681  0.1195 -0.0541
 4891TP3     H126492   3.974   3.213   0.978  0.3730  0.2365 -0.3978
 4891TP3     H226493   4.038   3.096   0.906  1.4434 -2.0758  4.1725
 4892TP3      O26494   4.041   4.087   0.220 -0.3039 -0.0750 -0.8387
 4892TP3     H126495   3.970   4.124   0.272 -0.6717 -0.0645 -1.3516
 4892TP3     H226496   4.038   4.135   0.137  1.9337  1.7868  0.0707
 4893TP3      O26497   2.627   1.493   0.726 -0.2076  0.4167  0.0967
 4893TP3     H126498   2.616   1.521   0.635 -0.1434  1.3142  0.3576
 4893TP3     H226499   2.544   1.449   0.748 -0.7618  1.4094  0.0293
 4894TP3      O26500   3.921   2.128   8.552 -0.2493 -0.4905 -0.0117
 4894TP3     H126501   4.001   2.161   8.512 -0.4162 -0.1158 -0.0447
 4894TP3     H226502   3.851   2.163   8.497 -0.4228 -1.0415 -0.1407
 4895TP3      O26503   3.066   2.272   2.245 -0.5604  0.2385  0.0408
 4895TP3     H126504   3.020   2.284   2.328  0.3982  0.4326  0.5509
 4895TP3     H226505   3.107   2.357   2.228 -0.7905  0.2117 -0.6524
 4896TP3      O26506   2.783   1.747   3.112  0.5281  0.1391  0.0701
 4896TP3     H126507   2.862   1.710   3.152  1.0719  1.1109 -0.0650
 4896TP3     H226508   2.785   1.839   3.137 -1.1611 -0.0539  0.9677
 4897TP3      O26509   4.359   1.415   1.094  0.2540 -0.0212 -0.2655
 4897TP3     H126510   4.294   1.351   1.066 -0.1486 -0.3830  1.4605
 4897TP3     H226511   4.310   1.497   1.103  0.5205  0.2587 -1.2384
 4898TP3      O26512   3.763   2.962   1.547  0.1715 -0.1190  0.0586
 4898TP3     H126513   3.793   2.882   1.590 -0.5682  0.7605  2.3046
 4898TP3     H226514   3.803   3.033   1.598 -1.8767  0.9749  0.2393
 4899TP3      O26515   3.054   2.129   1.147 -0.1544  0.4680  0.1227
 4899TP3     H126516   3.117   2.057   1.146  0.4893  1.0012 -2.3796
 4899TP3     H226517   3.082   2.185   1.219  1.8522  0.3564 -0.5439
 4900TP3      O26518   3.734   0.696   2.287 -0.2388 -0.0100 -0.3547
 4900TP3     H126519   3.758   0.762   2.222  0.9385 -0.2867 -0.2083
 4900TP3     H226520   3.743   0.613   2.241  0.0493 -0.1739  0.0037
 4901TP3      O26521   5.257   1.702   3.011  1.1587  0.3218 -0.6247
 4901TP3     H126522   5.265   1.750   2.929  2.4022 -0.0764 -0.7412
 4901TP3     H226523   5.291   1.615   2.992  0.9928  0.0727  0.1798
 4902TP3      O26524   2.678   2.329   1.656 -0.7253  0.0220 -0.8224
 4902TP3     H126525   2.716   2.245   1.630 -1.3166 -0.6949  0.5788
 4902TP3     H226526   2.702   2.338   1.748 -1.3911  0.9901 -0.7432
 4903TP3      O26527   2.720   0.428   1.985  0.0590  0.2484  0.1258
 4903TP3     H126528   2.717   0.461   2.075  0.6748  0.9458 -0.1098
 4903TP3     H226529   2.813   0.427   1.963  0.1885 -2.6904  0.5119
 4904TP3      O26530   3.354   0.962   1.396  0.8659  0.2240 -0.1927
 4904TP3     H126531   3.436   0.913   1.396  0.0010 -1.2608 -0.8683
 4904TP3     H226532   3.293   0.906   1.349 -0.3903  1.5760 -0.2129
 4905TP3      O26533   3.725   0.902   9.896 -0.2641 -0.1933  0.1227
 4905TP3     H126534   3.809   0.858   9.883 -0.3845 -0.4968  0.3699
 4905TP3     H226535   3.660   0.839   9.865 -0.3781  0.1948 -0.4302
 4906TP3      O26536   3.031   2.810   1.384 -0.1839  0.1358  0.2640
 4906TP3     H126537   2.949   2.853   1.359 -1.0406 -1.4681  0.1997
 4906TP3     H226538   3.015   2.717   1.366  1.0370 -0.4181  1.9188
 4907TP3      O26539   3.891   3.145   1.737 -0.1314  0.9286 -0.3407
 4907TP3     H126540   3.944   3.087   1.791  2.7032  1.9378 -1.9504
 4907TP3     H226541   3.873   3.221   1.792 -1.7506 -0.3627  0.9323
 4908TP3      O26542   1.770   0.751   0.104  0.4022  0.4756  0.3949
 4908TP3     H126543   1.851   0.795   0.079  1.7403 -0.8135  2.2976
 4908TP3     H226544   1.771   0.753   0.200  0.9214 -4.2663  0.6200
 4909TP3      O26545   1.444   3.797   2.331 -0.0362 -0.0875 -0.4241
 4909TP3     H126546   1.481   3.712   2.357 -0.5952 -0.6109 -1.3029
 4909TP3     H226547   1.372   3.811   2.393 -1.5279 -1.4531 -1.8208
 4910TP3      O26548   3.521   4.163   2.770  0.3397 -0.3532 -0.1608
 4910TP3     H126549   3.573   4.243   2.763  1.4313 -0.9022  1.4172
 4910TP3     H226550   3.452   4.185   2.832 -0.0819 -0.2729 -0.6539
 4911TP3      O26551   1.681   2.062   0.969 -0.4883  0.1855  0.3068
 4911TP3     H126552   1.644   1.998   1.030 -1.3311 -0.6492 -1.0392
 4911TP3     H226553   1.652   2.147   1.003 -0.2089 -0.2080  1.5460
 4912TP3      O26554   2.099   4.094   2.313  0.0446 -0.1731 -0.0255
 4912TP3     H126555   2.098   4.180   2.271  0.3327  0.1917  0.7121
 4912TP3     H226556   2.013   4.057   2.293 -0.1856  0.3960 -0.1076
 4913TP3      O26557   3.393   4.794   2.618 -0.0623 -0.0071 -0.3070
 4913TP3     H126558   3.367   4.847   2.543 -1.1337 -0.7235 -0.4554
 4913TP3     H226559   3.344   4.831   2.692  2.0905  1.6251  0.3465
 4914TP3      O26560   1.126   4.447   1.442 -0.1821 -0.3369 -0.1937
 4914TP3     H126561   1.203   4.491   1.409 -1.0649  1.4622  0.0984
 4914TP3     H226562   1.136   4.356   1.413  1.7463 -0.0084 -0.6218
 4915TP3      O26563   2.895   4.216   2.248 -0.0283 -0.4014 -0.1008
 4915TP3     H126564   2.855   4.302   2.234  0.0905 -0.4300 -0.6287
 4915TP3     H226565   2.927   4.219   2.338 -2.7484 -0.9943  0.9487
 4916TP3      O26566   2.500   1.435   3.229  1.0316  0.2509 -0.6114
 4916TP3     H126567   2.523   1.527   3.218 -0.6615  0.8827  0.9146
 4916TP3     H226568   2.444   1.415   3.153  0.8861  0.6585 -0.6134
 4917TP3      O26569   1.029   3.206   1.654  0.1288  0.2082 -0.1669
 4917TP3     H126570   1.061   3.178   1.569  0.8405  0.0912  0.1352
 4917TP3     H226571   1.098   3.263   1.689 -2.0825  3.9035 -1.5490
 4918TP3      O26572   2.735   4.580   2.663 -0.0663  0.4271 -0.2977
 4918TP3     H126573   2.784   4.513   2.615 -1.4855  0.8688 -2.4381
 4918TP3     H226574   2.763   4.663   2.623 -0.2622  0.9066  0.5644
 4919TP3      O26575   3.261   2.601   0.283  0.2721  0.0028  0.0752
 4919TP3     H126576   3.295   2.641   0.202  2.0646 -0.3178  0.6333
 4919TP3     H226577   3.339   2.590   0.338 -0.7988 -0.6130  1.4919
 4920TP3      O26578   4.795   1.719   2.157  0.0645 -0.2284 -0.3348
 4920TP3     H126579   4.890   1.718   2.172  0.0295 -0.8189 -0.1752
 4920TP3     H226580   4.785   1.775   2.080  0.3287  1.9408  1.1521
 4921TP3      O26581   3.135   3.512   2.446 -0.1440 -0.5475  0.5191
 4921TP3     H126582   3.146   3.476   2.358 -0.9492 -0.6007  0.4318
 4921TP3     H226583   3.195   3.586   2.450 -0.5028 -0.2167 -0.2630
 4922TP3      O26584   1.829   4.671   0.874  0.5400 -0.1203  0.0734
 4922TP3     H126585   1.787   4.756   0.887  1.5960  0.5810 -0.9908
 4922TP3     H226586   1.858   4.645   0.962 -0.9413 -0.0124  0.6140
 4923TP3      O26587   3.145   4.601   1.260  0.2655  0.4221  0.0510
 4923TP3     H126588   3.220   4.645   1.301 -0.1475  1.2298 -0.0400
 4923TP3     H226589   3.076   4.606   1.326  0.2379 -0.1796  0.0721
 4924TP3      O26590   3.328   4.533   2.841 -0.5795 -0.1234  0.4904
 4924TP3     H126591   3.283   4.492   2.915 -1.3398 -0.5777 -0.2200
 4924TP3     H226592   3.258   4.571   2.788 -0.1178 -0.7237 -0.5638
 4925TP3      O26593   2.409   1.745   2.621 -0.0327  1.0425 -0.2308
 4925TP3     H126594   2.395   1.679   2.552 -0.4124  1.1989 -0.3079
 4925TP3     H226595   2.481   1.710   2.673 -0.9134  0.0678  0.3460
 4926TP3      O26596   4.329   5.466   2.296 -0.3785  0.3545 -0.3381
 4926TP3     H126597   4.349   5.423   2.213 -0.2964  0.2282 -0.2526
 4926TP3     H226598   4.304   5.395   2.355  0.9843  0.2805  0.1718
 4927TP3      O26599   4.724   4.983   1.301 -0.2496 -0.2547  0.2461
 4927TP3     H126600   4.727   4.935   1.218  0.8951 -0.6317  0.4944
 4927TP3     H226601   4.763   4.922   1.364  0.0058  0.5023  0.8186
 4928TP3      O26602   3.428   1.671   1.938  0.6833  0.4976 -0.4163
 4928TP3     H126603   3.418   1.578   1.960  0.3359 -0.0559 -2.7545
 4928TP3     H226604   3.343   1.709   1.959  0.2313 -0.0928 -1.1264
 4929TP3      O26605   3.595   1.901   1.905  0.2132  0.0685  0.0632
 4929TP3     H126606   3.574   1.917   1.813 -0.1170  1.1207  0.3071
 4929TP3     H226607   3.552   1.819   1.926 -0.4874  0.2941 -0.4748
 4930TP3      O26608   3.279   4.906   2.859  0.0296  0.3077 -0.0207
 4930TP3     H126609   3.304   4.821   2.895  0.3895  0.1335 -0.6792
 4930TP3     H226610   3.279   4.965   2.934  0.3823 -0.1409  0.3330
 4931TP3      O26611   2.217   1.609   0.881  0.1785 -0.0530 -0.2044
 4931TP3     H126612   2.123   1.595   0.893 -0.2538  2.2113 -0.7337
 4931TP3     H226613   2.229   1.611   0.786  0.3082  2.2931 -0.1729
 4932TP3      O26614   1.993   1.044   1.255  0.4322  0.3367 -0.2704
 4932TP3     H126615   1.933   0.980   1.295 -0.3017  0.1048 -1.7093
 4932TP3     H226616   2.059   0.990   1.211 -0.3526  0.5527 -1.7369
 4933TP3      O26617   2.499   4.726   1.473  0.9155 -0.3475  0.3144
 4933TP3     H126618   2.514   4.731   1.379  0.3846  0.3391  0.2684
 4933TP3     H226619   2.543   4.804   1.509 -0.4853  0.4042  0.4318
 4934TP3      O26620   1.674   2.720   1.713 -0.0115 -0.3011 -0.2499
 4934TP3     H126621   1.626   2.679   1.786 -1.0575  1.7241  0.2357
 4934TP3     H226622   1.627   2.802   1.697  0.8099 -0.2459 -2.5589
 4935TP3      O26623   2.469   3.872   0.996  0.1740  0.4073  0.2273
 4935TP3     H126624   2.479   3.782   0.967  0.9098  0.0948  1.3987
 4935TP3     H226625   2.516   3.924   0.931 -0.5484 -0.0181 -0.6429
 4936TP3      O26626   3.697   2.324   9.940  0.2318  0.3161 -0.0231
 4936TP3     H126627   3.643   2.350   9.865 -0.4878  1.8607  1.0001
 4936TP3     H226628   3.658   2.241   9.970  1.2353 -0.9030 -2.0330
 4937TP3      O26629   3.289   5.458   1.065  0.7382 -0.4609 -0.0813
 4937TP3     H126630   3.234   5.484   1.139  0.6484  0.7717 -0.5693
 4937TP3     H226631   3.370   5.509   1.077  0.7596 -0.3267 -0.7659
 4938TP3      O26632   1.231   1.336   2.957 -0.1956  0.0279 -0.1814
 4938TP3     H126633   1.231   1.240   2.954 -1.2110  0.0154  0.0211
 4938TP3     H226634   1.296   1.358   3.023 -0.5118 -0.5437  0.3212
 4939TP3      O26635   2.753   2.584   2.310  0.0120 -0.6266 -0.2336
 4939TP3     H126636   2.709   2.656   2.264  0.2146 -1.9520 -2.5627
 4939TP3     H226637   2.806   2.628   2.377 -2.2129  1.1920  0.3948
 4940TP3      O26638   1.591   4.090   7.979  0.5636  0.4411  0.0825
 4940TP3     H126639   1.662   4.062   8.037 -0.2409 -0.4978  0.6172
 4940TP3     H226640   1.546   4.159   8.026  1.6078  1.6006 -0.5949
 4941TP3      O26641   4.193   1.804   2.684  0.1200  0.3059  0.2476
 4941TP3     H126642   4.106   1.815   2.645 -0.2944 -0.6745  0.8549
 4941TP3     H226643   4.232   1.731   2.636  1.2041  1.6943 -1.0124
 4942TP3      O26644   3.191   3.420   2.694  0.0477 -0.2890  0.2021
 4942TP3     H126645   3.280   3.391   2.673  1.0119  2.1252  0.7211
 4942TP3     H226646   3.155   3.450   2.611 -0.1968 -1.0374  0.0360
 4943TP3      O26647   0.572   1.948   2.912 -0.7505  0.8525 -0.4705
 4943TP3     H126648   0.480   1.975   2.905 -0.8320  0.2079 -2.1834
 4943TP3     H226649   0.599   1.935   2.821  0.9316  0.6692  0.0544
 4944TP3      O26650   0.794   2.345  10.299 -0.1497  0.0716 -0.2675
 4944TP3     H126651   0.846   2.335  10.219 -0.2871  0.1780 -0.3710
 4944TP3     H226652   0.803   2.437  10.322 -0.7069  0.2090 -0.5778
 4945TP3      O26653   1.819   2.277   0.557 -0.3582 -1.0150  0.5960
 4945TP3     H126654   1.768   2.197   0.542  1.8673 -2.1841 -1.0185
 4945TP3     H226655   1.841   2.308   0.469  0.1212  0.5350  1.2406
 4946TP3      O26656   1.683   2.989   0.355  0.2904 -0.2529  0.3506
 4946TP3     H126657   1.722   2.955   0.275 -0.8647 -0.1733 -0.2506
 4946TP3     H226658   1.751   3.045   0.393  0.6591  0.1220 -0.8366
 4947TP3      O26659   4.377   2.423   0.776 -0.2660  0.1718  0.1598
 4947TP3     H126660   4.437   2.446   0.705  0.1977 -1.0497  0.1399
 4947TP3     H226661   4.417   2.462   0.854  0.1078  0.1021  0.0066
 4948TP3      O26662   3.577   5.496   1.736 -0.2574  0.4460 -0.1962
 4948TP3     H126663   3.587   5.571   1.679  0.6278 -0.7641 -1.6734
 4948TP3     H226664   3.636   5.430   1.700 -2.1973 -1.5168  0.1092
 4949TP3      O26665   4.662   4.265   1.635  0.1622  0.3901 -0.0125
 4949TP3     H126666   4.711   4.272   1.717 -0.2637 -0.2414  0.3004
 4949TP3     H226667   4.729   4.267   1.566  0.8093 -2.2788  0.4729
 4950TP3      O26668   4.341   3.704   3.211 -0.2062 -0.5468  0.2432
 4950TP3     H126669   4.374   3.689   3.123 -0.4755  0.9192 -0.1174
 4950TP3     H226670   4.331   3.799   3.218 -4.1673 -0.8854  0.3942
 4951TP3      O26671   3.625   4.010   0.324  0.4906 -0.5364  0.1832
 4951TP3     H126672   3.579   4.056   0.254  0.1508 -0.7580  0.2630
 4951TP3     H226673   3.562   3.945   0.356  0.8457 -0.8216  0.3068
 4952TP3      O26674   5.272   0.908   0.971 -0.4263 -0.2680 -0.4047
 4952TP3     H126675   5.228   0.868   0.895 -1.6964 -0.4083  0.3809
 4952TP3     H226676   5.252   1.001   0.964  0.8427 -0.0387 -1.1314
 4953TP3      O26677   0.516   2.215   2.612 -0.7500 -0.0588  0.4642
 4953TP3     H126678   0.589   2.191   2.668 -0.2080  0.0892 -0.1702
 4953TP3     H226679   0.502   2.138   2.556 -0.8797  0.0260  0.3780
 4954TP3      O26680   0.497   2.317   0.028  0.3167  0.4543 -0.2869
 4954TP3     H126681   0.588   2.323  -0.000  0.0950 -0.4088 -1.1974
 4954TP3     H226682   0.486   2.227   0.059  0.2496  1.0682  1.5252
 4955TP3      O26683   4.733   3.329   0.783 -0.3183  0.2338  0.4506
 4955TP3     H126684   4.769   3.249   0.820 -0.5806 -0.0769  0.0391
 4955TP3     H226685   4.809   3.388   0.775 -0.1056 -0.0147  0.6369
 4956TP3      O26686   5.176   0.231   8.510 -0.1485  0.0887 -0.1372
 4956TP3     H126687   5.128   0.151   8.488 -1.3085  0.1942  1.8639
 4956TP3     H226688   5.206   0.216   8.600 -0.0226  1.7466  0.1038
 4957TP3      O26689   4.382   2.972   2.118  0.3445 -0.2843 -0.0076
 4957TP3     H126690   4.456   2.911   2.119 -1.3664 -2.4400 -0.1306
 4957TP3     H226691   4.321   2.935   2.054 -1.1146  1.1092  0.5354
 4958TP3      O26692   4.790   2.268   2.185 -0.5047 -0.5153 -0.2111
 4958TP3     H126693   4.772   2.212   2.109 -0.9546 -0.2312 -0.3182
 4958TP3     H226694   4.840   2.342   2.148 -0.8357 -0.3127 -0.2518
 4959TP3      O26695   0.082   1.690   0.827  0.3227 -0.1636  0.7173
 4959TP3     H126696   0.167   1.647   0.829  1.3461  1.8172  1.0377
 4959TP3     H226697   0.072   1.719   0.736  0.6883  0.9332  1.0189
 4960TP3      O26698   3.553   2.089   0.933  0.2749  0.0524 -0.0384
 4960TP3     H126699   3.464   2.111   0.959  0.0988 -0.7799  0.0728
 4960TP3     H226700   3.594   2.173   0.913 -0.5631  0.4216 -0.1880
 4961TP3      O26701   3.667   0.215   1.911  0.2304 -0.1000 -0.6947
 4961TP3     H126702   3.630   0.128   1.892 -1.6994  0.4272  0.4893
 4961TP3     H226703   3.598   0.276   1.886  0.9791  1.0094 -0.0699
 4962TP3      O26704   3.456   2.666   1.563 -0.2135 -0.2763 -0.3975
 4962TP3     H126705   3.422   2.754   1.576 -1.8623 -0.9819  0.1050
 4962TP3     H226706   3.516   2.652   1.636 -1.7776 -0.4595  0.8740
 4963TP3      O26707   1.162   0.368   0.983  0.1028 -0.0803 -1.0666
 4963TP3     H126708   1.199   0.297   1.035  1.7380  0.3168 -1.6272
 4963TP3     H226709   1.068   0.361   0.995  0.3433 -1.3214  0.1999
 4964TP3      O26710   0.776   0.794   2.182  0.2516 -0.5445  0.4254
 4964TP3     H126711   0.719   0.853   2.231 -0.1246 -1.3812  1.0155
 4964TP3     H226712   0.752   0.707   2.213  1.4437 -0.9456  0.2536
 4965TP3      O26713   0.656   4.525   0.921 -0.1095  0.3700  0.6198
 4965TP3     H126714   0.697   4.557   1.001  1.2197 -0.1262  0.1476
 4965TP3     H226715   0.620   4.439   0.946  0.7362 -0.0035  0.5538
 4966TP3      O26716   0.899   4.341   2.086  0.3779  0.1629 -0.1869
 4966TP3     H126717   0.917   4.370   2.176 -0.6604 -0.1518  0.1274
 4966TP3     H226718   0.825   4.281   2.094  0.9773 -0.7208 -1.1292
 4967TP3      O26719   5.152   1.643   0.258 -0.2614  0.0064 -0.4781
 4967TP3     H126720   5.137   1.707   0.328 -0.6602 -2.5127  1.7893
 4967TP3     H226721   5.231   1.596   0.284  0.8857  0.5304 -2.8848
 4968TP3      O26722   4.897   1.864   0.801 -0.2896 -0.0096 -0.0837
 4968TP3     H126723   4.859   1.940   0.846 -1.3435 -0.4546 -0.2326
 4968TP3     H226724   4.849   1.789   0.836  0.0119 -0.5097 -0.7479
 4969TP3      O26725   5.220   3.389   2.967 -0.1581 -0.0277  0.1017
 4969TP3     H126726   5.225   3.440   3.047  0.6836  1.8752 -1.1287
 4969TP3     H226727   5.296   3.417   2.915 -1.6100  0.0825 -2.0718
 4970TP3      O26728   1.048   3.333   0.449 -0.4959  0.2308 -0.1983
 4970TP3     H126729   1.123   3.283   0.417 -0.5788 -0.9871  1.3892
 4970TP3     H226730   1.034   3.299   0.538 -1.6626  1.8707  0.2613
 4971TP3      O26731   0.551   1.702   1.807  0.3603  0.1524  0.2552
 4971TP3     H126732   0.598   1.709   1.890  0.2873  0.2089  0.2910
 4971TP3     H226733   0.583   1.776   1.755 -0.0559  0.4766  0.4594
 4972TP3      O26734   0.636   3.206   1.880  0.5969 -0.2641 -0.6668
 4972TP3     H126735   0.662   3.202   1.788  1.9786 -0.4733 -0.2814
 4972TP3     H226736   0.704   3.260   1.922 -0.4188  0.4470  0.0974
 4973TP3      O26737   3.704   4.739   1.485  0.0810 -0.0165 -0.3165
 4973TP3     H126738   3.714   4.645   1.471  0.0910 -0.4540  2.3857
 4973TP3     H226739   3.623   4.748   1.535 -0.1318  1.4596 -0.8887
 4974TP3      O26740   4.957   3.425   0.339 -0.5980 -1.1792 -0.2662
 4974TP3     H126741   4.905   3.383   0.408 -0.9669  0.1805  0.3162
 4974TP3     H226742   5.015   3.357   0.307 -0.9992 -2.0543  0.8380
 4975TP3      O26743   1.658   3.519   7.457 -0.3397  0.2154 -0.0923
 4975TP3     H126744   1.611   3.515   7.374  0.1281  1.4005 -0.4203
 4975TP3     H226745   1.589   3.526   7.523 -0.7261 -1.0674 -0.3437
 4976TP3      O26746   0.325   3.306   2.235 -0.2563 -0.2960 -0.4819
 4976TP3     H126747   0.242   3.260   2.252 -0.6309  1.0273  1.4197
 4976TP3     H226748   0.316   3.339   2.145 -2.1064  0.4343 -0.0517
 4977TP3      O26749   0.406   2.821   1.462 -0.3190 -0.4178 -0.1119
 4977TP3     H126750   0.401   2.882   1.388 -0.6262 -0.3986 -0.0781
 4977TP3     H226751   0.493   2.834   1.498 -0.7891  0.8282  0.6037
 4978TP3      O26752   3.516   0.913   1.644  0.4228 -0.3524  0.0541
 4978TP3     H126753   3.446   0.953   1.592 -2.3732 -0.2030  3.6912
 4978TP3     H226754   3.526   0.826   1.606 -2.1486 -0.5605 -0.2938
 4979TP3      O26755   4.731   2.301   1.471  0.4184  0.4391 -0.1591
 4979TP3     H126756   4.812   2.325   1.425  0.3544  1.0426  0.0340
 4979TP3     H226757   4.721   2.370   1.537 -0.1329  0.2377 -0.0379
 4980TP3      O26758   5.051   3.789   0.711  0.1155  0.3349 -0.2091
 4980TP3     H126759   4.988   3.821   0.646 -0.4844  0.7363  0.5594
 4980TP3     H226760   5.006   3.717   0.755 -0.1969  1.2713  1.0249
 4981TP3      O26761   4.600   3.019   0.614 -0.0288  0.2615 -0.2444
 4981TP3     H126762   4.568   2.965   0.686  0.8913 -0.0214 -0.0348
 4981TP3     H226763   4.526   3.075   0.590  0.0163  1.1664  1.6764
 4982TP3      O26764   1.906   5.450   1.736  0.1606  0.2135  0.2082
 4982TP3     H126765   1.989   5.407   1.718  1.0430  0.7962  2.6089
 4982TP3     H226766   1.917   5.539   1.702  1.0610  0.7087  1.7361
 4983TP3      O26767   4.916   0.613   9.337 -0.0190 -0.8407 -0.4176
 4983TP3     H126768   4.926   0.615   9.432 -0.1394  0.0960 -0.4227
 4983TP3     H226769   4.862   0.536   9.320  0.3047 -1.2178  0.2383
 4984TP3      O26770   3.472   3.703   0.983 -0.0885 -0.2114  0.2219
 4984TP3     H126771   3.387   3.748   0.977  0.4083  0.6669 -0.3560
 4984TP3     H226772   3.449   3.613   1.008 -1.1699  0.0984  0.3929
 4985TP3      O26773   3.519   0.305   2.407 -0.5093  0.0477 -0.4972
 4985TP3     H126774   3.423   0.302   2.404 -0.5334 -0.4775  0.5907
 4985TP3     H226775   3.539   0.381   2.462 -0.3410 -0.9962  0.9208
 4986TP3      O26776   3.047   4.380   0.480 -0.3186  0.0984  0.4833
 4986TP3     H126777   3.089   4.408   0.561 -1.9612 -0.8696  1.7269
 4986TP3     H226778   3.076   4.289   0.468  0.3469  0.4088 -0.3232
 4987TP3      O26779   3.453   2.941   1.599  0.0634  0.0331 -0.3588
 4987TP3     H126780   3.540   2.915   1.568  1.3672  0.3920  2.8202
 4987TP3     H226781   3.455   3.036   1.598 -0.1498  0.0431  0.0739
 4988TP3      O26782   0.831   4.772   9.368 -0.1312 -0.1183  0.5243
 4988TP3     H126783   0.752   4.804   9.324  0.8734  0.8393 -0.6116
 4988TP3     H226784   0.850   4.689   9.323 -1.2913 -1.0927  1.7731
 4989TP3      O26785   5.311   3.694   0.634  0.0357  0.5098  0.1911
 4989TP3     H126786   5.368   3.734   0.700 -0.3209  0.9474  0.2372
 4989TP3     H226787   5.222   3.710   0.666 -0.1404  0.8161 -0.4391
 4990TP3      O26788   5.152   3.683   1.300  0.2438 -0.8885 -0.4239
 4990TP3     H126789   5.141   3.594   1.334 -0.9258 -0.4937  0.2399
 4990TP3     H226790   5.149   3.673   1.205 -0.2037 -1.5274 -0.3457
 4991TP3      O26791   0.161   3.537   2.871  0.0141 -0.0891 -0.3456
 4991TP3     H126792   0.215   3.464   2.902  0.8203  0.7985  0.3741
 4991TP3     H226793   0.102   3.555   2.944 -0.6427 -0.4543 -0.7811
 4992TP3      O26794   5.503   2.187   3.017  0.0849  0.1417 -0.3674
 4992TP3     H126795   5.436   2.228   3.072 -0.3289 -0.0472 -0.7308
 4992TP3     H226796   5.550   2.261   2.978  0.6786  0.2756  0.6027
 4993TP3      O26797   3.390   4.737   1.330  0.0697 -0.3973 -0.2638
 4993TP3     H126798   3.400   4.832   1.333 -1.4319 -0.1110 -2.8399
 4993TP3     H226799   3.422   4.712   1.244  0.1256 -2.1958  0.2584
 4994TP3      O26800   3.718   0.887   1.388 -0.4941  0.7101  0.1265
 4994TP3     H126801   3.771   0.886   1.468  0.3928 -0.0901 -0.4492
 4994TP3     H226802   3.663   0.809   1.394  1.5966 -0.9419 -1.3273
 4995TP3      O26803   4.518   3.650   2.506  0.7494 -0.5981  0.1165
 4995TP3     H126804   4.452   3.583   2.489 -0.3966  0.6455 -0.4232
 4995TP3     H226805   4.548   3.678   2.419 -2.0614  2.7625  0.1031
 4996TP3      O26806   5.525   0.637   2.663  0.0253 -0.1491  0.3707
 4996TP3     H126807   5.443   0.610   2.622  0.4719  1.6869 -1.8024
 4996TP3     H226808   5.593   0.595   2.611  0.5474  0.8709  0.2255
 4997TP3      O26809   2.651   2.732   1.355  0.2929 -0.2104 -0.2220
 4997TP3     H126810   2.669   2.649   1.398 -0.6805 -0.9548 -1.2406
 4997TP3     H226811   2.717   2.792   1.391  1.2362 -1.5014  0.2339
 4998TP3      O26812   4.856   2.265   9.498  0.0087  0.0491  0.1225
 4998TP3     H126813   4.820   2.269   9.587 -1.8218 -2.5624 -0.4352
 4998TP3     H226814   4.819   2.342   9.455 -1.6194 -0.3469  0.7585
 4999TP3      O26815   4.640   0.469   0.350  0.3134 -0.4453 -0.6391
 4999TP3     H126816   4.548   0.444   0.348  0.2273 -0.3855  1.3407
 4999TP3     H226817   4.644   0.554   0.306 -0.8152  0.2432  0.5763
 5000TP3      O26818   0.628   2.899   1.016  0.0440  0.0177  0.1000
 5000TP3     H126819   0.560   2.844   0.977 -0.2092  0.5846 -0.2581
 5000TP3     H226820   0.690   2.913   0.944 -0.3314  0.9151 -0.0504
 5001TP3      O26821   3.591   1.118   9.748 -0.2411 -0.1537 -0.1998
 5001TP3     H126822   3.595   1.194   9.806 -0.1771 -1.0430  0.9822
 5001TP3     H226823   3.610   1.043   9.805  2.4351 -0.8130 -1.8415
 5002TP3      O26824   3.643   3.128   2.598  0.1287 -0.1000  0.0500
 5002TP3     H126825   3.738   3.111   2.597  0.0039 -0.9119  1.3564
 5002TP3     H226826   3.603   3.043   2.584 -0.4254  0.3907 -1.5275
 5003TP3      O26827   1.553   1.929   2.612 -0.6270  0.9486  0.0234
 5003TP3     H126828   1.493   1.969   2.675 -0.1581 -0.0165  1.0999
 5003TP3     H226829   1.520   1.840   2.600  0.0742  0.6927 -0.0498
 5004TP3      O26830   4.872   1.928   2.380 -0.3719  0.1589  0.0734
 5004TP3     H126831   4.796   1.912   2.324 -0.2560 -0.5976  0.1302
 5004TP3     H226832   4.911   2.008   2.345 -1.4553  0.8111  0.3295
 5005TP3      O26833   3.473   3.165   0.690 -0.0590  0.1573  0.0399
 5005TP3     H126834   3.437   3.253   0.681 -0.2912  0.1429  0.8263
 5005TP3     H226835   3.537   3.158   0.618 -1.2424  0.3508 -1.0489
 5006TP3      O26836   3.310   4.257   2.583 -0.1762  0.3596 -0.2497
 5006TP3     H126837   3.361   4.184   2.617 -1.5862 -0.4814  0.0939
 5006TP3     H226838   3.372   4.330   2.581  2.0112 -1.4939 -3.2773
 5007TP3      O26839   4.154   2.143   1.584  0.6099 -0.0034 -0.0118
 5007TP3     H126840   4.224   2.124   1.521  0.1697  2.9744 -1.4897
 5007TP3     H226841   4.099   2.209   1.540 -1.8529 -0.6123  2.0107
 5008TP3      O26842   4.425   2.290   1.873  0.0555  0.1528 -0.4482
 5008TP3     H126843   4.352   2.315   1.817  0.5320  1.8210 -0.3460
 5008TP3     H226844   4.469   2.219   1.826 -0.7969  0.0969 -1.1669
 5009TP3      O26845   3.331   0.464   0.315 -0.1250 -0.0754 -0.1082
 5009TP3     H126846   3.273   0.436   0.244  0.3652 -0.6122 -0.2985
 5009TP3     H226847   3.290   0.430   0.394  1.3056 -2.7878 -0.4683
 5010TP3      O26848   1.775   5.329   0.337 -0.8451  0.0801  0.6945
 5010TP3     H126849   1.753   5.251   0.387  0.7703 -1.7818 -1.3989
 5010TP3     H226850   1.694   5.352   0.291 -1.1297 -0.7705  0.7771
 5011TP3      O26851   3.607   2.244   1.613 -0.1221  0.8675 -0.2418
 5011TP3     H126852   3.610   2.220   1.706  0.2738  0.6670 -0.3045
 5011TP3     H226853   3.652   2.329   1.609 -0.2427  0.9317 -0.2334
 5012TP3      O26854   4.480   2.541   1.989  0.2698 -0.2888  0.0964
 5012TP3     H126855   4.495   2.464   1.933  1.2079 -0.7863  1.0013
 5012TP3     H226856   4.537   2.608   1.953  0.3740 -0.4016  0.0501
 5013TP3      O26857   2.533   0.840   0.001 -0.0096 -0.0937 -0.4654
 5013TP3     H126858   2.471   0.816  -0.068 -0.0416  0.4848 -0.6449
 5013TP3     H226859   2.552   0.932  -0.016 -0.2113  0.1203  0.4446
 5014TP3      O26860   4.917   4.417   2.872  0.4072 -0.2144  0.2290
 5014TP3     H126861   4.842   4.360   2.890  0.9358 -0.8360  0.4680
 5014TP3     H226862   4.974   4.364   2.817 -0.5329  1.1698 -2.1312
 5015TP3      O26863   3.581   2.426   1.873 -0.2283 -0.2228  0.0156
 5015TP3     H126864   3.525   2.425   1.951 -1.0949  0.0862 -0.5955
 5015TP3     H226865   3.625   2.341   1.874 -1.7519 -1.0472 -0.2329
 5016TP3      O26866   5.127   1.839   0.448 -0.2227  0.1236 -0.3296
 5016TP3     H126867   5.139   1.934   0.441 -0.6038  0.3194  1.3530
 5016TP3     H226868   5.163   1.817   0.534 -2.1068 -0.9133  0.2285
 5017TP3      O26869   3.887   2.210   2.275  0.3050  0.1090 -0.0902
 5017TP3     H126870   3.892   2.155   2.197  0.7473 -1.7439  1.2163
 5017TP3     H226871   3.873   2.149   2.347  0.2363  1.7607  1.3393
 5018TP3      O26872   2.944   3.364   2.794 -0.1048 -0.2805  0.2198
 5018TP3     H126873   3.021   3.406   2.755 -0.2475  0.3145  0.5670
 5018TP3     H226874   2.886   3.346   2.720 -1.1641  2.4892  0.3164
 5019TP3      O26875   4.360   3.190   0.623  0.5561  0.1593  0.0068
 5019TP3     H126876   4.414   3.265   0.650  0.4459 -0.5144  2.2007
 5019TP3     H226877   4.312   3.222   0.547  1.0548  2.0860  0.4595
 5020TP3      O26878   0.106   2.388   2.905 -0.2907 -0.4322  0.0459
 5020TP3     H126879   0.173   2.383   2.836  0.9833 -0.9059  1.2978
 5020TP3     H226880   0.135   2.461   2.960 -0.0102 -1.5586  1.4143
 5021TP3      O26881   0.161   1.352   1.109 -0.1495 -0.3604 -0.1294
 5021TP3     H126882   0.185   1.300   1.032  0.5350 -0.9445  0.4771
 5021TP3     H226883   0.199   1.305   1.183  0.6754  1.1313  0.4087
 5022TP3      O26884   5.429   3.238   2.861 -0.3646 -0.1801 -0.2712
 5022TP3     H126885   5.390   3.157   2.829 -0.4309 -0.0102 -0.6229
 5022TP3     H226886   5.512   3.211   2.901 -1.1220 -0.6207  1.0280
 5023TP3      O26887   1.092   1.814   1.724 -0.0348 -0.2580  0.7052
 5023TP3     H126888   1.159   1.749   1.746  0.3855 -0.6196 -1.4369
 5023TP3     H226889   1.052   1.779   1.644  1.6952  3.1510 -1.7634
 5024TP3      O26890   0.780   3.974   2.563  0.0230  0.1668  0.8577
 5024TP3     H126891   0.688   3.950   2.574 -0.3618  2.3629  2.8884
 5024TP3     H226892   0.784   4.016   2.477 -1.0426  0.7060  1.0571
 5025TP3      O26893   4.076   1.612   0.507  0.3374 -0.2655  0.1164
 5025TP3     H126894   4.111   1.621   0.419 -1.0536  2.6398 -0.1951
 5025TP3     H226895   4.120   1.681   0.557 -0.9572 -0.0562  0.9930
 5026TP3      O26896   2.405   4.086   2.630  0.4113 -0.2033 -0.3802
 5026TP3     H126897   2.476   4.080   2.693  0.5082  1.1969 -0.3323
 5026TP3     H226898   2.326   4.098   2.683  0.4119  0.3368 -0.4983
 5027TP3      O26899   5.075   2.483   3.092  0.3787 -0.0638  0.0965
 5027TP3     H126900   5.033   2.453   3.012  0.8493  1.7868 -0.8855
 5027TP3     H226901   5.006   2.478   3.158 -1.1192  1.8472 -1.2406
 5028TP3      O26902   4.516   1.967   2.758 -0.5689 -0.0804 -0.9967
 5028TP3     H126903   4.425   1.950   2.782  0.3076 -2.2239  0.9017
 5028TP3     H226904   4.553   1.880   2.742  1.9971  0.5333  1.3987
 5029TP3      O26905   4.919   1.476   0.315  0.6284 -0.2946 -0.1031
 5029TP3     H126906   5.000   1.526   0.304  0.3993  0.2399  0.6258
 5029TP3     H226907   4.914   1.461   0.410 -0.5702  0.3904 -0.0633
 5030TP3      O26908   5.288   3.029   2.729  0.0868 -0.1178 -0.8360
 5030TP3     H126909   5.236   3.092   2.677 -2.2899 -1.2333  0.1444
 5030TP3     H226910   5.272   2.945   2.686 -1.4167 -0.9530  1.3062
 5031TP3      O26911   0.638   2.684   0.530 -0.0707  0.0898  0.3138
 5031TP3     H126912   0.645   2.624   0.605  3.2190 -0.4624 -0.3761
 5031TP3     H226913   0.634   2.771   0.570  0.9967 -0.2417  1.1862
 5032TP3      O26914   2.349   0.928   1.584 -0.5420  0.3669 -0.2321
 5032TP3     H126915   2.279   0.965   1.637 -1.4014  0.2061 -1.2246
 5032TP3     H226916   2.313   0.845   1.551  0.1794  0.1975 -0.6106
 5033TP3      O26917   2.679   4.674   1.114  0.2584 -0.1873 -0.1542
 5033TP3     H126918   2.592   4.691   1.078 -0.7369 -2.7643  0.9289
 5033TP3     H226919   2.688   4.737   1.185 -1.4572 -1.0112  0.8345
 5034TP3      O26920   0.052   2.591   1.967  0.3084  0.1113  0.1050
 5034TP3     H126921   0.019   2.662   1.911  0.6178  0.2655  0.1150
 5034TP3     H226922   0.142   2.617   1.986 -0.6487  1.4783  2.9901
 5035TP3      O26923   0.153   1.358   1.562  0.4728  0.1138 -0.2958
 5035TP3     H126924   0.169   1.347   1.656  0.3421 -0.5615 -0.3506
 5035TP3     H226925   0.225   1.312   1.520 -0.2944 -0.8820 -0.5353
 5036TP3      O26926   1.306   3.477   1.280  0.1562  0.0584  0.1634
 5036TP3     H126927   1.254   3.396   1.284  0.4130 -0.1639 -0.7963
 5036TP3     H226928   1.390   3.449   1.243  0.3758  0.6996  0.1803
 5037TP3      O26929   0.332   1.371   0.096 -0.5112  0.4133 -0.1352
 5037TP3     H126930   0.408   1.325   0.129 -1.6856 -0.9075  0.7873
 5037TP3     H226931   0.346   1.462   0.122  0.6746  0.1562  0.1400
 5038TP3      O26932   3.525   2.753   1.308 -0.3903 -0.1454  0.1807
 5038TP3     H126933   3.450   2.792   1.263 -0.8873  0.1499  1.2614
 5038TP3     H226934   3.491   2.726   1.393  0.7758  0.1729  0.7535
 5039TP3      O26935   3.266   3.542   2.147 -0.0353  0.2379 -0.1537
 5039TP3     H126936   3.189   3.528   2.093  0.1808 -1.3899 -0.0662
 5039TP3     H226937   3.264   3.636   2.169 -4.4112 -0.5548  3.4912
 5040TP3      O26938   0.734   1.159   1.371  0.1722 -0.0270 -0.1834
 5040TP3     H126939   0.667   1.179   1.436  0.2769 -0.4599  0.0544
 5040TP3     H226940   0.686   1.124   1.297  0.0631  0.3682 -0.3025
 5041TP3      O26941   5.058   1.799   2.193 -0.4872  0.7232  0.1954
 5041TP3     H126942   5.027   1.868   2.252  1.5543 -0.4559  2.7342
 5041TP3     H226943   5.130   1.839   2.145 -0.0728  0.7326  0.8183
 5042TP3      O26944   0.416   3.039   0.732  0.4420 -0.7962 -0.0075
 5042TP3     H126945   0.424   2.958   0.782  0.2698 -0.0375  1.2630
 5042TP3     H226946   0.492   3.039   0.673  1.9044 -0.6044  1.8420
 5043TP3      O26947   4.012   2.298   1.440  0.3169  0.0561  0.2066
 5043TP3     H126948   4.026   2.341   1.355  2.5194 -1.2867 -0.1387
 5043TP3     H226949   3.918   2.307   1.455 -0.0347  0.7810 -2.1224
 5044TP3      O26950   4.908   2.183   0.878  0.0606 -0.5614 -0.0749
 5044TP3     H126951   4.901   2.157   0.786  4.1834 -0.6664 -0.4166
 5044TP3     H226952   4.961   2.263   0.877 -1.7087  0.6999  2.0691
 5045TP3      O26953   2.813   3.414   2.527 -0.3675 -0.0598  0.0614
 5045TP3     H126954   2.840   3.504   2.508 -0.6045  0.4575  2.1186
 5045TP3     H226955   2.719   3.420   2.542 -0.7520 -1.0067 -1.8612
 5046TP3      O26956   5.164   2.387   2.708 -0.4190 -0.0175 -0.2876
 5046TP3     H126957   5.178   2.292   2.708  0.5540  0.0468  2.7372
 5046TP3     H226958   5.252   2.424   2.717 -0.8323  1.1645 -1.0082
 5047TP3      O26959   4.999   2.360   1.450 -0.3369  0.4176 -0.0774
 5047TP3     H126960   5.044   2.294   1.397 -0.9446 -0.4331  0.4501
 5047TP3     H226961   5.048   2.363   1.531 -0.0890  0.8854 -0.2446
 5048TP3      O26962   1.753   3.484  10.195 -0.0988  0.5983 -0.1598
 5048TP3     H126963   1.680   3.544  10.210  0.0967  1.2579 -1.7709
 5048TP3     H226964   1.778   3.454  10.282 -1.3366  1.5011  0.5168
 5049TP3      O26965   4.271   3.319   2.788  0.1063  0.0332  0.0912
 5049TP3     H126966   4.189   3.270   2.779 -0.2199  0.8166 -1.2873
 5049TP3     H226967   4.250   3.406   2.754  1.9225 -0.2030 -1.6756
 5050TP3      O26968   1.650   2.285   1.205 -0.1203  0.1836 -0.7299
 5050TP3     H126969   1.701   2.280   1.286  0.9581 -0.6551 -1.4451
 5050TP3     H226970   1.560   2.271   1.233  0.2258  0.0563  0.3503
 5051TP3      O26971   0.147   3.125   0.557  0.0958  0.6924  0.2335
 5051TP3     H126972   0.140   3.184   0.632 -0.5114  0.2516  0.5242
 5051TP3     H226973   0.213   3.061   0.583  0.6564  1.1464 -0.0295
 5052TP3      O26974   0.443   1.571   8.806 -0.2384  0.0114  0.2028
 5052TP3     H126975   0.474   1.494   8.852  0.4749 -0.0018 -0.2986
 5052TP3     H226976   0.434   1.543   8.715 -0.1630  0.4674  0.0557
 5053TP3      O26977   1.191   3.235   1.344  0.6265 -0.2336 -0.0244
 5053TP3     H126978   1.201   3.211   1.251  1.0806 -0.5841  0.1147
 5053TP3     H226979   1.099   3.216   1.364  0.9656 -1.7948  0.0676
 5054TP3      O26980   4.980   3.277   2.895 -0.0376  0.6129  0.0347
 5054TP3     H126981   5.070   3.299   2.921  0.2289 -0.7906  0.3234
 5054TP3     H226982   4.932   3.275   2.978 -0.4570  1.8142 -0.1596
 5055TP3      O26983   4.514   3.640   1.529  0.1039 -0.7742 -0.0019
 5055TP3     H126984   4.458   3.712   1.500  0.0801 -0.9711 -0.4467
 5055TP3     H226985   4.460   3.591   1.591 -0.3477 -1.1706 -0.7025
 5056TP3      O26986   0.865   1.599   1.370 -0.6222  0.2097 -0.1238
 5056TP3     H126987   0.915   1.536   1.421 -1.1146  0.1392  0.2782
 5056TP3     H226988   0.919   1.679   1.371  1.2679 -0.9415 -2.8548
 5057TP3      O26989   5.435   3.521   1.876 -0.8113  0.0415  0.3895
 5057TP3     H126990   5.364   3.573   1.838 -0.8346 -0.2332  0.0519
 5057TP3     H226991   5.419   3.432   1.844 -0.4927 -0.0804  0.5668
 5058TP3      O26992   1.966   2.409   0.754 -0.0689  0.3145 -0.0682
 5058TP3     H126993   1.930   2.350   0.688 -1.3098  0.9945 -0.0189
 5058TP3     H226994   1.911   2.487   0.749  1.5404  1.4620 -0.1180
 5059TP3      O26995   4.769   0.180   0.557  0.0171  0.0471 -0.1858
 5059TP3     H126996   4.796   0.254   0.503 -0.9501 -0.6766 -1.7133
 5059TP3     H226997   4.813   0.193   0.640 -0.1651  2.3594 -0.4216
 5060TP3      O26998   2.911   4.935   1.360 -0.3891 -0.5373  0.4846
 5060TP3     H126999   2.891   4.996   1.431  0.2153  0.8804 -0.5490
 5060TP3     H227000   2.994   4.896   1.384 -0.8008 -0.9965  1.1747
 5061TP3      O27001   3.781   3.116   3.367 -0.0670 -0.3479 -0.2036
 5061TP3     H127002   3.875   3.108   3.380 -0.0242 -0.2058 -0.4293
 5061TP3     H227003   3.750   3.025   3.361 -0.0113 -0.4042  0.3281
 5062TP3      O27004   0.284   2.573   1.425  0.1272  0.0633  0.1429
 5062TP3     H127005   0.332   2.655   1.436  1.0580 -0.2966 -1.1725
 5062TP3     H227006   0.213   2.578   1.489  1.9360  0.5734  2.1366
 5063TP3      O27007   1.021   3.869   2.538 -0.7447 -0.4794  0.0274
 5063TP3     H127008   1.007   3.837   2.449  2.7156  0.1707 -0.8512
 5063TP3     H227009   0.934   3.892   2.570 -2.0486 -0.7248 -3.1880
 5064TP3      O27010   5.471   3.354   2.277 -0.0805 -0.8619 -0.3917
 5064TP3     H127011   5.479   3.449   2.276 -0.5527 -0.8099 -2.8519
 5064TP3     H227012   5.383   3.337   2.311 -0.5649 -0.3385 -1.3582
 5065TP3      O27013   4.104   4.517   2.926 -0.4625 -0.2016  0.3164
 5065TP3     H127014   4.037   4.514   2.857 -0.3696 -0.8178  0.2519
 5065TP3     H227015   4.060   4.480   3.003 -0.0969 -0.9202  0.1859
 5066TP3      O27016   4.962   4.056  10.307 -0.2890 -0.2023  0.3395
 5066TP3     H127017   4.996   4.103  10.383  0.4539 -2.6616  1.5569
 5066TP3     H227018   4.968   3.964  10.330  0.3281 -1.0324 -2.8778
 5067TP3      O27019   4.959   3.693   1.954  0.2878 -0.6598  0.3326
 5067TP3     H127020   4.953   3.780   1.914 -3.0151 -0.5531  0.9303
 5067TP3     H227021   4.958   3.632   1.881 -0.5997 -0.2892  0.0311
 5068TP3      O27022   4.965   2.730   1.641 -0.2830  0.2961  0.1683
 5068TP3     H127023   4.926   2.815   1.623  3.4049  2.8466  3.3540
 5068TP3     H227024   5.045   2.728   1.588 -0.1681 -1.0299  0.3635
 5069TP3      O27025   0.585   1.242   1.579 -0.3074 -0.0216  0.1228
 5069TP3     H127026   0.620   1.179   1.643 -1.6205  0.0646  0.9451
 5069TP3     H227027   0.580   1.324   1.626  0.9944  0.6209 -0.8306
 5070TP3      O27028   3.825   2.577   2.762  0.1992 -0.7122  0.4041
 5070TP3     H127029   3.810   2.607   2.672 -1.7515  0.6969  1.1711
 5070TP3     H227030   3.908   2.530   2.758  0.6602  0.2519 -1.9236
 5071TP3      O27031   4.977   2.724   1.924 -0.0796 -0.2990 -0.1507
 5071TP3     H127032   5.068   2.710   1.949  0.0456 -0.5098 -0.7003
 5071TP3     H227033   4.980   2.739   1.829 -0.5571  0.2615 -0.0863
 5072TP3      O27034   4.276   4.644   1.247  0.2068 -0.5160 -0.5965
 5072TP3     H127035   4.304   4.666   1.336 -0.7460 -0.7814 -0.2210
 5072TP3     H227036   4.248   4.727   1.210  0.2784 -0.4596 -0.5247
 5073TP3      O27037   4.533   5.182   0.591  0.2784  0.1491  0.1927
 5073TP3     H127038   4.566   5.271   0.596 -0.4822  0.3931  0.9931
 5073TP3     H227039   4.449   5.190   0.545  0.6123 -0.2693 -0.5023
 5074TP3      O27040   4.841   2.664   2.910 -0.6127 -0.1482  0.6224
 5074TP3     H127041   4.807   2.696   2.827 -2.1880  0.3903  1.4494
 5074TP3     H227042   4.864   2.573   2.894  0.6448  0.4152 -0.8346
 5075TP3      O27043   1.065   1.806   1.376  0.6622 -0.3064  0.6621
 5075TP3     H127044   1.077   1.899   1.394  0.7276 -0.3885  1.0485
 5075TP3     H227045   1.147   1.765   1.403  0.8330 -0.4096 -0.0016
 5076TP3      O27046   0.144   1.691   1.299  0.2012 -0.2399  0.2109
 5076TP3     H127047   0.222   1.636   1.303 -0.3332 -0.9415  1.1109
 5076TP3     H227048   0.076   1.640   1.344 -0.8571  0.2250 -0.8379
 5077TP3      O27049   0.792   3.895   0.028  0.9091  0.4538  0.5549
 5077TP3     H127050   0.802   3.800   0.023 -0.0880  0.4185 -1.4793
 5077TP3     H227051   0.699   3.910   0.008  1.0214  1.8365  1.0415
 5078TP3      O27052   5.111   4.152   0.911  0.4692 -0.4861 -0.7104
 5078TP3     H127053   5.021   4.117   0.908  0.5149 -0.4875 -2.0521
 5078TP3     H227054   5.120   4.184   1.001 -0.8247 -0.6227 -0.5127
 5079TP3      O27055   4.441   0.073   1.323 -0.0652 -0.0935  0.0969
 5079TP3     H127056   4.379   0.041   1.257 -1.0970  0.5395  0.7603
 5079TP3     H227057   4.479   0.152   1.284  0.3961 -0.5274 -0.3440
 5080TP3      O27058   4.916   2.408   2.855  0.0181  0.0130 -0.8745
 5080TP3     H127059   4.841   2.358   2.824 -1.7270  1.4394  0.9561
 5080TP3     H227060   4.982   2.396   2.787 -1.3822 -2.3644 -1.8585
 5081TP3      O27061   1.257   0.176   2.437 -0.4827  0.0946 -0.4630
 5081TP3     H127062   1.169   0.211   2.449  0.5700  2.8877 -0.5285
 5081TP3     H227063   1.303   0.244   2.387  1.2806 -1.9752 -1.7074
 5082TP3      O27064   4.764   1.854   2.948  0.1840  0.5260  0.9685
 5082TP3     H127065   4.765   1.762   2.923 -0.3537  0.8921 -0.4019
 5082TP3     H227066   4.680   1.866   2.991 -0.0348  0.5524  0.5274
 5083TP3      O27067   5.296   1.583   2.543 -0.9485  1.1613  0.3652
 5083TP3     H127068   5.334   1.508   2.589 -0.7124  0.0368 -1.6001
 5083TP3     H227069   5.217   1.548   2.502 -0.9319  2.0438 -0.4207
 5084TP3      O27070   4.497   2.402   2.932  0.3753 -0.7329 -0.3576
 5084TP3     H127071   4.579   2.361   2.958  0.8070 -0.9062 -1.9668
 5084TP3     H227072   4.443   2.401   3.012  2.1157 -0.1391  0.8496
 5085TP3      O27073   4.782   2.764   2.658 -0.5034  0.1507 -0.2452
 5085TP3     H127074   4.732   2.822   2.600 -2.5676 -1.5813 -0.2533
 5085TP3     H227075   4.731   2.683   2.660  1.5789 -1.1613  0.9220
 5086TP3      O27076   3.893   1.267   3.355  0.0818  0.4275 -0.4017
 5086TP3     H127077   3.906   1.362   3.353 -2.4197  0.7819 -1.1945
 5086TP3     H227078   3.798   1.255   3.359  0.3745 -2.0452  0.2781
 5087TP3      O27079   3.378   1.777   2.600  0.7331 -0.2557 -0.0527
 5087TP3     H127080   3.342   1.689   2.603 -0.8168  0.3481 -0.8166
 5087TP3     H227081   3.416   1.790   2.687  1.6237 -1.9295 -0.1692
 5088TP3      O27082   4.629   2.008   3.333  0.2442 -0.0021  0.5182
 5088TP3     H127083   4.649   2.077   3.397  0.1660 -0.2270  0.7819
 5088TP3     H227084   4.545   2.035   3.295 -0.0039 -0.1847  0.9362
 5089TP3      O27085   0.450   2.164   1.173  0.2756 -0.1436  0.1136
 5089TP3     H127086   0.523   2.204   1.125  0.8276  0.3188  1.3385
 5089TP3     H227087   0.440   2.218   1.251  0.5376 -1.9655  1.4225
 5090TP3      O27088   4.984   5.072   0.536  0.2293  0.0503  0.0848
 5090TP3     H127089   5.036   5.052   0.458 -0.4127  0.5362 -0.4706
 5090TP3     H227090   4.960   4.985   0.571 -1.3500 -0.1822 -1.5254
 5091TP3      O27091   3.809   0.497   1.819 -0.6502 -0.1102  0.7571
 5091TP3     H127092   3.838   0.497   1.910 -0.5894 -2.4870  0.7552
 5091TP3     H227093   3.841   0.415   1.783 -0.9571  0.6440 -1.3387
 5092TP3      O27094   3.573   2.890   2.467 -0.1203  0.1192 -0.0562
 5092TP3     H127095   3.660   2.855   2.449  0.2103  0.6638  0.4608
 5092TP3     H227096   3.526   2.880   2.384  0.8108  0.9132 -0.6909
 5093TP3      O27097   1.329   2.536   1.184 -0.1650  0.0944 -0.1764
 5093TP3     H127098   1.342   2.630   1.197 -0.4452 -0.0325  1.1281
 5093TP3     H227099   1.387   2.495   1.248  0.5049 -0.6399 -1.2418
 5094TP3      O27100   4.896   1.106   1.829  0.0235 -0.1263  0.1794
 5094TP3     H127101   4.815   1.083   1.875  0.1541  1.4812  1.2746
 5094TP3     H227102   4.936   1.022   1.807 -0.5774 -0.9362  2.0728
 5095TP3      O27103   0.335   2.588   2.155 -0.4242 -0.5035  0.1771
 5095TP3     H127104   0.279   2.517   2.186  1.2878 -1.7974  0.4127
 5095TP3     H227105   0.374   2.554   2.074  0.2272  0.2678  0.1591
 5096TP3      O27106   4.031   3.045   2.169  0.3570  0.2427  0.2854
 5096TP3     H127107   4.049   3.046   2.075 -1.2362 -2.4475 -0.1132
 5096TP3     H227108   3.991   3.131   2.187 -1.8794 -0.2285 -2.0807
 5097TP3      O27109   2.925   0.391  10.263 -0.5078 -0.4362 -0.7079
 5097TP3     H127110   2.888   0.476  10.237 -3.0877 -0.7622  1.6651
 5097TP3     H227111   2.875   0.327  10.214  0.8734 -0.6470 -1.8603
 5098TP3      O27112   1.207   2.410   2.060 -0.1460 -0.3990  0.1027
 5098TP3     H127113   1.172   2.481   2.007  2.3678  1.2862  0.6067
 5098TP3     H227114   1.142   2.340   2.052 -2.0604  1.4741 -1.4254
 5099TP3      O27115   5.419   2.622   3.070 -0.2107  0.2597 -0.1220
 5099TP3     H127116   5.491   2.667   3.114 -0.3819  2.4733 -1.9947
 5099TP3     H227117   5.415   2.663   2.983 -2.5806 -1.0593 -0.6771
 5100TP3      O27118   4.581   2.302   9.639  0.0921 -0.1027  0.1213
 5100TP3     H127119   4.552   2.354   9.714  0.2508  1.4346 -0.8638
 5100TP3     H227120   4.503   2.293   9.584 -0.0342 -1.2571  0.4727
 5101TP3      O27121   0.651   1.323   0.883 -0.0384 -0.5848 -0.1952
 5101TP3     H127122   0.710   1.248   0.885  1.8785  0.9195  1.9928
 5101TP3     H227123   0.605   1.320   0.967  1.2035  1.5191  0.6197
 5102TP3      O27124   5.314   1.957   1.196 -0.1040  0.5472 -0.1943
 5102TP3     H127125   5.275   1.998   1.119 -0.1033 -1.6020 -1.3858
 5102TP3     H227126   5.295   1.864   1.185 -1.5772  0.3879  3.2833
 5103TP3      O27127   0.514   1.626   2.603  0.2613  0.0031 -0.0928
 5103TP3     H127128   0.457   1.616   2.679  0.1518 -0.1788 -0.1996
 5103TP3     H227129   0.562   1.707   2.620  0.0911  0.0698  0.0735
 5104TP3      O27130   5.101   4.871   2.654  0.2481 -0.2683  0.0339
 5104TP3     H127131   5.109   4.936   2.723  0.5985  0.8985 -1.0772
 5104TP3     H227132   5.113   4.921   2.573  1.9395 -1.9521 -0.7754
 5105TP3      O27133   4.202   2.010   2.866 -0.5267  0.3215  0.2971
 5105TP3     H127134   4.123   2.061   2.846 -0.7555 -0.0988  0.1209
 5105TP3     H227135   4.209   1.948   2.793  0.5810  1.0827 -0.2525
 5106TP3      O27136   5.361   1.361   2.660 -0.2618 -0.2837  0.1129
 5106TP3     H127137   5.430   1.317   2.609  1.3034  0.4547  1.5503
 5106TP3     H227138   5.316   1.289   2.706 -0.0335 -0.7175 -0.3360
 5107TP3      O27139   4.300   0.144   1.742 -0.9964 -0.1705 -0.0196
 5107TP3     H127140   4.388   0.180   1.746 -1.4022  0.9038 -0.6228
 5107TP3     H227141   4.272   0.137   1.833 -1.1723  1.7065  0.0950
 5108TP3      O27142   5.125   2.396   2.268 -0.0911  0.3273 -0.7898
 5108TP3     H127143   5.087   2.439   2.345 -1.2528 -2.1153  0.0498
 5108TP3     H227144   5.077   2.433   2.194  0.6523  2.2896 -0.3247
 5109TP3      O27145   3.738   2.271   2.913  0.7090  0.5582 -0.0305
 5109TP3     H127146   3.660   2.228   2.877  0.9986  2.4575 -3.1439
 5109TP3     H227147   3.707   2.358   2.940  1.2798  0.4739  0.9206
 5110TP3      O27148   3.806   1.913   3.003  0.4026  0.6856 -0.2826
 5110TP3     H127149   3.760   1.990   2.971 -1.0682  0.3973  1.1056
 5110TP3     H227150   3.797   1.849   2.932 -0.2378  1.0667 -0.5522
 5111TP3      O27151   2.970   2.271   1.974 -0.4720  0.1888 -0.5000
 5111TP3     H127152   3.058   2.299   1.948 -0.1483 -0.7194 -0.3852
 5111TP3     H227153   2.971   2.274   2.070 -0.1378 -1.1264 -0.4609
 5112TP3      O27154   1.444   4.662   2.058 -0.2068 -0.2063  0.2445
 5112TP3     H127155   1.530   4.621   2.064  0.0737  0.4994  1.1296
 5112TP3     H227156   1.431   4.677   1.964  0.4450 -0.7143  0.0732
 5113TP3      O27157   4.468   3.308   3.226 -0.3998  0.2059 -0.6181
 5113TP3     H127158   4.510   3.251   3.290 -0.2733  0.6640 -0.2866
 5113TP3     H227159   4.422   3.373   3.279  0.2893  1.0117 -0.9868
 5114TP3      O27160   0.258   2.206   1.598 -0.2673  0.0220 -0.3744
 5114TP3     H127161   0.199   2.248   1.662 -0.2430 -0.1241 -0.2557
 5114TP3     H227162   0.231   2.114   1.598 -1.8862  0.4652 -2.3692
 5115TP3      O27163   2.454   4.678   2.585  0.2975 -0.1212  0.0295
 5115TP3     H127164   2.533   4.630   2.610  1.0421  0.5282 -1.0287
 5115TP3     H227165   2.388   4.610   2.570  1.4194 -0.8498 -1.7212
 5116TP3      O27166   0.842   2.446   2.785  0.1200  0.3299  0.2373
 5116TP3     H127167   0.835   2.513   2.853  1.6319  0.3425  0.3941
 5116TP3     H227168   0.927   2.461   2.745 -0.9266  0.5553 -1.9415
 5117TP3      O27169   3.559   2.404   2.541  0.2969  0.1707 -0.3137
 5117TP3     H127170   3.514   2.482   2.574  0.6439  0.0756  0.3907
 5117TP3     H227171   3.584   2.355   2.620 -1.1085 -1.3314 -0.7747
 5118TP3      O27172   0.059   3.104   0.065 -0.4461 -0.3951 -0.0689
 5118TP3     H127173   0.044   3.155   0.145 -3.0676 -0.4270 -0.4998
 5118TP3     H227174   0.079   3.016   0.096  1.6449  0.2681  0.6016
 5119TP3      O27175   4.162   5.405   1.387 -0.2306 -0.0740  0.1841
 5119TP3     H127176   4.160   5.500   1.380 -0.4256  0.0234  1.5636
 5119TP3     H227177   4.102   5.384   1.458 -0.5695 -1.2666 -0.4316
 5120TP3      O27178   1.018   2.953   2.127  0.1687 -0.1354 -0.2450
 5120TP3     H127179   1.086   2.945   2.060  1.1439  1.1814  0.5540
 5120TP3     H227180   1.058   3.007   2.196 -1.4762  0.1600  0.5166
 5121TP3      O27181   2.624   1.555   0.455  0.7131 -0.9971  0.0535
 5121TP3     H127182   2.706   1.589   0.421  1.3061 -0.8142  1.6188
 5121TP3     H227183   2.559   1.621   0.433  1.6990  0.7669  2.2937
 5122TP3      O27184   4.124   4.707   2.596 -0.2791  0.3041  0.5104
 5122TP3     H127185   4.077   4.698   2.679 -2.7203  0.8590 -0.7347
 5122TP3     H227186   4.205   4.658   2.608 -1.4017 -1.1086  2.6051
 5123TP3      O27187   0.329   1.103   2.980  0.0690  0.2650 -0.4181
 5123TP3     H127188   0.245   1.062   3.002  0.1777 -0.8615 -1.9683
 5123TP3     H227189   0.317   1.195   3.002 -1.0833 -0.1301  0.7087
 5124TP3      O27190   4.940   2.563   9.654  0.0911 -0.1798  0.1220
 5124TP3     H127191   4.961   2.525   9.740 -0.2412  0.2133  0.3816
 5124TP3     H227192   4.846   2.552   9.645 -0.3865  2.4298  1.1527
 5125TP3      O27193   5.472   1.527   1.491 -0.1152  0.5435 -0.1542
 5125TP3     H127194   5.553   1.479   1.507 -0.9795 -0.3108  1.7814
 5125TP3     H227195   5.434   1.485   1.414  0.1724 -0.5334  0.2835
 5126TP3      O27196   4.519   1.831   1.859  0.0630  0.3050 -0.0564
 5126TP3     H127197   4.610   1.802   1.856  0.3811  1.3204 -0.4174
 5126TP3     H227198   4.476   1.784   1.788  0.7281  1.2035 -1.0739
 5127TP3      O27199   4.437   3.985   1.660 -0.3592 -0.1473 -0.2296
 5127TP3     H127200   4.461   4.021   1.575 -1.6322  2.4907  0.4649
 5127TP3     H227201   4.341   3.980   1.658 -0.5322  1.5604  1.6213
 5128TP3      O27202   5.196   5.272   2.150  0.2840  0.1349 -0.1962
 5128TP3     H127203   5.155   5.228   2.076  2.4547 -1.4088 -0.5474
 5128TP3     H227204   5.265   5.211   2.178 -0.7250  0.5117  3.3134
 5129TP3      O27205   0.881   1.944   2.743 -0.4423 -0.4830  0.2022
 5129TP3     H127206   0.967   1.963   2.780  0.1995  0.1075 -1.5414
 5129TP3     H227207   0.872   1.849   2.749 -0.0254 -0.4658  1.1460
 5130TP3      O27208   4.821   3.314   1.116  0.1113 -0.0656  1.1307
 5130TP3     H127209   4.776   3.346   1.038  0.9239  0.5799  0.9130
 5130TP3     H227210   4.790   3.371   1.186 -0.6579 -0.6784  1.2876
 5131TP3      O27211   4.043   3.921   0.563  0.5161 -0.2219  0.0531
 5131TP3     H127212   3.978   3.985   0.537  0.0012 -0.2823  1.1671
 5131TP3     H227213   4.110   3.925   0.494 -0.8462 -0.4558 -1.3143
 5132TP3      O27214   4.990   0.653   2.847 -0.1208 -0.1340  0.2894
 5132TP3     H127215   5.014   0.563   2.872  1.0234  0.7676  2.6606
 5132TP3     H227216   5.031   0.707   2.914 -2.1997  2.0693 -0.1652
 5133TP3      O27217   4.171   2.535   1.967  0.4422 -0.2980 -0.2067
 5133TP3     H127218   4.252   2.485   1.960  0.2273 -0.5415 -0.9412
 5133TP3     H227219   4.116   2.504   1.895 -0.9503 -1.2998  1.2324
 5134TP3      O27220   2.516   4.278  10.215 -0.8969 -0.2641 -0.1298
 5134TP3     H127221   2.453   4.221  10.171  0.8505 -0.9450 -1.8041
 5134TP3     H227222   2.499   4.365  10.178 -0.6463 -0.5049 -0.8184
 5135TP3      O27223   0.195   3.305   1.525 -0.2306  0.3325  0.1616
 5135TP3     H127224   0.171   3.304   1.432 -0.6004  0.5975  0.2503
 5135TP3     H227225   0.141   3.236   1.564  0.0570  0.0982  0.1510
 5136TP3      O27226   2.827   2.678   1.583  0.1491 -0.1068 -0.1764
 5136TP3     H127227   2.776   2.605   1.549 -0.0063  0.4646 -1.1655
 5136TP3     H227228   2.913   2.640   1.603  0.1382 -0.5084 -0.8967
 5137TP3      O27229   3.687   1.153   2.888 -0.3068 -0.4966  0.3750
 5137TP3     H127230   3.607   1.128   2.841  0.1348 -0.6174 -0.3169
 5137TP3     H227231   3.661   1.229   2.940 -1.0801 -1.0143  0.7561
 5138TP3      O27232   3.280   2.502   1.442 -0.1256  0.0487  0.2332
 5138TP3     H127233   3.297   2.411   1.467 -0.8935 -0.2661 -0.3533
 5138TP3     H227234   3.340   2.554   1.495  0.1839 -0.7939  0.7066
 5139TP3      O27235   0.869   1.664   2.747  0.1227 -0.7376 -1.1616
 5139TP3     H127236   0.917   1.659   2.829 -1.9383  1.7156  0.2629
 5139TP3     H227237   0.812   1.588   2.747 -0.4695 -0.2935  0.0837
 5140TP3      O27238   1.886   3.200   1.294  0.2785  0.2475  0.3110
 5140TP3     H127239   1.825   3.256   1.342  0.2956  0.4458  0.1023
 5140TP3     H227240   1.854   3.111   1.309 -0.9122  0.4412 -0.9815
 5141TP3      O27241   4.886   4.095   2.141  0.1069  0.2212  0.4819
 5141TP3     H127242   4.933   4.175   2.163 -0.8309  0.7036  0.7758
 5141TP3     H227243   4.810   4.124   2.091 -0.3577 -0.4612  0.7771
 5142TP3      O27244   0.353   5.378   9.576 -0.0727 -0.0091 -0.2688
 5142TP3     H127245   0.367   5.336   9.661 -0.1069 -0.5740 -0.5458
 5142TP3     H227246   0.329   5.468   9.598  1.1473  0.1942  0.2933
 5143TP3      O27247   1.048   5.040   1.929  0.0971 -0.1234  0.8619
 5143TP3     H127248   1.023   4.972   1.868 -1.5889  0.9937  0.2729
 5143TP3     H227249   1.072   5.115   1.874 -0.1494  0.4571  1.5216
 5144TP3      O27250   3.332   4.162   1.925  0.0926 -0.5846 -0.0209
 5144TP3     H127251   3.306   4.232   1.866 -0.9872 -0.4116  0.6459
 5144TP3     H227252   3.389   4.106   1.873 -0.0334  0.1190 -0.9163
 5145TP3      O27253   4.835   4.538   9.596  0.6511  0.3890  0.6457
 5145TP3     H127254   4.757   4.494   9.629  0.5291  0.6081  0.6532
 5145TP3     H227255   4.886   4.559   9.674  0.7822  0.1209  0.6303
 5146TP3      O27256   0.650   0.760   0.671 -0.5573 -0.0095  0.4756
 5146TP3     H127257   0.612   0.684   0.715  1.2757 -2.1345 -1.4613
 5146TP3     H227258   0.580   0.826   0.670 -2.6333 -2.1660  1.0065
 5147TP3      O27259   0.293   0.080   1.666 -0.2145  0.2797 -0.0757
 5147TP3     H127260   0.207   0.122   1.662 -0.0976  0.4262 -1.3844
 5147TP3     H227261   0.307   0.048   1.577  0.7625 -0.3954  0.3214
 5148TP3      O27262   0.040   0.060   2.795 -0.1822  0.3580 -0.0610
 5148TP3     H127263  -0.031   0.022   2.847  1.6962  0.6951  2.8585
 5148TP3     H227264   0.090  -0.015   2.764  0.2136  0.2332  0.8677
 5149TP3      O27265   4.029   0.075   1.923 -0.1399 -0.1908  0.5945
 5149TP3     H127266   4.023  -0.004   1.976  0.2388  1.1110  2.6401
 5149TP3     H227267   4.061   0.045   1.838 -2.0955 -2.5115  0.6254
 5150TP3      O27268   3.176   4.251   0.188 -0.5347 -0.3708  0.1742
 5150TP3     H127269   3.211   4.223   0.272  0.2972 -1.8433 -0.6323
 5150TP3     H227270   3.100   4.194   0.174 -1.7494  1.0873  0.7467
 5151TP3      O27271   4.069   3.678   2.051 -0.9541 -0.2412 -0.4105
 5151TP3     H127272   4.161   3.658   2.069 -0.5729  0.6667 -1.3573
 5151TP3     H227273   4.030   3.592   2.032  0.0072 -0.4690 -1.4045
 5152TP3      O27274   4.625   4.142   2.013 -0.5779  0.2387 -0.3586
 5152TP3     H127275   4.635   4.236   1.999 -0.9721  0.4971  0.9988
 5152TP3     H227276   4.590   4.135   2.102  1.7129 -1.2804  0.4673
 5153TP3      O27277   2.792   2.882   0.874 -0.9117 -0.2871 -0.3169
 5153TP3     H127278   2.865   2.883   0.812  0.2856  0.9817  1.0476
 5153TP3     H227279   2.795   2.795   0.913  0.6743  0.1418  0.5919
 5154TP3      O27280   1.434   3.271   1.749 -0.2060 -0.5615 -0.4363
 5154TP3     H127281   1.456   3.362   1.727 -1.1189 -0.3683 -0.5797
 5154TP3     H227282   1.343   3.276   1.781  0.0158 -1.3084  0.3138
 5155TP3      O27283   5.242   5.469   2.314  0.1378  0.1983 -0.3889
 5155TP3     H127284   5.199   5.398   2.268  0.6809 -0.4941  0.1518
 5155TP3     H227285   5.336   5.456   2.296  0.2008  1.1305 -0.7818
 5156TP3      O27286   1.475   2.259   2.636 -0.4243  0.1232  0.6736
 5156TP3     H127287   1.510   2.344   2.665  1.3055 -0.2129 -0.3146
 5156TP3     H227288   1.516   2.196   2.694 -0.6339 -0.1433  0.5302
 5157TP3      O27289   3.384   2.115   1.840  0.2410 -0.2106  0.4534
 5157TP3     H127290   3.383   2.189   1.901  0.2480 -0.1632  0.3961
 5157TP3     H227291   3.405   2.039   1.895 -0.0750 -0.2190  0.5656
 5158TP3      O27292   1.924   4.870   1.533  0.2613  0.3687 -0.2643
 5158TP3     H127293   2.009   4.840   1.565  0.0988  0.5504  0.3422
 5158TP3     H227294   1.940   4.893   1.442  0.4324 -1.3668 -0.6970
 5159TP3      O27295   5.411   4.908   2.760 -0.2733  0.4655  0.0021
 5159TP3     H127296   5.402   4.844   2.689 -0.1100 -0.5298  0.8692
 5159TP3     H227297   5.418   4.855   2.839 -0.8290  1.5813  0.8050
 5160TP3      O27298   1.647   3.762   1.723  0.5338  0.4124 -0.4822
 5160TP3     H127299   1.690   3.723   1.647 -0.0346 -1.7915  0.2829
 5160TP3     H227300   1.712   3.754   1.793  0.1538  0.1732 -0.1529
 5161TP3      O27301   3.688   4.377   2.513  0.3373 -0.0774 -0.2295
 5161TP3     H127302   3.600   4.416   2.520  0.0944 -0.5427 -0.6772
 5161TP3     H227303   3.747   4.452   2.516 -0.0776  0.2421  0.0378
 5162TP3      O27304   5.101   4.279   2.473 -0.1090 -0.2816  0.1417
 5162TP3     H127305   5.168   4.228   2.428 -1.3407 -0.4333 -1.5921
 5162TP3     H227306   5.098   4.242   2.561  0.7519 -1.5465 -0.3380
 5163TP3      O27307   0.246   5.149   1.917 -0.0321 -0.3553  0.4209
 5163TP3     H127308   0.258   5.197   1.835 -1.3317  0.1229  0.4987
 5163TP3     H227309   0.335   5.134   1.949  0.4075  3.4617  1.2328
 5164TP3      O27310   2.207   3.621   1.294  0.0821 -0.5137  0.4572
 5164TP3     H127311   2.170   3.622   1.206 -1.8528 -0.4798  1.2392
 5164TP3     H227312   2.233   3.530   1.309  2.5829 -0.0768 -0.9911
 5165TP3      O27313   1.225   3.873   1.640 -0.0786  0.0212  0.3816
 5165TP3     H127314   1.276   3.946   1.606 -2.3391  0.2886 -2.7369
 5165TP3     H227315   1.259   3.796   1.595  0.1928 -0.3876  1.2706
 5166TP3      O27316   2.625   4.539   2.903 -0.3179 -0.0202 -0.2459
 5166TP3     H127317   2.661   4.537   2.814 -0.5075  0.2940 -0.3314
 5166TP3     H227318   2.570   4.461   2.909  1.6516 -1.4021  0.4275
 5167TP3      O27319   1.902   5.136   1.700  0.7467  0.4745  0.1788
 5167TP3     H127320   1.869   5.224   1.682 -1.3418 -0.1312  0.8198
 5167TP3     H227321   1.912   5.097   1.613  1.6769  1.3217 -0.1094
 5168TP3      O27322   2.827   4.385   2.502  0.1262  0.3266 -0.2720
 5168TP3     H127323   2.842   4.303   2.550 -1.1301  0.0826 -0.2695
 5168TP3     H227324   2.914   4.412   2.473  0.5414 -1.0884 -0.3947
 5169TP3      O27325   2.642   4.413   0.806  0.8026 -0.0974  0.5214
 5169TP3     H127326   2.618   4.411   0.898  2.8895  0.2173  1.0897
 5169TP3     H227327   2.598   4.490   0.771 -0.7697 -0.7554  1.0183
 5170TP3      O27328   5.186   3.333   1.709  0.1688  0.2179 -0.5767
 5170TP3     H127329   5.120   3.270   1.736  0.8768 -0.8569 -1.2973
 5170TP3     H227330   5.137   3.403   1.667 -0.6090  0.0707  0.0701
 5171TP3      O27331   0.398   3.160   1.720  1.0707  0.7259  0.4688
 5171TP3     H127332   0.337   3.203   1.660  0.4949  0.7521  1.0581
 5171TP3     H227333   0.446   3.098   1.666 -0.5342 -0.3757  0.2596
 5172TP3      O27334   1.932   4.729   2.139 -0.3502 -0.0713  0.1231
 5172TP3     H127335   1.963   4.819   2.125  0.2319 -0.0848  1.2909
 5172TP3     H227336   1.918   4.695   2.051 -1.6015  1.5172 -0.3210
 5173TP3      O27337   1.822   4.258   9.353  0.5996 -0.1333  0.4820
 5173TP3     H127338   1.747   4.239   9.297 -0.4763 -0.3677  1.9991
 5173TP3     H227339   1.824   4.354   9.359  0.5605 -0.1190  0.2799
 5174TP3      O27340   1.278   4.647   2.900  0.3512 -0.2606  0.1953
 5174TP3     H127341   1.328   4.584   2.848 -0.2038 -0.4327 -0.1363
 5174TP3     H227342   1.287   4.616   2.990  2.1492  0.6067  0.3297
 5175TP3      O27343   1.171   3.783   2.873  0.3828 -0.8225  0.6632
 5175TP3     H127344   1.156   3.759   2.964 -0.3983 -0.9541  0.5077
 5175TP3     H227345   1.119   3.863   2.860 -0.0478 -1.1834  0.1520
 5176TP3      O27346   5.164   4.526   2.456 -0.2627  0.6839 -0.1724
 5176TP3     H127347   5.086   4.572   2.425 -0.2221 -1.0962 -3.0690
 5176TP3     H227348   5.140   4.433   2.454  0.8089  0.3194  2.2294
 5177TP3      O27349   3.244   4.681   0.753  0.0357 -0.3081  0.2192
 5177TP3     H127350   3.226   4.587   0.755  1.6110 -0.6079  1.9300
 5177TP3     H227351   3.216   4.713   0.838 -0.7596  0.8459 -0.4571
 5178TP3      O27352   5.267   3.365   0.846  0.0997 -0.2367 -0.1115
 5178TP3     H127353   5.275   3.459   0.864  1.3647 -0.0140 -1.7429
 5178TP3     H227354   5.176   3.353   0.820 -0.2726  0.3923  0.8448
 5179TP3      O27355   0.456   5.467   3.342 -0.0104 -0.2992 -0.1353
 5179TP3     H127356   0.379   5.420   3.313 -0.8422 -0.4426  2.2260
 5179TP3     H227357   0.510   5.401   3.386  0.2852  0.3243  0.4438
 5180TP3      O27358   2.039   0.782   2.547 -0.1077  0.4301 -0.1771
 5180TP3     H127359   2.117   0.745   2.586 -1.4153 -0.7563  1.3914
 5180TP3     H227360   1.999   0.709   2.500  0.1486  1.2362 -1.6906
 5181TP3      O27361   0.802   4.589   2.702  0.1635 -0.1668  0.0891
 5181TP3     H127362   0.875   4.646   2.726  0.7069  0.0334 -1.9230
 5181TP3     H227363   0.729   4.649   2.688  0.0060 -0.2291  0.6215
 5182TP3      O27364   2.084   5.330   2.428 -0.1940 -0.2964 -0.1942
 5182TP3     H127365   2.057   5.340   2.336 -0.3188  0.0539 -0.1208
 5182TP3     H227366   2.175   5.300   2.423  0.1249  0.6969 -0.4209
 5183TP3      O27367   0.020   4.620   3.394  0.1067 -0.3650  0.1235
 5183TP3     H127368  -0.033   4.675   3.336 -0.9094 -0.8078  0.6091
 5183TP3     H227369   0.038   4.541   3.343  1.7906  0.5098 -0.6706
 5184TP3      O27370   0.276   4.851   2.413  0.0569 -0.1449 -0.4294
 5184TP3     H127371   0.266   4.759   2.389 -0.4813  0.4669 -2.6646
 5184TP3     H227372   0.192   4.891   2.393  0.1603  0.7724  0.9015
 5185TP3      O27373   0.160   3.650   1.843  0.2802 -0.2787  0.2231
 5185TP3     H127374   0.077   3.651   1.890  0.4441  0.5413  0.4997
 5185TP3     H227375   0.199   3.565   1.865 -1.2658 -1.4325 -1.3091
 5186TP3      O27376   1.151   5.080   9.875  0.0123 -0.0505 -0.5919
 5186TP3     H127377   1.223   5.128   9.916 -1.3628  2.6528 -1.2598
 5186TP3     H227378   1.191   5.035   9.801  1.3110  0.0963  0.0057
 5187TP3      O27379   1.787   3.554   2.812  0.6014  0.0286 -0.0602
 5187TP3     H127380   1.702   3.511   2.802 -0.1991  1.4284  0.4592
 5187TP3     H227381   1.821   3.520   2.895 -0.8544  1.6764  1.2837
 5188TP3      O27382   4.843   0.274   1.943  0.0303  0.0518  0.3845
 5188TP3     H127383   4.877   0.230   2.021 -0.5031 -0.7453  0.1722
 5188TP3     H227384   4.765   0.223   1.919 -1.2001  1.7120  0.7351
 5189TP3      O27385   2.518   4.400   1.098  0.7105  0.1905  0.6297
 5189TP3     H127386   2.552   4.312   1.113 -1.5648 -0.3151  3.1179
 5189TP3     H227387   2.567   4.455   1.159 -0.7088 -0.0651  2.0536
 5190TP3      O27388   1.716   5.137   2.931 -0.1558 -0.2403  0.0889
 5190TP3     H127389   1.750   5.226   2.937 -4.0977  1.5097 -1.9117
 5190TP3     H227390   1.781   5.090   2.878 -0.9311  3.0459 -3.9717
 5191TP3      O27391   0.341   4.117   1.735 -0.0080  0.1062 -0.1098
 5191TP3     H127392   0.287   4.040   1.718 -0.5361  0.6350 -0.8992
 5191TP3     H227393   0.317   4.143   1.824 -0.3027 -0.2709 -0.0745
 5192TP3      O27394   0.539   4.273   9.994  0.2329 -0.0773 -0.1139
 5192TP3     H127395   0.567   4.205   9.933  0.1608  0.0296 -0.2662
 5192TP3     H227396   0.446   4.287   9.974  0.2604  0.1037 -0.1211
 5193TP3      O27397   1.446   0.360   2.779 -0.1989  0.6700 -0.1959
 5193TP3     H127398   1.411   0.284   2.825 -1.3180  1.6247  0.5670
 5193TP3     H227399   1.404   0.435   2.822 -0.4693  1.6278 -2.0999
 5194TP3      O27400   1.616   4.685   2.777  0.4943  0.0479 -0.5016
 5194TP3     H127401   1.533   4.670   2.732 -0.1677  0.9171  0.4112
 5194TP3     H227402   1.628   4.608   2.832 -0.8272  0.8892  1.0272
 5195TP3      O27403   5.358   5.351   1.520 -0.2823 -0.1959  0.3182
 5195TP3     H127404   5.371   5.257   1.515 -0.3437 -0.1312 -1.3694
 5195TP3     H227405   5.265   5.362   1.540  0.0106 -0.4902  1.9537
 5196TP3      O27406   0.776   3.535   2.854  0.1411  0.2656  0.3694
 5196TP3     H127407   0.790   3.557   2.947  1.0946  3.5620 -0.4757
 5196TP3     H227408   0.862   3.543   2.814 -0.0728 -2.1317 -0.6688
 5197TP3      O27409   0.427   3.431   1.264 -0.4694 -0.0777  0.1023
 5197TP3     H127410   0.346   3.380   1.267 -0.3132 -0.3018  0.7627
 5197TP3     H227411   0.479   3.391   1.195 -0.9504  0.1102 -0.3689
 5198TP3      O27412   1.284   3.841   3.557  0.2851 -0.5901 -0.3598
 5198TP3     H127413   1.261   3.760   3.511  0.6102 -0.3941 -0.8740
 5198TP3     H227414   1.204   3.865   3.604  0.2098 -1.2461 -0.1514
 5199TP3      O27415   0.632   4.996   1.372  0.0703  0.1659 -0.8499
 5199TP3     H127416   0.577   4.979   1.294 -0.9988  1.8253 -0.4887
 5199TP3     H227417   0.569   5.010   1.442  1.0044  0.8335 -0.1419
 5200TP3      O27418   0.112   5.180   1.114 -0.0429  0.5784  0.4860
 5200TP3     H127419   0.073   5.200   1.028  0.8968  1.3777  0.2341
 5200TP3     H227420   0.115   5.265   1.159  0.1446  0.2841  1.0293
 5201TP3      O27421   0.025   3.331   0.777 -0.4698 -0.5488 -0.5870
 5201TP3     H127422  -0.068   3.337   0.799 -0.3580  0.5224 -0.3892
 5201TP3     H227423   0.060   3.417   0.799  0.3191 -0.5425 -1.8397
 5202TP3      O27424   0.048   4.406   3.199  0.2034 -0.6897 -0.3031
 5202TP3     H127425   0.012   4.358   3.274  1.2524 -0.1908  0.5327
 5202TP3     H227426   0.143   4.400   3.210  0.3820 -0.8647 -1.7660
 5203TP3      O27427   0.991   4.735   1.376 -0.2132  0.4415 -0.0282
 5203TP3     H127428   0.905   4.741   1.417 -0.7037  1.0986 -1.1293
 5203TP3     H227429   1.017   4.644   1.388 -1.6338 -0.0862 -0.8042
 5204TP3      O27430   1.397   0.001   2.248 -0.0675 -0.3236  0.4794
 5204TP3     H127431   1.312  -0.043   2.254 -0.1123 -0.0502  1.9610
 5204TP3     H227432   1.397   0.064   2.319  1.9141 -1.2238  1.3202
 5205TP3      O27433   1.397   4.171   1.989  0.1085 -0.0682 -0.0132
 5205TP3     H127434   1.377   4.079   2.011 -0.8745  0.0856 -0.2577
 5205TP3     H227435   1.314   4.207   1.961  0.2289  1.2491  1.2706
 5206TP3      O27436   5.257   4.651   2.678 -0.3989  0.4032  0.3983
 5206TP3     H127437   5.232   4.585   2.614 -0.2922  0.2058  0.5585
 5206TP3     H227438   5.202   4.727   2.658  0.4619  0.7529 -0.6680
 5207TP3      O27439   0.378   2.594  10.225 -1.1648 -0.1762  1.0901
 5207TP3     H127440   0.412   2.519  10.274  0.5568  0.0427  0.2617
 5207TP3     H227441   0.451   2.655  10.221 -1.4770  0.0619 -1.2467
 5208TP3      O27442   0.639   3.307   0.610 -0.3090  0.0091 -0.7099
 5208TP3     H127443   0.630   3.402   0.619  0.3095  0.1687 -1.7729
 5208TP3     H227444   0.572   3.282   0.547 -0.0384 -0.1667 -0.9310
 5209TP3      O27445   4.958   2.470   2.060  0.3089  0.0003 -0.1519
 5209TP3     H127446   5.000   2.400   2.009 -1.1349 -0.3352 -0.9051
 5209TP3     H227447   4.963   2.547   2.003 -1.8123 -0.5121 -1.0593
 5210TP3      O27448   4.863   4.609   1.743  0.2405 -0.2941 -0.0197
 5210TP3     H127449   4.853   4.523   1.783  0.6256 -0.2262  0.2274
 5210TP3     H227450   4.949   4.606   1.701 -0.0923 -0.3074 -0.6997
 5211TP3      O27451   0.273   3.868   1.254  0.0838 -0.1825 -0.1443
 5211TP3     H127452   0.334   3.806   1.293  0.1759  0.8044  1.3348
 5211TP3     H227453   0.231   3.910   1.329  1.9779  3.4759 -1.0496
 5212TP3      O27454   1.150   0.319   2.094 -0.0946  0.2987 -0.3889
 5212TP3     H127455   1.231   0.355   2.129 -0.2054  1.3880 -1.2218
 5212TP3     H227456   1.129   0.246   2.152 -0.2617  2.0342  1.7823
 5213TP3      O27457   0.086   4.041   2.403  0.7329 -0.1384  0.4334
 5213TP3     H127458   0.078   4.004   2.315  0.3702 -2.3055  1.3404
 5213TP3     H227459   0.027   3.988   2.457 -0.7974  2.6080  1.5716
 5214TP3      O27460   0.303   4.221   2.730 -0.0600 -0.0181 -0.0153
 5214TP3     H127461   0.359   4.298   2.742  1.2840 -0.7140 -1.6486
 5214TP3     H227462   0.358   4.159   2.683 -1.7883 -1.2345 -0.4637
 5215TP3      O27463   5.129   4.808   1.928 -0.4732  0.7564  0.1962
 5215TP3     H127464   5.176   4.878   1.973 -1.8996  1.4009  0.7252
 5215TP3     H227465   5.092   4.754   1.998  3.2076 -2.4167 -0.1396
 5216TP3      O27466   0.080   4.501   3.644 -0.3500 -0.5123  0.7128
 5216TP3     H127467   0.100   4.418   3.600 -2.2983 -1.4326  1.4914
 5216TP3     H227468   0.078   4.565   3.574 -0.6110 -1.4680 -0.1732
 5217TP3      O27469   5.446   0.478   1.518 -0.4179  0.1665 -0.1126
 5217TP3     H127470   5.524   0.474   1.462 -0.1359  0.2215  0.2732
 5217TP3     H227471   5.378   0.433   1.467  0.4569 -1.9298  0.5033
 5218TP3      O27472   4.771   3.816   2.247  0.5394  0.1251 -0.5336
 5218TP3     H127473   4.830   3.793   2.175  1.4370  0.6557  0.0355
 5218TP3     H227474   4.785   3.909   2.261 -0.4163  0.2484 -0.3721
 5219TP3      O27475   0.192   3.852   3.032  0.7370  0.6386 -0.1519
 5219TP3     H127476   0.150   3.839   2.947 -0.7766  0.9586  0.5285
 5219TP3     H227477   0.144   3.925   3.071 -0.7100 -1.5566  2.3044
 5220TP3      O27478   3.787   5.374   1.290 -0.2430 -0.0986  1.0810
 5220TP3     H127479   3.847   5.408   1.357  0.5561 -0.8372  0.7536
 5220TP3     H227480   3.834   5.387   1.208 -1.7820  2.0591  0.4871
 5221TP3      O27481   2.722   4.489   2.262  0.5952 -0.6655 -0.0727
 5221TP3     H127482   2.636   4.450   2.276 -0.3011  1.0750 -0.5958
 5221TP3     H227483   2.760   4.494   2.350 -0.0986 -0.8746  0.2454
 5222TP3      O27484   1.497   4.178   3.282  0.2185 -0.2246  0.6183
 5222TP3     H127485   1.448   4.225   3.214  0.6851 -0.2955  0.2269
 5222TP3     H227486   1.503   4.239   3.355  3.3442  1.4241 -0.9623
 5223TP3      O27487   0.659   4.365   2.619  0.5679 -0.1862 -0.2744
 5223TP3     H127488   0.741   4.320   2.599  0.7915 -0.1998  0.6537
 5223TP3     H227489   0.686   4.448   2.657  0.1525  0.0773 -0.5546
 5224TP3      O27490   5.412   5.139   0.138 -0.1926 -0.4993  0.3022
 5224TP3     H127491   5.333   5.154   0.087  0.1374  1.6404  0.3869
 5224TP3     H227492   5.418   5.215   0.196  1.0835 -1.4058  1.3931
 5225TP3      O27493   3.688   2.440   0.232 -0.3623 -0.2036 -0.4699
 5225TP3     H127494   3.766   2.474   0.187  0.2734 -0.6069  0.3122
 5225TP3     H227495   3.685   2.348   0.208  1.3072 -1.0002  2.0996
 5226TP3      O27496   3.900   1.254   9.968  0.6447 -0.3316  0.4049
 5226TP3     H127497   3.854   1.337   9.982  1.6233  0.2489  0.1977
 5226TP3     H227498   3.954   1.243  10.046  0.9223 -0.5162  0.1830
 5227TP3      O27499   4.021   1.612   1.505 -0.3873 -0.1663  0.1875
 5227TP3     H127500   3.979   1.588   1.422  0.2607  1.3367 -0.6096
 5227TP3     H227501   4.111   1.580   1.496 -0.5764 -0.8291  0.6907
 5228TP3      O27502   2.677   3.910   1.177  0.8875 -0.7057  0.2172
 5228TP3     H127503   2.604   3.887   1.119  0.1768 -2.3193  1.7371
 5228TP3     H227504   2.714   3.826   1.204  1.3384  0.0460  1.9539
 5229TP3      O27505   1.603   5.102   2.643  0.1291 -0.3304  0.3776
 5229TP3     H127506   1.663   5.034   2.674 -0.5726 -1.3677 -0.5169
 5229TP3     H227507   1.659   5.180   2.634  1.0558 -0.9286  0.8530
 5230TP3      O27508   3.075   4.678   2.451  0.1642  0.3545 -0.2458
 5230TP3     H127509   3.088   4.584   2.438 -0.5000  0.6086 -2.9828
 5230TP3     H227510   3.140   4.719   2.395  0.5845  1.5623  1.0954
 5231TP3      O27511   1.606   3.658   3.343 -0.0769 -0.3658  0.0800
 5231TP3     H127512   1.565   3.591   3.290 -0.7432 -0.4341  0.6779
 5231TP3     H227513   1.548   3.733   3.337  0.0945 -0.2112  0.3132
 5232TP3      O27514   1.742   5.217   9.356 -0.0633  0.0625 -0.0062
 5232TP3     H127515   1.751   5.165   9.276  1.0521 -1.0041  0.7938
 5232TP3     H227516   1.704   5.300   9.326  0.2534 -0.3511 -1.6211
 5233TP3      O27517   3.668   0.515   1.231 -0.9440  0.2956 -0.3928
 5233TP3     H127518   3.636   0.541   1.317 -0.6496 -0.0718 -0.1728
 5233TP3     H227519   3.756   0.553   1.225 -0.4623 -0.7363 -0.0234
 5234TP3      O27520   0.892   3.827   1.383 -0.1040 -0.0211  0.0814
 5234TP3     H127521   0.801   3.835   1.412 -0.1516 -0.8241  0.1589
 5234TP3     H227522   0.890   3.761   1.314  0.3286  0.4087 -0.3463
 5235TP3      O27523   1.249   3.528   2.361  0.3380  0.5397  0.3396
 5235TP3     H127524   1.185   3.553   2.295 -0.4127  1.0037  1.2229
 5235TP3     H227525   1.242   3.596   2.428 -0.5241 -1.1028  1.9714
 5236TP3      O27526   3.693   3.384   1.364  0.0050 -0.3851  0.3916
 5236TP3     H127527   3.772   3.389   1.419 -0.3925  0.2543  0.9024
 5236TP3     H227528   3.727   3.384   1.275  0.5392  0.8563  0.5894
 5237TP3      O27529   4.469   3.346   2.086 -0.4008  0.7782  0.5902
 5237TP3     H127530   4.472   3.266   2.138 -2.6021  0.4250  0.2293
 5237TP3     H227531   4.553   3.348   2.041  0.0531 -0.8428  1.3098
 5238TP3      O27532   4.509   3.177  10.119  0.1816 -0.3843 -0.0959
 5238TP3     H127533   4.555   3.218  10.045  0.6514 -0.2915  0.2439
 5238TP3     H227534   4.555   3.210  10.196 -0.8255  0.1500  0.2726
 5239TP3      O27535   1.551   5.092   1.426  0.0156 -0.3772  0.5231
 5239TP3     H127536   1.580   5.041   1.350  0.5402 -0.5340  0.8238
 5239TP3     H227537   1.456   5.088   1.422  0.0442 -1.0161  0.2936
 5240TP3      O27538   0.488   4.436   2.102  0.4785 -0.3382 -0.2803
 5240TP3     H127539   0.518   4.453   2.012  0.1915 -1.4839 -0.6084
 5240TP3     H227540   0.394   4.450   2.098  0.6340  0.8136  0.1414
 5241TP3      O27541   5.274   5.199   2.608 -0.6601 -0.3048 -0.1262
 5241TP3     H127542   5.253   5.125   2.551 -0.1114  0.1517 -0.9398
 5241TP3     H227543   5.366   5.184   2.632 -1.1573 -1.0083  1.4432
 5242TP3      O27544   2.178   2.115   2.625  0.1587 -0.3106  0.9670
 5242TP3     H127545   2.159   2.202   2.662  0.1293 -0.2620  0.8347
 5242TP3     H227546   2.266   2.095   2.658 -0.4498 -0.9022  2.2728
 5243TP3      O27547   5.073   2.349   0.366  0.0003  0.0323 -0.7325
 5243TP3     H127548   5.041   2.394   0.288 -0.7121  2.6403  0.9983
 5243TP3     H227549   5.102   2.419   0.425  0.4566 -1.8484  1.3828
 5244TP3      O27550   1.296   4.410   9.860 -0.5306 -0.1265 -0.1391
 5244TP3     H127551   1.236   4.355   9.910 -0.2569  0.6892  1.1130
 5244TP3     H227552   1.377   4.410   9.912 -0.3770  1.0693 -0.3669
 5245TP3      O27553   0.062   4.112   2.816  0.5122 -0.5462  0.2959
 5245TP3     H127554   0.133   4.174   2.799  0.2739 -0.8888 -2.0440
 5245TP3     H227555   0.033   4.134   2.905  1.7342  1.3885  0.2601
 5246TP3      O27556   1.158   4.310   1.967  0.0950 -0.8332 -0.2809
 5246TP3     H127557   1.069   4.283   1.992 -0.5355 -0.6327 -2.2150
 5246TP3     H227558   1.160   4.404   1.986 -0.2033 -0.7811 -0.5053
 5247TP3      O27559   1.345   0.798   2.526  0.0424  0.4343 -0.4137
 5247TP3     H127560   1.389   0.842   2.599 -1.6046  0.9029  0.3363
 5247TP3     H227561   1.415   0.775   2.465  1.2647  1.4237  0.5989
 5248TP3      O27562   4.930   5.145   9.419 -0.2907 -0.4792 -0.3521
 5248TP3     H127563   4.979   5.088   9.478 -1.5130 -0.9610  0.2264
 5248TP3     H227564   4.881   5.085   9.363 -0.9202 -0.0166 -0.3121
 5249TP3      O27565   0.244   4.581   2.358  0.3256 -0.2190  0.4709
 5249TP3     H127566   0.159   4.537   2.361  0.6034 -0.7620  0.5137
 5249TP3     H227567   0.300   4.521   2.308  0.6793  0.1446  0.4284
 5250TP3      O27568   1.126   4.588   2.478 -0.5721  0.5524 -0.0093
 5250TP3     H127569   1.064   4.612   2.409  0.5474  1.6137 -0.6646
 5250TP3     H227570   1.156   4.672   2.514  1.3825  0.0991 -0.5251
 5251TP3      O27571   5.017   1.067   1.144 -0.3658 -0.2326 -0.3139
 5251TP3     H127572   5.052   1.005   1.207  2.3154  0.8816 -0.6302
 5251TP3     H227573   4.986   1.012   1.072  1.1485 -1.2779 -0.2028
 5252TP3      O27574   5.276   4.418   2.099  0.0597  0.3824  0.3226
 5252TP3     H127575   5.327   4.405   2.179  1.6601 -0.8118 -0.8454
 5252TP3     H227576   5.342   4.426   2.030 -1.3259 -1.1182 -1.2222
 5253TP3      O27577   1.184   4.090   2.588 -0.2558 -0.3642  0.5149
 5253TP3     H127578   1.132   4.013   2.564 -1.2715  0.1698  0.9828
 5253TP3     H227579   1.207   4.130   2.504 -0.8384 -0.4505  0.3136
 5254TP3      O27580   1.855   3.735   0.178 -0.3316 -0.4036  0.3067
 5254TP3     H127581   1.886   3.698   0.261  2.0808 -0.5994 -0.6464
 5254TP3     H227582   1.760   3.741   0.188 -0.1125 -0.9524  2.8621
 5255TP3      O27583   3.124   0.955   2.807 -0.6737  0.0541  0.0969
 5255TP3     H127584   3.136   0.902   2.728  0.3536 -0.2703  0.4645
 5255TP3     H227585   3.110   0.890   2.876 -1.6119  0.3373  0.1760
 5256TP3      O27586   0.162   4.359   2.175 -0.7471 -0.3671 -0.0730
 5256TP3     H127587   0.188   4.278   2.132  0.3139 -0.3551  0.5354
 5256TP3     H227588   0.168   4.340   2.269 -1.3455  0.1449  0.0750
 5257TP3      O27589   1.815   3.515   3.426  0.3625  0.4401  0.6711
 5257TP3     H127590   1.851   3.517   3.338 -1.1537  1.6463  0.0523
 5257TP3     H227591   1.738   3.572   3.422 -0.4423 -0.4566  2.4525
 5258TP3      O27592   3.293   3.725   2.506 -0.0315 -0.1368 -0.1870
 5258TP3     H127593   3.317   3.794   2.568  1.5632  2.6172 -3.6036
 5258TP3     H227594   3.376   3.685   2.481 -0.6121 -1.0961 -0.6271
 5259TP3      O27595   1.146   3.842   1.071  0.0733 -0.0100 -0.3172
 5259TP3     H127596   1.131   3.874   1.160  2.1104  1.8196 -0.6045
 5259TP3     H227597   1.167   3.920   1.021 -1.7693 -0.9208 -2.6095
 5260TP3      O27598   4.463   0.269   9.571  0.0776  0.6336 -0.0466
 5260TP3     H127599   4.435   0.296   9.483 -0.0922  2.7493  0.6479
 5260TP3     H227600   4.558   0.260   9.564  0.1339  1.3781 -0.2971
 5261TP3      O27601   2.816   0.628  10.240 -0.0460 -0.4530 -0.1195
 5261TP3     H127602   2.786   0.698  10.297  0.6922 -0.1201 -0.1312
 5261TP3     H227603   2.823   0.669  10.153  0.2660 -0.5709 -0.1512
 5262TP3      O27604   5.076   1.454   2.029  0.5522 -0.7103  0.0429
 5262TP3     H127605   5.140   1.514   2.065  0.5372 -0.2063 -0.7653
 5262TP3     H227606   5.008   1.448   2.097  0.6854 -0.0311  0.2384
 5263TP3      O27607   4.247   0.046   1.127 -0.2692  0.5745 -0.3025
 5263TP3     H127608   4.297   0.034   1.046 -2.0269 -0.7599 -1.2339
 5263TP3     H227609   4.218   0.137   1.124  0.6370  0.8590 -0.6087
 5264TP3      O27610   4.253   0.446   2.299 -0.0349 -0.0360  0.6571
 5264TP3     H127611   4.198   0.521   2.323 -1.2345 -1.2769  1.9237
 5264TP3     H227612   4.297   0.422   2.381  0.3218 -0.7063  0.2705
 5265TP3      O27613   3.737   4.376   0.978  0.2371  0.0843  0.2104
 5265TP3     H127614   3.783   4.459   0.990 -0.6389  0.3944  1.5542
 5265TP3     H227615   3.649   4.401   0.950 -0.5077 -0.3105  2.1176
 5266TP3      O27616   1.377   5.034   2.473 -0.0285  0.5265  0.3946
 5266TP3     H127617   1.413   4.971   2.411 -0.5057 -0.2292  0.8610
 5266TP3     H227618   1.450   5.052   2.533 -0.1019 -0.1806  0.7100
 5267TP3      O27619   1.756   0.477   0.051  0.2528 -0.2038  0.1754
 5267TP3     H127620   1.769   0.569   0.074 -1.2435  0.4117 -1.3639
 5267TP3     H227621   1.680   0.450   0.102 -0.2966 -0.1171 -0.5883
 5268TP3      O27622   0.809   5.501   2.756 -0.8133 -0.5105 -0.1543
 5268TP3     H127623   0.749   5.569   2.785  2.0130  2.0604 -0.0965
 5268TP3     H227624   0.857   5.475   2.835 -0.2655 -0.9155 -0.6090
 5269TP3      O27625   4.369   4.041   2.789 -0.1696  0.7081  0.0886
 5269TP3     H127626   4.383   4.107   2.721 -0.9850  0.2535 -0.5360
 5269TP3     H227627   4.374   3.958   2.742  0.9014  0.3192  0.8791
 5270TP3      O27628   1.255   3.222   9.356 -0.3894 -0.2264  0.1256
 5270TP3     H127629   1.188   3.289   9.369  0.0065 -0.0614  1.4627
 5270TP3     H227630   1.248   3.166   9.433  0.0694 -1.0342 -0.4157
 5271TP3      O27631   1.785   4.302   1.298  0.2199 -0.5854 -0.1372
 5271TP3     H127632   1.838   4.241   1.349  0.8671 -0.1132 -0.2366
 5271TP3     H227633   1.829   4.307   1.213  0.2961  0.1849 -0.0544
 5272TP3      O27634   2.529   4.657   0.726  0.3666  0.0512  0.1730
 5272TP3     H127635   2.540   4.733   0.783 -3.4079  0.2263  0.7463
 5272TP3     H227636   2.552   4.689   0.639 -1.1597  1.8827  0.4120
 5273TP3      O27637   2.890   4.625   2.929 -0.6843  0.0945  0.0306
 5273TP3     H127638   2.797   4.606   2.933 -0.6973  0.0287 -0.5227
 5273TP3     H227639   2.930   4.545   2.896 -0.8095  1.1574 -2.8653
 5274TP3      O27640   4.844   5.358   1.488  0.1417  0.3486  0.0009
 5274TP3     H127641   4.885   5.387   1.570  1.3549 -2.1850  0.3510
 5274TP3     H227642   4.916   5.324   1.436 -1.2408 -2.6116 -0.0793
 5275TP3      O27643   2.016   4.867   9.340  0.0145 -0.6066  0.0225
 5275TP3     H127644   2.014   4.862   9.244 -2.4541 -2.2120  0.1127
 5275TP3     H227645   1.923   4.866   9.366  0.5113  3.1570  2.3130
 5276TP3      O27646   2.711   4.008   1.868  0.0144  0.2164  0.0427
 5276TP3     H127647   2.794   4.053   1.882 -0.1228  0.0918  1.2565
 5276TP3     H227648   2.646   4.063   1.911  0.0885 -2.0734  3.2990
 5277TP3      O27649   0.565   2.965   1.984  0.6173  0.2410 -0.4343
 5277TP3     H127650   0.576   3.045   1.933 -0.9496  0.2640 -0.7705
 5277TP3     H227651   0.481   2.976   2.028  0.7146 -0.9242  0.0682
 5278TP3      O27652   0.351   3.712   0.700  0.2521 -0.2902  0.0360
 5278TP3     H127653   0.406   3.788   0.716 -0.0118 -0.3634  1.3698
 5278TP3     H227654   0.409   3.637   0.712  0.2821 -0.3259 -0.3212
 5279TP3      O27655   1.286   1.696   1.866 -0.6953 -0.1429  0.2826
 5279TP3     H127656   1.347   1.766   1.890 -1.3399  0.1496  1.0790
 5279TP3     H227657   1.295   1.631   1.935 -0.7116 -0.4646 -0.0166
 5280TP3      O27658   3.946   2.986   2.597 -0.1436 -0.0878 -0.7154
 5280TP3     H127659   3.966   2.945   2.512  0.1441 -0.9709 -0.2298
 5280TP3     H227660   3.889   2.922   2.640  1.4579 -0.6235  0.6298
 5281TP3      O27661   5.381   4.277  10.037 -0.0490 -0.0849 -0.4456
 5281TP3     H127662   5.347   4.309   9.954 -1.9102  1.6539  0.9227
 5281TP3     H227663   5.312   4.220  10.071  0.1933  0.1225  0.4222
 5282TP3      O27664   1.976   0.211   1.698  0.3465  0.2141  0.3629
 5282TP3     H127665   2.037   0.187   1.628  0.3013  1.5175 -0.1259
 5282TP3     H227666   2.031   0.244   1.768  0.3435 -0.4877  0.6991
 5283TP3      O27667   1.766   4.181   2.488  0.5148  0.0788 -0.0588
 5283TP3     H127668   1.786   4.092   2.517 -1.0064  0.1132  1.1594
 5283TP3     H227669   1.795   4.183   2.397  0.4875 -1.7094 -0.1281
 5284TP3      O27670   1.863   3.571   0.449 -0.0613 -0.2868  0.3684
 5284TP3     H127671   1.889   3.488   0.410  1.4995  0.2610  0.2252
 5284TP3     H227672   1.945   3.615   0.470 -0.8780  0.6532  1.6705
 5285TP3      O27673   5.280   4.312   2.745  0.2495  0.1819  0.2555
 5285TP3     H127674   5.218   4.241   2.733 -0.0220  0.3931  0.4166
 5285TP3     H227675   5.331   4.288   2.822 -0.8017  0.8647  1.1600
 5286TP3      O27676   0.467   3.430   2.612 -0.4870 -0.5502  0.2427
 5286TP3     H127677   0.411   3.478   2.551  0.9017 -1.1057 -1.5400
 5286TP3     H227678   0.550   3.479   2.610  0.5543 -2.2981 -0.6904
 5287TP3      O27679   0.030   4.578   1.740 -0.3281  0.0814 -0.0767
 5287TP3     H127680   0.032   4.484   1.723  1.6609 -0.1564  1.2525
 5287TP3     H227681   0.033   4.618   1.654 -0.3741 -1.0865 -0.6292
 5288TP3      O27682   2.021   2.926   3.419  0.0602  0.3191  0.2924
 5288TP3     H127683   1.950   2.973   3.374 -0.2797 -0.4051  0.0735
 5288TP3     H227684   2.008   2.948   3.511 -0.4740  0.1583  0.2598
 5289TP3      O27685   0.479   4.299   2.933  0.3414 -0.7228  0.2838
 5289TP3     H127686   0.566   4.275   2.901  0.8448  2.0577 -0.5675
 5289TP3     H227687   0.496   4.341   3.017 -0.0885  0.4708 -0.2150
 5290TP3      O27688   4.870   4.557   2.443 -0.2317  0.6212 -0.4125
 5290TP3     H127689   4.840   4.567   2.533  1.3275  1.2263  0.0652
 5290TP3     H227690   4.792   4.573   2.390 -1.1433  0.3433  0.8261
 5291TP3      O27691   0.498   1.367   0.360 -0.1651  0.0180 -0.0345
 5291TP3     H127692   0.405   1.390   0.366  0.0385  0.6720  0.6272
 5291TP3     H227693   0.498   1.281   0.318 -1.0965 -0.2213  0.4359
 5292TP3      O27694   5.342   2.892   1.466 -0.2110 -0.0395 -0.0290
 5292TP3     H127695   5.428   2.860   1.494  0.0360  0.8381  0.2375
 5292TP3     H227696   5.358   2.982   1.439 -0.7121 -0.4370 -1.7135
 5293TP3      O27697   4.194   0.939   2.223  0.4498 -0.2416  0.7674
 5293TP3     H127698   4.252   0.994   2.170 -0.5352  2.6667  2.5734
 5293TP3     H227699   4.112   0.936   2.174  0.1893  0.7616  1.1279
 5294TP3      O27700   5.463   3.845   0.251 -0.9649 -0.1411 -0.5157
 5294TP3     H127701   5.482   3.823   0.160 -1.2207 -3.2677  0.1505
 5294TP3     H227702   5.495   3.935   0.261  0.5924 -0.3610 -3.2209
 5295TP3      O27703   1.463   4.816   0.932 -0.3208  0.2072  0.5948
 5295TP3     H127704   1.435   4.726   0.948  1.2019 -0.0106  2.2306
 5295TP3     H227705   1.382   4.864   0.913 -1.2235 -1.3471  0.4906
 5296TP3      O27706   1.745   5.274   1.507  0.3432 -0.3569 -0.5369
 5296TP3     H127707   1.716   5.354   1.551  0.1433 -1.2769  1.0426
 5296TP3     H227708   1.670   5.215   1.513 -0.3809  0.1074 -3.7896
 5297TP3      O27709   1.868   1.040   2.641 -0.7534 -0.1290 -0.2780
 5297TP3     H127710   1.953   1.020   2.681 -0.9526 -1.0388 -0.3038
 5297TP3     H227711   1.839   0.957   2.603 -1.8058  0.1026  0.0098
 5298TP3      O27712   2.827   5.048   2.158  0.0800 -0.4974  0.2230
 5298TP3     H127713   2.820   4.962   2.201  0.4782 -0.3199  0.6423
 5298TP3     H227714   2.861   5.028   2.071  0.3778 -0.7458  0.3951
 5299TP3      O27715   1.298   0.464   1.568  0.5521  0.0288 -0.1969
 5299TP3     H127716   1.336   0.465   1.480  1.9518  0.6197  0.4094
 5299TP3     H227717   1.206   0.486   1.554  0.3363 -1.6767 -1.7075
 5300TP3      O27718   3.508   4.572   1.957 -0.0836 -0.5451  0.2491
 5300TP3     H127719   3.476   4.496   1.910  1.1594 -0.8875 -0.0694
 5300TP3     H227720   3.600   4.580   1.931  0.2238  0.1346  1.4634
 5301TP3      O27721   2.106   1.343   1.233  0.0448  0.2089 -0.0315
 5301TP3     H127722   2.163   1.322   1.160 -0.9586 -0.5931 -0.6145
 5301TP3     H227723   2.067   1.258   1.257 -0.9783  0.7536  0.2659
 5302TP3      O27724   1.833   0.065   7.864 -0.0724  0.0931  0.1383
 5302TP3     H127725   1.784  -0.017   7.863 -0.5650  0.3890  0.0271
 5302TP3     H227726   1.921   0.040   7.835 -0.1352 -0.4484  0.4052
 5303TP3      O27727   1.422   4.678  10.194 -0.3086  0.3927 -0.0143
 5303TP3     H127728   1.363   4.723  10.255 -1.7372  0.9226 -1.7685
 5303TP3     H227729   1.416   4.728  10.113  2.0854  0.0736 -0.4117
 5304TP3      O27730   1.630   3.887   1.108  0.5139  0.2476  0.0900
 5304TP3     H127731   1.713   3.934   1.096 -0.0577  1.5294  1.1133
 5304TP3     H227732   1.563   3.955   1.107 -0.4505 -0.6888  0.2587
 5305TP3      O27733   3.871   4.480   2.805 -0.7084  0.1323 -0.1609
 5305TP3     H127734   3.776   4.482   2.794 -0.5074 -1.6765 -2.6965
 5305TP3     H227735   3.889   4.393   2.841  0.1269 -0.2818 -1.5241
 5306TP3      O27736   1.534   4.668   3.165  0.7888 -0.2642 -0.1173
 5306TP3     H127737   1.447   4.628   3.162  0.0431  1.3817 -1.5350
 5306TP3     H227738   1.594   4.594   3.158 -0.4389 -1.5362  1.9464
 5307TP3      O27739   1.434   4.904   3.231  0.2493  0.4995  0.0559
 5307TP3     H127740   1.512   4.959   3.219  1.1718 -0.8906 -0.5057
 5307TP3     H227741   1.467   4.815   3.220 -1.6768 -0.0311 -1.5208
 5308TP3      O27742   1.992   1.597   1.229  0.0054 -0.3235  0.3125
 5308TP3     H127743   1.903   1.566   1.214 -0.7872  1.2580  1.5195
 5308TP3     H227744   2.041   1.519   1.254 -1.6235 -0.8463  2.0029
 5309TP3      O27745   1.870   2.322   2.692  0.1783  0.0647  0.1699
 5309TP3     H127746   1.895   2.321   2.784  0.4613  0.5753  0.1006
 5309TP3     H227747   1.952   2.334   2.645 -0.0314  0.3702 -0.1233
 5310TP3      O27748   1.454   4.875   2.263  0.2318 -0.0762  0.3621
 5310TP3     H127749   1.531   4.840   2.308  0.6687  0.0133 -0.3093
 5310TP3     H227750   1.427   4.804   2.205  0.5398  0.3372 -0.2924
 5311TP3      O27751   1.318   0.095   0.342 -0.3878  0.3063  0.0405
 5311TP3     H127752   1.225   0.075   0.354 -0.6006 -0.0030 -1.9244
 5311TP3     H227753   1.319   0.169   0.281  0.6424  0.8603  0.7165
 5312TP3      O27754   5.402   4.340   2.997  0.7008 -0.4282  0.1813
 5312TP3     H127755   5.455   4.380   3.066  0.4262 -0.5060  0.4367
 5312TP3     H227756   5.367   4.260   3.036  1.1112 -0.8318 -0.2740
 5313TP3      O27757   2.003   3.565   3.629 -0.3066 -0.0472 -0.0169
 5313TP3     H127758   1.943   3.549   3.557 -0.2521 -0.5480  0.0504
 5313TP3     H227759   1.990   3.658   3.651 -1.0303 -0.1510 -0.0142
 5314TP3      O27760   2.501   3.438   1.080  0.5176 -0.3641 -0.0875
 5314TP3     H127761   2.451   3.405   1.155  0.5538 -0.7769 -0.2470
 5314TP3     H227762   2.541   3.519   1.112 -1.4986  0.7925 -0.4185
 5315TP3      O27763   4.976   3.754   0.002 -0.4648  0.0425 -0.4571
 5315TP3     H127764   5.003   3.743   0.093 -1.0230  1.5491 -0.0924
 5315TP3     H227765   4.887   3.791   0.008  0.6655  3.1475 -1.5552
 5316TP3      O27766   4.601   4.164   2.600  0.2813 -0.1283  0.3299
 5316TP3     H127767   4.597   4.242   2.656  0.1149  1.0273 -1.2534
 5316TP3     H227768   4.671   4.184   2.537  0.1899 -1.2347 -0.1232
 5317TP3      O27769   0.975   3.398   2.083  0.1872  0.0294  0.1457
 5317TP3     H127770   0.932   3.334   2.139 -0.7870  0.1758 -0.4119
 5317TP3     H227771   0.979   3.478   2.136 -3.4102  1.0463 -0.9514
 5318TP3      O27772   3.455   4.590   0.111  0.6545 -0.3690 -0.9285
 5318TP3     H127773   3.543   4.568   0.080  1.4541  1.2687  0.1527
 5318TP3     H227774   3.469   4.637   0.193 -1.2753 -0.8799 -0.2844
 5319TP3      O27775   0.856   4.164   1.453 -0.3729 -0.0134 -0.3299
 5319TP3     H127776   0.845   4.183   1.360  0.0413  0.1697 -0.3429
 5319TP3     H227777   0.900   4.079   1.455  0.9317  0.6617 -0.3225
 5320TP3      O27778   0.094   3.262   2.528  0.1311  0.4885 -0.3231
 5320TP3     H127779   0.109   3.175   2.489  0.9109 -0.9036  2.9518
 5320TP3     H227780  -0.001   3.271   2.529 -0.0687 -1.4297  1.5112
 5321TP3      O27781   4.623   5.187   1.437 -0.0308 -0.0359  0.2472
 5321TP3     H127782   4.644   5.123   1.370  0.9947  0.9816 -0.4203
 5321TP3     H227783   4.704   5.236   1.449 -1.3531  2.4820 -0.7353
 5322TP3      O27784   0.043   4.990   2.026  0.3541 -0.3701 -0.0166
 5322TP3     H127785  -0.020   5.030   1.965 -0.8239  1.4570  2.3104
 5322TP3     H227786   0.128   5.025   1.999 -0.0614 -0.0733 -0.9837
 5323TP3      O27787   1.065   4.970   2.187  0.0204 -0.2643  0.0356
 5323TP3     H127788   1.070   4.985   2.093 -0.2082  0.8580  0.1932
 5323TP3     H227789   1.132   5.028   2.224 -2.3971  2.1142  0.8325
 5324TP3      O27790   2.403   2.936   2.484 -0.6980 -0.0830 -0.1992
 5324TP3     H127791   2.309   2.941   2.464 -0.4666  0.4637 -1.1715
 5324TP3     H227792   2.411   2.973   2.571 -1.3977 -0.1843 -0.0895
 5325TP3      O27793   0.653   4.690   1.901  0.0144  0.2204  0.0786
 5325TP3     H127794   0.699   4.606   1.893  0.6831  0.6000 -0.0890
 5325TP3     H227795   0.679   4.739   1.823 -1.1410  0.2225 -0.3157
 5326TP3      O27796   5.406   3.573   2.846  0.8632  0.0798  0.2267
 5326TP3     H127797   5.485   3.546   2.797  1.3956  0.4298  0.8830
 5326TP3     H227798   5.436   3.581   2.937 -0.2646 -1.1467  0.7110
 5327TP3      O27799   0.451   3.904   2.583  0.1292  0.4886  0.1110
 5327TP3     H127800   0.378   3.898   2.522  0.4377  0.2168 -0.2274
 5327TP3     H227801   0.437   3.832   2.645 -1.4213  2.0931  1.7087
 5328TP3      O27802   0.301   1.623   2.072  0.0581 -0.2689  0.3703
 5328TP3     H127803   0.343   1.707   2.053  1.5941 -0.7334  1.6188
 5328TP3     H227804   0.374   1.562   2.081 -0.8464 -1.0146  2.9688
 5329TP3      O27805   4.722   5.095   3.071 -0.1816  0.2929 -0.0291
 5329TP3     H127806   4.782   5.128   3.138  0.2194  3.6877 -2.0065
 5329TP3     H227807   4.737   5.000   3.071  2.5182  0.6575  2.0492
 5330TP3      O27808   5.362   4.532   0.557 -0.2274 -0.3959 -0.7408
 5330TP3     H127809   5.401   4.573   0.635  0.4149 -2.7828  0.2625
 5330TP3     H227810   5.276   4.573   0.549 -0.5017 -0.4274  1.5311
 5331TP3      O27811   3.875   3.827   2.681  0.0075  0.4510 -0.7188
 5331TP3     H127812   3.891   3.810   2.588 -1.3144 -0.1798 -0.8496
 5331TP3     H227813   3.780   3.843   2.686  0.2992  1.9185  0.3053
 5332TP3      O27814   0.458   2.711   2.874  0.2353 -0.2233 -0.1544
 5332TP3     H127815   0.477   2.734   2.783  1.1385  0.7807  0.2845
 5332TP3     H227816   0.536   2.736   2.923  0.2789 -1.9529  0.7264
 5333TP3      O27817   5.434   4.136   1.500  0.0431  0.5512 -0.3767
 5333TP3     H127818   5.376   4.109   1.572  0.6777  0.3951  0.0749
 5333TP3     H227819   5.379   4.128   1.422 -0.2897 -0.4221 -0.0514
 5334TP3      O27820   2.541   4.167   2.063  0.4098 -0.5523  0.5243
 5334TP3     H127821   2.544   4.225   2.138 -0.0111 -0.4652  0.4758
 5334TP3     H227822   2.459   4.118   2.073  0.5322 -0.8039  0.3221
 5335TP3      O27823   4.065   3.487   0.817 -0.3234  0.0742 -0.2561
 5335TP3     H127824   3.997   3.468   0.753  0.2147  1.3391 -1.2274
 5335TP3     H227825   4.119   3.554   0.776  1.3663 -0.7265  0.6199
 5336TP3      O27826   0.855   0.059   0.722  0.0093  0.4392 -0.6561
 5336TP3     H127827   0.862  -0.035   0.736  0.3271  0.4390 -0.8121
 5336TP3     H227828   0.892   0.073   0.635  1.4780  0.9103  0.0177
 5337TP3      O27829   4.654   1.239   2.037  0.3575 -0.2771 -0.1358
 5337TP3     H127830   4.669   1.333   2.030  0.8820 -0.3790 -0.4401
 5337TP3     H227831   4.684   1.217   2.126  0.6972 -0.2396 -0.2406
 5338TP3      O27832   0.745   4.748   2.374  0.1101 -0.1984  0.2077
 5338TP3     H127833   0.699   4.798   2.442  0.0790  0.1498 -0.0699
 5338TP3     H227834   0.704   4.662   2.377 -0.6333  0.1356 -0.1026
 5339TP3      O27835   1.910   4.954   0.486  0.4524  0.2479 -0.3905
 5339TP3     H127836   1.842   4.952   0.419  0.4435  0.8051 -0.4069
 5339TP3     H227837   1.933   4.863   0.500 -1.7824 -0.1224  1.1375
 5340TP3      O27838   2.861   5.239   2.553 -0.2436 -0.1524  0.2947
 5340TP3     H127839   2.932   5.198   2.601 -0.3300 -0.4647  0.1569
 5340TP3     H227840   2.788   5.177   2.560 -0.4757  0.1270  0.3684
 5341TP3      O27841   5.420   3.207   1.847 -0.5317 -0.2118 -0.4222
 5341TP3     H127842   5.459   3.167   1.769 -1.6449 -0.1616 -1.0196
 5341TP3     H227843   5.339   3.247   1.815  0.1398  1.7986  0.3321
 5342TP3      O27844   1.347   2.190   3.027 -0.6184  0.0408  0.6564
 5342TP3     H127845   1.405   2.263   3.007  1.9948 -1.5089  2.3526
 5342TP3     H227846   1.260   2.231   3.035  0.5209  2.7047  0.0415
 5343TP3      O27847   0.792   0.934   1.576 -0.4591 -0.6313  0.2922
 5343TP3     H127848   0.749   0.954   1.659  1.0340 -0.4661  1.0359
 5343TP3     H227849   0.791   1.017   1.529  0.5929 -0.1915  1.0264
 5344TP3      O27850   1.112   3.565   3.141  0.2325 -0.1948  0.0015
 5344TP3     H127851   1.031   3.566   3.090  0.0257  0.6410  0.3269
 5344TP3     H227852   1.104   3.487   3.196 -0.1542 -0.3550 -0.2759
 5345TP3      O27853   1.177   1.238   1.120 -0.1392  0.5291  0.1343
 5345TP3     H127854   1.087   1.234   1.149 -1.1388 -1.1100 -2.8837
 5345TP3     H227855   1.172   1.229   1.024  3.1147  1.8236 -0.2516
 5346TP3      O27856   2.143   4.467   2.431  0.1543 -0.4846 -0.2899
 5346TP3     H127857   2.152   4.455   2.525  0.3614 -0.7846 -0.3502
 5346TP3     H227858   2.100   4.553   2.422 -1.4792 -1.2309  0.1381
 5347TP3      O27859   2.439   5.463   1.001  0.4783  0.2233  0.5633
 5347TP3     H127860   2.438   5.558   0.989 -3.2490  0.3558  1.2039
 5347TP3     H227861   2.465   5.450   1.093 -1.0972  0.7836  1.1115
 5348TP3      O27862   1.642   5.060   1.183 -0.5416  0.6366 -0.0193
 5348TP3     H127863   1.716   5.119   1.189 -0.3659  0.7136 -2.2163
 5348TP3     H227864   1.578   5.107   1.128  0.1880 -1.6872 -3.0497
 5349TP3      O27865   3.519   4.977   3.048 -0.2506  0.3619 -0.3806
 5349TP3     H127866   3.430   4.996   3.077 -0.2309  1.7358 -1.1386
 5349TP3     H227867   3.520   4.883   3.031 -1.0050  0.0027  1.4635
 5350TP3      O27868   2.281   4.540   1.085 -0.2366  0.1366  0.0713
 5350TP3     H127869   2.321   4.627   1.085  0.4369 -0.1707 -0.2439
 5350TP3     H227870   2.354   4.480   1.098 -0.8483 -0.3271  1.4579
 5351TP3      O27871   2.877   3.675   2.491 -0.5486 -0.0682 -0.4333
 5351TP3     H127872   2.887   3.724   2.573 -1.5947  0.2742 -0.4986
 5351TP3     H227873   2.966   3.651   2.466 -0.0073  1.7709 -0.3683
 5352TP3      O27874   3.699   4.771   2.691 -0.0516 -0.0878 -0.3108
 5352TP3     H127875   3.662   4.683   2.688  0.8319 -0.4759 -0.1050
 5352TP3     H227876   3.623   4.830   2.690 -0.8049 -0.9237  2.9701
 5353TP3      O27877   2.368   1.330   0.713  0.3071 -0.3411  0.5390
 5353TP3     H127878   2.281   1.300   0.737  0.3780 -2.4040 -1.6814
 5353TP3     H227879   2.353   1.393   0.643  0.5170  0.7619  1.4617
 5354TP3      O27880   3.582   1.003   2.181 -0.4258  0.4976 -0.2191
 5354TP3     H127881   3.525   1.020   2.106 -0.1111 -1.1875 -0.8669
 5354TP3     H227882   3.659   1.057   2.166 -0.7931  0.9146 -0.5989
 5355TP3      O27883   2.024   4.588   0.427  0.1633 -0.7265 -0.0959
 5355TP3     H127884   2.037   4.604   0.333  1.7873 -0.9887  0.0698
 5355TP3     H227885   2.094   4.528   0.451  0.4467  0.2214  1.5183
 5356TP3      O27886   2.474   5.145   3.329 -0.3309  0.1917  0.3623
 5356TP3     H127887   2.484   5.055   3.361  2.0585  0.6996  1.1497
 5356TP3     H227888   2.431   5.191   3.402 -4.1007 -0.8471 -1.0647
 5357TP3      O27889   3.250   1.062   0.696 -0.4919  0.3219 -0.2220
 5357TP3     H127890   3.219   1.134   0.750 -0.3305  0.1764  0.0609
 5357TP3     H227891   3.204   0.985   0.729  1.0606 -0.0998  0.9759
 5358TP3      O27892   5.409   0.222   1.852  0.2070  0.3634 -0.1249
 5358TP3     H127893   5.353   0.281   1.903  1.3081  0.9028  0.4971
 5358TP3     H227894   5.390   0.135   1.887  1.5096  0.8036  1.8140
 5359TP3      O27895   2.237   3.895   1.628  0.1826 -0.3601  0.5896
 5359TP3     H127896   2.291   3.816   1.639  1.1336  0.3599  1.1829
 5359TP3     H227897   2.215   3.921   1.717 -2.0785 -1.2610  0.3208
 5360TP3      O27898   1.022   4.982   1.486 -0.4057 -0.3910 -0.1523
 5360TP3     H127899   1.029   4.895   1.446 -1.8459 -0.7885  0.4353
 5360TP3     H227900   1.019   4.964   1.580  0.9633  0.4141  0.0603
 5361TP3      O27901   4.610   4.346   2.801  0.2832  0.0197  0.2440
 5361TP3     H127902   4.533   4.397   2.829  1.9027  2.1102  1.0146
 5361TP3     H227903   4.644   4.308   2.882  0.0762 -0.9018 -0.0980
 5362TP3      O27904   4.630   4.429   2.024 -0.0881  0.3814  0.1902
 5362TP3     H127905   4.580   4.480   1.961 -0.9410  1.5261  1.7643
 5362TP3     H227906   4.713   4.475   2.033  0.8249 -0.8656 -1.5314
 5363TP3      O27907   3.270   4.703   1.943  0.1801  0.1881  0.3717
 5363TP3     H127908   3.203   4.640   1.914  0.2716  0.3252 -0.1371
 5363TP3     H227909   3.345   4.648   1.965 -0.3329 -0.0286  1.6338
 5364TP3      O27910   2.604   0.593   2.672 -0.2223 -0.0311 -0.7846
 5364TP3     H127911   2.660   0.522   2.642  0.6652  0.4219 -0.2516
 5364TP3     H227912   2.583   0.570   2.763  0.7432  0.7687 -0.3390
 5365TP3      O27913   2.965   4.113   1.774  0.4257 -0.0500 -0.0930
 5365TP3     H127914   3.025   4.039   1.765  0.8471  0.4536 -1.4746
 5365TP3     H227915   2.999   4.162   1.849  0.8295 -0.6106  0.0969
 5366TP3      O27916   2.643   4.882   1.297  0.1198 -0.2122  0.3488
 5366TP3     H127917   2.635   4.955   1.236 -0.8656  2.3266  3.3501
 5366TP3     H227918   2.730   4.893   1.336  0.6867 -1.7252 -0.4757
 5367TP3      O27919   1.443   4.168   2.702  0.2070  0.8771  0.1520
 5367TP3     H127920   1.457   4.227   2.628  0.0362  0.1604 -0.4530
 5367TP3     H227921   1.380   4.103   2.671  1.8659 -0.7935  0.1498
 5368TP3      O27922   0.685   4.817   1.674  0.0184  0.3460 -0.1338
 5368TP3     H127923   0.626   4.888   1.649  0.2303  0.9827  1.1065
 5368TP3     H227924   0.639   4.738   1.646  0.3076  0.9965 -2.5607
 5369TP3      O27925   4.369   4.452   2.932  0.5713 -0.4430 -0.0084
 5369TP3     H127926   4.350   4.379   2.991  1.1010  0.3151  1.1358
 5369TP3     H227927   4.283   4.488   2.909  0.3860 -0.2800  0.9141
 5370TP3      O27928   3.440   2.898   2.764  0.2652 -0.0307 -0.4099
 5370TP3     H127929   3.454   2.902   2.669 -1.2157 -0.5647 -0.6569
 5370TP3     H227930   3.381   2.971   2.782  0.7634  0.2358  0.1540
 5371TP3      O27931   2.288   4.022   3.030 -0.2579 -0.0149 -0.3803
 5371TP3     H127932   2.276   4.101   3.082 -2.9053 -0.4828 -0.2114
 5371TP3     H227933   2.342   3.965   3.085 -0.0032  0.9109  0.3309
 5372TP3      O27934   0.114   0.344   9.795 -0.3659 -0.0444  0.4043
 5372TP3     H127935   0.084   0.364   9.706  2.6568 -1.0274 -0.8823
 5372TP3     H227936   0.160   0.423   9.823  0.9678 -0.6925  0.0598
 5373TP3      O27937   3.147   0.042   9.767  0.3588  0.3796 -0.1626
 5373TP3     H127938   3.218   0.104   9.787  0.2769 -0.5489  3.2555
 5373TP3     H227939   3.191  -0.032   9.725  1.2278  0.3940  0.7130
 5374TP3      O27940   1.826   0.790   1.804  0.0402  0.1369  0.2529
 5374TP3     H127941   1.838   0.741   1.886 -1.0571  0.0728  0.3877
 5374TP3     H227942   1.747   0.753   1.766  0.7661 -0.1017 -1.0437
 5375TP3      O27943   2.233   5.361   0.558 -0.4193 -0.0377  0.8920
 5375TP3     H127944   2.323   5.358   0.525 -0.3065 -1.0210  1.2838
 5375TP3     H227945   2.239   5.324   0.646 -1.2466 -0.3018  0.8349
 5376TP3      O27946   3.136   3.918   0.032 -0.1615 -0.1907  0.1062
 5376TP3     H127947   3.048   3.889   0.055  0.0134 -1.0259 -0.2851
 5376TP3     H227948   3.135   3.924  -0.063  0.7706 -2.0420 -0.0336
 5377TP3      O27949   3.885   3.904   2.018 -0.6274 -0.0601 -0.4906
 5377TP3     H127950   3.807   3.851   2.008  0.6659 -1.7107 -2.0336
 5377TP3     H227951   3.952   3.843   2.051  0.6059  0.8042 -1.3391
 5378TP3      O27952   3.898   3.830   0.233 -0.4381  0.0001 -0.4238
 5378TP3     H127953   3.951   3.904   0.205  0.6748  1.0138  3.9953
 5378TP3     H227954   3.807   3.857   0.219  0.0000  1.8300  0.2156
 5379TP3      O27955   3.079   3.703   2.935  0.1448 -0.5656  0.4386
 5379TP3     H127956   3.071   3.785   2.984 -0.1239  0.2390 -0.9124
 5379TP3     H227957   3.158   3.662   2.969  0.7845  0.6889  0.5036
 5380TP3      O27958   3.507   5.165   1.905  0.2564 -0.1807  0.3854
 5380TP3     H127959   3.486   5.090   1.849  0.6689 -0.0668  0.0809
 5380TP3     H227960   3.428   5.177   1.959  0.0234 -0.5568  0.1326
 5381TP3      O27961   4.587   4.069  10.161  0.0992 -0.3470  0.6779
 5381TP3     H127962   4.586   4.024  10.076  1.8086 -0.5213  0.7332
 5381TP3     H227963   4.649   4.141  10.149  0.6828 -0.6262  1.8930
 5382TP3      O27964   3.015   4.405   2.885 -0.3614  0.0706 -0.4390
 5382TP3     H127965   3.028   4.319   2.844  1.2737  0.6520 -1.1924
 5382TP3     H227966   3.087   4.412   2.948 -0.0253  1.2241 -0.9463
 5383TP3      O27967   3.236   5.188   1.624 -0.3505 -0.0053 -0.3642
 5383TP3     H127968   3.144   5.216   1.626 -0.1394  0.6228  0.6449
 5383TP3     H227969   3.284   5.259   1.665  0.7086  0.0616 -1.6632
 5384TP3      O27970   3.799   5.463   2.222 -0.1984  0.4996  0.6375
 5384TP3     H127971   3.775   5.553   2.247 -2.0767  0.2632 -0.2500
 5384TP3     H227972   3.721   5.428   2.179  0.7478 -1.3440  0.3615
 5385TP3      O27973   4.085   4.446   0.825 -0.3896 -0.3329 -0.0330
 5385TP3     H127974   4.091   4.356   0.792 -0.0075  0.6919 -2.8749
 5385TP3     H227975   4.009   4.445   0.883 -1.6236 -2.0199 -1.6230
 5386TP3      O27976   0.588   0.119   2.369 -0.4570 -0.2446  0.6012
 5386TP3     H127977   0.500   0.151   2.387 -1.0693 -1.3339 -0.3857
 5386TP3     H227978   0.646   0.187   2.405 -1.6743  0.1060  1.9381
 5387TP3      O27979   2.651   5.061   2.976  0.0841 -0.3952 -0.2142
 5387TP3     H127980   2.646   4.984   2.921  0.4995 -0.6441  0.0954
 5387TP3     H227981   2.744   5.070   2.998  0.1335  0.5878 -0.8101
 5388TP3      O27982   2.564   0.060   2.485 -0.6432 -0.3596 -0.1111
 5388TP3     H127983   2.573  -0.027   2.524 -0.9567 -0.6050 -0.5856
 5388TP3     H227984   2.510   0.109   2.548  1.9532  0.4196  1.6226
 5389TP3      O27985   5.123   2.117   2.254  0.0872 -0.3863 -0.1552
 5389TP3     H127986   5.142   2.211   2.259 -0.4478 -0.2474 -0.5801
 5389TP3     H227987   5.208   2.075   2.253  0.3225  0.0156  1.3981
 5390TP3      O27988   1.893   3.213   0.763 -0.1975 -0.2893 -0.3088
 5390TP3     H127989   1.818   3.264   0.731 -0.6469 -0.1772  0.8679
 5390TP3     H227990   1.889   3.224   0.858 -0.0309 -2.1563 -0.0702
 5391TP3      O27991   0.327   1.158   9.570 -0.0321  0.1721  0.1653
 5391TP3     H127992   0.243   1.115   9.553 -0.3687 -0.0680  2.2566
 5391TP3     H227993   0.307   1.251   9.566 -0.3343  0.1154  0.2937
 5392TP3      O27994   1.635   5.078   3.167  0.4604  0.4238 -0.3418
 5392TP3     H127995   1.666   5.073   3.077  1.4352  0.6545 -0.0284
 5392TP3     H227996   1.708   5.117   3.215  0.6763 -1.4922  0.9072
 5393TP3      O27997   2.639   3.714   1.635  0.7170  0.3885 -0.1205
 5393TP3     H127998   2.668   3.804   1.620 -1.2117  1.0092 -0.2773
 5393TP3     H227999   2.567   3.702   1.572  0.5903 -1.0707  0.2958
 5394TP3      O28000   4.186   4.833   2.102  0.3963 -0.4155  0.3261
 5394TP3     H128001   4.200   4.926   2.085 -0.7101 -0.3776 -0.4035
 5394TP3     H228002   4.165   4.829   2.196  1.2588 -0.0298  0.5365
 5395TP3      O28003   3.106   0.937   3.310 -0.3925  0.0632 -0.0039
 5395TP3     H128004   3.146   0.855   3.281 -0.5141 -0.5401  1.4917
 5395TP3     H228005   3.132   1.001   3.244 -0.7340 -1.2896 -1.4642
 5396TP3      O28006   4.764   3.501   2.138  0.1752  0.1194  0.0064
 5396TP3     H128007   4.752   3.446   2.216 -0.4643  0.7184  0.3351
 5396TP3     H228008   4.838   3.559   2.161 -0.0126  0.2955  0.1691
 5397TP3      O28009   4.984   3.526   1.664  0.0507  0.2244 -0.1341
 5397TP3     H128010   4.935   3.604   1.638  1.0166  0.9906  0.3229
 5397TP3     H228011   4.920   3.472   1.710  0.3493  2.6629  3.3343
 5398TP3      O28012   2.918   4.776   1.679  0.1967 -0.1822  0.0145
 5398TP3     H128013   2.887   4.778   1.769 -1.6873  2.3304 -0.6354
 5398TP3     H228014   2.996   4.832   1.678  0.3854 -0.4395  0.1114
 5399TP3      O28015   3.322   3.929   2.718  0.0738  0.4910  0.4874
 5399TP3     H128016   3.362   3.913   2.803  2.3047  2.5242 -0.0965
 5399TP3     H228017   3.250   3.990   2.736 -1.0126 -0.9993  1.2075
 5400TP3      O28018   1.218   1.035   1.342 -0.2953 -0.1780 -0.1237
 5400TP3     H128019   1.197   1.087   1.265 -0.9312  2.0470  1.4997
 5400TP3     H228020   1.286   0.975   1.313 -0.2105  0.9355 -2.2818
 5401TP3      O28021   2.289   5.013   2.540  0.6993  0.2427 -0.3706
 5401TP3     H128022   2.194   5.023   2.535  0.7166  0.4825 -0.1681
 5401TP3     H228023   2.309   5.012   2.633  0.8675 -0.0746 -0.4078
 5402TP3      O28024   4.119   3.539   1.811  0.1185 -0.6205  0.4998
 5402TP3     H128025   4.195   3.584   1.775 -0.3990 -1.0032 -1.1448
 5402TP3     H228026   4.052   3.549   1.743 -1.7073  0.7816  2.4480
 5403TP3      O28027   0.559   2.758   2.620 -0.0783  0.5361  0.6450
 5403TP3     H128028   0.499   2.775   2.548  0.7862  2.1458  0.2815
 5403TP3     H228029   0.617   2.689   2.587 -0.2254  0.6559  0.1358
 5404TP3      O28030   4.316   3.604   2.158 -0.5572 -0.0202 -0.8355
 5404TP3     H128031   4.357   3.518   2.148  0.0135  0.0372  0.7803
 5404TP3     H228032   4.387   3.666   2.145 -0.8032  0.1904 -1.1913
 5405TP3      O28033   4.195   4.696   0.724 -0.1793  0.4500 -0.2540
 5405TP3     H128034   4.154   4.681   0.638  0.7216  1.3234 -0.8401
 5405TP3     H228035   4.172   4.618   0.774 -0.4024 -0.2509 -1.4125
 5406TP3      O28036   3.880   5.412   2.491 -0.2827  0.1574  0.4950
 5406TP3     H128037   3.901   5.430   2.399 -2.2576  1.4833  0.2698
 5406TP3     H228038   3.883   5.317   2.498 -1.5818 -0.0524 -1.3214
 5407TP3      O28039   2.043   4.486   1.152 -0.2952 -0.3797  0.1038
 5407TP3     H128040   2.056   4.422   1.222  1.8342 -1.1878 -1.0089
 5407TP3     H228041   2.131   4.509   1.123 -1.1136  0.9862 -1.3879
 5408TP3      O28042   2.097   0.370   1.152 -0.6379  0.0481 -0.1147
 5408TP3     H128043   2.117   0.387   1.244 -0.0169 -0.2888 -0.1912
 5408TP3     H228044   2.128   0.281   1.136 -0.6860  0.1291 -0.6724
 5409TP3      O28045   2.778   4.159   3.065  0.3807  0.2795  0.2910
 5409TP3     H128046   2.775   4.132   2.973  0.9268  0.2306  0.2884
 5409TP3     H228047   2.791   4.077   3.113 -0.5080  0.2244  0.4608
 5410TP3      O28048   1.222   0.919   9.711  0.0128 -0.0264 -0.2066
 5410TP3     H128049   1.188   0.935   9.623  1.1415  0.3080 -0.6003
 5410TP3     H228050   1.207   1.001   9.758 -1.6157 -0.5830  0.2642
 5411TP3      O28051   1.857   4.236   2.975  0.2819 -0.5925  0.0115
 5411TP3     H128052   1.837   4.266   2.886 -1.6165 -1.4706  0.1360
 5411TP3     H228053   1.933   4.288   3.001 -1.3657  2.2999 -0.7566
 5412TP3      O28054   0.340   3.786   0.963 -0.3737 -0.2900 -0.2422
 5412TP3     H128055   0.265   3.727   0.961 -1.4440  0.8908  2.0274
 5412TP3     H228056   0.309   3.861   1.015  3.0150 -0.7118  2.5831
 5413TP3      O28057   2.539   5.157   0.892  0.0329  0.1856 -0.4218
 5413TP3     H128058   2.455   5.192   0.922 -0.2841 -1.2633  0.4222
 5413TP3     H228059   2.522   5.128   0.802 -0.3899 -0.1396 -0.2387
 5414TP3      O28060   3.521   4.189   2.300  0.0745  0.2312  0.4773
 5414TP3     H128061   3.595   4.185   2.361  0.2265 -2.2322  0.2103
 5414TP3     H228062   3.507   4.097   2.276  0.7093  1.2247 -4.0325
 5415TP3      O28063   1.477   3.680   0.639  0.2251 -0.3939  0.0286
 5415TP3     H128064   1.482   3.659   0.732  2.1701  0.1796  0.0807
 5415TP3     H228065   1.441   3.769   0.637 -0.3644 -0.6271  0.1991
 5416TP3      O28066   2.581   4.099   3.485  0.2972  0.3711 -0.2498
 5416TP3     H128067   2.614   4.029   3.429  1.4236 -0.6724  1.6566
 5416TP3     H228068   2.535   4.158   3.425  0.6030 -1.2164 -2.1041
 5417TP3      O28069   2.390   0.934   0.544 -0.2241 -0.2890  0.1842
 5417TP3     H128070   2.357   0.993   0.477 -1.7782 -0.4104  0.8372
 5417TP3     H228071   2.480   0.964   0.560 -0.0903  0.1988 -1.4028
 5418TP3      O28072   3.331   4.376   1.770 -0.4186  0.8411  0.3987
 5418TP3     H128073   3.265   4.433   1.730 -4.1565 -3.6440 -0.3086
 5418TP3     H228074   3.397   4.365   1.702 -2.5137 -0.0930 -1.5609
 5419TP3      O28075   3.560   3.647   2.930  0.4106  0.8278 -0.1982
 5419TP3     H128076   3.490   3.590   2.964  1.9505  0.1911  2.0200
 5419TP3     H228077   3.529   3.736   2.949 -0.3643  0.5980 -0.3597
 5420TP3      O28078   2.376   0.570   2.080  0.0436  0.2136 -0.4822
 5420TP3     H128079   2.360   0.506   2.149 -0.3839  2.3361  1.4408
 5420TP3     H228080   2.292   0.614   2.068  0.2163  0.1193 -2.0997
 5421TP3      O28081   3.365   4.254   2.978  0.2612  0.4910 -0.1743
 5421TP3     H128082   3.319   4.323   3.027 -3.7365 -1.8847 -0.4211
 5421TP3     H228083   3.414   4.206   3.045  0.0136  1.2394  0.5527
 5422TP3      O28084   3.633   5.514   2.491 -0.0990  0.4131  0.3333
 5422TP3     H128085   3.637   5.577   2.420 -1.1644  0.9409  0.7381
 5422TP3     H228086   3.722   5.479   2.497  0.2901  1.2596 -0.4442
 5423TP3      O28087   1.899   3.308   0.292 -0.1120  0.1867  0.4732
 5423TP3     H128088   1.881   3.245   0.362  1.6365  0.0957  0.8625
 5423TP3     H228089   1.928   3.254   0.218  1.1887  0.4917  0.7410
 5424TP3      O28090   3.327   5.129   2.661 -0.1467 -0.2901 -0.0679
 5424TP3     H128091   3.359   5.072   2.731 -1.7478 -0.3775  0.6205
 5424TP3     H228092   3.389   5.202   2.659  0.4305 -0.7431  0.8100
 5425TP3      O28093   0.825   5.053   2.261 -0.1540 -0.1331 -0.2895
 5425TP3     H128094   0.918   5.063   2.238 -0.3940  0.0456 -1.1935
 5425TP3     H228095   0.779   5.108   2.197 -1.0053 -1.5859 -0.9422
 5426TP3      O28096   1.556   5.432   2.942  0.0165 -0.8050  0.6252
 5426TP3     H128097   1.649   5.417   2.958  0.3442  0.8285  0.3204
 5426TP3     H228098   1.543   5.407   2.850 -0.0623 -1.9513  0.9372
 5427TP3      O28099   4.534   0.482   0.882  0.1207  0.0716  0.2495
 5427TP3     H128100   4.549   0.389   0.898 -1.4218 -0.4477 -1.0723
 5427TP3     H228101   4.576   0.526   0.955  1.4621 -1.6221  0.5451
 5428TP3      O28102   3.098   0.742   2.975 -0.3528 -0.9959  0.3902
 5428TP3     H128103   3.170   0.697   2.931  0.4758  0.4808  0.2023
 5428TP3     H228104   3.123   0.743   3.068  1.5092  2.4129 -0.0805
 5429TP3      O28105   3.347   2.804   0.737  0.2181 -0.3416  0.0478
 5429TP3     H128106   3.279   2.743   0.764 -0.9106  1.0027  0.3241
 5429TP3     H228107   3.357   2.864   0.811  0.7289  0.3007 -0.5241
 5430TP3      O28108   4.230   3.004   0.800 -0.5721  0.1590  0.0860
 5430TP3     H128109   4.280   3.080   0.770 -0.4721  0.7370  1.6409
 5430TP3     H228110   4.293   2.932   0.799  0.0903  0.6989  1.2001
 5431TP3      O28111   5.183   5.174   0.036  0.0840  0.0631 -0.3961
 5431TP3     H128112   5.159   5.161  -0.055  1.3220 -1.9162 -0.4631
 5431TP3     H228113   5.162   5.266   0.054 -1.9261 -0.0298 -2.1105
 5432TP3      O28114   3.886   1.699   2.741 -0.2456  0.1772  0.7154
 5432TP3     H128115   3.840   1.662   2.816 -0.5084  0.7586  0.8353
 5432TP3     H228116   3.823   1.756   2.698 -0.7225 -1.6256 -1.0607
 5433TP3      O28117   4.190   5.314   2.501 -0.9264  0.4482 -0.3704
 5433TP3     H128118   4.146   5.393   2.532 -0.9639 -0.0782  0.9806
 5433TP3     H228119   4.205   5.263   2.581  0.9053  0.0093 -0.9711
 5434TP3      O28120   3.829   4.909   2.415  0.1638  0.0747 -0.4098
 5434TP3     H128121   3.784   4.852   2.476 -1.8746  2.1360  0.0637
 5434TP3     H228122   3.794   4.885   2.329  0.5014 -0.4750 -0.3966
 5435TP3      O28123   4.478   5.447   0.274  0.8420  0.2981 -0.0964
 5435TP3     H128124   4.492   5.525   0.327  1.8757  0.3994 -0.4983
 5435TP3     H228125   4.396   5.463   0.228  0.4583  0.6393  0.7101
 5436TP3      O28126   2.899   4.131   2.660  0.1870  0.0327 -0.3150
 5436TP3     H128127   2.886   4.036   2.657 -1.0599  0.2028 -0.8168
 5436TP3     H228128   2.967   4.144   2.726  0.9397 -1.2613 -0.8277
 5437TP3      O28129   3.899   3.931   1.274 -0.3273  0.0909 -1.0417
 5437TP3     H128130   3.870   3.979   1.352 -0.4610 -0.9359 -0.4438
 5437TP3     H228131   3.855   3.847   1.281  0.1301 -0.2213 -1.9292
 5438TP3      O28132   2.189   4.775   1.462 -0.1944 -0.6465 -0.1532
 5438TP3     H128133   2.274   4.817   1.479  0.4146 -2.1458  0.6912
 5438TP3     H228134   2.139   4.840   1.412  2.0291 -0.3467 -2.0623
 5439TP3      O28135   0.984   0.931   2.067 -0.0738  0.2545  0.4802
 5439TP3     H128136   0.925   0.873   2.115 -0.2446 -1.0220 -1.1997
 5439TP3     H228137   0.989   1.010   2.120 -2.3092 -0.0985  1.2858
 5440TP3      O28138   1.767   0.674   3.065  0.3658 -0.1317 -0.6836
 5440TP3     H128139   1.714   0.652   3.142  0.3981  1.2835 -0.2407
 5440TP3     H228140   1.857   0.664   3.095  0.3708 -0.1557 -0.7070
 5441TP3      O28141   3.734   4.573  10.301 -0.6675  0.8267 -0.1955
 5441TP3     H128142   3.811   4.538  10.346 -1.3188  0.4968  0.6585
 5441TP3     H228143   3.763   4.585  10.210  0.0550 -0.3246 -0.1212
 5442TP3      O28144   3.010   5.176   2.952 -0.2322 -0.3101  0.0519
 5442TP3     H128145   3.046   5.212   3.033 -1.4820  2.0066 -0.3850
 5442TP3     H228146   2.983   5.087   2.975 -0.5488  0.3095  2.1761
 5443TP3      O28147   3.699   4.355   2.091 -0.2120 -0.4904 -0.1242
 5443TP3     H128148   3.640   4.280   2.081  0.2182 -0.7881 -0.4430
 5443TP3     H228149   3.776   4.319   2.136  0.1721 -0.3408 -0.6476
 5444TP3      O28150   2.686   4.382   3.181  0.0368 -0.3240  0.3290
 5444TP3     H128151   2.697   4.449   3.114 -0.7793  0.5142  1.0155
 5444TP3     H228152   2.742   4.309   3.152 -0.7610 -0.2143 -1.5472
 5445TP3      O28153   3.678   1.382   0.366 -0.1651 -0.0556 -0.5770
 5445TP3     H128154   3.587   1.364   0.389  0.0421  0.8004  0.9313
 5445TP3     H228155   3.729   1.314   0.409 -0.1343 -1.0025 -2.0604
 5446TP3      O28156   3.888   0.816   2.587 -0.1995 -0.0491 -0.4229
 5446TP3     H128157   3.960   0.869   2.620  1.3137 -1.3200 -1.5782
 5446TP3     H228158   3.824   0.879   2.554  0.4162  1.0904  0.5701
 5447TP3      O28159   4.559   0.995   0.713 -0.0821 -0.0533 -0.3448
 5447TP3     H128160   4.621   0.931   0.679 -0.0063  0.3990 -1.0704
 5447TP3     H228161   4.604   1.036   0.786  0.0823 -0.4373 -0.2292
 5448TP3      O28162   2.108   2.798   2.284  0.6514 -0.3201  0.0198
 5448TP3     H128163   2.122   2.709   2.318 -1.1707  0.2594  2.3881
 5448TP3     H228164   2.016   2.816   2.303  0.9812  2.0444 -0.5711
 5449TP3      O28165   3.961   5.392   1.569  0.2333  0.1599  0.2382
 5449TP3     H128166   3.896   5.357   1.630 -0.7065  1.5182  0.0285
 5449TP3     H228167   3.922   5.473   1.536  0.8459 -0.4227 -1.9705
 5450TP3      O28168   2.434   4.877   3.402  0.1974  0.0004  0.5267
 5450TP3     H128169   2.376   4.826   3.460 -0.3630  0.0783  0.0357
 5450TP3     H228170   2.520   4.837   3.415 -0.0090 -0.2842  1.0695
 5451TP3      O28171   1.369   1.494   9.864 -1.2373  0.4787  0.1194
 5451TP3     H128172   1.338   1.434   9.796  0.8740 -0.1566 -0.3225
 5451TP3     H228173   1.385   1.437   9.940 -0.8838  0.7463  0.2440
 5452TP3      O28174   4.595   5.000   0.814 -0.1672 -0.3303  0.1001
 5452TP3     H128175   4.556   5.053   0.744 -0.9843 -1.6117 -0.4264
 5452TP3     H228176   4.520   4.961   0.859  0.3475  0.3872  1.6381
 5453TP3      O28177   1.292   3.818   2.548  0.5891 -0.0774 -0.0824
 5453TP3     H128178   1.196   3.818   2.550  0.5806  0.8453 -0.1869
 5453TP3     H228179   1.318   3.814   2.640  0.4595 -1.4116 -0.1006
 5454TP3      O28180   3.518   3.877   1.595 -0.4544 -0.2852  0.6201
 5454TP3     H128181   3.509   3.933   1.519  1.0035  0.1827  0.7669
 5454TP3     H228182   3.589   3.816   1.572 -0.9993 -1.0784  1.0335
 5455TP3      O28183   2.495   5.378   0.426 -0.0593  0.4872 -0.8381
 5455TP3     H128184   2.550   5.355   0.352  1.2591  1.1756 -0.0990
 5455TP3     H228185   2.541   5.343   0.502 -1.7509 -0.8324 -0.3898
 5456TP3      O28186   3.270   4.363   1.027 -0.4042 -0.3338 -0.3378
 5456TP3     H128187   3.232   4.275   1.026  2.3944 -1.6011  0.3447
 5456TP3     H228188   3.214   4.412   1.088 -1.5055 -1.8662 -0.0742
 5457TP3      O28189   3.626   3.291   0.516 -0.3211  0.0552  0.0994
 5457TP3     H128190   3.693   3.281   0.584  1.3268  2.0952 -1.1368
 5457TP3     H228191   3.615   3.385   0.507 -0.9840 -0.1987 -2.0056
 5458TP3      O28192   2.014   5.299   2.175  0.2963  0.0480 -0.3827
 5458TP3     H128193   1.926   5.333   2.160  0.9031  2.4572  1.1869
 5458TP3     H228194   2.068   5.340   2.108  0.7434  0.9627  0.5182
 5459TP3      O28195   2.786   1.691   9.684  0.4217 -0.1745 -0.0165
 5459TP3     H128196   2.754   1.768   9.638 -0.6981  0.5683  1.9915
 5459TP3     H228197   2.867   1.668   9.638 -0.4439  0.8004 -2.0817
 5460TP3      O28198   2.167   4.533   1.569 -1.0470  0.1901 -0.1896
 5460TP3     H128199   2.235   4.470   1.547 -1.1864 -0.6615  1.6710
 5460TP3     H228200   2.190   4.612   1.521  0.0881 -0.7526 -1.2108
 5461TP3      O28201   1.449   4.762   0.444  0.1621  0.1045 -0.4318
 5461TP3     H128202   1.485   4.674   0.426  0.6428 -0.0667  1.2815
 5461TP3     H228203   1.377   4.746   0.504 -1.1231  0.7049 -1.7974
 5462TP3      O28204   4.395   2.483   1.318  0.0800 -0.2968  0.2410
 5462TP3     H128205   4.330   2.490   1.249 -0.8727 -2.1434  0.9209
 5462TP3     H228206   4.393   2.568   1.362 -0.4137  0.3438 -1.0226
 5463TP3      O28207   2.568   5.232   2.133  0.0540 -0.0571  0.6853
 5463TP3     H128208   2.663   5.236   2.123 -0.0579  1.3703 -0.0912
 5463TP3     H228209   2.549   5.141   2.155  1.5754 -0.4008  0.6205
 5464TP3      O28210   1.775   5.132   9.087 -0.9693 -0.6098  1.1008
 5464TP3     H128211   1.684   5.104   9.098 -1.2462 -1.1835 -2.0891
 5464TP3     H228212   1.781   5.158   8.995  2.1260 -0.7076  1.2142
 5465TP3      O28213   0.846   4.470   1.854 -0.1335  0.4789  0.2458
 5465TP3     H128214   0.887   4.418   1.786 -0.2506  0.3148  0.2998
 5465TP3     H228215   0.860   4.421   1.935 -2.7336 -0.9402 -0.1066
 5466TP3      O28216   4.004   4.737   1.502  0.2090  0.5972 -0.1703
 5466TP3     H128217   3.920   4.782   1.492 -1.1286 -1.5652  1.0329
 5466TP3     H228218   3.999   4.665   1.439  1.2252  0.5322 -0.1784
 5467TP3      O28219   3.299   4.287   2.204 -0.1420 -0.5887  0.1247
 5467TP3     H128220   3.380   4.268   2.251 -1.1860 -0.5147  2.0385
 5467TP3     H228221   3.316   4.261   2.114  3.0491  2.2717 -0.1867
 5468TP3      O28222   1.632   4.401   1.012 -0.7825 -0.2880  0.6737
 5468TP3     H128223   1.690   4.477   1.017 -1.5282  0.5339 -2.1515
 5468TP3     H228224   1.691   4.326   1.006 -0.0250  0.3303  0.3129
 5469TP3      O28225   4.567   4.154   1.087 -0.1472 -0.4512  0.2748
 5469TP3     H128226   4.505   4.102   1.036 -0.7806  0.6358 -0.0599
 5469TP3     H228227   4.573   4.237   1.041  1.1514 -0.3426  0.6045
 5470TP3      O28228   2.352   0.103   2.005 -0.0238  0.0999  0.1530
 5470TP3     H128229   2.441   0.128   1.981 -0.3290 -0.0587 -1.2276
 5470TP3     H228230   2.300   0.182   1.990 -0.3698 -0.2605 -0.6073
 5471TP3      O28231   1.676   1.111   0.880  0.5453 -0.5304 -0.3830
 5471TP3     H128232   1.595   1.153   0.910 -1.1241 -3.6011 -0.3359
 5471TP3     H228233   1.740   1.133   0.947  0.0131  2.6585 -0.8491
 5472TP3      O28234   3.937   4.620   2.236 -0.2060  0.6387 -0.4604
 5472TP3     H128235   4.006   4.618   2.169 -1.1387  0.5275 -1.4405
 5472TP3     H228236   3.885   4.697   2.213  0.6191  1.7457  1.3354
 5473TP3      O28237   4.672   5.140   1.743 -0.0103 -0.8357  0.0840
 5473TP3     H128238   4.620   5.073   1.787 -1.1172  0.1841  0.3477
 5473TP3     H228239   4.652   5.129   1.650 -0.4893 -0.6230  0.1621
 5474TP3      O28240   3.727   5.147   2.797  0.0296  1.0046 -1.0037
 5474TP3     H128241   3.658   5.195   2.752  0.7791  2.3324 -0.7656
 5474TP3     H228242   3.737   5.193   2.881 -1.0279 -1.1435  0.3237
 5475TP3      O28243   2.512   1.529  10.299  0.0172  0.4969  0.3728
 5475TP3     H128244   2.524   1.457  10.361 -0.3747  0.6196  0.5892
 5475TP3     H228245   2.570   1.598  10.331  1.8991 -0.4159 -0.9333
 5476TP3      O28246   2.464   4.851   2.387  0.2129 -0.3050  0.1622
 5476TP3     H128247   2.491   4.776   2.439 -0.6173  0.4886  1.7892
 5476TP3     H228248   2.403   4.899   2.444 -0.2805  0.8905 -1.3314
 5477TP3      O28249   2.644   1.105  10.254 -0.0299 -0.8693 -0.3581
 5477TP3     H128250   2.591   1.149  10.188 -0.0640 -1.2281 -0.5705
 5477TP3     H228251   2.734   1.110  10.220  0.7046  3.2712  1.8681
 5478TP3      O28252   2.108   0.205   1.476  0.5499  0.3920 -0.1028
 5478TP3     H128253   2.183   0.216   1.417  0.1046 -2.5911 -1.3348
 5478TP3     H228254   2.103   0.110   1.491 -3.2514  0.4712 -0.4288
 5479TP3      O28255   1.825   4.086   2.023  0.3689 -0.2697  0.4206
 5479TP3     H128256   1.890   4.018   2.035  0.3053 -0.2182  1.0540
 5479TP3     H228257   1.759   4.069   2.090  2.1260  2.5226  3.0463
 5480TP3      O28258   3.163   4.104   0.987  0.3109  0.5181  1.0062
 5480TP3     H128259   3.207   4.020   0.971  1.1103  1.2030 -0.5298
 5480TP3     H228260   3.125   4.095   1.075 -1.0855 -2.0780  0.2117
 5481TP3      O28261   2.470   4.241   3.290  0.2194 -0.6454 -0.4454
 5481TP3     H128262   2.548   4.281   3.251  0.3455 -0.0472  0.3963
 5481TP3     H228263   2.400   4.261   3.228  0.6652 -0.8810 -1.0308
 5482TP3      O28264   3.613   2.534   0.832  0.1849  0.5328  0.3819
 5482TP3     H128265   3.550   2.570   0.895  0.5424  0.9102  0.5284
 5482TP3     H228266   3.592   2.576   0.749  0.2316  0.6466  0.4274
 5483TP3      O28267   2.651   4.756   3.476  0.1058 -0.0340 -0.2006
 5483TP3     H128268   2.665   4.662   3.465 -1.4473 -0.2507 -0.4810
 5483TP3     H228269   2.734   4.789   3.510  0.7702 -1.4527 -0.4098
 5484TP3      O28270   0.260   3.463   2.442 -0.1237  0.0500  0.1201
 5484TP3     H128271   0.196   3.401   2.477 -0.3591  1.2591  1.8697
 5484TP3     H228272   0.295   3.419   2.364 -0.4877 -2.1634  1.1584
 5485TP3      O28273   3.460   4.287   1.256 -0.2235  0.1232  0.1783
 5485TP3     H128274   3.550   4.273   1.224 -1.0654 -1.8485 -1.4649
 5485TP3     H228275   3.412   4.316   1.178 -1.1689  0.4924  0.8931
 5486TP3      O28276   3.023   4.863   3.227  0.2974  0.0841  0.2643
 5486TP3     H128277   2.991   4.845   3.139  0.9738  0.0596  0.0262
 5486TP3     H228278   3.079   4.789   3.249  2.0135  1.2210 -0.2084
 5487TP3      O28279   4.139   4.481   2.035  0.0690 -0.0499  0.1523
 5487TP3     H128280   4.161   4.537   1.961 -2.7566 -2.0338 -2.2912
 5487TP3     H228281   4.174   4.395   2.011  1.6871 -0.0878  2.4862
 5488TP3      O28282   5.061   3.457   1.344  0.1074  0.3225 -0.1776
 5488TP3     H128283   5.073   3.416   1.429  0.9716  0.6102 -0.1598
 5488TP3     H228284   4.966   3.456   1.330  0.1246 -1.9490 -0.3089
 5489TP3      O28285   2.515   5.293   3.064 -0.0507 -0.2180 -0.8558
 5489TP3     H128286   2.544   5.216   3.016  3.3015  0.1574  0.4353
 5489TP3     H228287   2.485   5.259   3.149 -1.3620 -0.3929 -1.3890
 5490TP3      O28288   2.431   3.956   3.245  0.1090 -0.4709  0.2418
 5490TP3     H128289   2.522   3.931   3.257  0.1915  0.5158  1.8805
 5490TP3     H228290   2.429   4.050   3.261 -1.2395 -0.5165  0.4571
 5491TP3      O28291   3.184   0.536   2.642  0.0837  0.3382 -0.5550
 5491TP3     H128292   3.231   0.473   2.588 -2.3583 -1.5741 -0.5040
 5491TP3     H228293   3.230   0.535   2.726  0.6353 -0.6438 -0.8676
 5492TP3      O28294   2.648   4.473   3.480 -0.2829 -0.3081 -0.3505
 5492TP3     H128295   2.644   4.436   3.392 -0.0671 -0.1169 -0.4391
 5492TP3     H228296   2.590   4.416   3.532  0.5440 -1.1583 -0.3481
 5493TP3      O28297   4.685   5.381   2.603  0.2027  0.2969  0.3976
 5493TP3     H128298   4.605   5.428   2.627 -0.3620 -0.3734 -0.1425
 5493TP3     H228299   4.720   5.429   2.528 -0.9718 -0.7704 -0.8582
 5494TP3      O28300   4.457   4.444   1.778 -0.7762  0.7704 -0.2783
 5494TP3     H128301   4.489   4.359   1.748 -0.6056  0.5640  0.4730
 5494TP3     H228302   4.509   4.508   1.731  0.1807  0.4427  0.3205
 5495TP3      O28303   2.367   5.467   1.285 -0.2411  0.1481 -0.0572
 5495TP3     H128304   2.298   5.517   1.243  0.8431  1.0431 -0.7867
 5495TP3     H228305   2.321   5.411   1.348 -1.7342 -0.1795 -1.4087
 5496TP3      O28306   3.542   5.335   2.695 -0.5121  0.5810  0.4038
 5496TP3     H128307   3.566   5.386   2.618  0.2467 -0.1923  0.1274
 5496TP3     H228308   3.536   5.400   2.765 -0.3529  1.1632 -0.1182
 5497TP3      O28309   4.852   3.208   9.884  0.0765 -0.3005 -0.0555
 5497TP3     H128310   4.909   3.133   9.898  2.5399  1.4783 -0.0842
 5497TP3     H228311   4.885   3.248   9.804 -0.1689  1.6765  0.7953
 5498TP3      O28312   2.569   0.427   2.354 -0.1973  0.4278  0.0524
 5498TP3     H128313   2.592   0.397   2.442 -0.7177 -2.6221 -0.8071
 5498TP3     H228314   2.653   0.447   2.313  0.1633  0.2096  0.6690
 5499TP3      O28315   1.988   0.573   2.396  0.5860  0.1360  0.7070
 5499TP3     H128316   1.942   0.513   2.455  1.0899 -0.8938  0.0514
 5499TP3     H228317   1.918   0.622   2.353  0.1258 -0.9913  0.1702
 5500TP3      O28318   3.555   0.565   2.476 -0.0437  0.3976 -0.2028
 5500TP3     H128319   3.589   0.581   2.564  1.8900  2.2601 -1.2468
 5500TP3     H228320   3.620   0.603   2.418 -1.0941 -1.1645 -2.4814
 5501TP3      O28321   3.593   5.520   2.902 -0.7385  0.3416  0.6196
 5501TP3     H128322   3.644   5.439   2.912 -0.5582  0.3370 -0.2951
 5501TP3     H228323   3.630   5.580   2.968 -0.3532 -0.0570  0.7686
 5502TP3      O28324   4.674   1.908   1.003 -0.2012  0.3742 -0.3319
 5502TP3     H128325   4.619   1.870   0.935 -0.1842  1.4994 -0.9762
 5502TP3     H228326   4.619   1.975   1.045 -0.6997 -1.2300  1.6932
 5503TP3      O28327   3.234   3.665   0.118 -0.0565 -0.0610 -0.3530
 5503TP3     H128328   3.240   3.649   0.212 -0.5288 -1.0565 -0.4897
 5503TP3     H228329   3.214   3.759   0.111  0.0676  0.0394  0.5242
 5504TP3      O28330   3.888   4.108   1.831  0.1708  0.2046 -0.4958
 5504TP3     H128331   3.875   4.049   1.904  0.3780  1.0814  0.2635
 5504TP3     H228332   3.980   4.136   1.838 -0.5146  2.3255  0.4744
 5505TP3      O28333   3.965   4.797   2.808  0.3888 -0.1555  0.2505
 5505TP3     H128334   3.888   4.743   2.826  0.6279 -0.2290  1.0803
 5505TP3     H228335   3.939   4.851   2.733 -1.2374  1.2867  1.7981
 5506TP3      O28336   0.171   2.362   0.652 -0.4088  0.3590 -0.1278
 5506TP3     H128337   0.195   2.283   0.699 -2.5419 -0.7723 -0.8547
 5506TP3     H228338   0.252   2.412   0.645  0.8214 -1.4487  0.9271
 5507TP3      O28339   3.792   0.700   1.633  0.0607  0.1727  0.0279
 5507TP3     H128340   3.703   0.693   1.598  0.3664 -0.0188 -0.7256
 5507TP3     H228341   3.798   0.630   1.698  0.1792 -0.8648 -1.0765
 5508TP3      O28342   3.730   4.780   1.163 -0.5094 -0.4501  0.1419
 5508TP3     H128343   3.738   4.875   1.155  1.5629 -0.6381 -0.1555
 5508TP3     H228344   3.731   4.764   1.258  1.1676 -0.3219  0.1600
 5509TP3      O28345   5.360   2.691   1.011  0.6951 -0.2571 -0.9212
 5509TP3     H128346   5.374   2.753   1.082 -0.6670  0.2974 -1.1242
 5509TP3     H228347   5.441   2.694   0.960  0.9932  0.6530 -0.3959
 5510TP3      O28348   3.222   0.015   2.489 -0.0666  0.1238  0.5440
 5510TP3     H128349   3.281  -0.035   2.433 -1.3519 -0.1619 -0.5809
 5510TP3     H228350   3.134  -0.015   2.465 -0.6515  0.1267  2.5879
 5511TP3      O28351   4.423   5.511   0.914 -0.3389 -0.2935 -0.1128
 5511TP3     H128352   4.404   5.480   0.825 -1.2816 -1.2001  0.3869
 5511TP3     H228353   4.471   5.439   0.954  0.4544  0.2891 -0.0178
 5512TP3      O28354   3.263   0.255   1.165  0.1299  0.4486 -0.1954
 5512TP3     H128355   3.237   0.316   1.096 -0.7564  0.2576 -0.0416
 5512TP3     H228356   3.187   0.251   1.223 -0.0903 -1.3400 -0.5803
 5513TP3      O28357   4.795   4.593   9.875  0.5923  0.1617 -0.2437
 5513TP3     H128358   4.866   4.654   9.857  1.0319 -0.8327 -2.0336
 5513TP3     H228359   4.839   4.511   9.899  0.0094  0.7084  2.9058
 5514TP3      O28360   4.090   1.852   0.947  0.1550  0.0802 -0.0671
 5514TP3     H128361   4.097   1.943   0.917 -0.7071  0.0081 -0.4959
 5514TP3     H228362   4.057   1.859   1.037  0.4619  0.2074  0.0351
 5515TP3      O28363   3.590   4.446   2.820  0.1106 -0.1206  0.2949
 5515TP3     H128364   3.503   4.484   2.807  0.3430  0.5277  0.6140
 5515TP3     H228365   3.582   4.394   2.900  0.2843  0.7450  0.8737
 5516TP3      O28366   0.930   3.320   3.058  0.0329  1.2005 -0.5963
 5516TP3     H128367   0.877   3.398   3.073 -1.3649  0.1105  0.2887
 5516TP3     H228368   0.997   3.323   3.126 -1.1515  0.6767  0.6160
 5517TP3      O28369   3.495   3.925   2.945 -0.1968 -0.1893  0.7009
 5517TP3     H128370   3.480   3.962   3.032  0.6350 -1.0293  1.2239
 5517TP3     H228371   3.552   3.988   2.902 -0.8841  0.3935  0.6459
 5518TP3      O28372   2.090   3.300   1.458  0.3251  0.2913 -0.0243
 5518TP3     H128373   2.027   3.256   1.401  1.0468  0.8636 -1.2779
 5518TP3     H228374   2.160   3.329   1.399  1.1517  0.7694  1.1705
 5519TP3      O28375   2.960   4.455   1.856 -0.3984  0.1134  0.3890
 5519TP3     H128376   3.016   4.388   1.897  0.0129 -0.3397 -0.8734
 5519TP3     H228377   2.891   4.405   1.813  0.4422  0.4327 -1.3583
 5520TP3      O28378   3.118   4.646   2.729  0.1053  0.0355 -0.0146
 5520TP3     H128379   3.038   4.661   2.779  0.0998 -2.2134  0.7256
 5520TP3     H228380   3.091   4.656   2.637 -0.2672  2.4633  0.3231
 5521TP3      O28381   5.512   4.520   2.009  0.0155 -0.3013 -0.0703
 5521TP3     H128382   5.536   4.542   1.919 -0.3219  0.3123 -0.0192
 5521TP3     H228383   5.587   4.473   2.044  0.3741 -0.0476 -0.4969
 5522TP3      O28384   2.872   4.375   0.273  0.1316  1.1073  0.3850
 5522TP3     H128385   2.933   4.399   0.343  0.3956  1.2053  0.1262
 5522TP3     H228386   2.919   4.399   0.193  0.7097 -0.9496  0.0874
 5523TP3      O28387   2.151   3.672   1.942 -0.6196  0.4066 -0.1058
 5523TP3     H128388   2.211   3.656   1.869 -1.2392  0.2494 -0.5846
 5523TP3     H228389   2.186   3.618   2.013  0.4782  1.2150 -0.0084
 5524TP3      O28390   0.892   4.086   3.120 -0.1524 -0.1598  0.9494
 5524TP3     H128391   0.929   4.037   3.192  0.6660  0.5610  1.0240
 5524TP3     H228392   0.949   4.067   3.046 -0.2537  0.1104  0.8009
 5525TP3      O28393   1.594   5.287   1.920 -0.5937  0.4156 -0.1138
 5525TP3     H128394   1.576   5.228   1.993 -1.2004  0.6765 -0.0583
 5525TP3     H228395   1.576   5.234   1.842 -2.6556  1.0082 -0.0555
 5526TP3      O28396   1.713   2.169   1.924  0.2202 -0.6609 -0.3483
 5526TP3     H128397   1.713   2.112   2.001  0.0789 -0.4970 -0.2282
 5526TP3     H228398   1.796   2.216   1.929 -0.5360  0.5821  0.6087
 5527TP3      O28399   4.337   5.311   3.127 -0.4322  0.0723 -0.5775
 5527TP3     H128400   4.368   5.246   3.189 -1.5488  0.7892  0.7603
 5527TP3     H228401   4.385   5.391   3.150 -0.9868  0.3890 -0.5122
 5528TP3      O28402   5.380   2.981   0.660 -0.1127 -0.2486 -0.5404
 5528TP3     H128403   5.455   2.925   0.680  0.2544  0.3979 -0.0930
 5528TP3     H228404   5.310   2.946   0.715  0.3444  0.2442  0.3790
 5529TP3      O28405   2.400   0.851   2.389 -0.6400 -0.0559  0.0523
 5529TP3     H128406   2.321   0.904   2.378 -1.0413 -0.8017 -0.8144
 5529TP3     H228407   2.379   0.792   2.462 -0.4266  0.5681  0.6140
 5530TP3      O28408   3.493   3.401   1.855 -0.5955 -0.0475  0.8949
 5530TP3     H128409   3.486   3.326   1.796 -0.4718 -0.4610  1.3976
 5530TP3     H228410   3.428   3.463   1.823 -0.0267  0.0424 -0.1133
 5531TP3      O28411   1.463   5.397   2.681  0.6701 -0.0186  0.1908
 5531TP3     H128412   1.388   5.400   2.622  0.1033  0.5375  0.9347
 5531TP3     H228413   1.533   5.358   2.629  0.1212  0.2961 -0.7821
 5532TP3      O28414   1.731   0.634   0.621  0.0076  0.6921 -0.3659
 5532TP3     H128415   1.674   0.573   0.668  1.1508 -0.5942 -0.6328
 5532TP3     H228416   1.790   0.578   0.571  1.3183  2.0188 -0.3268
 5533TP3      O28417   2.767   4.608   1.980  0.1515 -0.3757  0.9389
 5533TP3     H128418   2.729   4.560   2.053  0.0315  0.4834  1.4421
 5533TP3     H228419   2.823   4.543   1.936 -0.7548 -1.2442  1.0363
 5534TP3      O28420   3.449   4.880   0.798 -0.3363 -0.0093  0.4602
 5534TP3     H128421   3.421   4.797   0.761  2.9745 -0.9422 -0.1612
 5534TP3     H228422   3.416   4.946   0.738 -1.1901 -1.0296 -0.2062
 5535TP3      O28423   4.710   3.038   1.155 -0.0002 -0.9408 -0.1820
 5535TP3     H128424   4.633   3.054   1.100  0.2938  0.8948 -0.1074
 5535TP3     H228425   4.684   3.070   1.241  0.8675 -0.2371 -0.1753
 5536TP3      O28426   2.388   3.677   1.762  0.0210 -0.3412  0.1600
 5536TP3     H128427   2.457   3.652   1.700 -0.3468  0.9671 -0.8111
 5536TP3     H228428   2.436   3.708   1.839  0.6227  2.5249 -1.2833
 5537TP3      O28429   0.615   0.267   9.825  0.1699  0.4770  0.7451
 5537TP3     H128430   0.556   0.226   9.888  0.4443  1.7441  1.8648
 5537TP3     H228431   0.580   0.355   9.814  0.3619  0.3927 -0.5882
 5538TP3      O28432   1.765   1.704   2.668 -0.3271 -0.4825 -0.2770
 5538TP3     H128433   1.851   1.737   2.694 -0.5303 -0.8681  0.9150
 5538TP3     H228434   1.710   1.782   2.663 -0.2671 -0.3884  0.4189
 5539TP3      O28435   3.803   3.234   0.716 -0.3288  0.4480 -0.1570
 5539TP3     H128436   3.875   3.282   0.676 -0.8277  0.9542 -0.4604
 5539TP3     H228437   3.843   3.186   0.789  0.4303  0.1947 -0.7330
 5540TP3      O28438   2.973   4.392  10.261  0.2909 -0.4130 -0.7893
 5540TP3     H128439   2.977   4.412  10.167  1.1507  2.0326 -0.2476
 5540TP3     H228440   3.062   4.361  10.282  0.5405  0.5307 -0.4544
 5541TP3      O28441   2.742   0.118   1.152 -0.1696  0.5123  0.0382
 5541TP3     H128442   2.821   0.121   1.206  0.1180  0.5623 -0.3880
 5541TP3     H228443   2.772   0.134   1.063 -0.8983  2.5850  0.1314
 5542TP3      O28444   2.918   4.089   0.865  0.2985  0.1068 -0.2331
 5542TP3     H128445   3.006   4.101   0.903 -0.9497  0.1365  2.7665
 5542TP3     H228446   2.880   4.176   0.864 -0.6927 -0.2868  1.0854
 5543TP3      O28447   2.866   3.314   0.978 -0.1190  0.1778  0.6658
 5543TP3     H128448   2.824   3.287   0.897 -1.1525 -1.3807  1.6984
 5543TP3     H228449   2.960   3.318   0.957 -0.1889 -2.0236 -0.1053
 5544TP3      O28450   4.528   1.770   3.115  0.0865 -0.1028 -0.7378
 5544TP3     H128451   4.468   1.754   3.188  0.3229 -0.5971 -0.6498
 5544TP3     H228452   4.537   1.865   3.111 -1.6594  0.0517 -1.5180
 5545TP3      O28453   1.705   0.747   2.650  0.1439  0.0992 -0.4264
 5545TP3     H128454   1.634   0.683   2.642  0.7510 -0.6739  0.2153
 5545TP3     H228455   1.692   0.787   2.735  0.9724 -0.6676  0.0710
 5546TP3      O28456   3.348   3.336   1.620 -0.1936  0.2397  0.4073
 5546TP3     H128457   3.350   3.430   1.604 -0.5785  0.3647  1.0759
 5546TP3     H228458   3.402   3.298   1.550  0.5103  1.0105  0.5333
 5547TP3      O28459   3.122   4.944   1.519 -0.1804  0.4326 -0.3263
 5547TP3     H128460   3.163   5.030   1.521  0.6276  0.0860 -1.1671
 5547TP3     H228461   3.152   4.902   1.600  3.7197 -0.9253 -2.3206
 5548TP3      O28462   1.971   3.842   2.042 -0.6958  0.1074 -0.0195
 5548TP3     H128463   2.037   3.776   2.022  1.1147  1.6233  0.8448
 5548TP3     H228464   1.891   3.792   2.058  0.3967 -1.7974 -0.4241
 5549TP3      O28465   4.784   4.294   2.424 -0.1305  0.5586  0.3573
 5549TP3     H128466   4.879   4.294   2.428 -0.1962  0.2610  3.5715
 5549TP3     H228467   4.760   4.387   2.425  0.1188  0.6378  2.5561
 5550TP3      O28468   0.066   2.915   1.849 -0.2304  0.0666 -0.8132
 5550TP3     H128469   0.013   2.895   1.926  1.6964 -0.4580  0.4220
 5550TP3     H228470   0.143   2.961   1.884  0.6749 -0.1742 -2.4187
 5551TP3      O28471   4.916   4.964   3.386 -0.0083 -0.8207 -0.1301
 5551TP3     H128472   4.912   5.054   3.354  1.4144  0.2324  2.5482
 5551TP3     H228473   4.993   4.926   3.342  1.2075  0.2261  1.0796
 5552TP3      O28474   3.711   5.360   0.173 -0.1191 -0.0313 -0.1132
 5552TP3     H128475   3.685   5.452   0.164 -2.0990 -0.5986 -0.4967
 5552TP3     H228476   3.722   5.329   0.083 -0.5181 -0.4523 -0.0215
 5553TP3      O28477   4.177   4.886   1.649 -0.2370  0.1631 -0.9183
 5553TP3     H128478   4.186   4.956   1.584  0.8002 -0.1766 -1.1522
 5553TP3     H228479   4.127   4.818   1.603  0.7099 -0.1798 -1.4537
 5554TP3      O28480   4.750   3.091   2.821  0.1801 -0.2758 -0.8860
 5554TP3     H128481   4.718   3.167   2.869  1.0273 -0.1008 -0.5861
 5554TP3     H228482   4.809   3.126   2.756  1.7633 -0.7752  0.2471
 5555TP3      O28483   3.454   4.890   2.097 -0.1567  0.0230 -0.1853
 5555TP3     H128484   3.429   4.924   2.011  0.7414  0.5070 -0.2655
 5555TP3     H228485   3.510   4.814   2.077 -1.1213 -0.7411 -0.0145
 5556TP3      O28486   3.718   4.263   1.699  0.3780 -0.0099  0.2561
 5556TP3     H128487   3.781   4.210   1.748 -1.1913 -0.5151  1.7690
 5556TP3     H228488   3.732   4.353   1.731 -0.6881 -0.3478  1.7159
 5557TP3      O28489   4.154   3.576   2.374  0.0654 -0.4865  0.3837
 5557TP3     H128490   4.186   3.491   2.403  1.1065 -0.1766  0.1741
 5557TP3     H228491   4.206   3.596   2.296 -0.3736  0.2081  0.2599
 5558TP3      O28492   1.530   1.043   2.054  0.2359 -0.7251  0.0893
 5558TP3     H128493   1.527   1.137   2.072 -2.0626 -0.4355 -1.6568
 5558TP3     H228494   1.580   1.035   1.973 -0.5836 -0.8832 -0.4104
 5559TP3      O28495   4.586   3.321   1.618 -0.3143  0.6099 -0.6619
 5559TP3     H128496   4.561   3.260   1.549 -0.9174 -1.0475  0.9800
 5559TP3     H228497   4.503   3.361   1.646 -0.3680 -0.3485  0.5830
 5560TP3      O28498   3.207   1.545   2.595  0.3044  0.3620 -0.2739
 5560TP3     H128499   3.158   1.545   2.512 -0.1057 -0.5818 -0.0378
 5560TP3     H228500   3.163   1.480   2.649  3.6756 -2.8490 -1.1654
 5561TP3      O28501   4.502   4.250   0.804  0.0088  0.0969  0.4269
 5561TP3     H128502   4.444   4.175   0.819  0.4614  0.2802  3.1843
 5561TP3     H228503   4.587   4.211   0.783 -0.3045 -0.1543 -0.4047
 5562TP3      O28504   3.176   1.664   0.397  0.7836  0.2659 -0.3170
 5562TP3     H128505   3.262   1.625   0.384  0.7579  0.0764  0.0677
 5562TP3     H228506   3.115   1.591   0.391  0.6518  0.3997 -0.5827
 5563TP3      O28507   5.225   3.720   2.660 -0.1018 -0.0443 -0.0768
 5563TP3     H128508   5.282   3.675   2.724  1.8526 -0.1162 -1.8101
 5563TP3     H228509   5.205   3.653   2.595 -2.3190 -0.0408  0.5560
 5564TP3      O28510   1.963   3.826   1.307 -0.0023 -0.0791 -0.4235
 5564TP3     H128511   2.037   3.887   1.315 -1.0144  1.1968 -0.7122
 5564TP3     H228512   2.004   3.740   1.299  1.4385  0.4994  0.5319
 5565TP3      O28513   4.061   0.648   2.397  0.6209  0.6032 -0.2062
 5565TP3     H128514   4.134   0.683   2.448  1.1915 -0.6789 -0.1119
 5565TP3     H228515   3.986   0.702   2.421  1.4932  1.8121 -0.1509
 5566TP3      O28516   3.193   1.048  10.248 -0.4872  0.2411 -0.6168
 5566TP3     H128517   3.188   1.026  10.341 -1.2157  0.4057 -0.6131
 5566TP3     H228518   3.184   1.144  10.245 -0.1197  0.2694 -0.8285
 5567TP3      O28519   3.341   5.012   9.795 -0.1590 -0.5756 -0.3660
 5567TP3     H128520   3.319   4.988   9.885  2.1127 -0.1042  0.3342
 5567TP3     H228521   3.326   4.932   9.744 -1.2109 -0.9063  0.4533
 5568TP3      O28522   4.026   4.142   2.679 -0.1235 -0.5918 -0.4755
 5568TP3     H128523   3.956   4.146   2.614  0.0845 -0.2062 -0.6759
 5568TP3     H228524   3.998   4.201   2.749 -0.9586 -1.9818  0.3933
 5569TP3      O28525   5.032   2.256   1.912  0.2292 -0.1121  0.2017
 5569TP3     H128526   4.963   2.245   1.846  0.5035 -0.0311 -0.0985
 5569TP3     H228527   5.074   2.170   1.919  0.1523 -0.1402  0.3274
 5570TP3      O28528   3.262   4.962  10.044 -0.0945 -0.6470 -0.1995
 5570TP3     H128529   3.190   5.023  10.031  0.3158 -0.0137  0.4131
 5570TP3     H228530   3.281   4.967  10.138  0.9545 -0.5531 -0.4042
 5571TP3      O28531   5.191   0.172   2.192  0.1539 -0.2411  0.3353
 5571TP3     H128532   5.213   0.093   2.241 -1.0199 -0.0560  1.1964
 5571TP3     H228533   5.233   0.160   2.107 -0.5477 -2.0848  0.2249
 5572TP3      O28534   4.353   0.727   1.704  0.0444  0.0571 -0.1493
 5572TP3     H128535   4.275   0.704   1.755  1.0693  1.2342  2.0347
 5572TP3     H228536   4.425   0.685   1.751  0.8088 -0.4697 -1.7724
 5573TP3      O28537   3.399   3.467   0.689 -0.2591 -0.0179 -0.0162
 5573TP3     H128538   3.454   3.519   0.631 -0.0122 -0.1799  0.0674
 5573TP3     H228539   3.328   3.526   0.715 -0.7988 -0.1847 -1.0833
 5574TP3      O28540   4.001   4.269   2.156 -0.3505  0.8089  0.1058
 5574TP3     H128541   4.019   4.345   2.212 -0.3638  0.5691  0.4391
 5574TP3     H228542   4.080   4.260   2.103 -0.2050  0.8395  0.3160
 5575TP3      O28543   5.163   4.114   0.462 -0.2318 -0.4978  0.2088
 5575TP3     H128544   5.202   4.057   0.528 -0.3886 -1.6358 -0.6749
 5575TP3     H228545   5.232   4.178   0.443 -0.0361 -0.4184  1.1598
 5576TP3      O28546   1.455   3.029   2.747  0.0730 -0.6175  0.0932
 5576TP3     H128547   1.430   2.971   2.819  0.6317 -1.0004 -0.0194
 5576TP3     H228548   1.376   3.035   2.693 -0.3484 -0.3349  0.7266
 5577TP3      O28549   1.191   5.241   1.750  0.3834 -0.7704  0.6756
 5577TP3     H128550   1.207   5.296   1.827 -2.7439  1.5361 -0.2359
 5577TP3     H228551   1.275   5.199   1.732  2.2955  2.0914  2.6682
 5578TP3      O28552   5.296   0.855   2.489 -0.0817 -0.8444 -0.3972
 5578TP3     H128553   5.277   0.761   2.484 -0.7241 -0.7768  0.5539
 5578TP3     H228554   5.211   0.895   2.507  0.2484 -0.1086 -0.4600
 5579TP3      O28555   0.246   5.493   0.969  0.6917  0.1748 -0.4702
 5579TP3     H128556   0.334   5.513   1.000  0.5680 -1.0503  0.7081
 5579TP3     H228557   0.259   5.444   0.887  1.1399 -0.8022  0.1744
 5580TP3      O28558   4.347   4.254   2.429 -0.4784 -0.1998  0.5973
 5580TP3     H128559   4.275   4.295   2.382 -1.1609 -0.6817  1.2162
 5580TP3     H228560   4.310   4.174   2.466  0.4387 -0.5877  0.7031
 5581TP3      O28561   5.281   3.821   2.000 -0.3002  0.1249  0.0120
 5581TP3     H128562   5.209   3.836   2.062  1.1808 -1.0610  2.0587
 5581TP3     H228563   5.253   3.745   1.949 -1.4504  1.0078 -0.7215
 5582TP3      O28564   0.755   3.771   0.315  0.0383  0.4141  0.1267
 5582TP3     H128565   0.747   3.730   0.229  0.1047  0.0826  0.2770
 5582TP3     H228566   0.849   3.779   0.329  0.0635 -1.0980  0.9014
 5583TP3      O28567   4.808   4.008   2.710  0.4678 -0.7621  0.3032
 5583TP3     H128568   4.762   3.976   2.787 -0.0528 -0.9900 -0.0980
 5583TP3     H228569   4.742   4.058   2.661  0.4386 -1.6958 -0.6431
 5584TP3      O28570   3.089   0.701   1.810 -0.1060  0.3887  0.1733
 5584TP3     H128571   3.184   0.694   1.799 -0.3408 -3.2296 -0.2742
 5584TP3     H228572   3.056   0.701   1.720 -0.6561 -1.9091  0.3401
 5585TP3      O28573   3.138   3.080   1.330  0.0301 -1.1962 -0.0694
 5585TP3     H128574   3.058   3.034   1.303 -0.0851 -0.9010 -0.2349
 5585TP3     H228575   3.176   3.024   1.398 -1.5386 -0.1725  1.6847
 5586TP3      O28576   4.673   4.726   0.505  0.1363 -0.2248  1.5113
 5586TP3     H128577   4.616   4.651   0.519 -0.8459  0.6501  2.1776
 5586TP3     H228578   4.618   4.791   0.461  1.6880 -0.8783 -1.5776
 5587TP3      O28579   3.335   4.579  10.103  1.0524 -0.1949 -0.1213
 5587TP3     H128580   3.294   4.517  10.163  1.0899  0.4339  0.5533
 5587TP3     H228581   3.379   4.643  10.159  0.5479  0.7688 -0.7926
 5588TP3      O28582   4.998   4.932   2.986 -0.2754 -0.5158  0.4138
 5588TP3     H128583   5.044   4.933   3.070 -0.2187 -0.8845  0.3859
 5588TP3     H228584   4.931   4.864   2.996 -0.4396 -0.3787  0.2529
 5589TP3      O28585   4.885   4.667   2.733  0.3786  0.1285  0.3328
 5589TP3     H128586   4.954   4.733   2.727 -0.2345  0.6847 -0.7910
 5589TP3     H228587   4.925   4.594   2.780  1.3009  0.9983  0.9007
 5590TP3      O28588   0.894   0.308   0.965  0.5817  0.4402  0.4128
 5590TP3     H128589   0.809   0.277   0.998  0.4148  0.2551 -0.1697
 5590TP3     H228590   0.873   0.345   0.879  0.8063  2.0107  1.0146
 5591TP3      O28591   5.284   2.518   1.243 -0.2397  0.0556 -0.7582
 5591TP3     H128592   5.319   2.554   1.162  0.5128 -0.2421 -0.5746
 5591TP3     H228593   5.244   2.435   1.218 -0.6923  0.3317 -0.9481
 5592TP3      O28594   3.139   5.361   1.362  0.2524 -0.0024 -0.5371
 5592TP3     H128595   3.225   5.395   1.386 -0.0855 -0.0278  0.7673
 5592TP3     H228596   3.115   5.303   1.435 -0.7941 -0.1246 -0.9660
 5593TP3      O28597   5.498   0.034   0.426  0.1607  0.0754 -0.0652
 5593TP3     H128598   5.539   0.110   0.467  1.1046  0.8352 -2.3495
 5593TP3     H228599   5.408   0.061   0.407  0.2842  0.3650 -0.2260
 5594TP3      O28600   0.032   5.132   2.659 -0.0344 -0.2459 -0.2305
 5594TP3     H128601  -0.016   5.059   2.698  1.3123 -0.2680  1.4676
 5594TP3     H228602   0.114   5.092   2.629  0.8884  0.6248  1.0879
 5595TP3      O28603   4.836   1.605   2.854  0.5600 -0.5819 -0.5752
 5595TP3     H128604   4.762   1.553   2.823 -0.1567  0.5204 -0.7578
 5595TP3     H228605   4.902   1.598   2.785  0.7660 -1.8298 -0.2661
 5596TP3      O28606   0.249   5.057   0.831 -0.5788 -0.8186 -0.0993
 5596TP3     H128607   0.194   4.999   0.779  0.7980 -1.6779 -0.6067
 5596TP3     H228608   0.205   5.142   0.826 -1.4212 -1.3081 -1.1719
 5597TP3      O28609   5.490   5.465   2.191 -0.3183  0.1520 -0.5768
 5597TP3     H128610   5.557   5.395   2.189 -1.5549 -1.0939  0.7447
 5597TP3     H228611   5.536   5.540   2.228  1.1891  0.2390 -2.5191
 5598TP3      O28612   2.952   4.605   1.429  0.3145  0.1287  0.6180
 5598TP3     H128613   2.876   4.552   1.406  0.7105  0.0256 -0.5228
 5598TP3     H228614   2.916   4.687   1.461 -0.2742  0.6490 -1.3130
 5599TP3      O28615   4.710   4.266   3.063 -0.4742 -0.2889 -0.2931
 5599TP3     H128616   4.781   4.202   3.074  0.6026  1.0097  0.4934
 5599TP3     H228617   4.660   4.259   3.144 -0.8005 -0.6794 -0.5304
 5600TP3      O28618   5.040   2.605   9.943 -0.2820  0.6810 -0.2390
 5600TP3     H128619   5.121   2.597   9.994  0.7896  1.0267 -1.8697
 5600TP3     H228620   5.006   2.691   9.966  0.5527  1.1112 -0.6062
 5601TP3      O28621   4.631   5.231   2.876 -0.9667 -0.3446 -0.0902
 5601TP3     H128622   4.624   5.177   2.797  1.6124 -0.2234 -0.4425
 5601TP3     H228623   4.648   5.169   2.946  0.3989 -0.1411 -0.2355
 5602TP3      O28624   5.479   3.632   2.133 -0.3417 -0.8679 -0.7426
 5602TP3     H128625   5.404   3.690   2.124 -1.2090 -1.7951  0.3288
 5602TP3     H228626   5.467   3.566   2.065  0.7011  0.2695 -2.0280
 5603TP3      O28627   3.015   1.865   0.250 -0.1675  0.1700 -0.0470
 5603TP3     H128628   3.065   1.824   0.320 -0.8928  1.9569  1.5389
 5603TP3     H228629   3.078   1.878   0.179  0.7830 -0.7598  0.6216
 5604TP3      O28630   0.513   3.510   0.771 -0.1709 -0.5163 -0.5844
 5604TP3     H128631   0.461   3.430   0.763 -0.3444 -0.5654  0.8825
 5604TP3     H228632   0.553   3.504   0.859 -0.8248  1.3845 -0.1386
 5605TP3      O28633   3.062   2.577   1.643 -0.1419  0.1769 -0.0876
 5605TP3     H128634   3.073   2.510   1.710 -0.8623 -1.0960 -1.2196
 5605TP3     H228635   3.125   2.555   1.576 -1.2791 -0.1500 -1.0699
 5606TP3      O28636   4.393   3.679   9.618  0.2696  0.2367  0.0569
 5606TP3     H128637   4.471   3.645   9.663  1.2316  0.8478 -1.1425
 5606TP3     H228638   4.320   3.648   9.672  1.3011 -0.8593  0.8610
 5607TP3      O28639   0.126   3.580   0.839 -0.3361 -0.6652  1.0144
 5607TP3     H128640   0.128   3.676   0.832  1.0760 -0.7848 -0.5221
 5607TP3     H228641   0.210   3.552   0.803 -0.7328 -2.4971  1.4834
 5608TP3      O28642   4.990   3.378   2.461  0.0832 -0.7479  0.2268
 5608TP3     H128643   4.978   3.467   2.428 -0.1350 -0.0105  2.2442
 5608TP3     H228644   4.907   3.357   2.505 -0.4290 -2.5203 -1.5183
 5609TP3      O28645   0.469   0.079   1.368  0.3036  0.0873 -0.1352
 5609TP3     H128646   0.561   0.089   1.343  0.2752 -0.0367 -0.2838
 5609TP3     H228647   0.455  -0.015   1.370  0.6872  0.0437  1.7125
 5610TP3      O28648   3.672   2.698   2.085  0.5288  0.1964 -0.3972
 5610TP3     H128649   3.692   2.742   2.168  0.5745  0.3979 -0.5150
 5610TP3     H228650   3.743   2.634   2.074  0.9425  0.6879 -0.6547
 5611TP3      O28651   3.840   1.184   1.001 -0.0060  0.1000 -0.1240
 5611TP3     H128652   3.848   1.192   1.096 -0.1310 -1.6349  0.0516
 5611TP3     H228653   3.746   1.172   0.986  0.1458 -0.8349 -0.3544
 5612TP3      O28654   4.065   4.454   1.470 -0.3419  0.0013 -0.5409
 5612TP3     H128655   4.088   4.363   1.447 -0.7622 -0.7381  1.8676
 5612TP3     H228656   4.130   4.507   1.424  0.7023 -1.6002 -0.9496
 5613TP3      O28657   3.444   1.977  10.211  0.4355  0.3530 -0.2112
 5613TP3     H128658   3.427   1.982  10.117 -1.2066  1.8074  0.1404
 5613TP3     H228659   3.505   2.049  10.227 -0.5250  1.1045  0.0903
 5614TP3      O28660   3.775   4.062   1.495  0.5486  0.0592 -0.4800
 5614TP3     H128661   3.761   4.129   1.562  1.0394 -0.1188 -0.1980
 5614TP3     H228662   3.689   4.050   1.456  0.4128  0.7090 -0.3955
 5615TP3      O28663   0.723   5.195   0.675  0.2751  0.0343 -0.2889
 5615TP3     H128664   0.647   5.179   0.620  0.8700 -0.5689 -0.9489
 5615TP3     H228665   0.792   5.141   0.637  0.5209 -0.8946  1.4610
 5616TP3      O28666   5.019   2.886   2.651 -0.3510  0.9434  0.4192
 5616TP3     H128667   5.067   2.806   2.671 -0.4169  0.7005 -0.3935
 5616TP3     H228668   4.929   2.857   2.636 -0.4686  1.2258  0.5794
 5617TP3      O28669   3.125   5.476   0.849 -0.1951  0.0540  0.1899
 5617TP3     H128670   3.185   5.454   0.920 -0.0542 -0.7291 -0.1590
 5617TP3     H228671   3.041   5.437   0.875 -0.5593  1.1659  0.6885
 5618TP3      O28672   0.073   3.250   2.058 -0.7112  0.3279 -0.3671
 5618TP3     H128673   0.006   3.247   1.990 -1.6736  1.5192  0.5215
 5618TP3     H228674   0.039   3.312   2.123  1.3623  1.1397 -0.0289
 5619TP3      O28675   2.437   2.608   1.905 -0.3536  0.6836 -0.2205
 5619TP3     H128676   2.491   2.547   1.954  0.2069  2.7912  1.8770
 5619TP3     H228677   2.499   2.664   1.859 -0.8190  0.9007 -0.5998
 5620TP3      O28678   4.684   0.368   2.726 -0.2740 -0.4129  0.2299
 5620TP3     H128679   4.612   0.390   2.785  0.2669 -1.9051  1.4769
 5620TP3     H228680   4.736   0.448   2.720 -0.1808 -0.3328  2.0229
 5621TP3      O28681   4.028   3.574   3.374  0.4749  0.1555  0.6088
 5621TP3     H128682   4.031   3.590   3.280  0.8735 -0.8976  0.4328
 5621TP3     H228683   4.115   3.540   3.396  0.1055 -0.4531  1.1904
 5622TP3      O28684   3.886   3.551   0.320 -0.1504 -0.0729 -0.2438
 5622TP3     H128685   3.951   3.621   0.317  0.0495 -0.2449  0.0581
 5622TP3     H228686   3.827   3.570   0.247 -0.5492  0.8574  0.3221
 5623TP3      O28687   3.369   2.702   2.009  0.1002  0.2760 -0.2441
 5623TP3     H128688   3.464   2.688   2.002  0.1787  1.1622 -0.9713
 5623TP3     H228689   3.353   2.784   1.962 -1.2047 -0.5081 -1.1774
 5624TP3      O28690   5.101   2.150   0.630 -0.1205  0.1543 -0.3105
 5624TP3     H128691   5.011   2.123   0.611  0.4872 -1.3032 -1.1925
 5624TP3     H228692   5.136   2.176   0.545  0.2499  0.8609  0.0581
 5625TP3      O28693   4.467   5.509   2.650 -0.1803 -0.0405 -0.2100
 5625TP3     H128694   4.431   5.454   2.720  1.6554  2.1666  2.5703
 5625TP3     H228695   4.393   5.564   2.623 -1.7836 -3.0430 -2.3790
 5626TP3      O28696   1.666   3.212   2.687 -0.5123 -0.4746 -0.7840
 5626TP3     H128697   1.712   3.213   2.771  2.6377 -4.5404 -2.3102
 5626TP3     H228698   1.602   3.141   2.695  0.7400 -1.7930 -2.2558
 5627TP3      O28699   4.661   4.805   2.613  0.2855 -0.3805 -0.2032
 5627TP3     H128700   4.656   4.891   2.653  1.0739  0.1839 -1.2958
 5627TP3     H228701   4.752   4.778   2.626  0.0631 -1.0006  0.0609
 5628TP3      O28702   0.719   1.957   0.306  0.0604  0.3603  0.4297
 5628TP3     H128703   0.762   2.006   0.236 -0.4875  0.4075  0.1288
 5628TP3     H228704   0.748   1.867   0.293  0.1449  0.4076  0.2837
 5629TP3      O28705   3.297   2.833   1.243  0.2054 -0.3042  0.3237
 5629TP3     H128706   3.254   2.878   1.171 -0.1449 -1.4361 -0.1905
 5629TP3     H228707   3.225   2.803   1.299  0.3923 -0.7793  0.3163
 5630TP3      O28708   1.221   5.393   1.204 -0.5705 -0.0655 -0.5054
 5630TP3     H128709   1.218   5.362   1.114 -0.0415  1.7391 -1.1617
 5630TP3     H228710   1.293   5.344   1.244 -0.8130 -0.8752 -1.0431
 5631TP3      O28711   4.641   0.615   2.393  0.3421 -0.5910 -0.5902
 5631TP3     H128712   4.728   0.578   2.410  1.4254  2.1763  0.2447
 5631TP3     H228713   4.609   0.567   2.317  2.5697 -1.7452 -0.8543
 5632TP3      O28714   4.952   3.957   1.849 -0.3703  0.5490  0.2377
 5632TP3     H128715   4.875   3.983   1.798 -0.9008 -0.6341  0.4228
 5632TP3     H228716   4.933   3.987   1.938  0.3672  2.2295 -0.1542
 5633TP3      O28717   3.952   0.349   2.456  0.2552  0.6588  0.3612
 5633TP3     H128718   3.974   0.435   2.418  0.6464 -0.3696 -1.8037
 5633TP3     H228719   3.988   0.286   2.394 -0.6725 -1.0812  1.5729
 5634TP3      O28720   0.593   3.697   1.750  0.2029  0.1602 -0.2743
 5634TP3     H128721   0.610   3.608   1.718  0.9424 -0.1915  1.0057
 5634TP3     H228722   0.672   3.746   1.727  1.2039 -0.3618  1.8345
 5635TP3      O28723   1.552   3.356   1.184 -0.1602 -0.1609 -0.0144
 5635TP3     H128724   1.556   3.261   1.173 -3.3752 -0.3040 -0.3968
 5635TP3     H228725   1.640   3.387   1.163  1.5937 -3.2698  2.4145
 5636TP3      O28726   3.200   1.058   2.315  0.2229  0.3000  0.9528
 5636TP3     H128727   3.109   1.085   2.325  0.0450  0.1140 -0.1163
 5636TP3     H228728   3.203   1.016   2.229  0.9611 -1.2082  1.7082
 5637TP3      O28729   5.051   3.044   0.360  0.2212 -0.8653 -0.5009
 5637TP3     H128730   4.962   3.016   0.380  0.0743 -1.1733 -1.5536
 5637TP3     H228731   5.107   2.979   0.404 -0.0686 -0.6762  0.1488
 5638TP3      O28732   4.020   1.242   2.485  0.2881 -0.1739  0.1103
 5638TP3     H128733   3.967   1.296   2.543  0.2224 -1.2241  1.0603
 5638TP3     H228734   3.964   1.168   2.463  1.0236 -0.8232  0.3737
 5639TP3      O28735   0.357   4.525   1.388  0.4163  0.1173 -0.4914
 5639TP3     H128736   0.377   4.490   1.302  0.0555 -0.9002 -0.1762
 5639TP3     H228737   0.391   4.459   1.449 -1.1765 -0.2052  0.0924
 5640TP3      O28738   1.089   5.475   9.921  0.1532 -0.1632  0.4709
 5640TP3     H128739   1.172   5.432   9.898 -0.2970  0.7244 -3.1367
 5640TP3     H228740   1.034   5.463   9.844 -2.6877  0.3383  2.3531
 5641TP3      O28741   4.782   4.739   2.964  1.0270 -0.0053 -0.0846
 5641TP3     H128742   4.809   4.687   2.889 -0.5673 -2.6139  1.1014
 5641TP3     H228743   4.687   4.728   2.968  1.0740  0.2550  2.2043
 5642TP3      O28744   1.805   3.923   2.585  0.2377  0.0948  0.3548
 5642TP3     H128745   1.895   3.955   2.578  0.0070  0.2439 -2.4128
 5642TP3     H228746   1.812   3.828   2.575  0.0785  0.1401 -0.2415
 5643TP3      O28747   4.999   4.715   3.574  0.0883  0.9513 -0.0104
 5643TP3     H128748   5.022   4.803   3.604 -0.6890  1.3703 -0.6329
 5643TP3     H228749   5.062   4.658   3.619 -0.3013  1.6753  1.5001
 5644TP3      O28750   2.432   4.326   2.888 -0.2487  0.4105  0.2790
 5644TP3     H128751   2.434   4.233   2.867  0.1842  0.4890 -0.0239
 5644TP3     H228752   2.384   4.331   2.971 -0.0371 -0.1048  0.4305
 5645TP3      O28753   4.512   4.746   1.154 -0.7925 -0.3828  0.5821
 5645TP3     H128754   4.516   4.784   1.066  1.3703 -1.1319  0.3439
 5645TP3     H228755   4.425   4.705   1.158 -1.5722  1.0997 -0.5846
 5646TP3      O28756   3.794   3.591   1.699  0.6209 -0.0516  0.4050
 5646TP3     H128757   3.814   3.563   1.610 -2.6736  0.5115 -0.5941
 5646TP3     H228758   3.804   3.686   1.697  0.4032 -0.0241  0.5888
 5647TP3      O28759   4.138   4.915   2.352 -0.2546  0.5181  0.5722
 5647TP3     H128760   4.214   4.893   2.406  0.4733  0.3257 -0.5041
 5647TP3     H228761   4.062   4.895   2.407  0.4364 -1.5713  0.7958
 5648TP3      O28762   5.290   1.156   2.863 -0.1091 -0.1407 -0.0529
 5648TP3     H128763   5.249   1.112   2.938 -0.6312  0.6255  0.1097
 5648TP3     H228764   5.383   1.160   2.886 -0.2833  0.1844  0.5973
 5649TP3      O28765   3.955   0.266   2.106 -0.3280  0.3499 -0.3739
 5649TP3     H128766   3.998   0.207   2.044 -1.0911 -0.1987 -0.3968
 5649TP3     H228767   3.865   0.233   2.111 -0.0374 -0.2061  1.7329
 5650TP3      O28768   0.235   0.417   2.216  0.8936 -0.2023 -0.8367
 5650TP3     H128769   0.305   0.352   2.208  0.0236 -1.3985  0.8796
 5650TP3     H228770   0.252   0.460   2.300  0.1660  0.1975 -0.8872
 5651TP3      O28771   3.461   3.358   2.115 -0.2128 -0.5900 -0.1953
 5651TP3     H128772   3.483   3.383   2.025  0.4870 -0.9842 -0.1274
 5651TP3     H228773   3.387   3.415   2.137 -1.2042 -1.3609 -1.4612
 5652TP3      O28774   0.554   0.758   2.865  0.2585 -0.4506  0.0129
 5652TP3     H128775   0.639   0.778   2.825 -0.1138  1.0166 -0.0535
 5652TP3     H228776   0.564   0.668   2.898  1.2823 -0.8835 -1.4449
 5653TP3      O28777   3.565   5.053   1.015 -0.1681  0.2147  0.4338
 5653TP3     H128778   3.606   5.133   0.982  1.6383 -0.5547  0.7888
 5653TP3     H228779   3.512   5.022   0.942 -0.6094  1.5492  0.1755
 5654TP3      O28780   4.227   3.971   3.206  0.3046 -0.1209  0.0091
 5654TP3     H128781   4.193   3.969   3.117 -0.3447  0.0665  0.2560
 5654TP3     H228782   4.316   4.007   3.197  0.2859 -0.2219 -0.5746
 5655TP3      O28783   3.067   4.210   1.996  0.1810 -0.2126  0.2278
 5655TP3     H128784   3.054   4.209   2.091  1.2028  2.4603  0.4615
 5655TP3     H228785   3.157   4.179   1.984 -0.6513 -2.5592 -0.0478
 5656TP3      O28786   4.598   0.277   1.243  0.3954  0.1491  0.1873
 5656TP3     H128787   4.603   0.368   1.212  1.2563 -0.6378 -2.1345
 5656TP3     H228788   4.652   0.276   1.322  2.1353  1.2092 -0.9502
 5657TP3      O28789   4.235   2.717   1.342  0.5259  0.1537  0.0256
 5657TP3     H128790   4.202   2.763   1.265  1.8437  0.3128 -0.4417
 5657TP3     H228791   4.162   2.659   1.368 -0.4118  1.0766 -0.5247
 5658TP3      O28792   5.174   4.034   3.012 -0.0469 -0.0496 -0.2275
 5658TP3     H128793   5.222   4.089   3.074  0.0606  0.2299 -0.5552
 5658TP3     H228794   5.168   3.949   3.055  1.3158 -0.2753 -0.4401
 5659TP3      O28795   4.656   5.086   3.374  0.2222  0.7505  0.0807
 5659TP3     H128796   4.730   5.135   3.337 -0.5371  0.8100 -1.4018
 5659TP3     H228797   4.696   5.004   3.405  0.9811  0.9482 -0.3388
 5660TP3      O28798   3.817   4.476   1.393  0.2609  0.6040 -0.0505
 5660TP3     H128799   3.813   4.388   1.355  0.5870  0.9569 -0.9082
 5660TP3     H228800   3.905   4.482   1.430  0.5455  0.8684 -0.7484
 5661TP3      O28801   3.449   3.387   0.977 -0.8587 -0.0284 -0.0477
 5661TP3     H128802   3.411   3.307   1.013 -0.0889 -1.1927 -1.7430
 5661TP3     H228803   3.418   3.389   0.886  2.0017 -0.3034 -1.0619
 5662TP3      O28804   5.169   5.036   2.428 -0.5243 -0.2692 -1.0233
 5662TP3     H128805   5.239   5.023   2.363  1.4879  2.8858  0.3674
 5662TP3     H228806   5.100   5.083   2.380 -0.3192 -0.5724 -1.6192
 5663TP3      O28807   3.898   4.474   0.226 -0.0107  0.2110  0.0700
 5663TP3     H128808   3.828   4.410   0.241  0.5618 -0.2024  0.9806
 5663TP3     H228809   3.946   4.440   0.151  0.6495 -0.7484  0.9142
 5664TP3      O28810   4.384   1.773   1.612 -0.5637  0.0970 -0.1280
 5664TP3     H128811   4.357   1.695   1.563 -0.9452  0.5219 -0.6046
 5664TP3     H228812   4.302   1.809   1.644 -0.3020 -0.2399  0.9266
 5665TP3      O28813   5.000   0.993   2.340  0.8266  0.1825 -0.1262
 5665TP3     H128814   4.951   0.968   2.418 -0.7531  1.3713 -0.7006
 5665TP3     H228815   5.005   0.912   2.289 -0.2936 -0.0354  0.0872
 5666TP3      O28816   0.689   4.810   2.864  0.0803  0.7018  0.0007
 5666TP3     H128817   0.754   4.881   2.868 -0.3236  1.0241  1.3035
 5666TP3     H228818   0.621   4.837   2.926  0.1744 -1.0701  0.9103
 5667TP3      O28819   3.518   4.287   0.669  0.3040  0.1237 -0.1589
 5667TP3     H128820   3.509   4.327   0.755  1.4092 -2.2468  1.1201
 5667TP3     H228821   3.440   4.232   0.659  1.2984 -1.4147  0.3639
 5668TP3      O28822   4.084   5.362   3.117  0.0079  0.0696 -0.3021
 5668TP3     H128823   4.174   5.330   3.128  0.1873  0.5607 -0.3155
 5668TP3     H228824   4.038   5.331   3.195  0.4004  0.5243  0.1161
 5669TP3      O28825   4.978   0.909   8.102  0.1967  0.4420  0.5310
 5669TP3     H128826   4.938   0.989   8.136  0.1690  0.8303 -0.4252
 5669TP3     H228827   4.925   0.839   8.139 -0.7677  0.9181  0.0669
 5670TP3      O28828   4.398   3.628   2.953  0.4925  0.0190 -0.4166
 5670TP3     H128829   4.379   3.667   2.867  1.0747 -1.4986 -1.2610
 5670TP3     H228830   4.381   3.535   2.941  0.8365 -0.2444  1.0588
 5671TP3      O28831   4.494   3.780   0.812  0.2464 -0.6747  0.1312
 5671TP3     H128832   4.483   3.708   0.749  1.4047 -2.4275  1.8950
 5671TP3     H228833   4.580   3.816   0.792 -0.3463  0.2852 -0.7728
 5672TP3      O28834   4.319   4.806   3.352  1.1777  0.1351  0.0005
 5672TP3     H128835   4.341   4.713   3.351  0.5036 -0.0261 -0.4351
 5672TP3     H228836   4.312   4.830   3.259  0.9003  0.5164  0.1185
 5673TP3      O28837   3.496   1.300   1.751 -0.1714 -0.1795  0.2768
 5673TP3     H128838   3.591   1.290   1.761  0.2295 -0.8358 -3.3432
 5673TP3     H228839   3.476   1.251   1.671 -3.5621  0.0759  0.9117
 5674TP3      O28840   4.144   3.518   2.665 -0.2909  0.5935 -0.3994
 5674TP3     H128841   4.096   3.537   2.584 -1.0182  3.0099  0.5254
 5674TP3     H228842   4.127   3.595   2.720  3.6266  0.9210  0.4491
 5675TP3      O28843   2.667   4.834   2.815  0.3985 -0.2393 -0.1806
 5675TP3     H128844   2.756   4.845   2.783  0.3711 -0.9966 -0.5351
 5675TP3     H228845   2.639   4.749   2.779 -0.0415 -0.5605  0.8960
 5676TP3      O28846   4.412   5.111   3.286 -0.1133 -0.4376  0.2065
 5676TP3     H128847   4.498   5.090   3.321  1.0824  0.9808 -1.7457
 5676TP3     H228848   4.377   5.028   3.254  1.8319 -0.5529 -1.7116
 5677TP3      O28849   4.390   3.739   2.711  0.2149 -0.1009  0.5081
 5677TP3     H128850   4.449   3.733   2.636  0.1570 -1.7804  0.5925
 5677TP3     H228851   4.314   3.687   2.685  0.3699 -1.0277  1.8984
 5678TP3      O28852   0.860   1.311   0.578 -0.1028  0.0672  0.4996
 5678TP3     H128853   0.808   1.241   0.617  0.8634 -1.0776 -0.2487
 5678TP3     H228854   0.849   1.385   0.638 -1.1661 -0.7056  1.2707
 5679TP3      O28855   4.960   5.168   2.833  0.5161  0.1508 -0.2413
 5679TP3     H128856   4.977   5.078   2.861 -0.7174 -0.6987 -2.0819
 5679TP3     H228857   4.868   5.182   2.854  0.0628  0.1231 -2.1358
 5680TP3      O28858   0.647   4.756   0.557 -0.0934 -0.2693 -0.1008
 5680TP3     H128859   0.560   4.717   0.552 -0.6332  0.7415  1.0554
 5680TP3     H228860   0.665   4.763   0.651  1.1850 -0.3671 -0.3352
 5681TP3      O28861   1.682   4.536   1.420 -0.4789 -0.1227 -0.1765
 5681TP3     H128862   1.726   4.453   1.403 -1.0717 -0.6503  0.7612
 5681TP3     H228863   1.725   4.599   1.363 -1.6943 -1.5759 -2.8203
 5682TP3      O28864   4.826   4.327   1.366  0.3785 -0.1495 -0.6285
 5682TP3     H128865   4.857   4.377   1.291  0.4513  0.1809 -0.3812
 5682TP3     H228866   4.905   4.309   1.417  0.2406  0.2276 -0.2750
 5683TP3      O28867   2.598   4.883   0.909 -0.4349 -0.1563 -0.3699
 5683TP3     H128868   2.690   4.864   0.931 -0.9365  1.4909  3.7687
 5683TP3     H228869   2.598   4.976   0.886 -1.3339  0.4936  2.0403
 5684TP3      O28870   4.167   3.847   1.790 -0.2389  0.5447 -0.3763
 5684TP3     H128871   4.110   3.784   1.835 -1.3063  0.6108 -1.5865
 5684TP3     H228872   4.228   3.876   1.857 -0.5414 -0.8303  0.5267
 5685TP3      O28873   5.174   2.945   1.248 -0.3146 -0.7874 -0.3414
 5685TP3     H128874   5.081   2.935   1.266 -0.1157 -0.6568  0.7844
 5685TP3     H228875   5.216   2.876   1.300  0.1370 -1.4961 -1.6371
 5686TP3      O28876   2.351   4.353   1.510 -0.0431  0.2294  0.4870
 5686TP3     H128877   2.371   4.292   1.581  2.5088  1.3042  0.7398
 5686TP3     H228878   2.414   4.331   1.441 -2.3418 -0.6546 -1.4094
 5687TP3      O28879   4.557   3.924   9.915  0.0253 -0.6492  0.4242
 5687TP3     H128880   4.511   3.949   9.835  1.1172  0.7703  0.2036
 5687TP3     H228881   4.613   3.851   9.889  0.1386 -0.3988 -0.0466
 5688TP3      O28882   5.169   2.457   1.662 -0.0041 -0.6685 -0.4495
 5688TP3     H128883   5.195   2.500   1.743  2.4447  0.3719 -1.7019
 5688TP3     H228884   5.168   2.527   1.597 -0.5782 -1.7018 -1.5723
 5689TP3      O28885   4.907   4.077   3.048  0.3521  0.1611 -0.2968
 5689TP3     H128886   5.003   4.074   3.056  0.4393 -1.5216 -1.6112
 5689TP3     H228887   4.875   4.033   3.126  0.7332 -1.1245 -0.8441
 5690TP3      O28888   3.030   3.812   2.675  0.2116  0.4704 -0.6023
 5690TP3     H128889   3.078   3.790   2.756 -0.8085 -2.2336 -0.6876
 5690TP3     H228890   3.097   3.809   2.607  0.1180 -2.8516 -0.6535
 5691TP3      O28891   3.578   3.187   1.545  0.3625  0.1339 -0.3161
 5691TP3     H128892   3.579   3.253   1.475 -1.4770  0.2163 -0.2890
 5691TP3     H228893   3.656   3.135   1.530 -0.3793 -0.2865 -2.8794
 5692TP3      O28894   5.096   4.127   2.775 -0.4937 -0.0571 -0.1744
 5692TP3     H128895   5.002   4.114   2.776 -0.3386 -1.3744 -0.9657
 5692TP3     H228896   5.127   4.086   2.856 -0.5462 -0.0780 -0.1647
 5693TP3      O28897   4.349   3.430   1.671  0.1370 -0.1593  0.0279
 5693TP3     H128898   4.282   3.449   1.605 -0.9915  1.1220  1.4963
 5693TP3     H228899   4.310   3.361   1.726  0.2941  0.1139  0.4877
 5694TP3      O28900   0.677   2.859   1.508 -0.1816 -0.4308  0.0650
 5694TP3     H128901   0.740   2.801   1.465  1.6121  1.1046  0.5536
 5694TP3     H228902   0.680   2.833   1.600 -0.7538 -0.7848 -0.0140
 5695TP3      O28903   4.083   3.751   2.817  0.2662 -0.2841 -0.6926
 5695TP3     H128904   4.123   3.832   2.848 -1.0205  0.0892  0.0296
 5695TP3     H228905   4.014   3.778   2.758 -0.5897 -0.8111  0.0417
 5696TP3      O28906   5.489   4.790   3.067  0.4234 -0.2311  0.5088
 5696TP3     H128907   5.456   4.821   3.152 -0.4202  0.0410  0.0812
 5696TP3     H228908   5.442   4.709   3.051 -0.0004  0.1262 -0.0715
 5697TP3      O28909   5.321   4.709   2.146 -0.3549 -0.4289 -0.4519
 5697TP3     H128910   5.404   4.752   2.165  0.3500 -3.1145  3.0747
 5697TP3     H228911   5.344   4.637   2.088  0.2517 -2.4255  2.1266
 5698TP3      O28912   5.430   3.538   2.484 -0.3084  0.0792 -0.7703
 5698TP3     H128913   5.385   3.473   2.536  0.7710 -0.3218 -0.3138
 5698TP3     H228914   5.522   3.530   2.510 -0.0618  1.3043 -1.2094
 5699TP3      O28915   5.049   1.650   1.417 -0.5264 -0.0018  0.0832
 5699TP3     H128916   4.995   1.693   1.351  0.9587  0.9240 -0.5538
 5699TP3     H228917   5.006   1.670   1.501  0.8341  3.8989 -0.0571
 5700TP3      O28918   4.018   5.491   2.708 -0.0171 -0.5337  0.0809
 5700TP3     H128919   3.955   5.476   2.638  0.2595 -0.4553 -0.1894
 5700TP3     H228920   3.968   5.482   2.789 -0.0346 -1.9979 -0.0916
 5701TP3      O28921   0.184   2.876   2.138 -0.6357 -0.3669 -0.4346
 5701TP3     H128922   0.222   2.949   2.090 -1.0934 -0.7281 -1.3538
 5701TP3     H228923   0.258   2.837   2.185 -0.2877  0.3140 -0.4092
 5702TP3      O28924   1.185   0.758   1.911 -0.0135  0.2376 -0.1097
 5702TP3     H128925   1.274   0.776   1.940  0.3499 -0.4054 -0.8011
 5702TP3     H228926   1.129   0.809   1.970  0.7220 -0.6143  1.3546
 5703TP3      O28927   5.351   5.014   2.214  0.3475  0.2697  0.6283
 5703TP3     H128928   5.391   5.005   2.128 -1.5746  0.5186 -0.3055
 5703TP3     H228929   5.425   5.029   2.273  1.5908  1.1719 -1.1239
 5704TP3      O28930   2.558   4.026   2.834 -0.0562 -0.0495 -0.1371
 5704TP3     H128931   2.649   3.996   2.830 -0.6121 -1.6394 -0.9406
 5704TP3     H228932   2.516   3.967   2.897 -0.6744  0.3170 -0.2044
 5705TP3      O28933   2.516   4.534   1.713  0.1206  0.2964 -0.3401
 5705TP3     H128934   2.493   4.608   1.769 -2.0081 -0.2119 -0.4789
 5705TP3     H228935   2.457   4.541   1.638  1.3656 -0.3344 -1.4056
 5706TP3      O28936   0.288   1.851   2.821  0.8899  0.0983 -0.5823
 5706TP3     H128937   0.260   1.876   2.733 -3.5514  1.6714  1.1120
 5706TP3     H228938   0.281   1.756   2.823  0.2354  0.1177 -1.6624
 5707TP3      O28939   2.150   3.853   0.892 -0.2310 -0.4163 -0.1006
 5707TP3     H128940   2.245   3.855   0.899 -0.2230  0.4455 -0.3280
 5707TP3     H228941   2.132   3.879   0.801 -0.6825 -0.3743 -0.0019
 5708TP3      O28942   2.769   3.734   2.256  0.1088 -0.4020  0.3855
 5708TP3     H128943   2.674   3.734   2.244 -0.0475  2.8845  1.0514
 5708TP3     H228944   2.781   3.739   2.351  0.9586 -0.6090  0.2987
 5709TP3      O28945   4.051   3.500  10.216 -0.0586 -0.2246 -0.0498
 5709TP3     H128946   4.105   3.573  10.248 -1.3456  0.7580 -0.0855
 5709TP3     H228947   4.105   3.459  10.148  1.1442 -0.0133  0.7657
 5710TP3      O28948   3.720   5.288   1.607 -0.2021  0.3249 -0.1779
 5710TP3     H128949   3.777   5.213   1.626 -0.6101 -0.0578 -0.4799
 5710TP3     H228950   3.648   5.251   1.555  0.0685  1.0884 -1.0987
 5711TP3      O28951   4.145   5.200   2.762  0.9040 -0.0932 -0.6634
 5711TP3     H128952   4.078   5.265   2.785 -0.9365 -2.4559  0.9737
 5711TP3     H228953   4.227   5.239   2.791 -0.3232  1.0178  1.4980
 5712TP3      O28954   3.731   1.608   0.869  0.5166 -0.3921  0.2797
 5712TP3     H128955   3.699   1.666   0.938 -1.9615 -2.4678  0.9579
 5712TP3     H228956   3.823   1.593   0.891  0.9602  2.5144  0.5843
 5713TP3      O28957   4.383   0.378   2.559  0.2069  0.3570  0.4220
 5713TP3     H128958   4.366   0.297   2.608 -0.2066  1.0633  1.4645
 5713TP3     H228959   4.477   0.391   2.566  0.0875  0.7065  1.4380
 5714TP3      O28960   0.086   4.316   1.666 -0.6983 -0.7294 -0.2066
 5714TP3     H128961   0.030   4.291   1.592 -0.1574 -2.5439 -0.0135
 5714TP3     H228962   0.173   4.283   1.642  0.4614  2.5137 -0.7495
 5715TP3      O28963   0.498   0.619   2.021  0.3131 -0.3791  0.5760
 5715TP3     H128964   0.532   0.544   2.069  2.4052  0.6888  0.8091
 5715TP3     H228965   0.437   0.661   2.082  0.6527 -0.7502  1.1699
 5716TP3      O28966   5.196   1.072   3.101 -0.1645  0.1140  0.0126
 5716TP3     H128967   5.260   1.066   3.171 -1.7992  1.7279  1.7302
 5716TP3     H228968   5.115   1.038   3.140 -0.5260 -1.2377 -1.8782
 5717TP3      O28969   4.475   4.044   3.163  0.3659  0.2018 -0.0429
 5717TP3     H128970   4.522   4.068   3.243  1.1704  2.3619 -1.1193
 5717TP3     H228971   4.519   4.094   3.094  0.3704 -2.4293 -2.0076
 5718TP3      O28972   4.173   5.082   1.466  0.0386 -0.0104  0.1144
 5718TP3     H128973   4.242   5.140   1.432  0.7481 -1.9202 -1.8802
 5718TP3     H228974   4.111   5.075   1.393 -1.3715  0.2863  1.2728
 5719TP3      O28975   2.797   3.923   2.877  0.0309  0.1874 -1.0123
 5719TP3     H128976   2.837   3.905   2.962  0.1172  1.1464 -0.8374
 5719TP3     H228977   2.850   3.875   2.814  1.2929  1.2238 -0.7532
 5720TP3      O28978   1.169   4.832   0.944 -0.2815  0.0082 -0.0346
 5720TP3     H128979   1.129   4.760   0.992  0.0193  0.5222  1.0203
 5720TP3     H228980   1.111   4.907   0.960  0.9156  0.6923  1.2777
 5721TP3      O28981   0.100   1.891   0.190  0.1338 -0.2927  0.2182
 5721TP3     H128982   0.034   1.854   0.131  2.0963  0.1430 -2.3420
 5721TP3     H228983   0.050   1.948   0.248 -1.7220  0.3202 -1.8886
 5722TP3      O28984   5.043   4.026   9.628 -0.0030  0.3527  0.3136
 5722TP3     H128985   5.064   4.115   9.654  1.0190 -0.2691  1.6701
 5722TP3     H228986   5.083   4.016   9.541 -3.0321  2.2876 -1.3939
 5723TP3      O28987   4.901   0.790   8.978  0.4613  0.0432 -0.3599
 5723TP3     H128988   4.932   0.835   9.057  1.7487 -0.1345 -0.7541
 5723TP3     H228989   4.868   0.860   8.922  1.2802  0.3850 -0.4332
 5724TP3      O28990   3.944   2.703   1.611  0.6042  0.4696 -0.2131
 5724TP3     H128991   3.929   2.644   1.685  2.3621  1.3455  0.8777
 5724TP3     H228992   3.964   2.645   1.538 -1.1164 -0.4046 -0.0309
 5725TP3      O28993   5.106   3.557   2.127 -0.2234  0.0789 -0.4290
 5725TP3     H128994   5.053   3.611   2.069 -2.1572  0.0693  1.2920
 5725TP3     H228995   5.094   3.468   2.094  0.5562  0.3224 -1.4117
 5726TP3      O28996   4.476   4.744   1.883 -0.3488  0.3167  0.3517
 5726TP3     H128997   4.540   4.784   1.824  0.3593 -0.8286  0.3296
 5726TP3     H228998   4.497   4.779   1.969  1.2832 -1.2082  0.5948
 5727TP3      O28999   3.766   2.459   1.473 -0.3939 -0.3285 -0.2646
 5727TP3     H129000   3.843   2.503   1.437 -0.1387 -0.2523  0.3672
 5727TP3     H229001   3.692   2.501   1.430 -0.1343  0.4812  0.0718
 5728TP3      O29002   1.445   3.925   1.365 -0.1672 -0.6472 -0.0019
 5728TP3     H129003   1.408   3.949   1.280 -5.0376 -0.7155  1.9090
 5728TP3     H229004   1.457   3.830   1.360 -0.6210 -0.6773 -0.5948
 5729TP3      O29005   0.690   1.072   1.099  0.3612 -0.4623  0.2071
 5729TP3     H129006   0.702   0.977   1.101 -2.2545 -0.8338  0.0276
 5729TP3     H229007   0.670   1.092   1.007  2.5632  0.5061 -0.0834
 5730TP3      O29008   0.772   0.360   1.639  0.5458  1.0385  0.3587
 5730TP3     H129009   0.777   0.456   1.633 -0.3218  1.0301 -0.7747
 5730TP3     H229010   0.700   0.337   1.580  0.4462 -0.2770  0.9967
 5731TP3      O29011   3.101   3.359   1.387 -0.6731  0.4421  0.2184
 5731TP3     H129012   3.124   3.274   1.349 -0.7433  0.2548  0.5929
 5731TP3     H229013   3.053   3.338   1.467  0.1860  0.8292  0.8572
 5732TP3      O29014   3.925   4.226   2.910 -0.0230  0.7108 -0.1990
 5732TP3     H129015   3.835   4.249   2.931 -0.4128 -0.0057 -1.0904
 5732TP3     H229016   3.977   4.269   2.978 -1.1456 -0.2332  1.2706
 5733TP3      O29017   4.134   1.311   1.600 -0.7323 -0.1456  0.0268
 5733TP3     H129018   4.199   1.295   1.532  1.9178  2.8860  1.6971
 5733TP3     H229019   4.163   1.258   1.674 -0.1130  1.1893  0.7659
 5734TP3      O29020   3.798   3.748   2.969  0.2160  0.4306 -0.5103
 5734TP3     H129021   3.826   3.761   2.879 -1.4511 -0.1790 -1.1489
 5734TP3     H229022   3.710   3.711   2.961  0.4397 -0.5710  1.3503
 5735TP3      O29023   4.902   0.130   1.280  0.0368 -0.0913  0.3914
 5735TP3     H129024   4.924   0.199   1.343 -0.2035  0.4876 -0.1520
 5735TP3     H229025   4.875   0.056   1.333 -0.5985  0.5480  0.9561
 5736TP3      O29026   2.883   4.774   2.220  0.1326  0.4150 -0.4597
 5736TP3     H129027   2.961   4.725   2.245 -1.1715 -1.1449  0.6491
 5736TP3     H229028   2.834   4.713   2.164 -0.7349  1.0417 -0.3903
 5737TP3      O29029   0.048   2.687   1.691 -0.0398  0.2433  0.2206
 5737TP3     H129030   0.005   2.704   1.607 -1.6010  1.2722  1.2179
 5737TP3     H229031   0.067   2.773   1.727 -0.4625 -0.1747  1.4765
 5738TP3      O29032   1.249   5.427   2.486  0.1215  0.5910 -0.1344
 5738TP3     H129033   1.260   5.519   2.512  0.9915  0.0497  1.4931
 5738TP3     H229034   1.159   5.421   2.456 -0.3279  1.7072  0.9550
 5739TP3      O29035   1.250   0.954   3.618 -0.3570  0.3737  0.6157
 5739TP3     H129036   1.209   0.893   3.679 -3.0975  0.3980 -1.1290
 5739TP3     H229037   1.195   1.032   3.620  0.3160  0.9075 -0.8334
 5740TP3      O29038   5.453   2.101   4.013 -0.0256  0.3950 -0.3048
 5740TP3     H129039   5.537   2.125   3.974  1.3750 -0.9738  1.7724
 5740TP3     H229040   5.405   2.057   3.943  1.3909  0.2792 -1.2160
 5741TP3      O29041   1.047   1.448   3.645  0.0401  0.1211 -0.3831
 5741TP3     H129042   1.086   1.505   3.711  1.4754 -0.2937 -0.8493
 5741TP3     H229043   0.975   1.499   3.608 -0.3602  0.5973  1.0588
 5742TP3      O29044   0.651   1.863   3.336 -0.0427  0.7252 -0.1855
 5742TP3     H129045   0.704   1.786   3.315  1.6512  1.9413 -0.4192
 5742TP3     H229046   0.586   1.867   3.265 -0.2451 -0.5593 -0.0853
 5743TP3      O29047   0.941   1.819   3.646 -0.1719 -0.0822 -0.2685
 5743TP3     H129048   0.909   1.741   3.600  1.4577 -0.4328 -0.8408
 5743TP3     H229049   0.870   1.842   3.706 -0.7322 -1.9319 -0.1826
 5744TP3      O29050   0.107   0.181   2.176  0.1317  0.5491  0.1370
 5744TP3     H129051   0.117   0.276   2.173  0.7913  0.4891  0.3862
 5744TP3     H229052   0.131   0.151   2.089 -0.8877  0.6835 -0.1957
 5745TP3      O29053   1.025   4.740   2.769  0.1787 -0.4095 -0.1826
 5745TP3     H129054   1.102   4.691   2.798  0.4787 -0.0342 -0.3395
 5745TP3     H229055   1.053   4.782   2.688 -0.5096 -1.0978 -0.7888
 5746TP3      O29056   1.341   0.338   3.165  0.5082 -0.1715 -0.0013
 5746TP3     H129057   1.370   0.289   3.088 -0.1315 -1.1885  0.3908
 5746TP3     H229058   1.366   0.429   3.147 -2.0566  0.1035 -2.6806
 5747TP3      O29059   1.088   0.732   2.858  0.4435 -0.1239  0.1583
 5747TP3     H129060   1.083   0.798   2.789  0.1330 -0.1568  0.1463
 5747TP3     H229061   1.112   0.781   2.937 -0.4348  0.1076  0.2894
 5748TP3      O29062   0.219   5.332   3.352 -0.4924  0.4117 -0.2374
 5748TP3     H129063   0.182   5.419   3.340 -0.6129  0.7135  2.1258
 5748TP3     H229064   0.189   5.305   3.439  1.5522 -0.9784  0.0758
 5749TP3      O29065   4.518   1.575   2.925 -0.9235 -0.0418  0.0120
 5749TP3     H129066   4.538   1.626   2.847 -1.0345  0.1800  0.1273
 5749TP3     H229067   4.530   1.637   2.998 -1.4815 -0.0533  0.1185
 5750TP3      O29068   3.183   1.191   1.940 -0.3693  0.4393  0.0058
 5750TP3     H129069   3.235   1.271   1.945  0.1153  0.0825  0.6766
 5750TP3     H229070   3.245   1.121   1.961 -0.5517 -0.2120 -1.5367
 5751TP3      O29071   2.956   1.149   1.782 -0.0340 -0.1409 -0.1914
 5751TP3     H129072   2.904   1.086   1.832  0.6446  1.0122  2.0055
 5751TP3     H229073   3.033   1.166   1.837  0.0320  2.2397 -0.9658
 5752TP3      O29074   0.198   1.181   2.661  0.5366  0.1736 -0.7149
 5752TP3     H129075   0.132   1.137   2.608  0.0509 -1.0109  0.8459
 5752TP3     H229076   0.185   1.147   2.749  1.1136  2.3642  0.2511
 5753TP3      O29077   3.002   0.490   3.307  0.6221  0.2201  0.3507
 5753TP3     H129078   3.074   0.545   3.278  0.0585  1.1242  0.6546
 5753TP3     H229079   2.965   0.454   3.227  1.2298 -0.0328  0.1788
 5754TP3      O29080   2.211   0.060   3.253 -0.5467  0.2211 -0.4700
 5754TP3     H129081   2.154  -0.002   3.208 -0.4581 -0.2906  0.1228
 5754TP3     H229082   2.163   0.085   3.331  0.3287 -0.7753  0.4164
 5755TP3      O29083   3.454   0.843   2.658 -0.4649 -0.1302 -0.3963
 5755TP3     H129084   3.450   0.885   2.572  0.2605  2.3053  0.7346
 5755TP3     H229085   3.536   0.794   2.657 -0.9223 -0.9042 -1.4199
 5756TP3      O29086   2.665   1.208   3.343 -0.3147 -0.2994 -0.1572
 5756TP3     H129087   2.636   1.286   3.296  0.7203 -0.1574 -0.5642
 5756TP3     H229088   2.748   1.184   3.302 -0.9297 -1.9870 -0.4564
 5757TP3      O29089   2.651   1.194   3.891 -0.4576  0.0556 -0.2198
 5757TP3     H129090   2.556   1.184   3.882 -0.4178  0.3688 -1.0691
 5757TP3     H229091   2.686   1.164   3.807  0.2015 -0.1594  0.1288
 5758TP3      O29092   2.116   5.518   3.611  0.1087  0.4797 -0.0730
 5758TP3     H129093   2.059   5.578   3.659  0.1597  0.5220 -0.0648
 5758TP3     H229094   2.202   5.526   3.654  0.2796  0.8911 -0.4939
 5759TP3      O29095   1.895   0.676   3.340 -0.3746 -0.0802 -0.1409
 5759TP3     H129096   1.954   0.601   3.332  0.7470  0.6803  0.8886
 5759TP3     H229097   1.808   0.639   3.328  0.0271 -1.8622  2.1120
 5760TP3      O29098   3.789   1.217   2.189 -0.0397  1.2806 -0.3791
 5760TP3     H129099   3.841   1.296   2.205  0.1733  0.6086  2.5337
 5760TP3     H229100   3.701   1.241   2.218  0.0257  0.4654  0.5001
 5761TP3      O29101   2.510   1.715   3.156 -0.1234 -0.6217 -0.2621
 5761TP3     H129102   2.502   1.808   3.180  2.8093  0.0075 -1.5430
 5761TP3     H229103   2.604   1.701   3.143 -0.4414 -3.9734  0.5694
 5762TP3      O29104   2.651   0.968   2.093  0.2008  0.5047 -0.0347
 5762TP3     H129105   2.741   0.990   2.118  0.7640 -0.7228 -0.9136
 5762TP3     H229106   2.643   0.875   2.112 -1.1963  0.8015  0.8819
 5763TP3      O29107   4.213   0.701   3.127  0.0212 -0.1408  0.6409
 5763TP3     H129108   4.165   0.730   3.204  0.6684  3.4251 -0.2119
 5763TP3     H229109   4.288   0.653   3.162 -0.6843 -0.1502  2.1791
 5764TP3      O29110   1.868   2.781   1.516 -0.6785 -0.3407  0.4012
 5764TP3     H129111   1.790   2.757   1.566 -0.9453  1.5157  0.9257
 5764TP3     H229112   1.904   2.856   1.563  0.8973 -0.5766 -0.3830
 5765TP3      O29113   1.694   1.533   3.317 -0.7610  0.4037 -0.4748
 5765TP3     H129114   1.646   1.503   3.394 -0.5728  1.2483 -0.0252
 5765TP3     H229115   1.710   1.453   3.266 -0.9045 -0.1507  0.3470
 5766TP3      O29116   3.249   5.392   2.954 -0.0077 -0.3246  0.1189
 5766TP3     H129117   3.206   5.346   3.026  0.3800 -0.9908 -0.0726
 5766TP3     H229118   3.338   5.408   2.986  0.2833 -0.9670 -0.3601
 5767TP3      O29119   3.732   0.166   2.306 -0.2471 -0.2414 -0.1975
 5767TP3     H129120   3.647   0.210   2.310  0.5355  1.2539  0.3313
 5767TP3     H229121   3.786   0.212   2.370  0.5737 -2.0627  0.4730
 5768TP3      O29122   4.590   1.368   2.609  0.3857  0.2365  0.0019
 5768TP3     H129123   4.583   1.398   2.518  1.4629 -0.3508 -0.2889
 5768TP3     H229124   4.502   1.340   2.632  0.5945 -1.9638 -1.6978
 5769TP3      O29125   1.397   1.392   2.737  0.6537  0.1202  0.0611
 5769TP3     H129126   1.467   1.327   2.745  0.7749  0.3144  0.6679
 5769TP3     H229127   1.354   1.389   2.823  0.3737  0.5136 -0.0686
 5770TP3      O29128   2.401   0.167   3.061  0.6324 -0.5354 -0.0649
 5770TP3     H129129   2.344   0.149   3.137  2.0707 -2.1176  0.6689
 5770TP3     H229130   2.455   0.240   3.089 -0.2136  0.2038 -0.3281
 5771TP3      O29131   2.996   1.844   3.371  0.0636 -0.3598  0.2466
 5771TP3     H129132   2.995   1.755   3.337 -0.9813 -0.6734  1.0968
 5771TP3     H229133   2.922   1.848   3.431  0.9672  0.6485  1.3177
 5772TP3      O29134   4.652   4.548   2.294 -0.5065 -0.0246  0.2733
 5772TP3     H129135   4.607   4.508   2.220  0.2737 -0.0006 -0.2247
 5772TP3     H229136   4.587   4.606   2.334 -0.7913  0.3461 -0.6976
 5773TP3      O29137   5.499   5.328   3.607  0.3596  0.7439 -0.1698
 5773TP3     H129138   5.467   5.341   3.697  0.8665 -1.0925  0.3008
 5773TP3     H229139   5.470   5.407   3.560 -1.6218  0.8465  1.1306
 5774TP3      O29140   5.366   1.475   3.409  0.0838 -0.1431  0.1286
 5774TP3     H129141   5.393   1.389   3.441  1.1906 -0.0078 -0.4393
 5774TP3     H229142   5.302   1.505   3.473 -0.2836 -1.3737  0.3537
 5775TP3      O29143   4.056   0.764   3.332 -0.2140  0.4270  0.2609
 5775TP3     H129144   4.005   0.683   3.340  0.1382  0.2943  1.3622
 5775TP3     H229145   4.024   0.819   3.404 -0.3146  1.1876 -0.3658
 5776TP3      O29146   0.087   0.971   2.140 -0.2385 -0.1089 -0.8662
 5776TP3     H129147   0.026   0.941   2.207  0.9827 -2.2652 -0.6704
 5776TP3     H229148   0.031   1.012   2.074 -1.7829 -0.9310 -0.1063
 5777TP3      O29149   0.171   2.140   3.872 -0.0770  0.4039 -0.6523
 5777TP3     H129150   0.191   2.184   3.789 -2.0491  0.7755 -0.9564
 5777TP3     H229151   0.224   2.060   3.870  2.2347  1.8868 -0.8736
 5778TP3      O29152   3.679   0.547   3.508 -0.0457  0.2979 -0.7800
 5778TP3     H129153   3.627   0.587   3.578 -0.2108 -1.0970 -0.1050
 5778TP3     H229154   3.670   0.453   3.521  1.9126  0.0309 -1.2022
 5779TP3      O29155   4.296   1.334   3.510  0.9585  0.5670  0.3906
 5779TP3     H129156   4.301   1.244   3.478 -2.4533  0.4683 -0.0459
 5779TP3     H229157   4.328   1.330   3.600  1.7576 -0.8874  0.0490
 5780TP3      O29158   0.334   3.704   2.706 -0.2077  0.2553 -0.3101
 5780TP3     H129159   0.309   3.625   2.755  1.1513 -0.2061 -0.3630
 5780TP3     H229160   0.258   3.762   2.716 -1.1460 -0.9769 -0.1201
 5781TP3      O29161   5.142   0.613   3.323 -0.6314 -0.0687 -0.5087
 5781TP3     H129162   5.107   0.537   3.278 -1.3983 -0.8853  1.4078
 5781TP3     H229163   5.168   0.580   3.409  2.4818  1.0434 -0.9281
 5782TP3      O29164   4.543   1.386   3.358  0.6415  0.9745 -0.2828
 5782TP3     H129165   4.466   1.354   3.405  2.4311 -0.3738  1.8386
 5782TP3     H229166   4.538   1.343   3.273 -1.2243  1.3037 -0.3556
 5783TP3      O29167   5.316   4.993   1.586  0.0994 -0.1019  0.1252
 5783TP3     H129168   5.305   4.904   1.621 -0.3194 -0.7826 -1.6841
 5783TP3     H229169   5.381   4.983   1.517  1.2893  1.3228  1.0173
 5784TP3      O29170   4.633   2.237   3.536 -0.6670 -0.3017 -0.0910
 5784TP3     H129171   4.575   2.279   3.472  0.4777  0.4206 -0.6717
 5784TP3     H229172   4.721   2.263   3.509 -0.0416 -1.6740  0.5690
 5785TP3      O29173   5.066   0.373   3.201  0.2179  0.0063  0.0167
 5785TP3     H129174   4.971   0.369   3.195  0.2266  0.2313 -0.2553
 5785TP3     H229175   5.093   0.282   3.214  0.0946 -0.2921 -1.7165
 5786TP3      O29176   4.831   1.800   3.386 -0.3123  0.1212 -0.0248
 5786TP3     H129177   4.757   1.852   3.355  0.1652 -0.4271 -2.1011
 5786TP3     H229178   4.797   1.711   3.394 -0.3572  0.2056  0.8002
 5787TP3      O29179   4.086   2.023   2.129  0.0284  0.3338 -0.0384
 5787TP3     H129180   4.091   1.939   2.082 -0.5308  0.6361 -0.6354
 5787TP3     H229181   4.148   2.012   2.202  0.6077 -0.2823 -0.6089
 5788TP3      O29182   0.763   2.869   3.394  0.1364  0.3702  0.1992
 5788TP3     H129183   0.723   2.949   3.428  1.1373  0.4067  1.3070
 5788TP3     H229184   0.689   2.817   3.363 -0.6800  0.8897  1.2414
 5789TP3      O29185   0.656   2.141   1.584  0.1442  0.8885 -0.0209
 5789TP3     H129186   0.605   2.060   1.585 -1.5557  1.8771  4.0878
 5789TP3     H229187   0.635   2.181   1.500  0.0539 -2.2888 -1.5880
 5790TP3      O29188   0.584   2.337   2.247  0.1140  0.6369 -0.1768
 5790TP3     H129189   0.533   2.275   2.195  0.1794  0.7636 -0.3918
 5790TP3     H229190   0.618   2.399   2.183  2.2985 -0.6523 -0.3252
 5791TP3      O29191   0.747   2.551   2.107 -0.2925 -0.2672 -0.2921
 5791TP3     H129192   0.751   2.645   2.089  1.8527 -0.5841 -1.6522
 5791TP3     H229193   0.812   2.537   2.176 -0.1520 -0.8473 -0.5381
 5792TP3      O29194   0.886   3.264   3.402 -0.3326  0.2200 -0.0915
 5792TP3     H129195   0.975   3.293   3.379 -0.1824  1.5199  1.9692
 5792TP3     H229196   0.829   3.325   3.355 -0.0939  0.6850  0.2158
 5793TP3      O29197   0.153   2.635   3.348  0.5650  0.2609 -0.4734
 5793TP3     H129198   0.098   2.668   3.419  2.9068  0.4666  1.3228
 5793TP3     H229199   0.192   2.713   3.310 -1.2102  0.2021 -2.4858
 5794TP3      O29200   1.406   4.360   2.224  0.3924  0.0554  0.3163
 5794TP3     H129201   1.395   4.292   2.158 -0.2579  0.8294 -0.3842
 5794TP3     H229202   1.466   4.423   2.184  0.7625  0.0360  0.8412
 5795TP3      O29203   1.848   2.998   1.705  0.1638  0.0168 -0.1427
 5795TP3     H129204   1.756   2.979   1.688  0.4164 -0.4584 -0.9768
 5795TP3     H229205   1.846   3.062   1.776 -0.8100  0.0380 -0.1837
 5796TP3      O29206   5.486   2.220   2.440 -0.5807  0.1248 -0.3320
 5796TP3     H129207   5.522   2.214   2.529 -0.1144  1.7400 -0.4004
 5796TP3     H229208   5.442   2.136   2.427  1.9414 -1.3275  0.2611
 5797TP3      O29209   0.359   3.553   3.467 -0.1344  0.1145 -0.3040
 5797TP3     H129210   0.337   3.576   3.377 -1.5451  0.1328  0.0408
 5797TP3     H229211   0.356   3.636   3.514  3.6580  0.6323 -0.8101
 5798TP3      O29212   1.828   4.313   2.197  0.3886 -0.3721  0.4557
 5798TP3     H129213   1.889   4.283   2.129  0.7420 -2.3187  1.5987
 5798TP3     H229214   1.868   4.394   2.229  0.5066  0.2757 -1.2439
 5799TP3      O29215   0.178   5.392   2.733 -0.1214 -0.4613  0.1014
 5799TP3     H129216   0.222   5.355   2.810  0.2105 -0.3886 -0.0540
 5799TP3     H229217   0.164   5.317   2.675  0.5274 -0.3529 -0.2020
 5800TP3      O29218   0.407   2.724   0.946  0.2996  0.0207 -0.1969
 5800TP3     H129219   0.375   2.697   1.031 -3.2375  1.5011 -0.9780
 5800TP3     H229220   0.354   2.676   0.883  0.8822  1.1139 -1.5713
 5801TP3      O29221   0.682   3.117   3.503  0.1633  0.3112 -0.6559
 5801TP3     H129222   0.770   3.153   3.489 -0.5296  1.6517 -1.7141
 5801TP3     H229223   0.624   3.180   3.461 -1.2278 -1.1523 -0.9602
 5802TP3      O29224   0.279   2.570   3.045 -0.3158  0.3754  0.3854
 5802TP3     H129225   0.271   2.640   3.109 -0.5638  0.7328 -0.0340
 5802TP3     H229226   0.342   2.603   2.981 -0.3522  0.1723  0.2430
 5803TP3      O29227   1.727   3.310   2.454  0.6025  0.0057 -0.0671
 5803TP3     H129228   1.699   3.278   2.539 -0.1778  2.7827  0.7616
 5803TP3     H229229   1.659   3.280   2.393 -0.4352  0.6247  0.7833
 5804TP3      O29230   0.279   2.265   3.652 -0.2330  0.2931  0.3836
 5804TP3     H129231   0.242   2.293   3.568 -1.5739  0.3060  0.9760
 5804TP3     H229232   0.344   2.332   3.672 -0.5065  0.7509 -0.2309
 5805TP3      O29233   0.843   3.821   1.723 -0.5165  0.0901 -0.2105
 5805TP3     H129234   0.887   3.750   1.770 -0.3091  0.6210  0.4214
 5805TP3     H229235   0.914   3.881   1.700 -0.6337 -0.1301 -1.1341
 5806TP3      O29236   0.246   2.529   2.572 -0.2104 -0.0275  0.4159
 5806TP3     H129237   0.280   2.506   2.485  0.4592  1.9539  0.1221
 5806TP3     H229238   0.264   2.452   2.626  2.3035 -0.0713 -0.4298
 5807TP3      O29239   0.526   3.738   2.175  0.4741 -0.2366  0.4055
 5807TP3     H129240   0.596   3.721   2.112  1.5949  0.1621  1.5358
 5807TP3     H229241   0.561   3.709   2.259  0.3043  2.4166  1.4400
 5808TP3      O29242   0.769   4.965   0.847 -0.0456  0.1759  0.2125
 5808TP3     H129243   0.743   5.050   0.811 -0.8808 -0.2043 -0.1080
 5808TP3     H229244   0.686   4.918   0.859  0.5103 -1.1012 -0.8936
 5809TP3      O29245   4.293   3.134   2.315  0.0722  0.3598 -0.1789
 5809TP3     H129246   4.331   3.079   2.247 -1.0527 -0.2998 -0.2968
 5809TP3     H229247   4.209   3.163   2.278 -0.0824  0.8304  0.5270
 5810TP3      O29248   3.123   3.976   3.072 -0.2010 -0.1340 -0.0556
 5810TP3     H129249   3.179   4.007   3.142 -1.2960  2.8879 -0.4360
 5810TP3     H229250   3.051   3.930   3.117  0.6676 -0.8559  0.6077
 5811TP3      O29251   2.630   2.785   3.030 -0.2627  0.1904  0.0152
 5811TP3     H129252   2.664   2.696   3.021  2.5516  1.1577  0.7930
 5811TP3     H229253   2.666   2.832   2.955 -1.7119  0.7190 -0.3735
 5812TP3      O29254   3.036   2.705   3.352 -0.1069 -0.0266  0.0967
 5812TP3     H129255   2.998   2.625   3.388  1.7214 -1.1462 -0.4076
 5812TP3     H229256   3.089   2.741   3.423  1.1194 -0.6422 -0.5000
 5813TP3      O29257   3.159   3.475   3.254 -0.3645 -0.0814 -0.0552
 5813TP3     H129258   3.188   3.407   3.194 -2.6710 -0.1264 -1.1660
 5813TP3     H229259   3.114   3.428   3.324 -0.2362  0.1682  0.1969
 5814TP3      O29260   3.867   2.883   2.847  0.0339  0.1478  0.2426
 5814TP3     H129261   3.810   2.806   2.854 -0.0038  0.1162 -0.3945
 5814TP3     H229262   3.909   2.890   2.934  1.0550 -1.3798 -0.1015
 5815TP3      O29263   2.268   3.453   2.887  0.1556 -0.6398 -0.2309
 5815TP3     H129264   2.242   3.507   2.961 -1.3995 -0.2764 -1.0314
 5815TP3     H229265   2.249   3.364   2.915 -0.4990 -0.4988 -0.2231
 5816TP3      O29266   3.749   2.850   3.307 -0.5541 -0.0663  0.1540
 5816TP3     H129267   3.791   2.883   3.227  0.8493 -0.0728  0.8659
 5816TP3     H229268   3.690   2.781   3.277  0.2688 -0.3464 -0.8383
 5817TP3      O29269   3.178   2.367   3.049  0.3440  0.0587  0.4822
 5817TP3     H129270   3.195   2.308   2.976  1.4829  1.7801 -0.6842
 5817TP3     H229271   3.247   2.433   3.044  1.0554 -0.3297  3.7255
 5818TP3      O29272   2.375   2.629   3.078  0.2144 -0.6229  0.1313
 5818TP3     H129273   2.436   2.702   3.075 -0.2905 -0.1898  0.3296
 5818TP3     H229274   2.418   2.560   3.028  0.7604 -0.2421  0.0714
 5819TP3      O29275   4.525   2.657   1.630  0.3170  0.0042 -0.1901
 5819TP3     H129276   4.544   2.743   1.667 -0.3636  0.9519 -1.9885
 5819TP3     H229277   4.601   2.604   1.653  0.8520  1.1470  0.7325
 5820TP3      O29278   1.064   1.685   2.951  0.2303  0.0932  0.3237
 5820TP3     H129279   0.996   1.740   2.990 -0.8072  0.6161 -2.1230
 5820TP3     H229280   1.121   1.746   2.906  0.8192 -0.5879  0.1400
 5821TP3      O29281   5.174   3.798   3.118 -0.2271  0.0570 -0.0516
 5821TP3     H129282   5.217   3.713   3.126  0.3617  0.5896  3.2312
 5821TP3     H229283   5.101   3.794   3.180 -0.1708  1.9410  0.1737
 5822TP3      O29284   5.077   3.060   1.895 -0.7117 -0.1147  0.2722
 5822TP3     H129285   5.160   3.012   1.902 -2.1245 -2.5395  0.8213
 5822TP3     H229286   5.047   3.069   1.985 -1.2218  0.4981  0.0449
 5823TP3      O29287   4.712   3.143   2.114  0.2840  0.4784 -0.0743
 5823TP3     H129288   4.806   3.134   2.098 -0.1788 -1.1406 -2.0999
 5823TP3     H229289   4.682   3.055   2.135 -1.1123  0.5989 -1.4582
 5824TP3      O29290   5.034   1.107   2.746 -0.3371 -0.3037  0.5186
 5824TP3     H129291   4.978   1.182   2.728 -1.0324 -0.6949  1.0180
 5824TP3     H229292   5.112   1.144   2.788  0.1530  0.3306 -0.9226
 5825TP3      O29293   4.201   3.801   1.334  0.0656 -0.0655  0.3194
 5825TP3     H129294   4.255   3.768   1.262 -0.1143 -1.9579  1.0292
 5825TP3     H229295   4.116   3.820   1.293  0.0510 -0.8721 -0.0372
 5826TP3      O29296   5.498   2.766   2.863  0.1473 -0.4839 -0.0193
 5826TP3     H129297   5.585   2.778   2.899  0.7512  0.1564 -1.6468
 5826TP3     H229298   5.513   2.745   2.770 -1.3782 -1.3803 -0.0821
 5827TP3      O29299   5.442   3.831   2.503  0.1563  0.2897  0.2245
 5827TP3     H129300   5.454   3.741   2.471 -0.5199  0.5998 -0.9155
 5827TP3     H229301   5.379   3.823   2.574 -0.0480 -0.1143  0.0001
 5828TP3      O29302   4.575   4.177   2.283  0.0491  0.1115  0.3646
 5828TP3     H129303   4.508   4.214   2.340 -0.8084  1.2275 -1.3381
 5828TP3     H229304   4.657   4.215   2.315 -0.8139  3.6086 -1.3692
 5829TP3      O29305   4.258   2.645   3.039  0.1531 -0.2825 -0.0836
 5829TP3     H129306   4.225   2.705   3.106 -0.3522 -0.3671 -0.2514
 5829TP3     H229307   4.292   2.570   3.089  1.2174  0.3529  0.1434
 5830TP3      O29308   0.182   3.575   1.551 -0.2010  0.2221 -0.0784
 5830TP3     H129309   0.168   3.594   1.643  1.1980  0.5231  0.0813
 5830TP3     H229310   0.207   3.482   1.549  2.1027  0.8017  0.1164
 5831TP3      O29311   4.140   4.036   2.937  0.3906 -0.1997 -0.6172
 5831TP3     H129312   4.070   4.062   2.877 -1.1278 -1.5078  0.5260
 5831TP3     H229313   4.221   4.048   2.887 -0.7451  0.0692 -2.4232
 5832TP3      O29314   4.205   0.309   1.139  0.0137  0.0971 -0.2200
 5832TP3     H129315   4.199   0.404   1.125  1.2332  0.3506  0.8731
 5832TP3     H229316   4.137   0.290   1.203  0.4901  0.4229  0.3921
 5833TP3      O29317   0.382   2.360   2.399  0.0588 -0.5828 -0.1678
 5833TP3     H129318   0.409   2.333   2.487  0.2159 -2.2228 -0.6952
 5833TP3     H229319   0.459   2.346   2.345 -0.2866 -0.3706 -0.7237
 5834TP3      O29320   4.236   4.236   1.988  0.1112 -0.7118 -0.2672
 5834TP3     H129321   4.219   4.244   1.894  1.2634  0.1612 -0.4179
 5834TP3     H229322   4.326   4.205   1.993  0.4754  0.4405  0.5475
 5835TP3      O29323   0.758   4.242   3.293 -0.1919 -0.4269  0.0663
 5835TP3     H129324   0.790   4.181   3.226 -0.9816  0.3859 -1.0641
 5835TP3     H229325   0.685   4.287   3.251  0.1276  1.0181  1.0403
 5836TP3      O29326   1.848   3.623   2.550  0.0903  0.3350 -0.2191
 5836TP3     H129327   1.858   3.617   2.645 -0.6186 -0.7121 -0.2036
 5836TP3     H229328   1.892   3.544   2.517 -0.4407  0.2446 -0.7075
 5837TP3      O29329   2.155   1.367   2.817 -0.7755  0.0807  0.1922
 5837TP3     H129330   2.177   1.454   2.784 -0.8285  0.3099  0.7640
 5837TP3     H229331   2.077   1.342   2.767 -1.5933  0.9498  1.0136
 5838TP3      O29332   1.181   4.805   3.260  0.1377 -0.4482  0.4404
 5838TP3     H129333   1.220   4.723   3.229  1.4054  0.6308 -0.8396
 5838TP3     H229334   1.255   4.857   3.291 -0.5531  0.5960  0.3674
 5839TP3      O29335   0.428   4.117   3.248  0.2795  0.0779  0.8500
 5839TP3     H129336   0.473   4.187   3.199 -2.6763 -0.3847 -2.8269
 5839TP3     H229337   0.350   4.160   3.283 -0.3205 -0.8250  0.6270
 5840TP3      O29338   0.578   5.256   3.025  0.2988  0.3504 -0.6675
 5840TP3     H129339   0.588   5.270   2.931 -1.8100  1.5583 -0.7389
 5840TP3     H229340   0.666   5.273   3.061  0.8659  0.9281 -2.2800
 5841TP3      O29341   0.233   4.922   3.310  0.3649 -0.1323  0.0881
 5841TP3     H129342   0.141   4.896   3.313 -0.6571  3.3233  0.3209
 5841TP3     H229343   0.243   4.986   3.380  3.2788 -1.2922  0.8350
 5842TP3      O29344   0.164   4.287   3.467 -0.0452  0.1047 -0.0237
 5842TP3     H129345   0.075   4.261   3.443  0.0463 -1.0129  0.7924
 5842TP3     H229346   0.196   4.336   3.391 -0.8719 -0.6577 -0.8807
 5843TP3      O29347   0.566   5.241   3.455 -0.2911 -0.2796  0.6493
 5843TP3     H129348   0.493   5.183   3.435 -1.1428  1.6201 -2.1496
 5843TP3     H229349   0.635   5.217   3.393  0.3994 -0.1764  1.3645
 5844TP3      O29350   0.206   5.478   3.114 -0.6722  0.2139  0.4078
 5844TP3     H129351   0.156   5.508   3.191 -1.0741  1.2518 -0.2459
 5844TP3     H229352   0.222   5.557   3.064  1.4981 -0.1422  0.4930
 5845TP3      O29353   1.672   1.107   1.544  0.2631  0.4434 -0.5249
 5845TP3     H129354   1.764   1.130   1.537 -0.0644  1.8007 -0.3669
 5845TP3     H229355   1.668   1.016   1.512  1.9779 -0.3716  1.4536
 5846TP3      O29356   5.098   4.564   1.584 -0.4369  0.6987 -0.4418
 5846TP3     H129357   5.172   4.617   1.614 -0.5153  1.3750 -1.4288
 5846TP3     H229358   5.114   4.552   1.491 -0.4410 -0.9953 -0.2378
 5847TP3      O29359   0.961   4.955   3.352  0.0783  0.2579  0.0394
 5847TP3     H129360   0.945   4.910   3.435 -2.1291  0.1698 -0.4027
 5847TP3     H229361   1.027   4.901   3.308  0.0994 -0.5627  1.0602
 5848TP3      O29362   0.542   3.354   3.454  0.0104  0.6984  0.5675
 5848TP3     H129363   0.476   3.419   3.476 -1.6692 -0.5186 -0.7331
 5848TP3     H229364   0.589   3.391   3.380 -1.4716  0.1046 -0.6877
 5849TP3      O29365   3.519   5.018   3.470 -0.4305  0.0831  0.0071
 5849TP3     H129366   3.452   5.069   3.516  0.5345  0.8350  0.5924
 5849TP3     H229367   3.473   4.940   3.440 -1.8268  1.0974 -0.5378
 5850TP3      O29368   2.481   3.681   3.353 -0.1282 -0.5756 -0.1778
 5850TP3     H129369   2.460   3.774   3.345 -0.9976 -0.7481  0.0974
 5850TP3     H229370   2.577   3.679   3.361 -0.1343  0.3220  0.2039
 5851TP3      O29371   2.176   0.017   2.234 -0.0505  0.1095 -0.1448
 5851TP3     H129372   2.213   0.021   2.145 -1.2083 -1.5173 -0.7242
 5851TP3     H229373   2.232  -0.045   2.280  0.2105  0.5290  0.1095
 5852TP3      O29374   1.475   4.435   2.863  0.0102  0.2530 -0.2135
 5852TP3     H129375   1.457   4.377   2.789 -1.3520 -0.3171  0.5567
 5852TP3     H229376   1.430   4.395   2.937  2.7700 -0.0670  1.3275
 5853TP3      O29377   3.319   4.835   3.411  0.1236  0.0316  0.8715
 5853TP3     H129378   3.276   4.773   3.352 -1.7734 -0.4272  2.6748
 5853TP3     H229379   3.257   4.909   3.416  1.0675  0.8229  0.9490
 5854TP3      O29380   3.268   0.571   1.350 -0.2952 -0.4154  0.2400
 5854TP3     H129381   3.305   0.542   1.266  0.3474  0.0331  0.3713
 5854TP3     H229382   3.344   0.597   1.402 -0.8307  1.0080  0.3191
 5855TP3      O29383   2.025   5.087   2.560  0.5484  0.1069 -0.7904
 5855TP3     H129384   1.969   5.037   2.500 -1.9868  1.8942 -0.0146
 5855TP3     H229385   2.041   5.169   2.515  1.1844  0.2522 -0.2978
 5856TP3      O29386   1.869   4.561   3.018  0.1639  0.2267 -0.0571
 5856TP3     H129387   1.792   4.522   3.059  0.3896  1.3166  1.4732
 5856TP3     H229388   1.932   4.490   3.013  0.5174  0.3206  2.5502
 5857TP3      O29389   3.040   5.103   2.689 -0.3663 -0.4324 -0.0148
 5857TP3     H129390   3.133   5.098   2.667 -0.7726 -0.1276 -1.8472
 5857TP3     H229391   3.038   5.147   2.774  1.0173  2.4138 -1.3789
 5858TP3      O29392   3.429   1.843   2.342  0.0055  0.5651  0.2185
 5858TP3     H129393   3.376   1.914   2.305  0.8342  0.4717 -1.1918
 5858TP3     H229394   3.383   1.818   2.422 -2.0071  0.5902 -0.8978
 5859TP3      O29395   3.123   4.409   2.435  0.1700  0.1437  0.5929
 5859TP3     H129396   3.177   4.370   2.503  0.0618 -0.2711  0.4404
 5859TP3     H229397   3.166   4.383   2.353 -1.2129 -1.5931  0.4096
 5860TP3      O29398   3.614   5.225   3.044  0.1946 -0.4304 -0.1004
 5860TP3     H129399   3.585   5.136   3.026 -1.7006  0.5458 -2.1895
 5860TP3     H229400   3.561   5.253   3.119 -1.3589 -0.0682 -1.3154
 5861TP3      O29401   4.385   5.348   2.864  0.1367 -0.2071  0.6092
 5861TP3     H129402   4.354   5.319   2.950  0.2981  2.2177  1.5003
 5861TP3     H229403   4.476   5.319   2.860  0.1814 -0.1641  1.3135
 5862TP3      O29404   1.932   5.486   2.818  0.5136  0.4380  0.3644
 5862TP3     H129405   1.881   5.460   2.895  1.0669 -1.7325  0.0333
 5862TP3     H229406   2.012   5.524   2.854  0.3557  0.3084  0.8567
 5863TP3      O29407   4.031   3.204   2.709 -0.5737 -0.0255 -0.6002
 5863TP3     H129408   3.991   3.273   2.656 -0.3722  0.4708 -0.1182
 5863TP3     H229409   3.996   3.123   2.674 -3.7812  0.4679  1.2510
 5864TP3      O29410   3.604   3.866   2.638 -0.0768  0.1834  0.1743
 5864TP3     H129411   3.595   3.836   2.548 -1.6285  1.3078 -0.0810
 5864TP3     H229412   3.524   3.917   2.654  0.5310  0.6310  1.9337
 5865TP3      O29413   2.905   3.282   3.298  0.7146  0.0978 -0.2381
 5865TP3     H129414   2.976   3.286   3.362  0.6204  0.9784 -0.1848
 5865TP3     H229415   2.949   3.265   3.215  1.0427  1.3134 -0.3119
 5866TP3      O29416   1.894   4.827   2.966  0.3546 -0.3084  0.0217
 5866TP3     H129417   1.907   4.859   3.056 -0.2125  0.2872 -0.1096
 5866TP3     H229418   1.879   4.733   2.977 -1.2725  0.0143  0.6894
 5867TP3      O29419   5.117   3.565   3.376  0.6219 -0.0799  0.0453
 5867TP3     H129420   5.054   3.632   3.349  0.1840 -0.3614  0.3533
 5867TP3     H229421   5.162   3.541   3.296 -0.4042 -0.6399 -0.3751
 5868TP3      O29422   5.353   0.010   2.971 -0.1166  0.0640 -0.1666
 5868TP3     H129423   5.358   0.013   3.067 -0.1464  1.4923 -0.1987
 5868TP3     H229424   5.288  -0.058   2.953 -0.6221  0.2604  0.8425
 5869TP3      O29425   4.653   4.150   3.333 -0.1016  0.1115 -0.1462
 5869TP3     H129426   4.720   4.091   3.297 -0.1440 -0.6560  1.0133
 5869TP3     H229427   4.700   4.207   3.393 -0.4269 -0.1765  0.3826
 5870TP3      O29428   4.984   3.886   2.532  0.3058 -0.3382  0.0826
 5870TP3     H129429   5.062   3.876   2.587 -0.7278  0.5170  1.7575
 5870TP3     H229430   4.924   3.939   2.585 -1.6767 -1.5326 -0.9034
 5871TP3      O29431   3.686   4.283   3.053 -0.0086 -0.3879  0.6793
 5871TP3     H129432   3.639   4.212   3.098 -0.5731 -0.2818  0.2517
 5871TP3     H229433   3.708   4.344   3.123 -1.5938  0.1720  0.7057
 5872TP3      O29434   3.957   5.295   3.385 -0.3131  0.0230  0.0929
 5872TP3     H129435   4.018   5.230   3.419 -0.2367 -0.9475 -1.8068
 5872TP3     H229436   3.872   5.251   3.387 -0.9002  1.2124  2.3168
 5873TP3      O29437   4.161   5.094   3.443 -0.2176  0.3580 -0.0620
 5873TP3     H129438   4.161   5.011   3.492 -1.4327 -0.2721 -1.0788
 5873TP3     H229439   4.253   5.108   3.420 -0.3219 -2.2184 -2.3263
 5874TP3      O29440   5.255   4.121   2.307  0.0025 -0.0925  0.2607
 5874TP3     H129441   5.242   4.127   2.213  0.3811  1.3367  0.2850
 5874TP3     H229442   5.297   4.035   2.320  0.2078 -0.1748 -0.8924
 5875TP3      O29443   4.288   3.488   3.365 -0.0516  0.8807  0.1550
 5875TP3     H129444   4.298   3.570   3.317  0.0985  1.4215  1.0918
 5875TP3     H229445   4.341   3.500   3.444  0.7387 -0.4863 -0.1517
 5876TP3      O29446   4.246   2.626   2.216  0.3355 -0.6381  0.0737
 5876TP3     H129447   4.174   2.675   2.254  1.7885  0.9352  0.8985
 5876TP3     H229448   4.210   2.586   2.137 -1.7994 -1.0851  1.2451
 5877TP3      O29449   4.724   4.886   3.579 -0.1286 -0.7223  0.3465
 5877TP3     H129450   4.818   4.894   3.563 -0.0947 -1.5218  0.1565
 5877TP3     H229451   4.707   4.792   3.577 -1.0058 -0.5567 -0.0559
 5878TP3      O29452   3.220   3.847   2.053 -0.1356 -0.2163  0.2993
 5878TP3     H129453   3.138   3.889   2.078  0.2909  3.0685 -3.1869
 5878TP3     H229454   3.288   3.900   2.095  0.2858 -0.5732  0.0720
 5879TP3      O29455   0.402   5.166   3.242  0.3060 -0.1681 -0.0742
 5879TP3     H129456   0.340   5.223   3.288  1.3249  1.7975 -1.0543
 5879TP3     H229457   0.455   5.227   3.190  1.9126 -1.9710 -0.5727
 5880TP3      O29458   4.225   4.308   3.146 -0.0465  0.1295  0.0032
 5880TP3     H129459   4.136   4.342   3.151 -0.0494 -0.0517  1.1736
 5880TP3     H229460   4.215   4.214   3.166  0.6306  0.4450  1.8836
 5881TP3      O29461   3.384   5.332   3.197  0.2552  0.0931 -0.0003
 5881TP3     H129462   3.336   5.249   3.193  2.1111 -0.9740 -1.0722
 5881TP3     H229463   3.324   5.393   3.240 -0.9222 -1.9519  1.3321
 5882TP3      O29464   4.459   3.933   2.448  0.2693 -0.1957  0.5945
 5882TP3     H129465   4.517   4.009   2.443  0.9710 -0.8183 -0.6595
 5882TP3     H229466   4.393   3.959   2.513  2.4501  0.1655  2.7690
 5883TP3      O29467   4.339   3.355   2.459 -0.2122  0.1070 -0.7436
 5883TP3     H129468   4.319   3.277   2.406 -1.2075  0.0527 -0.3056
 5883TP3     H229469   4.360   3.320   2.546  3.1527  0.0663 -1.5053
   5.52806   5.52806  10.31600
