Title
29469
    1NLYS     N    1   2.037   2.856   1.979 -0.1115 -0.4571  0.0419
    1NLYS    H1    2   2.033   2.810   2.069 -0.8622  0.0521  0.2734
    1NLYS    H2    3   1.971   2.803   1.923 -0.0743 -0.1585 -0.2845
    1NLYS    H3    4   2.006   2.950   2.000  0.7183 -0.5030  1.5237
    1NLYS    CA    5   2.176   2.865   1.923  0.2075 -0.3895  0.0031
    1NLYS    HA    6   2.205   2.760   1.926 -2.9216 -1.3016  0.6693
    1NLYS    CB    7   2.178   2.922   1.776 -0.3659  0.1603 -0.3249
    1NLYS   HB2    8   2.108   2.860   1.720 -2.9355  3.0972 -0.4689
    1NLYS   HB3    9   2.139   3.023   1.777 -1.9671 -0.4496 -0.2774
    1NLYS    CG   10   2.313   2.918   1.701  0.3697 -0.3179  0.1782
    1NLYS   HG2   11   2.388   2.986   1.740 -0.1386  2.3536 -3.1992
    1NLYS   HG3   12   2.348   2.815   1.690 -0.6242 -0.5628 -0.8084
    1NLYS    CD   13   2.287   2.960   1.555  0.2551 -0.3624 -0.2796
    1NLYS   HD2   14   2.222   2.885   1.511 -1.9362  1.2437  0.1023
    1NLYS   HD3   15   2.229   3.052   1.545 -1.1094 -1.2040 -0.1935
    1NLYS    CE   16   2.422   2.970   1.481 -0.0266  0.1161 -0.1841
    1NLYS   HE2   17   2.470   3.054   1.532 -2.4853  1.4656  0.0061
    1NLYS   HE3   18   2.485   2.883   1.497 -2.5841 -1.9998 -1.3159
    1NLYS    NZ   19   2.395   3.005   1.338  0.0089  0.1795 -0.2735
    1NLYS   HZ1   20   2.331   3.083   1.334  0.6316  0.6239 -1.6928
    1NLYS   HZ2   21   2.478   3.036   1.289 -0.4619  0.8231 -0.6568
    1NLYS   HZ3   22   2.358   2.929   1.284  0.3746  1.5442 -2.4957
    1NLYS     C   23   2.269   2.934   2.021 -0.2310  0.4241 -0.1490
    1NLYS     O   24   2.239   3.048   2.053 -0.4139 -0.1644  0.5032
    2GLY      N   25   2.379   2.879   2.054  0.1289  0.2531 -0.2983
    2GLY      H   26   2.413   2.788   2.025 -0.1036 -0.7535  2.4492
    2GLY     CA   27   2.465   2.943   2.165 -0.5357 -0.0369  0.9427
    2GLY    HA2   28   2.435   3.046   2.183 -0.9662  0.1239 -0.6247
    2GLY    HA3   29   2.451   2.884   2.256 -1.7157 -0.1028  0.7298
    2GLY      C   30   2.611   2.928   2.138 -0.4071  0.0239 -0.6656
    2GLY      O   31   2.650   2.814   2.117 -0.9202 -0.1335  0.1887
    3PRO      N   32   2.692   3.033   2.137  0.1454  0.5614  0.4727
    3PRO     CD   33   2.651   3.175   2.115  0.4548  0.4737  0.4010
    3PRO    HD2   34   2.580   3.214   2.188  1.6796  2.2078  0.6775
    3PRO    HD3   35   2.597   3.171   2.020 -0.1994  0.2435  0.7772
    3PRO     CG   36   2.774   3.257   2.105 -0.2642 -0.0823  0.0926
    3PRO    HG2   37   2.789   3.305   2.201 -0.7947  0.3500 -0.0391
    3PRO    HG3   38   2.769   3.336   2.030 -0.5048 -0.1149  0.0739
    3PRO     CB   39   2.882   3.150   2.076 -0.2786 -0.5775  0.5192
    3PRO    HB2   40   2.979   3.182   2.116  0.2301 -0.4737 -0.7663
    3PRO    HB3   41   2.887   3.151   1.968 -2.3196 -0.7858  0.4025
    3PRO     CA   42   2.841   3.017   2.131  0.1297 -0.2783  0.2570
    3PRO     HA   43   2.860   2.945   2.052  0.9304 -1.2210  1.2823
    3PRO      C   44   2.912   2.978   2.262  0.7983 -0.6590  0.0240
    3PRO      O   45   3.025   2.928   2.247 -0.5711  0.1105 -0.5685
    4PRO      N   46   2.850   2.992   2.382 -0.1877 -0.7202  0.3453
    4PRO     CD   47   2.719   3.043   2.417  0.2350 -0.0272  0.2075
    4PRO    HD2   48   2.640   2.985   2.370  1.9320 -1.6327 -0.7333
    4PRO    HD3   49   2.703   3.144   2.378  1.0733  0.5045  1.1915
    4PRO     CG   50   2.708   3.055   2.565 -0.5242 -0.3055  0.1533
    4PRO    HG2   51   2.656   2.971   2.610 -2.9872  0.6666 -0.7903
    4PRO    HG3   52   2.659   3.147   2.595 -3.1032 -2.0033  1.3005
    4PRO     CB   53   2.854   3.050   2.605 -0.1115 -0.5532  0.8805
    4PRO    HB2   54   2.872   3.015   2.706  1.9953 -1.3028  0.2782
    4PRO    HB3   55   2.892   3.151   2.588  1.6677 -1.3474 -0.0782
    4PRO     CA   56   2.928   2.965   2.507  0.0286  0.7451 -0.7846
    4PRO     HA   57   3.027   3.009   2.502 -0.9723  3.1010 -0.6865
    4PRO      C   58   2.930   2.810   2.535  0.1277 -0.2886  0.4017
    4PRO      O   59   2.869   2.731   2.463  0.7141 -0.1342 -0.1300
    5ARG      N   60   2.998   2.778   2.644  0.2288  0.0172 -0.0361
    5ARG      H   61   3.046   2.858   2.683 -1.0312  0.7299  0.1084
    5ARG     CA   62   2.985   2.648   2.717 -0.5016 -0.0960 -0.3139
    5ARG     HA   63   3.030   2.573   2.653  0.0456 -0.8142  0.8849
    5ARG     CB   64   3.060   2.650   2.858 -0.0193  0.2574  0.0048
    5ARG    HB2   65   3.049   2.549   2.899  2.3727 -0.4015 -0.8953
    5ARG    HB3   66   3.166   2.672   2.848 -0.4890  3.3530  1.2027
    5ARG     CG   67   2.994   2.760   2.947  0.4405  0.3184 -0.4652
    5ARG    HG2   68   2.991   2.855   2.893  0.4659 -0.0538 -1.1213
    5ARG    HG3   69   2.892   2.736   2.980 -0.2313  3.4837 -0.0315
    5ARG     CD   70   3.075   2.773   3.074 -0.1818  0.7210  0.2201
    5ARG    HD2   71   3.014   2.834   3.142 -1.0398  1.0091 -0.7939
    5ARG    HD3   72   3.077   2.674   3.119  0.6403  0.3032 -0.7365
    5ARG     NE   73   3.208   2.830   3.050  0.6492  0.8173  0.4018
    5ARG     HE   74   3.215   2.910   2.989  0.1765 -0.4301 -1.3482
    5ARG     CZ   75   3.323   2.791   3.105 -0.4849  0.0014  0.2509
    5ARG    NH1   76   3.322   2.715   3.211  0.0616 -0.4104  0.5149
    5ARG   HH11   77   3.237   2.693   3.261  0.3695 -0.5074  0.9955
    5ARG   HH12   78   3.408   2.687   3.256  0.2486  0.3405  0.6250
    5ARG    NH2   79   3.436   2.829   3.055  0.7414 -0.4957 -0.1109
    5ARG   HH21   80   3.424   2.917   3.007  1.9326  0.7773  1.8673
    5ARG   HH22   81   3.521   2.794   3.096  1.1739  1.3231  0.5607
    5ARG      C   82   2.833   2.613   2.732 -0.4500 -0.1210  0.1344
    5ARG      O   83   2.746   2.708   2.743  0.0065 -0.0211  0.1786
    6CARG     N   84   2.802   2.480   2.754 -0.3010 -0.1270 -0.2792
    6CARG     H   85   2.878   2.415   2.739  0.1012  0.1621  0.4764
    6CARG    CA   86   2.668   2.424   2.778  0.3277  0.5641 -0.0084
    6CARG    HA   87   2.603   2.468   2.703 -1.1298 -1.3728  0.0756
    6CARG    CB   88   2.674   2.275   2.755  0.2882  0.1121 -0.1656
    6CARG   HB2   89   2.571   2.240   2.746  0.2995 -0.0093  0.1743
    6CARG   HB3   90   2.730   2.249   2.665  0.7844  0.1622  0.1281
    6CARG    CG   91   2.738   2.186   2.863 -1.0343 -1.2126 -0.0940
    6CARG   HG2   92   2.685   2.210   2.954  0.1402  0.6368  0.1289
    6CARG   HG3   93   2.709   2.085   2.832 -1.7323 -0.3748 -2.2931
    6CARG    CD   94   2.892   2.199   2.877 -0.2522  0.0374 -0.6635
    6CARG   HD2   95   2.940   2.195   2.780  0.8162  0.8048 -0.1731
    6CARG   HD3   96   2.904   2.297   2.924 -0.8803 -1.6181  3.1099
    6CARG    NE   97   2.943   2.099   2.969 -0.2383  0.0486  0.2433
    6CARG    HE   98   2.873   2.037   3.008  0.0975 -1.0742 -0.9081
    6CARG    CZ   99   3.062   2.061   3.004  0.4250 -0.4046 -0.3011
    6CARG   NH1  100   3.168   2.116   2.955 -0.2937  0.5278 -0.3117
    6CARG  HH11  101   3.154   2.204   2.909 -0.8636  0.8141  0.4002
    6CARG  HH12  102   3.259   2.097   2.995 -0.7304 -0.4162  0.2723
    6CARG   NH2  103   3.064   1.955   3.081 -0.1706  0.0079  0.4649
    6CARG  HH21  104   2.976   1.928   3.122 -0.2233 -1.8751 -0.8425
    6CARG  HH22  105   3.149   1.918   3.121 -0.1125  0.3306  0.6443
    6CARG     C  106   2.617   2.459   2.915  1.1040  1.0183 -1.0683
    6CARG     O  107   2.685   2.526   2.996  0.2137  0.0151 -0.2730
    6CARG   OXT  108   2.508   2.405   2.945 -0.2052  0.0652 -0.7719
    1PA    C116  109   3.355   2.674   5.469  0.5660 -0.0524  0.0351
    1PA    H16R  110   3.287   2.612   5.410  1.0661 -0.6388  0.0784
    1PA    H16S  111   3.448   2.690   5.414  0.2892 -2.8355 -1.3126
    1PA    H16T  112   3.310   2.774   5.474  1.0772  0.2065 -0.4136
    1PA    C115  113   3.385   2.619   5.612 -0.1712 -0.3987 -0.0402
    1PA    H15R  114   3.430   2.520   5.603  2.2701  0.9201 -2.9989
    1PA    H15S  115   3.461   2.684   5.654 -1.0998  0.8072 -0.1756
    1PA    C114  116   3.256   2.634   5.698 -0.3600 -0.4396  0.3002
    1PA    H14R  117   3.251   2.742   5.708 -2.3280 -0.3479 -1.4824
    1PA    H14S  118   3.174   2.579   5.651  1.1068 -0.2578 -2.6191
    1PA    C113  119   3.282   2.583   5.840  0.1854 -0.4205 -0.8637
    1PA    H13R  120   3.324   2.483   5.830 -0.6828 -0.6783 -2.0544
    1PA    H13S  121   3.360   2.645   5.884 -1.2069  0.6485  0.1553
    1PA    C112  122   3.148   2.596   5.924  0.1313  0.9859 -0.1904
    1PA    H12R  123   3.114   2.700   5.919  2.2446  1.6487 -1.6176
    1PA    H12S  124   3.063   2.542   5.883  0.2674 -0.1419  0.9851
    1PA    C111  125   3.164   2.557   6.070 -0.4040 -0.4484 -0.1797
    1PA    H11R  126   3.257   2.598   6.108 -1.0235 -2.1187  3.3037
    1PA    H11S  127   3.083   2.603   6.126  0.1580  0.5878 -0.2193
    1PA    C110  128   3.171   2.404   6.084 -0.5216  0.1582  0.0949
    1PA    H10R  129   3.082   2.361   6.037  0.8507  0.6283 -3.0245
    1PA    H10S  130   3.256   2.373   6.024 -1.2894 -1.7063 -0.0590
    1PA     C19  131   3.181   2.368   6.237 -0.1443  1.0728  0.3884
    1PA     H9R  132   3.262   2.429   6.277 -1.3493  1.9688  1.5163
    1PA     H9S  133   3.092   2.407   6.287 -1.4808 -0.1694 -0.9194
    1PA     C18  134   3.187   2.214   6.262 -0.3566  0.0628 -0.1789
    1PA     H8R  135   3.107   2.175   6.199 -0.6504 -0.6949  0.6455
    1PA     H8S  136   3.282   2.164   6.240 -0.7218 -1.3492  1.3608
    1PA     C17  137   3.162   2.176   6.409  0.0441  0.0611  0.3895
    1PA     H7R  138   3.055   2.174   6.430 -0.0368  2.5391  0.3379
    1PA     H7S  139   3.204   2.076   6.418  0.3152  0.4000  3.3145
    1PA     C16  140   3.237   2.264   6.516 -0.7461 -0.2173  0.0416
    1PA     H6R  141   3.336   2.268   6.470 -0.3316 -0.5526  0.9144
    1PA     H6S  142   3.190   2.363   6.523 -1.2620 -0.4369 -0.2701
    1PA     C15  143   3.242   2.196   6.652  0.0935  0.1347 -0.2737
    1PA     H5R  144   3.144   2.155   6.680 -0.9465  0.4815 -3.2590
    1PA     H5S  145   3.300   2.104   6.639  2.7447  1.5702  0.9555
    1PA     C14  146   3.292   2.285   6.760  0.1678 -0.0991 -0.5873
    1PA     H4R  147   3.351   2.227   6.832  0.6828 -0.1110 -1.0129
    1PA     H4S  148   3.360   2.362   6.721  0.2595 -1.0389 -2.3120
    1PA     C13  149   3.170   2.341   6.835  0.1174  0.2912  0.6054
    1PA     H3R  150   3.104   2.391   6.764  0.6149 -0.1255 -0.1501
    1PA     H3S  151   3.098   2.270   6.878 -0.1981 -0.8997 -1.8356
    1PA     C12  152   3.214   2.451   6.938  0.5864 -0.4206  0.2174
    1PA     H2R  153   3.293   2.412   7.002  0.3476 -1.9267 -0.3980
    1PA     H2S  154   3.267   2.529   6.882 -0.6724 -0.4894 -1.0706
    1PC     C11  155   3.100   2.508   7.012  1.1626 -0.3150 -0.5556
    1PC     O12  156   3.026   2.585   6.953  0.6690  0.4853  0.3191
    1PC     O11  157   3.070   2.450   7.131 -0.0862  0.0660 -0.1076
    1PC      C1  158   2.932   2.455   7.187  0.3677  0.1942  0.0457
    1PC      HR  159   2.944   2.461   7.295 -0.6382 -0.8703  0.2275
    1PC      HS  160   2.887   2.550   7.156 -1.6744 -1.1425 -1.2583
    1PC      C2  161   2.847   2.327   7.151  0.3689  0.2341  0.5559
    1PC      HX  162   2.749   2.338   7.198 -0.5349  1.0240 -1.4703
    1PC      C3  163   2.913   2.195   7.200  0.1735  0.0980 -0.1266
    1PC      HA  164   2.979   2.158   7.122  0.0099 -0.3852 -0.0417
    1PC      HB  165   2.989   2.210   7.277 -0.3895  1.1281  0.2346
    1PC     O31  166   2.819   2.105   7.256 -0.1066 -0.5713  0.1500
    1PC     P31  167   2.768   2.125   7.404 -0.8177  0.2455  0.2536
    1PC     O32  168   2.898   2.101   7.494  0.1678  0.2453  0.0991
    1PC     C31  169   2.954   1.973   7.511  0.6985 -0.4179  1.1203
    1PC     H1A  170   2.926   1.910   7.426  0.7068 -0.3590  1.0734
    1PC     H1B  171   3.062   1.993   7.510  0.0989  3.2875  0.5292
    1PC     C32  172   2.912   1.913   7.640  0.2164 -0.2816  0.3332
    1PC     H2A  173   2.805   1.892   7.645  0.2657 -0.2435  1.8809
    1PC     H2B  174   2.974   1.824   7.654  1.0444  0.2733  0.2710
    1PC     N31  175   2.940   1.988   7.765  0.1116  0.9863  0.1605
    1PC     C33  176   3.085   2.043   7.770 -0.3070  0.0549  0.2537
    1PC     H3A  177   3.090   2.100   7.863 -2.3173  0.7870 -0.0537
    1PC     H3B  178   3.153   1.958   7.767 -0.5773 -0.2203  1.6007
    1PC     H3C  179   3.110   2.110   7.687 -0.0232 -2.0765 -1.4238
    1PC     C34  180   2.856   2.105   7.776 -0.5078  0.3647  0.1399
    1PC     H4A  181   2.877   2.151   7.873 -2.4392  0.8391  0.3532
    1PC     H4B  182   2.884   2.173   7.695 -0.7756 -0.7250 -0.8693
    1PC     H4C  183   2.751   2.081   7.760 -0.4810 -1.5151  2.5123
    1PC     C35  184   2.903   1.898   7.885  0.2500 -0.2230 -0.6298
    1PC     H5A  185   2.963   1.807   7.880 -0.9048 -0.9317 -2.1386
    1PC     H5B  186   2.796   1.877   7.876  0.0756 -0.2228  1.3283
    1PC     H5C  187   2.910   1.945   7.983  0.7090  0.7325 -1.1111
    1PC     O33  188   2.733   2.269   7.427 -0.9703 -0.2614 -0.5035
    1PC     O34  189   2.685   2.008   7.438  0.0250 -0.0006  0.1977
    1PC     O21  190   2.833   2.314   7.008 -0.1738 -0.2940 -0.2833
    1PC     C21  191   2.783   2.413   6.930 -0.2391 -0.4332 -0.0829
    1PC     O22  192   2.728   2.511   6.971 -0.0103 -0.0032 -0.3849
    1OL     C12  193   2.797   2.382   6.779  0.1156 -0.6854 -0.2446
    1OL     H2R  194   2.709   2.326   6.746  0.9062 -0.1485 -3.4579
    1OL     H2S  195   2.884   2.322   6.753 -0.7311 -1.4747 -1.2940
    1OL     C13  196   2.786   2.513   6.696 -0.3575 -0.0903 -0.3626
    1OL     H3R  197   2.866   2.579   6.729  0.9574 -1.3510 -0.9702
    1OL     H3S  198   2.688   2.557   6.713  0.2359  2.4414 -3.1766
    1OL     C14  199   2.811   2.480   6.549 -0.3666 -0.3044 -0.0083
    1OL     H4R  200   2.915   2.456   6.527  0.2702  0.4229  2.0546
    1OL     H4S  201   2.786   2.573   6.497 -0.6933 -0.1420  0.4329
    1OL     C15  202   2.716   2.376   6.478  0.1427  0.3282  0.0090
    1OL     H5R  203   2.614   2.415   6.473 -0.1595 -0.3395  0.8383
    1OL     H5S  204   2.718   2.276   6.523 -1.3925 -0.3433 -1.3618
    1OL     C16  205   2.762   2.367   6.329 -0.5133 -0.3748  0.2863
    1OL     H6R  206   2.705   2.294   6.271 -0.7863  1.3870 -1.7187
    1OL     H6S  207   2.868   2.339   6.331 -0.3370  0.3048  0.8313
    1OL     C17  208   2.743   2.492   6.239 -0.2288 -0.0595  0.0976
    1OL     H7R  209   2.797   2.578   6.279  0.1207 -0.7490  1.1448
    1OL     H7S  210   2.638   2.521   6.237 -0.4304 -0.8277 -2.9339
    1OL     C18  211   2.788   2.471   6.094 -0.1030  0.2296 -0.5474
    1OL     H8R  212   2.724   2.399   6.043  1.2538 -0.6214 -1.0983
    1OL     H8S  213   2.892   2.439   6.083 -0.1708 -0.3779  0.4906
    1OL     C19  214   2.780   2.591   6.017  0.3802 -0.2771 -0.1784
    1OL     H9R  215   2.867   2.655   6.002  0.3948  0.1724  1.6893
    1OL    C110  216   2.674   2.625   5.938  0.4547 -0.5172 -0.6520
    1OL    H10R  217   2.682   2.714   5.877 -0.4475  0.7824  1.1025
    1OL    C111  218   2.541   2.549   5.926 -0.1817  0.2824  0.3721
    1OL    H11R  219   2.526   2.465   5.994 -0.7552  0.0643 -0.0117
    1OL    H11S  220   2.549   2.501   5.828 -2.1646 -1.5859  1.0717
    1OL    C112  221   2.418   2.648   5.927 -0.2372  0.4808 -0.1900
    1OL    H12R  222   2.323   2.596   5.908  0.8084 -1.3479 -0.5608
    1OL    H12S  223   2.424   2.717   5.843 -0.5394  1.2582  0.4250
    1OL    C113  224   2.403   2.708   6.069 -0.6350  0.2873  0.2960
    1OL    H13R  225   2.482   2.782   6.083  1.3715 -1.2470 -2.5442
    1OL    H13S  226   2.415   2.635   6.149 -0.3417  1.0775  0.9853
    1OL    C114  227   2.272   2.786   6.086  0.4684  0.2953 -0.7033
    1OL    H14R  228   2.264   2.856   6.002  0.0637  0.8832 -0.1773
    1OL    H14S  229   2.290   2.848   6.174  0.0099  0.0593 -0.4437
    1OL    C115  230   2.148   2.699   6.090  0.3574  0.6764 -0.0259
    1OL    H15R  231   2.174   2.611   6.149 -2.0303  1.5599  2.4348
    1OL    H15S  232   2.116   2.678   5.988  0.5642 -0.2978  0.1069
    1OL    C116  233   2.026   2.769   6.161  0.5599 -0.0201  0.3927
    1OL    H16R  234   2.066   2.820   6.249  0.9447  0.3284  0.0170
    1OL    H16S  235   1.951   2.693   6.186 -1.3232  1.2251 -1.3385
    1OL    C117  236   1.965   2.878   6.078 -0.1430  0.2542 -0.4375
    1OL    H17R  237   2.040   2.941   6.029 -1.1947 -1.2380 -4.1307
    1OL    H17S  238   1.899   2.939   6.140 -1.4994 -2.6134  1.0126
    1OL    C118  239   1.886   2.815   5.960 -0.1339 -0.6806 -0.5056
    1OL    H18R  240   1.812   2.741   5.992 -1.3885 -0.0251 -1.8055
    1OL    H18S  241   1.942   2.775   5.876  1.1507 -0.6212  0.3011
    1OL    H18T  242   1.819   2.894   5.924 -0.6027 -0.2915  1.1480
    1PA    C116  243   3.139   4.002   5.673  0.2772 -0.1261 -0.5692
    1PA    H16R  244   3.205   4.018   5.587 -0.3947 -1.3862 -1.3239
    1PA    H16S  245   3.085   4.093   5.699  1.4726  0.2399  0.7020
    1PA    H16T  246   3.066   3.929   5.638 -0.1851 -0.2196  0.5883
    1PA    C115  247   3.212   3.943   5.799  0.0031 -0.0797 -0.0385
    1PA    H15R  248   3.157   3.956   5.892  1.7574  0.3741  0.9558
    1PA    H15S  249   3.231   3.837   5.784 -0.8130 -0.6169  2.5123
    1PA    C114  250   3.341   4.019   5.808  0.4353  0.0824 -0.3480
    1PA    H14R  251   3.416   3.983   5.737  1.8644 -1.3047  1.7996
    1PA    H14S  252   3.319   4.123   5.783  1.3608  0.3758  0.0200
    1PA    C113  253   3.407   4.008   5.947 -0.1807  0.3160  0.2947
    1PA    H13R  254   3.508   4.050   5.941  0.2629 -0.9091 -1.1160
    1PA    H13S  255   3.354   4.068   6.021 -1.5624 -1.6317  0.9404
    1PA    C112  256   3.429   3.861   5.994 -0.3592 -0.0762  0.2308
    1PA    H12R  257   3.332   3.812   5.985 -0.2952 -0.4264  1.4093
    1PA    H12S  258   3.493   3.810   5.922  0.4431 -0.1843  1.0171
    1PA    C111  259   3.480   3.853   6.140  0.5677  0.0721  0.6465
    1PA    H11R  260   3.548   3.938   6.150 -0.8203  0.9538  3.2905
    1PA    H11S  261   3.394   3.886   6.200  2.0137  2.2702  1.5987
    1PA    C110  262   3.531   3.713   6.191  0.4517 -0.5522 -0.2686
    1PA    H10R  263   3.474   3.641   6.132  0.0266 -0.5035  0.0784
    1PA    H10S  264   3.626   3.693   6.142  0.5704  2.3538 -1.3677
    1PA     C19  265   3.542   3.679   6.334 -0.0069 -0.1183  0.4430
    1PA     H9R  266   3.616   3.747   6.377  2.2316 -2.6704  0.8101
    1PA     H9S  267   3.449   3.686   6.390  0.1284  0.6288  0.5794
    1PA     C18  268   3.605   3.538   6.356 -0.3418  1.0861  0.7770
    1PA     H8R  269   3.558   3.458   6.299  0.5249  1.3556 -0.3161
    1PA     H8S  270   3.711   3.528   6.333 -0.9440 -3.2785 -0.4498
    1PA     C17  271   3.593   3.485   6.499  0.3104 -0.6729  0.0514
    1PA     H7R  272   3.632   3.566   6.562 -0.2914 -1.5123  1.5403
    1PA     H7S  273   3.490   3.475   6.533 -0.2536  2.5673 -0.4926
    1PA     C16  274   3.680   3.363   6.526  0.7277 -0.1083 -0.0056
    1PA     H6R  275   3.781   3.388   6.496  0.6894  0.1899  0.1141
    1PA     H6S  276   3.692   3.344   6.633  2.0836 -0.1635 -0.1577
    1PA     C15  277   3.630   3.228   6.448 -0.3906 -0.3137  0.2800
    1PA     H5R  278   3.523   3.218   6.466 -0.6833  1.1297 -0.6649
    1PA     H5S  279   3.641   3.247   6.342  2.2079 -0.5326  0.4858
    1PA     C14  280   3.720   3.106   6.476 -0.1058  0.5369  1.1564
    1PA     H4R  281   3.825   3.134   6.466 -0.6763  2.4302  0.3313
    1PA     H4S  282   3.704   3.090   6.583 -2.7837 -0.5398  0.6300
    1PA     C13  283   3.696   2.978   6.395  0.5482 -0.1787 -1.0903
    1PA     H3R  284   3.674   3.004   6.291  0.0346  1.6198 -0.5516
    1PA     H3S  285   3.780   2.908   6.403 -0.3701 -1.5453 -2.8190
    1PA     C12  286   3.576   2.897   6.435  0.1877  0.1213 -0.3428
    1PA     H2R  287   3.486   2.955   6.415  1.7201  2.8668  0.4422
    1PA     H2S  288   3.575   2.808   6.373  2.6806 -0.7814  0.8123
    1PC     C11  289   3.581   2.847   6.575  0.0044  0.5859  0.0720
    1PC     O12  290   3.686   2.808   6.631 -0.0590 -0.7381 -0.0104
    1PC     O11  291   3.471   2.876   6.644  0.2182  0.2065 -0.5533
    1PC      C1  292   3.473   2.848   6.787  0.2797 -0.2785  0.1668
    1PC      HR  293   3.464   2.740   6.799 -0.2064  0.0321  2.9342
    1PC      HS  294   3.564   2.888   6.834  0.6831  0.2059 -1.0047
    1PC      C2  295   3.342   2.902   6.858 -0.6495 -0.7470 -0.0228
    1PC      HX  296   3.340   3.010   6.842  3.5128 -0.4706  0.7249
    1PC      C3  297   3.342   2.868   7.011 -0.2781 -0.1064  0.3198
    1PC      HA  298   3.253   2.900   7.065  0.1795  3.4759 -0.9659
    1PC      HB  299   3.343   2.761   7.035 -1.6616 -0.2270 -0.1031
    1PC     O31  300   3.468   2.926   7.071 -0.0429 -0.2722  0.0781
    1PC     P31  301   3.486   3.074   7.115 -0.3819 -0.4639  0.0321
    1PC     O32  302   3.472   3.063   7.280  0.1804 -0.1983 -0.0711
    1PC     C31  303   3.582   3.014   7.353  0.3411 -0.4244 -0.3872
    1PC     H1A  304   3.606   2.912   7.320  2.2136 -0.4560  0.9876
    1PC     H1B  305   3.672   3.065   7.316 -0.9252  0.2856 -2.6064
    1PC     C32  306   3.561   3.024   7.500 -0.4955  0.1363  0.0538
    1PC     H2A  307   3.456   3.002   7.523 -0.9553  1.0948 -1.1074
    1PC     H2B  308   3.623   2.951   7.552 -1.9045 -2.5377 -1.9136
    1PC     N31  309   3.583   3.148   7.568  0.3110  0.3546 -0.0309
    1PC     C33  310   3.530   3.270   7.497 -0.3105  0.1793 -0.1359
    1PC     H3A  311   3.553   3.363   7.550 -1.7962  1.5429 -1.7898
    1PC     H3B  312   3.583   3.271   7.402 -0.3740  0.0754 -0.1723
    1PC     H3C  313   3.424   3.262   7.472 -0.4137 -0.5194  0.5336
    1PC     C34  314   3.510   3.140   7.699 -0.2229 -0.2023  0.5965
    1PC     H4A  315   3.553   3.062   7.762 -1.1088 -0.5391  0.7815
    1PC     H4B  316   3.521   3.238   7.744 -1.2851  0.6322 -0.9116
    1PC     H4C  317   3.404   3.124   7.681  0.2576 -0.9872 -1.7131
    1PC     C35  318   3.728   3.178   7.606  0.0331 -0.6059 -0.0232
    1PC     H5A  319   3.765   3.107   7.681  0.0560 -1.1987 -0.5918
    1PC     H5B  320   3.738   3.281   7.639 -0.7612 -1.2945  2.4836
    1PC     H5C  321   3.795   3.163   7.521  1.2014  0.9790  0.6030
    1PC     O33  322   3.625   3.108   7.077  0.3183  0.6958  0.1538
    1PC     O34  323   3.375   3.156   7.064  0.5501 -0.3351 -0.0166
    1PC     O21  324   3.231   2.826   6.801  0.1567 -0.6576  0.2763
    1PC     C21  325   3.127   2.895   6.763  0.2114  0.1936  0.5335
    1PC     O22  326   3.098   3.011   6.795  0.3443  0.5044 -0.1646
    1OL     C12  327   3.045   2.814   6.657 -0.1791  0.4780  0.9515
    1OL     H2R  328   2.943   2.850   6.666  0.0597  1.1782  0.8769
    1OL     H2S  329   3.047   2.707   6.678  0.3479  0.0379 -1.2890
    1OL     C13  330   3.102   2.836   6.508  0.2932 -0.4141 -0.7301
    1OL     H3R  331   3.038   2.778   6.441 -2.2533  3.2649 -1.6250
    1OL     H3S  332   3.207   2.808   6.495  0.7961  1.1552 -0.1672
    1OL     C14  333   3.090   2.980   6.457 -0.3822 -0.1661  0.4805
    1OL     H4R  334   3.186   3.025   6.484 -0.6039 -0.4305  1.7461
    1OL     H4S  335   3.003   3.027   6.504  0.2396  0.8474  0.6118
    1OL     C15  336   3.079   2.995   6.304  0.0158  0.2413 -0.4183
    1OL     H5R  337   3.064   3.098   6.272  1.2396  0.2066 -1.1427
    1OL     H5S  338   3.000   2.931   6.265  0.1457 -0.0240 -0.2511
    1OL     C16  339   3.200   2.937   6.233 -0.5290 -0.4598 -0.0159
    1OL     H6R  340   3.201   2.828   6.237 -1.4055 -0.5583 -1.9214
    1OL     H6S  341   3.289   2.973   6.284 -1.1214  1.0599 -0.0230
    1OL     C17  342   3.219   2.983   6.083 -0.0755 -0.1517 -0.3840
    1OL     H7R  343   3.215   3.092   6.084 -0.0779 -0.1275  3.7495
    1OL     H7S  344   3.130   2.942   6.034 -1.2269  1.6845  0.1482
    1OL     C18  345   3.350   2.942   6.015 -0.8068  0.4291 -0.1012
    1OL     H8R  346   3.347   2.981   5.913 -0.8287  1.2661  0.2225
    1OL     H8S  347   3.363   2.833   6.007  0.4354  0.5429  0.3003
    1OL     C19  348   3.472   2.999   6.085 -0.2370 -0.2820 -0.3982
    1OL     H9R  349   3.484   2.952   6.182  0.7830 -1.0600 -0.8991
    1OL    C110  350   3.545   3.103   6.039 -0.1876 -0.5351 -0.1930
    1OL    H10R  351   3.624   3.147   6.100 -1.0445  0.7907 -0.0258
    1OL    C111  352   3.520   3.171   5.904  0.7504  0.0893  0.3925
    1OL    H11R  353   3.562   3.271   5.916  2.7523 -0.5853 -0.7294
    1OL    H11S  354   3.413   3.185   5.889  0.3966 -2.8068 -0.1723
    1OL    C112  355   3.598   3.090   5.790  0.1319 -0.1896 -0.6917
    1OL    H12R  356   3.563   2.986   5.784  1.4167 -0.5974 -1.1761
    1OL    H12S  357   3.704   3.087   5.813  0.1460  1.0324 -0.5778
    1OL    C113  358   3.582   3.170   5.658 -0.5072  0.2911  0.1843
    1OL    H13R  359   3.622   3.271   5.676 -2.0789  0.8899  0.3862
    1OL    H13S  360   3.479   3.183   5.624 -0.8685 -0.6891  0.8897
    1OL    C114  361   3.667   3.105   5.545  0.2391 -0.5822  0.2775
    1OL    H14R  362   3.641   3.000   5.534 -0.9638 -0.2402 -0.2896
    1OL    H14S  363   3.771   3.111   5.578 -0.0209 -0.3173  1.0452
    1OL    C115  364   3.658   3.199   5.420 -0.4030 -0.2632  0.3888
    1OL    H15R  365   3.669   3.303   5.452 -1.8669 -0.5583  1.9161
    1OL    H15S  366   3.562   3.188   5.369 -0.1715  3.3744 -0.9790
    1OL    C116  367   3.773   3.173   5.315 -0.8088  0.1931  0.7651
    1OL    H16R  368   3.764   3.086   5.250  2.2748  1.3208 -1.2831
    1OL    H16S  369   3.864   3.165   5.375  0.3037  2.0253 -0.6074
    1OL    C117  370   3.787   3.304   5.229 -0.2884  0.1313 -1.5219
    1OL    H17R  371   3.857   3.285   5.147  1.1736 -1.4257  0.0485
    1OL    H17S  372   3.827   3.373   5.303  2.0243 -0.2589 -2.3781
    1OL    C118  373   3.652   3.350   5.164 -0.4725 -0.2640  0.5021
    1OL    H18R  374   3.565   3.346   5.230 -0.7419 -2.1896  0.0515
    1OL    H18S  375   3.633   3.276   5.086 -2.2364 -0.2861  0.9369
    1OL    H18T  376   3.670   3.447   5.116 -1.1387 -1.5361 -2.4644
    1PA    C116  377   4.026   2.006   5.300 -0.3662  0.1794 -0.5797
    1PA    H16R  378   3.956   1.955   5.233  1.1638 -0.2390 -1.8807
    1PA    H16S  379   3.986   2.006   5.401 -0.6050 -0.2394 -0.6739
    1PA    H16T  380   4.120   1.951   5.297  0.2029  1.1794 -3.1938
    1PA    C115  381   4.053   2.153   5.265  0.0879  0.5865  0.3026
    1PA    H15R  382   4.160   2.172   5.279  1.4104 -3.7229 -3.0018
    1PA    H15S  383   4.043   2.179   5.160  1.5982  0.5314  0.1392
    1PA    C114  384   3.970   2.255   5.350 -0.1029 -0.5547 -0.0891
    1PA    H14R  385   3.989   2.349   5.297  0.9211 -1.1457 -0.7982
    1PA    H14S  386   3.862   2.238   5.347 -0.2427  0.4381 -1.7076
    1PA    C113  387   4.022   2.269   5.499 -0.5534 -0.5161  0.2187
    1PA    H13R  388   4.027   2.169   5.544 -0.4327 -0.3828  0.5011
    1PA    H13S  389   4.124   2.308   5.510 -1.7439  2.2589  2.0588
    1PA    C112  390   3.928   2.355   5.584 -0.5845 -0.6683  0.4700
    1PA    H12R  391   3.971   2.455   5.593  1.8669 -1.7503  1.2412
    1PA    H12S  392   3.836   2.367   5.528 -1.1951  2.4086  2.0528
    1PA    C111  393   3.892   2.304   5.727  0.1288 -0.0726  0.6486
    1PA    H11R  394   3.837   2.387   5.771  1.3463  0.9423  0.2845
    1PA    H11S  395   3.835   2.211   5.718  2.3169 -1.4397  0.4184
    1PA    C110  396   4.002   2.254   5.831 -0.1148 -0.3669  0.9507
    1PA    H10R  397   3.968   2.213   5.926  1.2921 -3.3107  0.2704
    1PA    H10S  398   4.047   2.171   5.775 -3.4625 -1.1830 -0.6720
    1PA     C19  399   4.112   2.360   5.836  0.3484 -0.4182 -0.3948
    1PA     H9R  400   4.143   2.390   5.736 -1.9097  2.7193 -0.2447
    1PA     H9S  401   4.078   2.452   5.883  2.2177  0.4221 -0.6114
    1PA     C18  402   4.233   2.298   5.906  0.1630 -0.0468 -0.6055
    1PA     H8R  403   4.269   2.209   5.856  0.9279 -2.0738  3.3282
    1PA     H8S  404   4.316   2.370   5.905  0.7768 -0.6797  1.4529
    1PA     C17  405   4.213   2.258   6.057 -0.7573 -0.1515  1.3241
    1PA     H7R  406   4.163   2.343   6.105  1.5651  1.6132  0.6924
    1PA     H7S  407   4.153   2.167   6.060 -1.0630 -0.0759 -1.0267
    1PA     C16  408   4.335   2.234   6.138  1.0647 -0.5339 -0.0095
    1PA     H6R  409   4.380   2.139   6.107  1.8016  0.1170 -0.9584
    1PA     H6S  410   4.397   2.319   6.108  0.3449  0.8206  2.2137
    1PA     C15  411   4.297   2.243   6.291 -0.2740  0.4997  0.3534
    1PA     H5R  412   4.394   2.249   6.339  0.0422 -1.8996  0.0918
    1PA     H5S  413   4.252   2.342   6.304 -0.3310  0.5622 -0.2679
    1PA     C14  414   4.209   2.124   6.332 -0.1686 -1.5143  0.2728
    1PA     H4R  415   4.114   2.123   6.278 -0.1799  1.0887  0.1635
    1PA     H4S  416   4.263   2.033   6.304  2.2580  0.2965 -1.2097
    1PA     C13  417   4.185   2.132   6.485  0.3740  0.3867  0.1236
    1PA     H3R  418   4.284   2.137   6.531  0.8144 -1.8684 -0.5160
    1PA     H3S  419   4.146   2.231   6.510 -0.6617  0.1020 -0.3591
    1PA     C12  420   4.097   2.018   6.541 -0.7333  0.0662 -0.2212
    1PA     H2R  421   4.003   2.010   6.487 -1.3006 -0.5132  0.8461
    1PA     H2S  422   4.144   1.921   6.554 -1.6041  0.0250  3.0549
    1PC     C11  423   4.056   2.061   6.679  0.8539  0.4162 -0.5018
    1PC     O12  424   4.139   2.072   6.766  0.2104  0.0458 -0.2347
    1PC     O11  425   3.919   2.074   6.696  0.8201  0.0854 -0.3526
    1PC      C1  426   3.891   2.106   6.835  0.9207  0.2025  0.3088
    1PC      HR  427   3.929   2.021   6.892 -0.0286  0.5495  1.4840
    1PC      HS  428   3.943   2.197   6.866 -0.5094  1.5510 -1.1119
    1PC      C2  429   3.747   2.124   6.866 -0.6879  0.1301 -0.3492
    1PC      HX  430   3.729   2.160   6.968 -0.0974  0.2151 -0.2685
    1PC      C3  431   3.681   1.991   6.834  0.1562 -0.2292  0.3667
    1PC      HA  432   3.575   2.008   6.812  0.0525  1.2673  1.8949
    1PC      HB  433   3.734   1.952   6.747 -2.0759 -0.5429 -0.9076
    1PC     O31  434   3.701   1.894   6.940 -0.5006  0.4610  0.0118
    1PC     P31  435   3.617   1.892   7.074  0.1374  0.2218  0.0307
    1PC     O32  436   3.554   1.756   7.058  0.1223  0.3233 -0.2776
    1PC     C31  437   3.624   1.639   7.107  0.1381  0.2756 -0.7869
    1PC     H1A  438   3.710   1.610   7.047  2.4630  1.3045  1.9611
    1PC     H1B  439   3.657   1.660   7.209 -2.2022  0.4147 -0.0113
    1PC     C32  440   3.516   1.524   7.104  0.8160 -0.7992 -0.2646
    1PC     H2A  441   3.565   1.431   7.134 -1.4159 -1.4001  1.6549
    1PC     H2B  442   3.441   1.543   7.181  0.2775  0.2882 -1.0592
    1PC     N31  443   3.446   1.491   6.978 -0.4573 -0.6361 -0.9482
    1PC     C33  444   3.544   1.484   6.862  0.9512  0.2577 -0.6322
    1PC     H3A  445   3.489   1.437   6.780  0.4203 -0.7413  0.2779
    1PC     H3B  446   3.559   1.588   6.833  1.6013  0.8311  1.6165
    1PC     H3C  447   3.634   1.425   6.877  1.9174  2.1222  1.2592
    1PC     C34  448   3.373   1.359   6.998 -0.6328 -0.4809 -0.0087
    1PC     H4A  449   3.321   1.378   7.092  1.1037 -0.2987  0.9303
    1PC     H4B  450   3.310   1.335   6.912  1.9152 -1.0880 -1.7683
    1PC     H4C  451   3.450   1.282   7.002 -0.6944 -0.4987  0.7375
    1PC     C35  452   3.345   1.592   6.949  0.1902 -0.3717  0.2689
    1PC     H5A  453   3.331   1.605   6.842  1.7170  0.2844  0.1280
    1PC     H5B  454   3.378   1.684   6.999 -0.6188  0.0722 -0.0027
    1PC     H5C  455   3.248   1.567   6.992 -0.3345  3.0144  1.2747
    1PC     O33  456   3.712   1.891   7.188  0.0702 -0.0834  0.6684
    1PC     O34  457   3.513   1.997   7.071  0.6665  0.0820 -0.1837
    1PC     O21  458   3.686   2.227   6.779  0.3120 -0.3391  0.0703
    1PC     C21  459   3.735   2.355   6.787 -0.4119  0.1746 -1.1591
    1PC     O22  460   3.818   2.387   6.874 -0.3236 -0.1604 -0.3422
    1OL     C12  461   3.670   2.452   6.693 -0.3057  0.3735  0.2202
    1OL     H2R  462   3.699   2.554   6.721  0.2725 -0.0883  1.3397
    1OL     H2S  463   3.561   2.446   6.695 -0.3534  0.9759 -0.3033
    1OL     C13  464   3.728   2.435   6.551 -0.7836 -0.4149  0.2979
    1OL     H3R  465   3.716   2.332   6.517 -2.3065 -0.0765 -0.2225
    1OL     H3S  466   3.835   2.460   6.554 -1.2209  1.5121  0.7508
    1OL     C14  467   3.664   2.524   6.442  0.4935 -0.2352 -0.0086
    1OL     H4R  468   3.704   2.624   6.460 -1.0574  0.3517  0.3359
    1OL     H4S  469   3.555   2.521   6.451  0.5737 -1.0091  0.7714
    1OL     C15  470   3.699   2.483   6.295 -0.1367  0.0049  0.3189
    1OL     H5R  471   3.807   2.468   6.291  0.0232  1.0988  0.1393
    1OL     H5S  472   3.688   2.567   6.226 -0.0869  2.2296  2.9251
    1OL     C16  473   3.624   2.362   6.242  0.4152  0.1307 -0.8416
    1OL     H6R  474   3.521   2.395   6.232 -0.0838 -0.9340  0.5717
    1OL     H6S  475   3.621   2.272   6.304  0.3237  1.8240  1.7199
    1OL     C17  476   3.670   2.339   6.092 -0.5807  0.5458 -0.0886
    1OL     H7R  477   3.779   2.328   6.082 -0.3044  1.9885  1.0985
    1OL     H7S  478   3.638   2.423   6.030 -0.7646 -1.1718 -2.3722
    1OL     C18  479   3.591   2.227   6.028  0.6891 -0.1578 -0.5960
    1OL     H8R  480   3.605   2.225   5.920  0.7582  1.3482 -0.6266
    1OL     H8S  481   3.485   2.252   6.038  0.8789  0.2044  0.5285
    1OL     C19  482   3.632   2.100   6.094 -0.0056 -0.1880 -0.5122
    1OL     H9R  483   3.594   2.086   6.195 -1.1653 -0.2866 -0.9537
    1OL    C110  484   3.708   2.005   6.040 -0.4791  0.7539  0.8622
    1OL    H10R  485   3.734   1.919   6.101  1.2153 -0.9349 -2.1592
    1OL    C111  486   3.779   2.004   5.902  0.1443 -0.3358 -0.8301
    1OL    H11R  487   3.886   2.017   5.918  0.3542 -4.4260  1.6346
    1OL    H11S  488   3.737   2.079   5.834 -0.8589 -0.5431 -0.4550
    1OL    C112  489   3.753   1.872   5.831 -0.4638  0.3313  0.7091
    1OL    H12R  490   3.646   1.854   5.825 -0.7197  1.0096  2.5949
    1OL    H12S  491   3.797   1.788   5.887  2.5732 -0.1842 -2.2675
    1OL    C113  492   3.811   1.869   5.692 -0.5378  0.2647 -0.6087
    1OL    H13R  493   3.917   1.845   5.693 -1.1657 -2.7246 -0.3331
    1OL    H13S  494   3.794   1.960   5.634 -0.7359 -0.7755 -2.1963
    1OL    C114  495   3.758   1.757   5.605  0.7886  0.5988 -0.0582
    1OL    H14R  496   3.797   1.772   5.504 -1.3157 -0.7433 -1.1152
    1OL    H14S  497   3.650   1.772   5.598  0.9502  1.2201 -1.3451
    1OL    C115  498   3.773   1.616   5.658 -0.0042  0.4484  0.1041
    1OL    H15R  499   3.736   1.542   5.586 -0.7512 -0.0361  0.9753
    1OL    H15S  500   3.707   1.598   5.743 -0.4007 -1.7067 -0.6314
    1OL    C116  501   3.914   1.555   5.699  0.3501  0.1133 -0.2331
    1OL    H16R  502   3.969   1.618   5.769  4.0800 -1.8565 -1.2506
    1OL    H16S  503   3.976   1.548   5.609  0.5789  1.7595 -0.2241
    1OL    C117  504   3.910   1.420   5.770  0.7621 -0.1994 -0.6222
    1OL    H17R  505   3.824   1.419   5.838 -0.3256  1.8213 -1.9137
    1OL    H17S  506   4.001   1.418   5.831  0.2667 -1.7590  0.1085
    1OL    C118  507   3.908   1.295   5.682 -0.2721 -0.2493 -0.3279
    1OL    H18R  508   4.005   1.281   5.634  0.8780 -1.3044  2.2411
    1OL    H18S  509   3.826   1.297   5.610  1.1306 -1.7894 -2.0149
    1OL    H18T  510   3.883   1.206   5.740  0.1895  0.0715  0.3687
    1PA    C116  511   3.551   2.209   5.329 -0.0288  0.5286 -0.2634
    1PA    H16R  512   3.448   2.175   5.325 -0.0740  0.4389  1.2216
    1PA    H16S  513   3.610   2.156   5.253 -2.2032 -2.4641  0.0642
    1PA    H16T  514   3.565   2.317   5.320 -0.3535  0.4979 -1.2336
    1PA    C115  515   3.601   2.152   5.462 -0.6642 -0.2676  0.2493
    1PA    H15R  516   3.562   2.056   5.496  1.3502 -0.7511  1.2759
    1PA    H15S  517   3.709   2.143   5.447 -0.8433 -1.4245 -0.4172
    1PA    C114  518   3.555   2.245   5.579 -0.8898  0.0973  0.2219
    1PA    H14R  519   3.592   2.212   5.676  0.8371  2.8592  0.5508
    1PA    H14S  520   3.601   2.343   5.568  1.2408 -0.7158  1.6740
    1PA    C113  521   3.409   2.264   5.593  0.1345  0.3354 -0.6366
    1PA    H13R  522   3.388   2.321   5.684 -0.4632  0.3383 -0.7739
    1PA    H13S  523   3.382   2.320   5.504 -0.5134 -2.2607 -2.1351
    1PA    C112  524   3.312   2.145   5.602 -0.1482 -0.0445  0.2519
    1PA    H12R  525   3.212   2.189   5.612 -0.0896  0.5579 -1.6172
    1PA    H12S  526   3.328   2.089   5.510  0.4027 -1.4391  1.1783
    1PA    C111  527   3.328   2.057   5.727  0.6029  0.3456  0.2582
    1PA    H11R  528   3.422   2.003   5.714  0.2020 -1.0592  2.9081
    1PA    H11S  529   3.334   2.129   5.808 -2.9537 -1.0865  1.8931
    1PA    C110  530   3.210   1.968   5.755 -0.0995 -0.2423 -0.2053
    1PA    H10R  531   3.127   2.038   5.771  0.8646  0.8539  0.0537
    1PA    H10S  532   3.189   1.894   5.678  0.9267 -1.4961  0.6987
    1PA     C19  533   3.238   1.883   5.880 -0.3064 -0.3904  0.2280
    1PA     H9R  534   3.156   1.812   5.893  0.1869 -1.0363 -0.1499
    1PA     H9S  535   3.328   1.822   5.866 -1.3754 -1.6231 -1.4919
    1PA     C18  536   3.264   1.968   6.004 -0.1207 -0.7166  0.0597
    1PA     H8R  537   3.349   2.037   5.997 -0.6982 -0.1881 -2.4272
    1PA     H8S  538   3.169   2.019   6.016  0.5085  0.2648  0.9739
    1PA     C17  539   3.302   1.880   6.124 -0.0445  0.7570  0.7782
    1PA     H7R  540   3.396   1.829   6.103 -0.4007  0.1968  0.5363
    1PA     H7S  541   3.325   1.948   6.206  0.7896 -1.7032  2.6359
    1PA     C16  542   3.190   1.784   6.172 -0.2259  0.0586  0.0977
    1PA     H6R  543   3.096   1.834   6.193 -0.0664 -0.0257  1.0180
    1PA     H6S  544   3.172   1.704   6.100  0.7524 -0.6894  0.6594
    1PA     C15  545   3.220   1.708   6.304 -0.1942  0.2860  0.3222
    1PA     H5R  546   3.310   1.649   6.289  0.8053  1.4601  1.5260
    1PA     H5S  547   3.256   1.781   6.377  2.0485 -1.9595  1.5396
    1PA     C14  548   3.098   1.620   6.357 -0.2586 -0.2424  0.1367
    1PA     H4R  549   3.007   1.680   6.366 -0.0727  0.6418 -3.0841
    1PA     H4S  550   3.065   1.537   6.294 -0.2121 -0.1860  0.0368
    1PA     C13  551   3.119   1.553   6.497  0.4707 -0.6232  0.3520
    1PA     H3R  552   3.147   1.632   6.568  0.1840 -1.3912  1.3279
    1PA     H3S  553   3.027   1.510   6.538 -0.4509 -0.7037 -1.7455
    1PA     C12  554   3.203   1.427   6.490 -0.5150  0.0068 -0.5083
    1PA     H2R  555   3.170   1.358   6.413  0.9427 -1.5631  0.2466
    1PA     H2S  556   3.307   1.453   6.467 -1.0384  0.3003 -2.7184
    1PC     C11  557   3.203   1.348   6.620 -0.7838 -0.2697 -0.2585
    1PC     O12  558   3.281   1.372   6.711  0.1205  0.2967 -0.6680
    1PC     O11  559   3.127   1.240   6.608 -0.5677  0.0790  0.0025
    1PC      C1  560   3.124   1.151   6.722 -0.6471 -0.8437 -0.2932
    1PC      HR  561   3.088   1.054   6.688 -1.9006 -0.9658  1.3152
    1PC      HS  562   3.225   1.138   6.763 -1.3072 -0.7199  1.4359
    1PC      C2  563   3.021   1.205   6.825  0.4187 -0.1605  0.6507
    1PC      HX  564   3.063   1.299   6.860  0.7805 -0.9196  2.3561
    1PC      C3  565   3.008   1.111   6.946 -0.5196 -0.6467 -0.1577
    1PC      HA  566   2.913   1.125   6.999 -1.1039  0.7468 -1.5276
    1PC      HB  567   3.010   1.007   6.912  2.6845 -1.0311  1.0497
    1PC     O31  568   3.125   1.112   7.034  0.7645  0.3591  0.2150
    1PC     P31  569   3.126   1.177   7.180  0.5223  0.0025  0.3306
    1PC     O32  570   3.089   1.327   7.164 -0.3476  0.1310  0.0804
    1PC     C31  571   2.952   1.372   7.163 -0.1868 -0.1097 -0.4691
    1PC     H1A  572   2.952   1.470   7.115 -0.0213 -0.0143 -0.2781
    1PC     H1B  573   2.880   1.308   7.112 -0.1501  0.8760 -1.7703
    1PC     C32  574   2.902   1.371   7.308  0.1105 -0.4373 -0.2270
    1PC     H2A  575   2.800   1.409   7.305  0.3603  0.2692  0.2327
    1PC     H2B  576   2.901   1.269   7.347 -0.3495 -1.5839 -3.0772
    1PC     N31  577   2.964   1.452   7.423  0.4401  0.4032  0.2385
    1PC     C33  578   2.991   1.591   7.383  0.0597 -0.2867  0.4903
    1PC     H3A  579   2.901   1.634   7.338 -1.2488  0.6867  3.8954
    1PC     H3B  580   3.006   1.647   7.475 -2.3758  0.9971  0.1410
    1PC     H3C  581   3.079   1.606   7.320 -0.6079 -0.9675 -0.6156
    1PC     C34  582   2.861   1.461   7.533 -0.4769  0.0378  0.8667
    1PC     H4A  583   2.763   1.484   7.491 -0.1593  2.3648  1.3484
    1PC     H4B  584   2.859   1.364   7.584  0.7631 -0.0903  0.6797
    1PC     H4C  585   2.884   1.536   7.609  1.1238  0.6513 -0.1966
    1PC     C35  586   3.088   1.388   7.475  0.3814  0.2378  0.1724
    1PC     H5A  587   3.158   1.396   7.391  0.9475  1.5005  0.7494
    1PC     H5B  588   3.071   1.282   7.496 -3.0788  0.9943  1.3900
    1PC     H5C  589   3.136   1.448   7.552 -0.1405  1.0868 -0.1576
    1PC     O33  590   3.022   1.112   7.262 -0.4451 -0.0013  0.3852
    1PC     O34  591   3.263   1.176   7.226 -0.0667 -0.5052  0.2336
    1PC     O21  592   2.893   1.217   6.758 -0.0114  0.4886 -0.3469
    1PC     C21  593   2.840   1.341   6.744 -0.4453  0.2891 -0.5024
    1PC     O22  594   2.903   1.446   6.741  0.1478  0.5619 -0.0545
    1OL     C12  595   2.692   1.338   6.729 -0.4483 -0.2852  0.0021
    1OL     H2R  596   2.651   1.384   6.819 -0.6498  1.3839 -0.9174
    1OL     H2S  597   2.658   1.235   6.716  0.8658 -1.1224  2.8862
    1OL     C13  598   2.648   1.415   6.607 -0.3976  0.3503 -0.1067
    1OL     H3R  599   2.663   1.522   6.621  0.3729  0.3280 -0.7653
    1OL     H3S  600   2.540   1.405   6.594 -0.2939 -1.4555  0.3071
    1OL     C14  601   2.714   1.367   6.472 -0.4997 -0.2460  0.6537
    1OL     H4R  602   2.659   1.277   6.443  0.9124 -0.6339 -0.8706
    1OL     H4S  603   2.814   1.325   6.482  0.6474  2.5918  1.5344
    1OL     C15  604   2.712   1.478   6.364  0.4405 -0.0003  0.1016
    1OL     H5R  605   2.768   1.564   6.402  1.8114 -2.2983  3.5697
    1OL     H5S  606   2.609   1.508   6.346  0.9112 -0.0038 -2.7929
    1OL     C16  607   2.767   1.435   6.228  0.1298 -0.0888  0.5142
    1OL     H6R  608   2.707   1.355   6.185 -0.9791  1.1432 -0.2406
    1OL     H6S  609   2.869   1.399   6.245 -0.1657 -0.8204  0.7541
    1OL     C17  610   2.771   1.555   6.122 -0.0397  0.8093  0.0087
    1OL     H7R  611   2.823   1.644   6.159  0.4931  0.7648 -0.6241
    1OL     H7S  612   2.670   1.591   6.100 -0.9015 -0.3000  1.9896
    1OL     C18  613   2.851   1.504   5.998 -0.3484  0.4530 -0.0281
    1OL     H8R  614   2.814   1.410   5.956  0.4934 -0.6069  1.5164
    1OL     H8S  615   2.953   1.474   6.024  0.0289  1.5393 -0.2440
    1OL     C19  616   2.873   1.607   5.892 -0.2981 -0.2926 -0.2149
    1OL     H9R  617   2.938   1.687   5.925 -0.5438  0.1139 -0.7015
    1OL    C110  618   2.830   1.600   5.766  0.1316 -0.3408 -0.6582
    1OL    H10R  619   2.857   1.680   5.699 -1.8430  1.3152  0.4851
    1OL    C111  620   2.746   1.486   5.709  0.6931 -0.3631  0.1909
    1OL    H11R  621   2.685   1.441   5.787 -0.2983  1.9425  0.7681
    1OL    H11S  622   2.814   1.410   5.670  0.6912 -0.6008  0.6565
    1OL    C112  623   2.644   1.525   5.603 -0.2381 -0.2863 -0.4629
    1OL    H12R  624   2.586   1.438   5.573 -1.4667  0.0115  0.9591
    1OL    H12S  625   2.691   1.557   5.510 -0.8173 -1.2825 -1.1001
    1OL    C113  626   2.540   1.636   5.634 -0.9088 -0.0505  1.0485
    1OL    H13R  627   2.592   1.729   5.657 -0.7650 -0.1990  1.3306
    1OL    H13S  628   2.498   1.606   5.730 -1.2379 -0.1512  0.8734
    1OL    C114  629   2.421   1.654   5.538  0.7804  0.2162 -0.4090
    1OL    H14R  630   2.344   1.709   5.593  0.7370 -0.0674 -0.1831
    1OL    H14S  631   2.384   1.554   5.515 -0.1688 -0.1333  2.4007
    1OL    C115  632   2.445   1.733   5.404 -0.1920 -0.1777 -0.5700
    1OL    H15R  633   2.360   1.712   5.338 -0.8434  0.7087 -0.0142
    1OL    H15S  634   2.533   1.689   5.357  0.1439 -0.5049  0.3519
    1OL    C116  635   2.483   1.878   5.422 -0.1858  0.2490 -0.1344
    1OL    H16R  636   2.548   1.893   5.509 -3.5732  2.0891  2.2155
    1OL    H16S  637   2.386   1.927   5.436 -0.4680 -0.3822  0.1391
    1OL    C117  638   2.551   1.946   5.301  0.2430  0.6979  0.2243
    1OL    H17R  639   2.558   2.055   5.307 -0.8742  0.7420  0.8054
    1OL    H17S  640   2.489   1.931   5.213 -1.0443  0.4758  1.1463
    1OL    C118  641   2.690   1.888   5.271  0.2148  0.1122  0.1984
    1OL    H18R  642   2.729   1.831   5.355  0.0317 -0.4068 -0.0660
    1OL    H18S  643   2.752   1.966   5.227  3.7737 -3.5919 -1.6733
    1OL    H18T  644   2.687   1.805   5.199 -0.0355 -1.0737  1.5657
    1PA    C116  645   3.091   3.453   5.629  0.0284  0.3096  0.6093
    1PA    H16R  646   3.043   3.508   5.548  1.1218 -2.0062 -1.6913
    1PA    H16S  647   3.018   3.406   5.695  0.0728 -0.2320  0.2762
    1PA    H16T  648   3.152   3.378   5.577 -1.7064 -0.5291 -0.2487
    1PA    C115  649   3.193   3.542   5.702  0.4503 -0.0462 -0.3233
    1PA    H15R  650   3.266   3.575   5.628 -0.9006  0.9971 -1.2225
    1PA    H15S  651   3.140   3.636   5.723 -1.1934 -0.5016 -2.2558
    1PA    C114  652   3.254   3.479   5.827  0.5151  0.8855 -0.1194
    1PA    H14R  653   3.322   3.399   5.798 -0.7131 -1.4754  3.1279
    1PA    H14S  654   3.329   3.551   5.859  0.1485  1.2345 -0.0394
    1PA    C113  655   3.154   3.444   5.944 -0.0735 -0.0398 -0.2585
    1PA    H13R  656   3.096   3.535   5.964  0.3111  0.1206  0.1274
    1PA    H13S  657   3.086   3.368   5.906  0.1143  0.2746 -1.2454
    1PA    C112  658   3.230   3.399   6.069  0.1686 -0.1436  0.5718
    1PA    H12R  659   3.267   3.298   6.051  1.7082  0.5105  0.0116
    1PA    H12S  660   3.325   3.446   6.096 -0.4103 -0.0634  2.5631
    1PA    C111  661   3.149   3.392   6.203 -0.4274 -0.7191  0.6875
    1PA    H11R  662   3.096   3.486   6.220 -0.5739 -0.8213  0.7988
    1PA    H11S  663   3.084   3.305   6.212  0.3895 -1.3941  0.1123
    1PA    C110  664   3.242   3.387   6.325 -0.6496 -0.0900  0.2521
    1PA    H10R  665   3.301   3.297   6.306 -2.2155 -0.4705 -3.1746
    1PA    H10S  666   3.311   3.472   6.324 -0.7421 -0.0182 -1.3011
    1PA     C19  667   3.177   3.366   6.462 -0.5812  0.0022  0.6495
    1PA     H9R  668   3.135   3.265   6.459 -2.2578  0.7265 -1.4351
    1PA     H9S  669   3.253   3.363   6.541  0.7308  0.0183 -0.6071
    1PA     C18  670   3.069   3.471   6.495  0.1906  0.4573 -0.2872
    1PA     H8R  671   2.977   3.456   6.439 -0.1191 -1.1447  0.6436
    1PA     H8S  672   3.045   3.440   6.597 -0.7490 -1.0142 -0.9349
    1PA     C17  673   3.112   3.625   6.496 -0.4952 -0.1091  0.1141
    1PA     H7R  674   3.201   3.627   6.560 -2.3963 -1.1660  2.8808
    1PA     H7S  675   3.125   3.663   6.394 -1.3959  0.0252  0.0447
    1PA     C16  676   2.999   3.710   6.551 -0.0125  0.8216 -0.9827
    1PA     H6R  677   3.025   3.816   6.544 -0.3885  0.9227 -0.8512
    1PA     H6S  678   2.917   3.690   6.482 -0.2749  0.2161 -0.4982
    1PA     C15  679   2.960   3.686   6.701  0.5830  0.2695  0.1434
    1PA     H5R  680   2.881   3.611   6.710  0.7447  0.4569  3.6994
    1PA     H5S  681   3.034   3.623   6.751  0.2498  0.1728  0.5156
    1PA     C14  682   2.908   3.810   6.772  0.2104  0.5664  0.0142
    1PA     H4R  683   2.861   3.782   6.867 -1.8073 -0.4849 -1.2572
    1PA     H4S  684   2.994   3.872   6.801  0.4337 -0.1967  0.9980
    1PA     C13  685   2.796   3.879   6.690 -0.4433  0.1665 -0.4239
    1PA     H3R  686   2.765   3.963   6.753  0.9851  1.3798 -1.3244
    1PA     H3S  687   2.842   3.917   6.599 -0.0257  0.0858 -0.2498
    1PA     C12  688   2.673   3.784   6.666  0.5409 -0.6439 -0.4394
    1PA     H2R  689   2.601   3.823   6.594 -0.1625  2.0604  1.6905
    1PA     H2S  690   2.703   3.686   6.627 -0.7503 -2.2374  2.3722
    1PC     C11  691   2.588   3.745   6.792  0.0241 -0.3936 -0.0625
    1PC     O12  692   2.573   3.824   6.883  0.4846 -0.3525  0.1605
    1PC     O11  693   2.541   3.619   6.790 -0.4881 -0.1715 -0.0050
    1PC      C1  694   2.502   3.555   6.914 -0.4784 -0.1041  0.8596
    1PC      HR  695   2.458   3.639   6.968 -0.2440  0.2608  0.4854
    1PC      HS  696   2.428   3.476   6.897 -1.1910  0.9161 -0.9723
    1PC      C2  697   2.619   3.484   6.987 -0.0737  0.0550  0.0163
    1PC      HX  698   2.575   3.411   7.055 -1.4482  1.4837  0.6739
    1PC      C3  699   2.713   3.574   7.068 -0.8201  0.1981 -0.5777
    1PC      HA  700   2.802   3.525   7.107 -1.5377 -0.1326  0.6611
    1PC      HB  701   2.739   3.664   7.013 -2.4921  1.4619  0.6476
    1PC     O31  702   2.633   3.625   7.181 -0.2087 -0.4156  0.1789
    1PC     P31  703   2.701   3.701   7.303 -0.0110  0.2923 -0.0518
    1PC     O32  704   2.766   3.587   7.382  0.2390  0.5242 -0.9136
    1PC     C31  705   2.692   3.515   7.484 -0.7317 -0.8688  0.6315
    1PC     H1A  706   2.597   3.490   7.436 -0.0286 -2.2309 -0.0760
    1PC     H1B  707   2.741   3.417   7.488  2.2558  0.5946  0.6607
    1PC     C32  708   2.697   3.588   7.620  0.2142 -0.5613 -0.2977
    1PC     H2A  709   2.662   3.690   7.613  0.3591 -0.5223 -0.4601
    1PC     H2B  710   2.645   3.530   7.697 -0.8698  1.3819  0.4587
    1PC     N31  711   2.828   3.602   7.679 -0.1211  0.0489 -0.7745
    1PC     C33  712   2.910   3.712   7.603 -0.1119 -0.6528  0.2790
    1PC     H3A  713   2.928   3.673   7.503 -0.5713 -0.1935  0.0182
    1PC     H3B  714   2.856   3.806   7.603 -0.4305 -0.8346  0.0531
    1PC     H3C  715   2.999   3.733   7.662 -1.0267  1.8044  0.8576
    1PC     C34  716   2.818   3.652   7.820 -0.0719 -0.0808 -0.1370
    1PC     H4A  717   2.916   3.669   7.865 -0.7737  2.1029  0.6588
    1PC     H4B  718   2.758   3.743   7.819  0.7099  0.4458  0.1436
    1PC     H4C  719   2.766   3.575   7.877 -1.4832  1.1256  0.2329
    1PC     C35  720   2.914   3.478   7.683 -0.0346  0.3580  0.3804
    1PC     H5A  721   3.012   3.515   7.713  0.0167  1.1336 -0.7396
    1PC     H5B  722   2.919   3.442   7.580  0.3267  1.6722 -0.0601
    1PC     H5C  723   2.877   3.405   7.756  2.8584  0.2659  1.8272
    1PC     O33  724   2.816   3.770   7.240 -0.3667  0.0417  0.1759
    1PC     O34  725   2.596   3.770   7.380 -0.2769 -0.1964 -0.1799
    1PC     O21  726   2.715   3.411   6.902  0.1444 -0.5126  0.0695
    1PC     C21  727   2.674   3.293   6.846 -0.4252 -0.3716 -0.0181
    1PC     O22  728   2.568   3.243   6.881 -0.1830 -0.0629 -0.6315
    1OL     C12  729   2.773   3.243   6.744 -0.2978  0.3903 -0.4702
    1OL     H2R  730   2.741   3.139   6.736  1.8469 -0.4459  1.1882
    1OL     H2S  731   2.872   3.259   6.787 -0.5963 -1.1748  0.8495
    1OL     C13  732   2.766   3.311   6.608 -0.1865  0.0223  0.2328
    1OL     H3R  733   2.851   3.282   6.546 -0.8845 -1.4277 -0.0437
    1OL     H3S  734   2.758   3.420   6.613  1.1359  0.1107  0.6435
    1OL     C14  735   2.645   3.252   6.522  0.6444 -0.1189 -0.0611
    1OL     H4R  736   2.552   3.233   6.575  0.4232 -0.6044 -0.6143
    1OL     H4S  737   2.676   3.153   6.488  0.8565  0.1846 -0.7794
    1OL     C15  738   2.600   3.337   6.401 -0.5261  0.7000 -0.2100
    1OL     H5R  739   2.679   3.336   6.326 -0.6273 -1.9494 -0.3348
    1OL     H5S  740   2.594   3.440   6.436 -1.8151  0.7578 -0.6005
    1OL     C16  741   2.462   3.304   6.339 -0.6356 -0.0892 -0.0009
    1OL     H6R  742   2.418   3.384   6.279 -1.0035 -1.0540 -1.0367
    1OL     H6S  743   2.398   3.299   6.427 -1.8645  1.4425 -0.7902
    1OL     C17  744   2.452   3.170   6.252  0.4081  0.5876 -0.1573
    1OL     H7R  745   2.349   3.145   6.228  0.8310 -1.2237 -0.1839
    1OL     H7S  746   2.488   3.081   6.304  1.4851  1.7682  1.2115
    1OL     C18  747   2.541   3.193   6.126  0.8162  0.1692 -0.3742
    1OL     H8R  748   2.645   3.204   6.154  1.0643 -2.7153  0.0443
    1OL     H8S  749   2.518   3.292   6.087 -2.0200 -0.0934  0.4753
    1OL     C19  750   2.522   3.078   6.040  0.4111  0.5861  0.2673
    1OL     H9R  751   2.428   3.070   5.987  0.8785 -4.1371 -0.0485
    1OL    C110  752   2.616   2.986   6.022  0.9264  0.2359 -0.6158
    1OL    H10R  753   2.606   2.915   5.940 -0.2262 -0.6190  0.2305
    1OL    C111  754   2.753   2.987   6.077 -0.0402 -0.1284 -0.6482
    1OL    H11R  755   2.788   2.884   6.094  0.5138  0.2335  0.4946
    1OL    H11S  756   2.767   3.040   6.172  0.5714  0.5961 -1.1417
    1OL    C112  757   2.857   3.041   5.979  0.1042  0.2091  0.1461
    1OL    H12R  758   2.950   3.059   6.033 -0.5559  0.5682  1.1733
    1OL    H12S  759   2.824   3.141   5.951  3.2193  1.6304  1.3801
    1OL    C113  760   2.878   2.957   5.850  0.1602  0.7361 -0.1398
    1OL    H13R  761   2.782   2.939   5.802 -0.1617 -1.3067  1.2221
    1OL    H13S  762   2.927   2.862   5.873 -1.2649 -0.6079 -2.4814
    1OL    C114  763   2.973   3.038   5.756 -0.0568  0.5516 -0.6074
    1OL    H14R  764   3.068   3.058   5.806  0.6844 -0.5897 -1.5602
    1OL    H14S  765   2.935   3.138   5.731  0.5195  0.2716 -2.6782
    1OL    C115  766   3.008   2.970   5.622 -0.3963  0.8418  0.6275
    1OL    H15R  767   3.069   2.880   5.632 -0.4070  0.6279 -1.0870
    1OL    H15S  768   3.075   3.034   5.565 -1.5350  0.5526 -1.0839
    1OL    C116  769   2.880   2.951   5.534  0.5967  0.1256  1.0170
    1OL    H16R  770   2.850   3.045   5.489 -0.3818 -1.6137 -2.1304
    1OL    H16S  771   2.797   2.916   5.595  0.2738 -0.2584  0.3668
    1OL    C117  772   2.919   2.863   5.411  0.4859 -1.1983 -0.1906
    1OL    H17R  773   3.008   2.898   5.358  0.2510 -0.2343  0.0366
    1OL    H17S  774   2.834   2.843   5.346  0.7224  0.7843 -1.1437
    1OL    C118  775   2.966   2.723   5.454 -0.0962  0.0344 -0.7048
    1OL    H18R  776   2.895   2.674   5.522 -0.3503  2.9163  1.2111
    1OL    H18S  777   3.066   2.728   5.496  0.7229  2.6601 -2.8916
    1OL    H18T  778   2.982   2.664   5.364  4.6214 -2.6051  1.6735
    1PA    C116  779   2.269   2.550   5.272  0.0230  0.1105  0.5631
    1PA    H16R  780   2.331   2.570   5.360  0.9139 -0.2518  0.0287
    1PA    H16S  781   2.226   2.641   5.230 -0.7320 -0.5333 -0.0859
    1PA    H16T  782   2.334   2.502   5.199 -1.1258 -1.6293  0.6457
    1PA    C115  783   2.160   2.445   5.311 -0.2565 -0.2523 -0.5807
    1PA    H15R  784   2.095   2.503   5.378  1.7102  2.3766 -0.8583
    1PA    H15S  785   2.103   2.418   5.222  1.1142  0.1724 -1.6047
    1PA    C114  786   2.197   2.312   5.381  0.3177  0.1948 -0.6653
    1PA    H14R  787   2.104   2.254   5.384  0.4785  0.0059  1.6119
    1PA    H14S  788   2.270   2.271   5.311  0.2444  0.8423 -1.1358
    1PA    C113  789   2.258   2.336   5.518 -0.3206  0.0171  0.6569
    1PA    H13R  790   2.348   2.394   5.498  0.6786 -1.9625 -0.8118
    1PA    H13S  791   2.189   2.389   5.583  0.6533 -0.0104  1.7357
    1PA    C112  792   2.304   2.207   5.585  0.2105 -0.2549 -0.1837
    1PA    H12R  793   2.214   2.159   5.626 -1.3381  2.8457  0.1884
    1PA    H12S  794   2.346   2.141   5.509 -3.1738 -0.4868 -1.9616
    1PA    C111  795   2.400   2.234   5.705 -0.3732 -0.1442  0.1622
    1PA    H11R  796   2.488   2.275   5.655  0.2773 -2.1339 -0.3732
    1PA    H11S  797   2.353   2.316   5.761 -1.2875  0.6928 -1.7877
    1PA    C110  798   2.445   2.104   5.785  0.2319 -0.4068 -0.1457
    1PA    H10R  799   2.358   2.070   5.842 -1.0032  1.7468 -0.6754
    1PA    H10S  800   2.471   2.021   5.720 -0.7235 -0.3109 -0.6660
    1PA     C19  801   2.566   2.116   5.882 -0.4282  0.3038  0.0638
    1PA     H9R  802   2.589   2.216   5.920  0.8043 -0.1372  0.4885
    1PA     H9S  803   2.552   2.048   5.966 -2.6133  0.6157 -0.0115
    1PA     C18  804   2.693   2.071   5.802 -0.0955  0.0423  0.2122
    1PA     H8R  805   2.696   1.966   5.773  0.2291  0.3022 -0.7238
    1PA     H8S  806   2.702   2.137   5.715 -0.9663  0.9623  0.8161
    1PA     C17  807   2.822   2.096   5.882  0.2303 -0.1213  0.4851
    1PA     H7R  808   2.911   2.103   5.820  0.3479 -0.8552  0.5742
    1PA     H7S  809   2.823   2.200   5.915  0.5188 -0.2355  0.8316
    1PA     C16  810   2.856   2.007   5.997  0.5905  0.0459 -0.1057
    1PA     H6R  811   2.823   1.905   5.974  1.7471 -0.2723 -0.3739
    1PA     H6S  812   2.964   2.002   6.012  0.7243  0.0484 -1.0239
    1PA     C15  813   2.793   2.061   6.130 -0.6662 -0.2988  0.3096
    1PA     H5R  814   2.849   2.151   6.158  2.2668 -1.4452 -1.6072
    1PA     H5S  815   2.695   2.110   6.126 -0.7617 -0.5820 -1.7902
    1PA     C14  816   2.791   1.950   6.233 -0.1372 -1.3545 -0.2052
    1PA     H4R  817   2.717   1.874   6.211  1.7971 -3.5733  0.7132
    1PA     H4S  818   2.890   1.905   6.225 -0.0846 -1.2502 -0.1491
    1PA     C13  819   2.781   2.008   6.376  0.4190  0.1057  0.0521
    1PA     H3R  820   2.860   2.083   6.377  0.1886  0.3470  0.5705
    1PA     H3S  821   2.686   2.063   6.381 -0.4812 -1.3200 -1.0380
    1PA     C12  822   2.795   1.897   6.485 -0.2851  0.1049 -0.1263
    1PA     H2R  823   2.718   1.820   6.489 -2.5578  2.2055 -2.0672
    1PA     H2S  824   2.897   1.861   6.472  0.3069  2.1904 -1.4345
    1PC     C11  825   2.796   1.949   6.629  0.2666  0.1488  0.4814
    1PC     O12  826   2.862   2.046   6.656 -0.0106 -0.1735  0.1900
    1PC     O11  827   2.721   1.873   6.716  0.1132  0.0759  0.0411
    1PC      C1  828   2.722   1.908   6.858  0.0083  0.3086 -1.1438
    1PC      HR  829   2.823   1.875   6.885 -0.3039  0.7681  0.6306
    1PC      HS  830   2.705   2.016   6.869  0.0479  0.1515  0.5282
    1PC      C2  831   2.614   1.821   6.935  0.0259  0.1073  0.0361
    1PC      HX  832   2.585   1.869   7.028 -1.7623  1.4691 -1.2081
    1PC      C3  833   2.667   1.680   6.960 -0.7026 -0.6568  0.1628
    1PC      HA  834   2.693   1.639   6.862 -0.1787 -2.6828  1.1277
    1PC      HB  835   2.764   1.686   7.010 -0.4682 -0.0374 -0.3640
    1PC     O31  836   2.578   1.597   7.032 -0.4068 -0.2684 -0.3411
    1PC     P31  837   2.553   1.596   7.195  0.3349 -0.2192 -0.0435
    1PC     O32  838   2.436   1.703   7.223  0.0695 -0.3561  0.1292
    1PC     C31  839   2.306   1.682   7.171  0.0590  0.6089  0.0262
    1PC     H1A  840   2.310   1.712   7.066 -0.7628  0.4410 -0.0617
    1PC     H1B  841   2.270   1.581   7.193  0.8258  0.2543 -0.3401
    1PC     C32  842   2.213   1.790   7.245 -0.1463  0.1581  0.1610
    1PC     H2A  843   2.268   1.883   7.253 -0.4553  0.5007 -1.5105
    1PC     H2B  844   2.124   1.811   7.186  1.1716 -2.6081 -2.9798
    1PC     N31  845   2.168   1.762   7.389 -0.2101 -0.1118  0.5581
    1PC     C33  846   2.073   1.644   7.405 -0.4130  0.0371 -0.9204
    1PC     H3A  847   2.029   1.644   7.504 -0.7658  0.8863 -1.0783
    1PC     H3B  848   2.004   1.663   7.322 -1.5472 -2.5380 -0.6111
    1PC     H3C  849   2.135   1.555   7.390 -0.8025 -0.1700 -1.2988
    1PC     C34  850   2.290   1.740   7.475  0.6330  0.2025 -0.0341
    1PC     H4A  851   2.255   1.719   7.576 -0.3170 -2.2524 -0.8201
    1PC     H4B  852   2.342   1.651   7.438  1.1679 -0.1142  1.4399
    1PC     H4C  853   2.363   1.819   7.460  1.0449 -0.7799 -3.9198
    1PC     C35  854   2.098   1.880   7.443 -0.5454 -1.0634  0.4130
    1PC     H5A  855   2.097   1.877   7.552 -0.6260 -0.4361  0.4279
    1PC     H5B  856   2.002   1.879   7.391  0.1806 -1.7238 -0.9330
    1PC     H5C  857   2.153   1.969   7.412 -1.8643  0.4994  2.4203
    1PC     O33  858   2.508   1.458   7.237 -0.1324  0.1504 -0.8276
    1PC     O34  859   2.681   1.649   7.252 -0.1996  0.1306  0.2670
    1PC     O21  860   2.496   1.808   6.861  0.7404  0.2952 -0.3698
    1PC     C21  861   2.429   1.921   6.814  0.5376 -0.0352 -0.7034
    1PC     O22  862   2.444   2.031   6.870 -0.1948 -0.1758  0.0401
    1OL     C12  863   2.333   1.897   6.707 -0.2626 -0.2452  0.6592
    1OL     H2R  864   2.280   1.992   6.696 -0.3199  0.1476  3.8011
    1OL     H2S  865   2.270   1.813   6.736  0.9574 -1.2209  0.4780
    1OL     C13  866   2.407   1.848   6.579  0.1622 -0.0246 -1.1742
    1OL     H3R  867   2.471   1.762   6.601  1.0439  0.9643  0.1363
    1OL     H3S  868   2.472   1.929   6.546 -0.8128  0.9042 -0.8151
    1OL     C14  869   2.324   1.816   6.456  0.2445  0.5229  0.2008
    1OL     H4R  870   2.277   1.903   6.410 -1.1700 -1.0597 -1.4186
    1OL     H4S  871   2.237   1.763   6.497 -0.9228  1.3784 -1.1334
    1OL     C15  872   2.397   1.726   6.362  0.0847 -0.5799  0.0342
    1OL     H5R  873   2.417   1.640   6.427 -0.1105 -0.7704 -0.1619
    1OL     H5S  874   2.493   1.777   6.346 -1.4368  2.7275  1.0556
    1OL     C16  875   2.336   1.679   6.231 -0.3508  0.5400  0.3272
    1OL     H6R  876   2.239   1.632   6.250  0.7899 -2.2581 -0.5741
    1OL     H6S  877   2.405   1.601   6.197 -2.9767 -2.5785  1.8625
    1OL     C17  878   2.329   1.790   6.129  0.1019 -0.3363 -0.5264
    1OL     H7R  879   2.433   1.822   6.119  0.0476  0.5015  1.3699
    1OL     H7S  880   2.268   1.872   6.170  0.7146  0.9022 -2.0429
    1OL     C18  881   2.290   1.742   5.987  0.8670 -0.8507  0.2997
    1OL     H8R  882   2.361   1.665   5.958  2.0521  0.4481 -0.2855
    1OL     H8S  883   2.296   1.828   5.920  0.0407 -0.9486  0.0952
    1OL     C19  884   2.142   1.699   5.981 -0.0693  0.7297  0.6607
    1OL     H9R  885   2.130   1.592   5.990  0.0416  0.6520 -0.0676
    1OL    C110  886   2.038   1.778   5.957  0.5594 -0.0397  0.0743
    1OL    H10R  887   1.943   1.726   5.946  1.0440 -1.2658  1.5232
    1OL    C111  888   2.038   1.931   5.926 -0.6966  0.0647 -0.0833
    1OL    H11R  889   2.143   1.962   5.931  0.0935 -2.7812  2.7718
    1OL    H11S  890   1.995   1.982   6.012 -0.0404  0.8410 -0.1986
    1OL    C112  891   1.977   1.975   5.794  0.0935 -0.2712  0.1247
    1OL    H12R  892   1.978   2.083   5.773  0.7557 -0.5080 -1.1012
    1OL    H12S  893   1.869   1.960   5.795 -0.3601  2.5923  0.1416
    1OL    C113  894   2.047   1.907   5.681  0.0472  0.2150  0.2477
    1OL    H13R  895   2.036   1.799   5.697 -1.1695  0.5198  1.5124
    1OL    H13S  896   2.154   1.927   5.693  0.3759 -1.1553 -0.2770
    1OL    C114  897   2.020   1.956   5.534 -0.0774 -0.8825 -0.1192
    1OL    H14R  898   2.101   1.908   5.478  0.5993  1.9476 -1.6672
    1OL    H14S  899   2.025   2.065   5.526 -0.5646 -0.6521  2.3677
    1OL    C115  900   1.881   1.908   5.473  0.1121 -0.3628 -0.6417
    1OL    H15R  901   1.880   1.958   5.376  1.7262 -0.8745 -0.9369
    1OL    H15S  902   1.797   1.957   5.523 -0.2380 -0.2359 -1.3496
    1OL    C116  903   1.866   1.749   5.471  0.0991  0.0067  0.0302
    1OL    H16R  904   1.772   1.720   5.425 -0.0255  0.4272  0.0165
    1OL    H16S  905   1.850   1.720   5.575 -0.2838 -0.8650 -0.2693
    1OL    C117  906   1.978   1.655   5.416 -0.3629 -0.6842  0.2556
    1OL    H17R  907   1.957   1.547   5.417  0.5333 -0.8612  1.0093
    1OL    H17S  908   2.067   1.664   5.480  1.1741 -1.3926 -1.7275
    1OL    C118  909   2.033   1.697   5.277 -0.1805  0.4720 -0.2435
    1OL    H18R  910   1.967   1.680   5.192 -0.6935 -0.3071  0.3022
    1OL    H18S  911   2.120   1.637   5.248 -0.2979  0.0449  0.2712
    1OL    H18T  912   2.065   1.801   5.285 -0.4940  0.4619  1.3106
    1PA    C116  913   2.397   3.701   5.445 -0.0668  0.5047  1.0628
    1PA    H16R  914   2.500   3.691   5.411 -0.9684  0.5929 -1.7912
    1PA    H16S  915   2.347   3.770   5.378  1.7088  1.8095  1.0409
    1PA    H16T  916   2.354   3.601   5.435  2.5234 -0.6228  0.7270
    1PA    C115  917   2.383   3.758   5.591 -0.1245 -0.5478  0.3253
    1PA    H15R  918   2.426   3.858   5.591 -1.2061 -0.0708  2.0745
    1PA    H15S  919   2.278   3.780   5.612  0.3602  0.3828  1.8781
    1PA    C114  920   2.433   3.662   5.701  0.4922 -0.4057  0.8554
    1PA    H14R  921   2.405   3.704   5.797 -3.5561 -1.2083  0.0948
    1PA    H14S  922   2.377   3.570   5.684 -1.0573  0.5532  0.7194
    1PA    C113  923   2.583   3.650   5.678 -0.0854 -0.2565  0.0355
    1PA    H13R  924   2.605   3.594   5.586 -1.6035 -0.0066 -0.4860
    1PA    H13S  925   2.618   3.753   5.675 -2.7163  0.6635  0.4407
    1PA    C112  926   2.665   3.562   5.785  0.2811 -0.5499  0.4112
    1PA    H12R  927   2.624   3.462   5.795 -1.2388 -0.0431 -0.5537
    1PA    H12S  928   2.770   3.551   5.759  0.3005 -0.1592  0.3188
    1PA    C111  929   2.660   3.617   5.925  0.1249  0.0999  0.3144
    1PA    H11R  930   2.703   3.717   5.927 -0.4072  0.3141  1.0207
    1PA    H11S  931   2.560   3.615   5.969 -0.3943 -0.8179 -0.8364
    1PA    C110  932   2.756   3.539   6.021 -0.3023 -0.7501  0.1089
    1PA    H10R  933   2.729   3.435   5.999 -1.6189  0.3545 -3.8797
    1PA    H10S  934   2.861   3.555   5.998 -0.2115  0.3049  1.2329
    1PA     C19  935   2.728   3.562   6.175 -0.1495 -0.5331 -0.6809
    1PA     H9R  936   2.625   3.547   6.208  0.5172  0.5189  2.0224
    1PA     H9S  937   2.792   3.487   6.221 -0.8892 -1.3314 -0.9393
    1PA     C18  938   2.766   3.705   6.233  0.0300  0.4907  0.2768
    1PA     H8R  939   2.694   3.774   6.188 -0.8415 -0.0363  0.8729
    1PA     H8S  940   2.750   3.685   6.338  1.6978  0.3166  0.5141
    1PA     C17  941   2.910   3.761   6.203  0.4982  0.2213 -0.2390
    1PA     H7R  942   2.976   3.697   6.262  1.6293  1.5660 -0.0220
    1PA     H7S  943   2.947   3.740   6.102  0.2583 -3.5850  0.3806
    1PA     C16  944   2.937   3.909   6.236 -0.5562 -0.4924  0.2561
    1PA     H6R  945   2.880   3.967   6.164  1.1286  2.5180  1.2737
    1PA     H6S  946   2.897   3.930   6.336 -1.4296  0.3650 -0.2562
    1PA     C15  947   3.090   3.928   6.219  0.1430  0.0672  0.3546
    1PA     H5R  948   3.148   3.836   6.225 -0.7745 -0.4904  0.8598
    1PA     H5S  949   3.110   3.975   6.122  1.4119  2.0155  1.5247
    1PA     C14  950   3.137   4.015   6.340  0.3596  0.5204  0.6909
    1PA     H4R  951   3.126   3.969   6.438 -0.2067  0.5279  0.6338
    1PA     H4S  952   3.245   4.032   6.339  0.2245  1.3798  0.4580
    1PA     C13  953   3.079   4.162   6.334  0.4995  0.1547  0.1068
    1PA     H3R  954   3.113   4.205   6.240 -0.6020  2.1413  0.5912
    1PA     H3S  955   2.970   4.164   6.333  0.4502  2.1718 -4.2753
    1PA     C12  956   3.127   4.253   6.453 -0.3422 -0.5932  0.3695
    1PA     H2R  957   3.234   4.273   6.451 -0.4341 -0.0808  0.4098
    1PA     H2S  958   3.075   4.349   6.450 -0.8609 -0.8801  0.1214
    1PC     C11  959   3.103   4.187   6.586  0.3882  0.8903  0.7206
    1PC     O12  960   3.005   4.112   6.609  0.6703 -0.0626  0.7701
    1PC     O11  961   3.212   4.196   6.671  0.5343 -0.0979  0.6117
    1PC      C1  962   3.196   4.136   6.804  0.4809 -0.7135  0.4051
    1PC      HR  963   3.274   4.173   6.871  1.1832  0.3079 -0.9440
    1PC      HS  964   3.099   4.162   6.846  1.3189  3.2993  0.0588
    1PC      C2  965   3.236   3.988   6.806 -0.4556 -0.0809 -0.1483
    1PC      HX  966   3.176   3.941   6.726 -1.3139  2.0609 -0.7897
    1PC      C3  967   3.219   3.916   6.940  0.9609 -0.0945  0.6236
    1PC      HA  968   3.129   3.944   6.995 -0.4703 -2.9954 -0.1604
    1PC      HB  969   3.188   3.812   6.923 -0.0551  0.0923  1.3282
    1PC     O31  970   3.339   3.918   7.023 -0.2966 -0.0933 -0.1533
    1PC     P31  971   3.338   3.844   7.155 -0.0298 -0.1125 -0.0243
    1PC     O32  972   3.348   3.689   7.102  0.2283  0.0677 -0.3697
    1PC     C31  973   3.421   3.598   7.182 -0.0266  0.0816  0.3427
    1PC     H1A  974   3.519   3.636   7.211  0.0324  0.7985 -0.7632
    1PC     H1B  975   3.355   3.566   7.263 -0.9107  0.0173 -0.3880
    1PC     C32  976   3.447   3.478   7.094  0.6685  1.0419  0.7593
    1PC     H2A  977   3.523   3.425   7.152  2.6423  0.7252 -2.0252
    1PC     H2B  978   3.357   3.417   7.085  0.5348  1.0762  1.7769
    1PC     N31  979   3.494   3.495   6.953  0.5433 -1.0435 -0.2405
    1PC     C33  980   3.382   3.528   6.858 -0.5487  0.4988  0.4701
    1PC     H3A  981   3.411   3.531   6.753 -0.5478 -1.6106  0.3829
    1PC     H3B  982   3.297   3.460   6.875  0.5635 -1.5461 -1.8686
    1PC     H3C  983   3.350   3.628   6.887  1.4164  1.6025 -1.1164
    1PC     C34  984   3.588   3.604   6.944 -0.7250 -0.1380  0.0698
    1PC     H4A  985   3.666   3.596   7.019 -0.5705 -2.3673 -0.2856
    1PC     H4B  986   3.628   3.609   6.842 -1.9752 -0.4367 -0.4560
    1PC     H4C  987   3.530   3.692   6.970 -0.1838  0.2833 -0.1414
    1PC     C35  988   3.560   3.373   6.909 -0.0249 -0.1967 -0.1731
    1PC     H5A  989   3.643   3.359   6.978  1.6800 -1.1832 -2.3572
    1PC     H5B  990   3.594   3.383   6.806  1.6881 -1.4836  0.2496
    1PC     H5C  991   3.491   3.290   6.927  0.0370  0.0850  1.4476
    1PC     O33  992   3.470   3.877   7.212 -0.3216 -0.0896 -0.7567
    1PC     O34  993   3.212   3.865   7.226  0.2105  0.2447  0.3027
    1PC     O21  994   3.381   3.999   6.770 -0.7125 -0.4766  0.2153
    1PC     C21  995   3.430   3.894   6.703  0.0164  0.7812 -0.4291
    1PC     O22  996   3.369   3.797   6.684  0.4856 -0.1194 -0.3298
    1OL     C12  997   3.569   3.913   6.648  0.3807  0.2846  0.7461
    1OL     H2R  998   3.604   3.812   6.628  1.1120  0.9224 -1.3335
    1OL     H2S  999   3.640   3.957   6.718  1.0360  0.2950  0.0799
    1OL     C13 1000   3.562   3.981   6.510  0.1889  0.3248  0.0693
    1OL     H3R 1001   3.496   3.923   6.446 -0.2141 -0.6653  1.3492
    1OL     H3S 1002   3.665   3.968   6.474 -0.0616  1.9541 -1.2587
    1OL     C14 1003   3.537   4.129   6.512 -0.0256  0.1578 -0.5406
    1OL     H4R 1004   3.617   4.178   6.569 -1.6566  2.2706  0.0153
    1OL     H4S 1005   3.448   4.156   6.570  1.1916  0.7053  1.1076
    1OL     C15 1006   3.538   4.192   6.376  0.9000  0.0166 -0.3704
    1OL     H5R 1007   3.447   4.155   6.328 -0.2042  3.5979 -1.1712
    1OL     H5S 1008   3.630   4.159   6.328  1.3411 -1.1444  1.2487
    1OL     C16 1009   3.533   4.349   6.385 -0.7298  0.4761  0.1927
    1OL     H6R 1010   3.443   4.375   6.441 -0.1796 -0.3750  1.5160
    1OL     H6S 1011   3.619   4.387   6.440 -0.6666  1.6508 -0.6935
    1OL     C17 1012   3.536   4.410   6.244 -0.1243  0.1004 -0.4107
    1OL     H7R 1013   3.607   4.352   6.185  0.4417 -0.1892  0.5405
    1OL     H7S 1014   3.568   4.514   6.246 -0.0769  0.0661  0.7328
    1OL     C18 1015   3.394   4.410   6.171  0.0257  0.3327  0.1249
    1OL     H8R 1016   3.337   4.490   6.220  2.0697  1.5781  0.5381
    1OL     H8S 1017   3.350   4.310   6.172 -0.8821  0.7373  1.6498
    1OL     C19 1018   3.398   4.454   6.026 -0.0779 -0.7577 -0.1661
    1OL     H9R 1019   3.470   4.530   5.997  1.7248 -1.8909  1.2038
    1OL    C110 1020   3.313   4.409   5.930 -0.3140 -0.5453 -0.0592
    1OL    H10R 1021   3.323   4.446   5.828 -1.0295  1.0685  0.4374
    1OL    C111 1022   3.190   4.318   5.944 -0.4480 -0.1099  0.1228
    1OL    H11R 1023   3.200   4.237   6.017  0.8272  0.4504  0.5963
    1OL    H11S 1024   3.161   4.281   5.846 -0.1923 -0.6635  0.2526
    1OL    C112 1025   3.069   4.395   6.000  0.6470 -0.3859  0.2697
    1OL    H12R 1026   3.054   4.490   5.948  0.8897  0.6910  2.1530
    1OL    H12S 1027   3.094   4.418   6.104 -0.2892 -1.2113  0.6867
    1OL    C113 1028   2.944   4.306   5.991  0.4868 -0.1824  0.0413
    1OL    H13R 1029   2.869   4.347   6.058 -1.5816 -3.1629 -0.3153
    1OL    H13S 1030   2.976   4.207   6.024  2.3516 -0.2894 -1.9593
    1OL    C114 1031   2.873   4.300   5.856 -0.5735 -0.1888 -0.1760
    1OL    H14R 1032   2.917   4.224   5.790  1.2812  0.1301  0.6588
    1OL    H14S 1033   2.886   4.399   5.813  2.2686 -0.0566  0.8798
    1OL    C115 1034   2.722   4.268   5.856  0.6689 -0.0735 -0.4274
    1OL    H15R 1035   2.701   4.262   5.749 -0.0300  0.7721 -0.3494
    1OL    H15S 1036   2.662   4.352   5.893  0.0627 -0.5786 -0.2574
    1OL    C116 1037   2.665   4.133   5.916 -0.4419 -0.0650 -0.4946
    1OL    H16R 1038   2.556   4.130   5.911 -0.5678 -1.1604  1.9888
    1OL    H16S 1039   2.683   4.141   6.023  0.4266 -1.0719 -0.5617
    1OL    C117 1040   2.732   4.011   5.864  0.9550  0.6417  0.7371
    1OL    H17R 1041   2.663   3.932   5.895 -1.1450  0.7174 -3.4814
    1OL    H17S 1042   2.832   4.005   5.909  0.3118  1.9608  2.4444
    1OL    C118 1043   2.740   4.002   5.715 -0.3616  0.9259 -0.1360
    1OL    H18R 1044   2.777   3.904   5.687  0.0907  0.1077  3.0582
    1OL    H18S 1045   2.797   4.080   5.665  1.7348 -1.4140 -1.4991
    1OL    H18T 1046   2.638   4.004   5.675 -0.0619 -0.2701 -0.9785
    1PA    C116 1047   4.188   4.791   5.150  0.3078 -0.5999  0.7198
    1PA    H16R 1048   4.289   4.821   5.123  0.9360 -0.4895  3.1019
    1PA    H16S 1049   4.124   4.878   5.133 -0.4324 -1.4232 -0.7936
    1PA    H16T 1050   4.158   4.712   5.081 -1.5389  1.0593 -0.4294
    1PA    C115 1051   4.186   4.736   5.298 -0.3974  0.1904  0.5492
    1PA    H15R 1052   4.235   4.639   5.291 -0.3240  0.0742  2.4136
    1PA    H15S 1053   4.238   4.811   5.358  0.4929 -0.2478  0.3385
    1PA    C114 1054   4.035   4.714   5.344  0.1522  0.2592  0.1681
    1PA    H14R 1055   3.990   4.813   5.342  0.8511  0.6346  2.0881
    1PA    H14S 1056   3.984   4.654   5.269 -1.8230  1.5117  0.4766
    1PA    C113 1057   4.017   4.655   5.485  0.2416 -0.0483  0.2016
    1PA    H13R 1058   4.079   4.565   5.492  0.5068  0.2561  1.8989
    1PA    H13S 1059   4.047   4.729   5.559 -2.3130  2.2325 -0.9679
    1PA    C112 1060   3.869   4.610   5.514 -0.6780  0.9186 -0.0822
    1PA    H12R 1061   3.794   4.686   5.491  0.2659  1.4631 -1.3792
    1PA    H12S 1062   3.859   4.521   5.452  1.3392  1.2988 -0.9699
    1PA    C111 1063   3.848   4.552   5.652 -0.1639  0.4814 -0.0825
    1PA    H11R 1064   3.935   4.487   5.666 -1.1944 -1.1581 -1.1667
    1PA    H11S 1065   3.863   4.624   5.733 -0.4117 -1.8309  2.0775
    1PA    C110 1066   3.714   4.478   5.662  0.6884  0.5152  0.9727
    1PA    H10R 1067   3.622   4.531   5.639  0.4453 -0.9967 -1.6877
    1PA    H10S 1068   3.727   4.393   5.595  1.9952  0.8225  0.8163
    1PA     C19 1069   3.690   4.409   5.796 -0.1991 -0.0722 -0.2834
    1PA     H9R 1070   3.669   4.493   5.862  1.5744  0.4461 -0.3447
    1PA     H9S 1071   3.597   4.352   5.801 -0.7049  0.6715 -1.3008
    1PA     C18 1072   3.804   4.316   5.850  0.7546  0.5218 -0.1805
    1PA     H8R 1073   3.844   4.264   5.763  1.1317 -1.7339  1.3176
    1PA     H8S 1074   3.874   4.393   5.883  2.6768 -1.2450 -0.0631
    1PA     C17 1075   3.772   4.217   5.967  0.1140 -0.1227  0.0196
    1PA     H7R 1076   3.741   4.273   6.056 -0.0563 -1.6468  0.9386
    1PA     H7S 1077   3.678   4.165   5.944 -1.0128  1.8068  0.1254
    1PA     C16 1078   3.880   4.123   6.015 -0.1848  0.6226 -0.1357
    1PA     H6R 1079   3.932   4.088   5.926 -0.3562 -1.5314  0.5639
    1PA     H6S 1080   3.955   4.188   6.060 -0.5682  1.1207 -0.2193
    1PA     C15 1081   3.837   4.016   6.117  0.3819  0.2020  0.0134
    1PA     H5R 1082   3.760   4.071   6.171  0.3691  0.4640 -0.2685
    1PA     H5S 1083   3.793   3.928   6.068  0.6417 -0.1987  0.4938
    1PA     C14 1084   3.952   3.970   6.204 -0.3600  0.3202  0.3663
    1PA     H4R 1085   4.031   3.935   6.138  1.3896  1.4174  1.8265
    1PA     H4S 1086   3.990   4.057   6.259 -3.3124  1.5604  0.5284
    1PA     C13 1087   3.928   3.853   6.311  0.4026  0.8299  0.2609
    1PA     H3R 1088   3.841   3.877   6.373  0.3974  1.2413  0.0978
    1PA     H3S 1089   3.908   3.755   6.266  1.4737 -0.0951  1.7510
    1PA     C12 1090   4.061   3.836   6.396  0.3510 -1.0327 -0.3409
    1PA     H2R 1091   4.155   3.832   6.341  0.2191  0.3938 -0.6871
    1PA     H2S 1092   4.066   3.919   6.468 -0.1846 -0.2306 -1.2249
    1PC     C11 1093   4.056   3.710   6.487  0.6967 -0.0519  0.7068
    1PC     O12 1094   3.984   3.619   6.456 -0.0494  0.3491  0.1895
    1PC     O11 1095   4.156   3.702   6.577  0.1738  0.3269  0.1927
    1PC      C1 1096   4.160   3.592   6.671 -0.3519 -1.1333 -0.3021
    1PC      HR 1097   4.089   3.514   6.643 -0.0146 -1.2932 -0.7166
    1PC      HS 1098   4.259   3.546   6.663  0.0014 -0.3328 -0.5659
    1PC      C2 1099   4.116   3.637   6.813 -0.0163 -0.1975  1.0727
    1PC      HX 1100   4.138   3.565   6.892 -0.1803 -0.5841  0.7704
    1PC      C3 1101   3.966   3.665   6.811 -0.4484 -0.0360 -0.0122
    1PC      HA 1102   3.942   3.734   6.730 -0.1229  2.1287  1.6684
    1PC      HB 1103   3.920   3.567   6.794  0.2452  0.0060 -2.2568
    1PC     O31 1104   3.912   3.715   6.935  0.2843 -0.3882  0.1732
    1PC     P31 1105   3.911   3.622   7.067  0.0050 -0.0707 -0.0173
    1PC     O32 1106   4.059   3.629   7.132 -0.0903 -0.9049  0.1634
    1PC     C31 1107   4.114   3.760   7.171 -0.1171  0.8375 -0.0642
    1PC     H1A 1108   4.223   3.762   7.174 -0.0966  0.3636 -0.3045
    1PC     H1B 1109   4.082   3.840   7.103 -0.5061  0.6442 -0.1118
    1PC     C32 1110   4.070   3.783   7.316 -0.2396  0.0867  0.4156
    1PC     H2A 1111   4.070   3.890   7.338 -0.8860  0.1229  0.2460
    1PC     H2B 1112   3.976   3.732   7.337  0.6969 -1.4571  0.9393
    1PC     N31 1113   4.158   3.713   7.408  0.4353  0.1659 -0.4436
    1PC     C33 1114   4.116   3.746   7.541 -0.0306 -0.0539 -0.3912
    1PC     H3A 1115   4.019   3.698   7.547 -0.8552  1.5454 -0.5658
    1PC     H3B 1116   4.178   3.704   7.620  0.5998  0.1881 -0.7557
    1PC     H3C 1117   4.110   3.855   7.552 -1.0662 -0.1291 -0.1795
    1PC     C34 1118   4.148   3.560   7.408  0.0758  0.7501  0.7025
    1PC     H4A 1119   4.176   3.516   7.313  2.2949  1.6735  0.8952
    1PC     H4B 1120   4.222   3.523   7.480  1.0521 -1.0421 -1.1814
    1PC     H4C 1121   4.047   3.537   7.444  0.2938  0.0420  0.8763
    1PC     C35 1122   4.297   3.756   7.395 -0.1144 -0.8004  0.1264
    1PC     H5A 1123   4.360   3.739   7.483 -1.1683  0.5859  1.1793
    1PC     H5B 1124   4.305   3.859   7.360 -1.2978 -0.7035  0.1101
    1PC     H5C 1125   4.339   3.695   7.315 -0.4506  1.5515 -1.8993
    1PC     O33 1126   3.813   3.684   7.156  0.4130  0.0815 -0.1672
    1PC     O34 1127   3.884   3.484   7.026  0.2907  0.5145  0.2956
    1PC     O21 1128   4.175   3.768   6.845 -0.2553  0.0851 -0.1037
    1PC     C21 1129   4.308   3.771   6.867  0.1383 -0.5805  0.5995
    1PC     O22 1130   4.373   3.672   6.841 -0.1372 -0.6832 -0.5932
    1OL     C12 1131   4.364   3.912   6.887  0.3922 -0.0111 -0.1697
    1OL     H2R 1132   4.464   3.892   6.927 -0.4173 -1.0673  1.3594
    1OL     H2S 1133   4.302   3.949   6.969  2.0327  0.6894  0.7902
    1OL     C13 1134   4.348   4.001   6.762 -0.0907  0.0073 -0.6199
    1OL     H3R 1135   4.357   4.106   6.789  0.3948  0.0757 -1.0551
    1OL     H3S 1136   4.244   3.991   6.728 -0.0219  2.2848 -1.5553
    1OL     C14 1137   4.441   3.959   6.648 -0.4812  0.5139 -0.2060
    1OL     H4R 1138   4.413   3.858   6.616 -0.2403 -0.0226  1.2311
    1OL     H4S 1139   4.544   3.958   6.685 -1.1570 -1.1780  1.7845
    1OL     C15 1140   4.407   4.056   6.532  0.8363 -0.5213 -0.2819
    1OL     H5R 1141   4.447   4.151   6.566 -2.1440  1.1981 -1.4304
    1OL     H5S 1142   4.298   4.064   6.528  0.9530  0.1545 -3.3007
    1OL     C16 1143   4.479   4.032   6.396 -0.0660 -0.3689 -0.2702
    1OL     H6R 1144   4.424   3.948   6.354 -1.8465  0.6591 -0.0332
    1OL     H6S 1145   4.587   4.019   6.401  0.2313  1.3887 -1.5030
    1OL     C17 1146   4.466   4.155   6.304  0.6029 -0.2083  0.3916
    1OL     H7R 1147   4.511   4.133   6.207 -0.1371  0.1830 -0.0473
    1OL     H7S 1148   4.527   4.229   6.358  0.0809  0.0515  0.6320
    1OL     C18 1149   4.333   4.230   6.279  0.7470  0.0842  0.4714
    1OL     H8R 1150   4.352   4.336   6.260  0.2761  0.2523  0.9160
    1OL     H8S 1151   4.269   4.225   6.368  2.1326 -1.6495  1.3947
    1OL     C19 1152   4.257   4.158   6.162  0.3392 -0.0504  0.7323
    1OL     H9R 1153   4.168   4.102   6.190 -0.0940  1.3372  2.2027
    1OL    C110 1154   4.291   4.163   6.033 -0.6332  0.2286 -0.4726
    1OL    H10R 1155   4.225   4.109   5.965 -1.0466  1.7761 -1.3089
    1OL    C111 1156   4.408   4.227   5.970  0.1436  0.5655  0.3001
    1OL    H11R 1157   4.499   4.167   5.972  1.0598  1.6058 -4.2803
    1OL    H11S 1158   4.428   4.325   6.013 -0.9743  1.1152 -0.4046
    1OL    C112 1159   4.385   4.259   5.818 -0.6599  0.2387  0.3829
    1OL    H12R 1160   4.285   4.301   5.804 -0.8958 -0.6521 -0.5559
    1OL    H12S 1161   4.372   4.167   5.762 -3.5866 -0.3787  1.9441
    1OL    C113 1162   4.492   4.346   5.751  0.3994  1.0769  0.0348
    1OL    H13R 1163   4.591   4.304   5.733  1.3750  3.6003 -0.6824
    1OL    H13S 1164   4.507   4.430   5.820  0.6411  0.9286  0.1641
    1OL    C114 1165   4.415   4.387   5.615  0.2858 -0.3596 -0.8826
    1OL    H14R 1166   4.331   4.455   5.630 -0.5986 -2.1936  3.1828
    1OL    H14S 1167   4.375   4.290   5.584  0.0331 -0.8096  0.8388
    1OL    C115 1168   4.520   4.444   5.513  0.4141 -0.2241  0.5648
    1OL    H15R 1169   4.583   4.360   5.484 -1.2357 -0.1480 -3.5163
    1OL    H15S 1170   4.582   4.518   5.563 -0.6298  0.6988  0.5124
    1OL    C116 1171   4.446   4.497   5.387  1.3785 -0.1954 -0.4969
    1OL    H16R 1172   4.383   4.579   5.420  0.7387 -0.5211 -0.9056
    1OL    H16S 1173   4.387   4.421   5.335  0.3015  1.8036 -2.2720
    1OL    C117 1174   4.545   4.550   5.278  0.0967  0.1807 -0.0260
    1OL    H17R 1175   4.622   4.614   5.321  1.6192 -0.7928 -1.2377
    1OL    H17S 1176   4.489   4.609   5.204 -0.1201  0.1396  0.1069
    1OL    C118 1177   4.608   4.436   5.200  0.6193 -0.3525 -0.0152
    1OL    H18R 1178   4.535   4.360   5.172  0.0560  0.5897 -1.1476
    1OL    H18S 1179   4.681   4.396   5.271  0.7244  1.2724  0.8325
    1OL    H18T 1180   4.662   4.480   5.116 -2.5843 -0.4180 -2.1738
    1PA    C116 1181   3.945   2.728   5.580 -0.6575 -0.7170 -0.4297
    1PA    H16R 1182   3.971   2.828   5.547  2.7426 -0.6961  2.0943
    1PA    H16S 1183   3.839   2.702   5.569 -0.9908  0.2938  0.3110
    1PA    H16T 1184   4.009   2.656   5.528  0.8358  0.6255 -0.4608
    1PA    C115 1185   3.983   2.724   5.729  0.2759  0.0252  0.5918
    1PA    H15R 1186   3.982   2.620   5.762  4.0760 -0.6004 -0.9376
    1PA    H15S 1187   4.086   2.759   5.738  1.1816 -2.5980  0.7746
    1PA    C114 1188   3.883   2.812   5.813 -0.0801  0.2714 -0.5789
    1PA    H14R 1189   3.904   2.919   5.804 -0.7520  0.4871  0.3069
    1PA    H14S 1190   3.779   2.794   5.787 -0.2088 -1.1997  0.9153
    1PA    C113 1191   3.884   2.770   5.961  0.0388  0.0527  0.3945
    1PA    H13R 1192   3.821   2.835   6.022 -2.3424 -0.7727 -1.1643
    1PA    H13S 1193   3.836   2.673   5.974 -1.7549  0.7989 -0.5403
    1PA    C112 1194   4.016   2.769   6.037 -0.1633 -0.5145 -0.2846
    1PA    H12R 1195   4.094   2.716   5.983 -0.6661 -0.2298 -1.2967
    1PA    H12S 1196   4.047   2.872   6.056 -0.9652 -0.1832 -0.7448
    1PA    C111 1197   3.988   2.699   6.176 -0.2930 -0.2710  0.2196
    1PA    H11R 1198   3.911   2.758   6.227 -1.5064 -0.6675 -1.1398
    1PA    H11S 1199   3.949   2.599   6.158  0.7111 -0.4666 -0.8606
    1PA    C110 1200   4.115   2.691   6.266  0.3659  0.2293 -0.7363
    1PA    H10R 1201   4.186   2.621   6.222  0.6179  0.7005 -1.0952
    1PA    H10S 1202   4.165   2.787   6.279  0.8435 -0.1904  0.5243
    1PA     C19 1203   4.078   2.627   6.402  0.5665  0.4754 -0.0055
    1PA     H9R 1204   4.013   2.695   6.458 -0.1087  1.0429 -1.4734
    1PA     H9S 1205   4.022   2.535   6.385 -2.1418  2.0040  0.2244
    1PA     C18 1206   4.202   2.599   6.491 -0.4461 -0.1084  0.0959
    1PA     H8R 1207   4.182   2.519   6.562  1.0560  0.2124  0.9028
    1PA     H8S 1208   4.291   2.564   6.439  0.5848  1.5036  0.7358
    1PA     C17 1209   4.252   2.718   6.571 -0.1997 -0.0907 -0.6929
    1PA     H7R 1210   4.291   2.796   6.504  0.7037 -0.8792 -1.0928
    1PA     H7S 1211   4.178   2.768   6.634 -0.5683 -0.1427 -1.0846
    1PA     C16 1212   4.370   2.690   6.657  1.1134  0.1128 -0.5676
    1PA     H6R 1213   4.356   2.589   6.695  1.4797  0.8432  1.5787
    1PA     H6S 1214   4.461   2.687   6.597  0.7895  2.0718 -1.2028
    1PA     C15 1215   4.389   2.788   6.772 -0.1606 -0.0170 -0.0739
    1PA     H5R 1216   4.396   2.892   6.741 -2.4447  0.2719  0.3387
    1PA     H5S 1217   4.300   2.770   6.832 -2.0300  2.4079 -2.0058
    1PA     C14 1218   4.516   2.761   6.860  0.0768 -0.0872 -0.6526
    1PA     H4R 1219   4.497   2.823   6.947 -0.5484 -1.3319  0.1073
    1PA     H4S 1220   4.524   2.659   6.898 -2.2653  0.1949  0.6404
    1PA     C13 1221   4.649   2.789   6.783 -0.3736  0.7695 -0.5689
    1PA     H3R 1222   4.643   2.728   6.692 -1.9389 -0.3781  0.2904
    1PA     H3S 1223   4.654   2.890   6.742  0.9649  0.9215 -0.0677
    1PA     C12 1224   4.784   2.766   6.860 -0.2585 -0.3790  0.4778
    1PA     H2R 1225   4.781   2.668   6.908 -2.5893  0.4294  2.0685
    1PA     H2S 1226   4.863   2.766   6.785 -0.1931  1.0499  0.5498
    1PC     C11 1227   4.801   2.876   6.959  0.0865 -0.1353 -1.1810
    1PC     O12 1228   4.809   2.992   6.922 -0.2174 -0.1663  0.4568
    1PC     O11 1229   4.805   2.832   7.085 -0.5942 -0.4131 -0.7011
    1PC      C1 1230   4.806   2.932   7.186  0.3289 -0.1276  0.0340
    1PC      HR 1231   4.855   2.886   7.272 -1.4262 -1.3327  0.4209
    1PC      HS 1232   4.855   3.024   7.155 -1.4715  0.4108 -1.3245
    1PC      C2 1233   4.658   2.949   7.220  0.0030 -0.2137  0.2256
    1PC      HX 1234   4.643   3.026   7.297  1.7971 -1.2176  1.6147
    1PC      C3 1235   4.584   2.829   7.285 -0.4062  0.3811 -0.3220
    1PC      HA 1236   4.644   2.784   7.365 -0.4386 -1.7547 -1.4917
    1PC      HB 1237   4.488   2.860   7.328  0.5599 -1.6361  3.5913
    1PC     O31 1238   4.546   2.717   7.194 -0.3696 -0.4702 -0.1098
    1PC     P31 1239   4.455   2.598   7.233 -0.1353  0.3128  0.0640
    1PC     O32 1240   4.308   2.655   7.229 -0.1383  0.3680 -0.0531
    1PC     C31 1241   4.243   2.685   7.096 -0.0967 -0.4010  0.0578
    1PC     H1A 1242   4.320   2.709   7.023 -0.8021  3.1279  0.3757
    1PC     H1B 1243   4.190   2.594   7.067 -0.2012 -0.6460  0.9888
    1PC     C32 1244   4.156   2.803   7.119  0.3876 -0.5319 -0.2837
    1PC     H2A 1245   4.208   2.890   7.161 -3.7795  0.8017  2.4487
    1PC     H2B 1246   4.102   2.833   7.029 -0.1276  2.5160  0.9837
    1PC     N31 1247   4.051   2.785   7.223 -0.0320  0.0680 -0.2899
    1PC     C33 1248   4.103   2.786   7.363 -0.4537  0.3640 -0.2971
    1PC     H3A 1249   4.144   2.686   7.381 -1.7922 -0.4372 -1.5747
    1PC     H3B 1250   4.175   2.868   7.370 -1.3847  1.2865 -1.2901
    1PC     H3C 1251   4.020   2.801   7.432 -0.6009 -2.7604  0.2671
    1PC     C34 1252   3.974   2.921   7.213 -0.0783  0.1490 -0.0460
    1PC     H4A 1253   3.900   2.914   7.133  0.9350 -1.2897 -0.8757
    1PC     H4B 1254   3.922   2.928   7.309 -0.4142  0.5220 -0.2520
    1PC     H4C 1255   4.040   3.007   7.197  1.3727 -0.8552  0.5040
    1PC     C35 1256   3.960   2.671   7.190 -0.7135 -0.5137 -0.0037
    1PC     H5A 1257   4.034   2.592   7.207 -1.5782 -1.6053 -1.2917
    1PC     H5B 1258   3.931   2.666   7.085 -0.0579 -2.0386 -0.1212
    1PC     H5C 1259   3.878   2.680   7.261  0.2605 -0.3280  1.1322
    1PC     O33 1260   4.472   2.491   7.135 -0.1661  0.4503  0.2079
    1PC     O34 1261   4.481   2.570   7.377 -0.2948 -0.4586 -0.0536
    1PC     O21 1262   4.585   3.001   7.110  0.1647  0.1555  0.2641
    1PC     C21 1263   4.597   3.131   7.079 -0.5021 -0.1648  0.3409
    1PC     O22 1264   4.664   3.214   7.146  0.2566 -0.0942 -0.8673
    1OL     C12 1265   4.509   3.167   6.960  0.8701 -0.4606 -0.7472
    1OL     H2R 1266   4.403   3.172   6.985  1.3681  1.0212  1.1491
    1OL     H2S 1267   4.503   3.084   6.889  1.1087 -0.0477 -1.2537
    1OL     C13 1268   4.550   3.300   6.886 -0.2704  0.4306  0.2331
    1OL     H3R 1269   4.649   3.287   6.842 -0.9926  3.3284 -2.4475
    1OL     H3S 1270   4.555   3.380   6.959  3.7316  0.5553 -0.0591
    1OL     C14 1271   4.463   3.334   6.772  0.1832 -0.5141  0.3696
    1OL     H4R 1272   4.508   3.415   6.715 -1.9763 -0.3037 -1.0884
    1OL     H4S 1273   4.366   3.374   6.804  0.4549 -1.1532  2.0615
    1OL     C15 1274   4.433   3.220   6.674  0.4325 -0.1210  0.4703
    1OL     H5R 1275   4.380   3.146   6.734  1.1381  0.0986  1.3844
    1OL     H5S 1276   4.532   3.185   6.642 -0.7108 -0.8396 -2.4544
    1OL     C16 1277   4.357   3.269   6.550 -0.1646  0.7322 -0.2558
    1OL     H6R 1278   4.426   3.332   6.494  2.0352 -1.1936  0.1881
    1OL     H6S 1279   4.272   3.327   6.586 -0.1129  2.4346 -2.7947
    1OL     C17 1280   4.290   3.161   6.466  0.0260  0.2010 -1.0178
    1OL     H7R 1281   4.292   3.072   6.530  2.1004  1.0402  0.1270
    1OL     H7S 1282   4.344   3.136   6.374  3.4680 -1.9089  1.4302
    1OL     C18 1283   4.138   3.189   6.437 -0.2747  0.4871  0.9084
    1OL     H8R 1284   4.132   3.284   6.383 -0.6115 -0.1049 -0.1169
    1OL     H8S 1285   4.084   3.208   6.530 -0.0137 -0.7586  1.3290
    1OL     C19 1286   4.083   3.081   6.348 -0.8847 -0.3330  0.5633
    1OL     H9R 1287   4.091   2.977   6.379  0.3274 -0.3405  0.2268
    1OL    C110 1288   4.000   3.090   6.244 -0.1035  0.5544 -0.0816
    1OL    H10R 1289   3.966   3.004   6.187  0.1331 -0.1043  0.7651
    1OL    C111 1290   3.941   3.218   6.189 -0.3863 -0.8970  0.0895
    1OL    H11R 1291   3.990   3.299   6.243  2.5529 -3.1269  0.9674
    1OL    H11S 1292   3.834   3.227   6.209 -0.1043 -0.0600  1.2886
    1OL    C112 1293   3.946   3.252   6.038 -0.4128 -0.2054 -0.3949
    1OL    H12R 1294   3.893   3.174   5.982  1.2600 -1.3719 -0.3693
    1OL    H12S 1295   4.048   3.249   5.999 -1.3918 -1.8028 -3.0170
    1OL    C113 1296   3.886   3.391   6.005  0.3023  0.0401 -0.0042
    1OL    H13R 1297   3.949   3.473   6.042 -0.2552 -0.1963  1.5098
    1OL    H13S 1298   3.791   3.401   6.057 -0.4498 -1.0588 -1.1644
    1OL    C114 1299   3.863   3.409   5.843 -0.4451 -0.2064  0.4646
    1OL    H14R 1300   3.812   3.320   5.806 -0.3894 -0.6031  1.3146
    1OL    H14S 1301   3.958   3.411   5.789 -0.9955  0.9227 -0.4785
    1OL    C115 1302   3.789   3.540   5.802 -0.4973 -1.1052 -0.0974
    1OL    H15R 1303   3.828   3.628   5.853 -0.3572 -0.5266 -1.1845
    1OL    H15S 1304   3.686   3.536   5.838 -0.7541 -1.7068 -0.8783
    1OL    C116 1305   3.785   3.572   5.646 -0.6431  0.3787 -0.4343
    1OL    H16R 1306   3.794   3.473   5.600  1.6921 -0.4023  1.5822
    1OL    H16S 1307   3.868   3.636   5.615 -1.0533  1.5288  0.8145
    1OL    C117 1308   3.653   3.636   5.600 -0.2848 -1.1412 -0.6476
    1OL    H17R 1309   3.647   3.735   5.645  2.4520  0.1099 -2.9075
    1OL    H17S 1310   3.566   3.573   5.621 -1.7822  0.3883 -2.1576
    1OL    C118 1311   3.664   3.646   5.452  0.4952  0.4059  0.1356
    1OL    H18R 1312   3.689   3.550   5.407  1.1617  1.1898 -1.2040
    1OL    H18S 1313   3.740   3.722   5.430 -0.2125  0.8019 -0.9747
    1OL    H18T 1314   3.565   3.675   5.416 -0.1577  0.7118  2.1198
    1PA    C116 1315   3.800   0.602   5.690 -0.4025  0.5822 -0.0186
    1PA    H16R 1316   3.729   0.684   5.690 -1.1908 -0.0924  1.3437
    1PA    H16S 1317   3.759   0.510   5.647 -0.7381  0.2257  1.0615
    1PA    H16T 1318   3.886   0.640   5.635 -0.8664  0.7803 -0.6091
    1PA    C115 1319   3.834   0.582   5.830  0.2696 -0.0933 -0.7646
    1PA    H15R 1320   3.751   0.534   5.883  0.6671 -0.3376 -0.3645
    1PA    H15S 1321   3.914   0.508   5.833  1.3504  1.0371 -1.5203
    1PA    C114 1322   3.869   0.705   5.914  0.2428  0.4506 -0.3779
    1PA    H14R 1323   3.899   0.689   6.018 -1.5664  2.0928  0.4218
    1PA    H14S 1324   3.946   0.767   5.867 -0.2268 -0.5629 -2.4957
    1PA    C113 1325   3.756   0.807   5.938  0.5119 -0.9164 -0.5918
    1PA    H13R 1326   3.737   0.869   5.851  2.1224  0.2841 -0.1078
    1PA    H13S 1327   3.662   0.760   5.968 -0.3096  0.2006 -1.3783
    1PA    C112 1328   3.789   0.913   6.053  0.2878  0.1516 -0.0455
    1PA    H12R 1329   3.810   0.863   6.148 -0.3832 -2.9387 -1.4616
    1PA    H12S 1330   3.877   0.975   6.032  2.9096 -3.4094 -0.1539
    1PA    C111 1331   3.677   1.018   6.074 -0.7990 -0.0525 -0.3474
    1PA    H11R 1332   3.673   1.084   5.988  0.3355 -0.6676 -0.8882
    1PA    H11S 1333   3.580   0.966   6.081 -0.3227 -0.8948  0.1207
    1PA    C110 1334   3.701   1.100   6.207 -0.5738  0.1007 -0.6181
    1PA    H10R 1335   3.717   1.032   6.292  2.0145 -0.2506 -1.3596
    1PA    H10S 1336   3.794   1.152   6.186 -1.0821  1.6871  0.9091
    1PA     C19 1337   3.591   1.204   6.243  1.1690  0.2420 -0.2777
    1PA     H9R 1338   3.493   1.157   6.252  1.8171 -1.1362 -0.3133
    1PA     H9S 1339   3.619   1.252   6.337 -1.0831  0.1121  0.4859
    1PA     C18 1340   3.579   1.329   6.145  0.5069  0.0745  0.8374
    1PA     H8R 1341   3.538   1.298   6.049 -0.1170  1.0413  0.7908
    1PA     H8S 1342   3.502   1.392   6.190 -1.2456 -2.0303  0.8764
    1PA     C17 1343   3.705   1.412   6.110 -0.0823 -0.6145  0.0275
    1PA     H7R 1344   3.755   1.429   6.206 -2.6743 -0.0252  1.3117
    1PA     H7S 1345   3.762   1.349   6.041  1.9419  1.1338  0.0508
    1PA     C16 1346   3.682   1.540   6.036  0.3991  0.2318 -0.1642
    1PA     H6R 1347   3.777   1.581   6.001  0.6531  1.0642  1.4434
    1PA     H6S 1348   3.625   1.513   5.946 -0.8569 -1.2019  1.0399
    1PA     C15 1349   3.603   1.644   6.121 -0.2509  0.0546  0.6052
    1PA     H5R 1350   3.579   1.715   6.042 -0.4194  0.4971  1.0574
    1PA     H5S 1351   3.508   1.603   6.158 -0.6923  0.3471 -0.1952
    1PA     C14 1352   3.692   1.699   6.234 -0.5250 -0.0309 -0.8792
    1PA     H4R 1353   3.721   1.616   6.298 -0.5385  1.5795  1.2443
    1PA     H4S 1354   3.785   1.745   6.200 -0.9467  1.5769  0.0970
    1PA     C13 1355   3.615   1.803   6.314 -0.2143 -0.3488 -0.5321
    1PA     H3R 1356   3.572   1.880   6.250 -1.5532  0.7921  1.6426
    1PA     H3S 1357   3.522   1.765   6.358 -0.9647 -1.0499 -2.6721
    1PA     C12 1358   3.703   1.854   6.427 -0.0802 -0.0288 -0.5272
    1PA     H2R 1359   3.804   1.878   6.395  0.2095 -1.3666 -0.6415
    1PA     H2S 1360   3.658   1.948   6.459 -0.5349 -0.5877  0.5004
    1PC     C11 1361   3.726   1.765   6.546  0.4323  0.2207 -0.2466
    1PC     O12 1362   3.647   1.694   6.602 -0.7473 -0.5715 -0.3571
    1PC     O11 1363   3.858   1.780   6.586  0.3530  0.1856  0.2359
    1PC      C1 1364   3.903   1.714   6.710  1.0979  0.0147  0.2592
    1PC      HR 1365   4.006   1.748   6.724  0.7741  1.5010 -0.8925
    1PC      HS 1366   3.843   1.735   6.798 -0.8585 -0.0520 -1.0362
    1PC      C2 1367   3.918   1.562   6.702  0.2114 -0.1949  0.4586
    1PC      HX 1368   3.819   1.528   6.670  0.9555  0.4836 -2.7207
    1PC      C3 1369   3.936   1.489   6.837 -0.1532  0.8129  0.0853
    1PC      HA 1370   3.853   1.520   6.900 -0.7531 -1.2691  0.3451
    1PC      HB 1371   3.934   1.380   6.827  2.2913  0.7888 -0.4050
    1PC     O31 1372   4.057   1.531   6.896  0.4806  0.3640 -0.6761
    1PC     P31 1373   4.078   1.519   7.056  0.0299 -0.0201  0.2071
    1PC     O32 1374   4.094   1.366   7.107  0.4712 -0.3317  0.1271
    1PC     C31 1375   3.982   1.289   7.150 -0.0252  0.0243  0.2366
    1PC     H1A 1376   3.911   1.362   7.190  1.1585  0.0418  2.3609
    1PC     H1B 1377   3.949   1.226   7.067 -0.4109 -0.7966  1.0119
    1PC     C32 1378   4.034   1.194   7.253 -0.4375  0.3243 -0.4266
    1PC     H2A 1379   4.100   1.131   7.193 -0.2416  2.0781 -2.0725
    1PC     H2B 1380   4.085   1.249   7.332 -2.1309 -0.2946  1.1646
    1PC     N31 1381   3.936   1.101   7.325 -0.0181 -0.2085 -0.0052
    1PC     C33 1382   3.828   1.190   7.390  0.4536 -0.2152 -0.1068
    1PC     H3A 1383   3.775   1.129   7.463 -1.2692 -2.2248 -2.9355
    1PC     H3B 1384   3.875   1.275   7.440 -0.2737  0.9951 -1.4517
    1PC     H3C 1385   3.757   1.214   7.310  0.2661  0.5107  0.2761
    1PC     C34 1386   3.871   0.998   7.235 -0.1086 -0.6962  0.0674
    1PC     H4A 1387   3.944   0.940   7.180 -1.1839 -1.4095 -0.6149
    1PC     H4B 1388   3.803   0.938   7.296  0.2172 -0.1002  1.0381
    1PC     H4C 1389   3.820   1.050   7.153 -0.9758 -1.7409 -0.0644
    1PC     C35 1390   3.998   1.014   7.424  0.1004  0.9822 -0.6832
    1PC     H5A 1391   4.093   0.981   7.381 -0.3126  0.9376 -1.5780
    1PC     H5B 1392   3.938   0.925   7.443  1.8378 -0.6637 -2.6155
    1PC     H5C 1393   4.013   1.068   7.517  1.3849  0.2316 -0.4376
    1PC     O33 1394   4.208   1.590   7.078 -0.2426  0.6349  0.2795
    1PC     O34 1395   3.959   1.572   7.117 -0.0643  0.4268 -0.1703
    1PC     O21 1396   4.023   1.521   6.603 -0.3952  0.2281  0.1168
    1PC     C21 1397   4.000   1.504   6.472  0.0428 -0.4409  0.2668
    1PC     O22 1398   3.886   1.529   6.430 -0.1440  0.1834 -0.0109
    1OL     C12 1399   4.122   1.466   6.393  0.4446  0.1197  0.0180
    1OL     H2R 1400   4.107   1.389   6.317  2.2217 -1.7767  1.5165
    1OL     H2S 1401   4.203   1.435   6.459  1.4341  0.5828 -0.9718
    1OL     C13 1402   4.176   1.589   6.309 -0.1684 -0.1958 -0.0686
    1OL     H3R 1403   4.283   1.570   6.294  1.2598  4.6015  2.8020
    1OL     H3S 1404   4.181   1.684   6.363 -0.9174  0.8660 -1.8121
    1OL     C14 1405   4.104   1.620   6.175 -0.0650 -0.2364  0.6898
    1OL     H4R 1406   3.997   1.617   6.197 -0.7535 -0.2105 -2.4891
    1OL     H4S 1407   4.113   1.539   6.102 -0.8454  0.8468 -0.6375
    1OL     C15 1408   4.138   1.754   6.111 -0.3714  0.5625  0.3866
    1OL     H5R 1409   4.149   1.830   6.189  0.1513  0.1336  0.7356
    1OL     H5S 1410   4.060   1.784   6.041 -1.0552 -0.9179  0.4835
    1OL     C16 1411   4.268   1.726   6.036  0.7535 -1.0961 -0.7850
    1OL     H6R 1412   4.255   1.645   5.964  1.5035 -1.0301 -0.9996
    1OL     H6S 1413   4.347   1.688   6.101  0.5736  0.4204  0.3618
    1OL     C17 1414   4.338   1.838   5.950  0.1422  0.3293  0.5790
    1OL     H7R 1415   4.432   1.794   5.918 -0.1571 -1.4225  2.0241
    1OL     H7S 1416   4.354   1.917   6.025  0.9256 -0.0279  0.7857
    1OL     C18 1417   4.247   1.870   5.825 -0.0866  0.1602  0.0591
    1OL     H8R 1418   4.290   1.961   5.783  2.5557 -1.0315  0.0534
    1OL     H8S 1419   4.146   1.891   5.859 -1.0015 -0.6530 -2.0756
    1OL     C19 1420   4.245   1.763   5.724 -0.5048 -0.2505 -0.5315
    1OL     H9R 1421   4.190   1.672   5.747  0.5137 -1.1119 -1.4478
    1OL    C110 1422   4.292   1.753   5.601  0.1915  0.5939  0.6774
    1OL    H10R 1423   4.270   1.659   5.550  0.3775 -0.0964  1.8224
    1OL    C111 1424   4.366   1.850   5.519  0.2800  0.0128  0.1109
    1OL    H11R 1425   4.394   1.936   5.580  2.2231 -1.6462  1.6403
    1OL    H11S 1426   4.310   1.873   5.428  1.3509 -0.6456 -0.7335
    1OL    C112 1427   4.507   1.788   5.491 -0.2339  0.3280  0.1057
    1OL    H12R 1428   4.492   1.692   5.442 -0.5269  1.5094 -2.1795
    1OL    H12S 1429   4.568   1.783   5.582  1.0352 -0.7074 -0.7764
    1OL    C113 1430   4.586   1.876   5.389  0.5028  0.2417 -0.3761
    1OL    H13R 1431   4.689   1.841   5.399  1.0016  1.8293  0.3429
    1OL    H13S 1432   4.595   1.974   5.437  2.5957  0.0178 -0.2582
    1OL    C114 1433   4.536   1.882   5.243 -0.0154 -1.1239 -0.3400
    1OL    H14R 1434   4.527   1.784   5.197  1.7967 -0.9900 -1.0170
    1OL    H14S 1435   4.623   1.923   5.192 -1.7432  2.2683 -0.7323
    1OL    C115 1436   4.419   1.969   5.201 -0.2831 -0.1406 -0.7302
    1OL    H15R 1437   4.370   2.012   5.289  1.2121 -1.6067  0.8542
    1OL    H15S 1438   4.353   1.902   5.145 -1.6770 -0.8356  1.6600
    1OL    C116 1439   4.450   2.089   5.115 -0.1003  0.3149 -0.0369
    1OL    H16R 1440   4.347   2.108   5.086 -0.5664 -1.4345  0.4220
    1OL    H16S 1441   4.507   2.055   5.028  0.5755 -1.8761  1.2179
    1OL    C117 1442   4.515   2.211   5.186 -0.5128  0.7208 -0.1486
    1OL    H17R 1443   4.607   2.177   5.234 -1.6711 -1.1522  0.8165
    1OL    H17S 1444   4.457   2.250   5.271  1.0430 -2.2701  2.3981
    1OL    C118 1445   4.554   2.327   5.093 -0.2145 -0.4205 -0.8162
    1OL    H18R 1446   4.612   2.400   5.150 -0.1843  0.1181 -1.5311
    1OL    H18S 1447   4.470   2.382   5.051 -0.3514  0.6198  0.7764
    1OL    H18T 1448   4.601   2.304   4.997  1.3396  2.9451 -0.9309
    1PA    C116 1449   1.751   2.449   5.740  0.0387  0.5585  1.3411
    1PA    H16R 1450   1.714   2.473   5.640 -0.1415 -2.8756  0.5346
    1PA    H16S 1451   1.721   2.534   5.801 -2.3411 -0.1593  1.2164
    1PA    H16T 1452   1.691   2.364   5.774 -1.6646  0.9893 -0.4781
    1PA    C115 1453   1.900   2.420   5.758  0.1735 -0.2552 -0.5455
    1PA    H15R 1454   1.925   2.340   5.687 -1.6778 -0.6667 -0.7620
    1PA    H15S 1455   1.959   2.504   5.721  1.9744 -1.7307 -1.1558
    1PA    C114 1456   1.926   2.381   5.906 -0.4055 -0.2450  0.3218
    1PA    H14R 1457   1.903   2.464   5.973  2.4615  1.0786 -0.2459
    1PA    H14S 1458   1.882   2.287   5.939 -1.4324  1.5485  4.2477
    1PA    C113 1459   2.076   2.355   5.922 -0.5949  0.5146  0.1369
    1PA    H13R 1460   2.106   2.282   5.847  0.0836  2.0819 -1.1565
    1PA    H13S 1461   2.128   2.451   5.914  0.6727 -0.1263  0.5728
    1PA    C112 1462   2.114   2.293   6.060 -0.1173 -0.6723 -0.0183
    1PA    H12R 1463   2.068   2.341   6.147 -1.5407 -1.9594 -0.0397
    1PA    H12S 1464   2.065   2.196   6.061 -1.8421  0.1676  0.1473
    1PA    C111 1465   2.265   2.288   6.059  0.2196 -0.3609 -0.3594
    1PA    H11R 1466   2.300   2.266   5.958 -0.5464 -0.8884 -0.5161
    1PA    H11S 1467   2.307   2.384   6.087 -0.9452 -0.9472  3.8897
    1PA    C110 1468   2.319   2.180   6.153 -0.1477 -0.6033 -0.8590
    1PA    H10R 1469   2.302   2.081   6.110  1.4820 -0.2822 -2.3008
    1PA    H10S 1470   2.428   2.184   6.155 -0.1428 -1.1451  0.5075
    1PA     C19 1471   2.266   2.192   6.297 -0.4481 -0.1658 -0.4152
    1PA     H9R 1472   2.158   2.200   6.298 -0.5534 -1.3071 -1.4101
    1PA     H9S 1473   2.297   2.106   6.357  3.0167  2.0398  1.2082
    1PA     C18 1474   2.330   2.322   6.360  0.0308  0.0167  0.0104
    1PA     H8R 1475   2.438   2.319   6.380  0.0866 -1.6360 -0.4836
    1PA     H8S 1476   2.317   2.403   6.288  2.4059 -0.4621 -0.9875
    1PA     C17 1477   2.266   2.350   6.496 -0.6152  0.1033 -0.2495
    1PA     H7R 1478   2.159   2.332   6.491 -0.1466 -3.0987 -0.3100
    1PA     H7S 1479   2.302   2.268   6.559 -0.1224  0.6413  0.1789
    1PA     C16 1480   2.298   2.484   6.570  0.2391 -0.0720  0.1680
    1PA     H6R 1481   2.240   2.495   6.662  0.1713  1.1358 -0.0135
    1PA     H6S 1482   2.400   2.467   6.605  0.8854 -1.2276 -2.1668
    1PA     C15 1483   2.273   2.619   6.494 -0.0499  0.1072  0.4099
    1PA     H5R 1484   2.314   2.613   6.392 -1.6240 -0.5342 -0.2000
    1PA     H5S 1485   2.167   2.642   6.479  0.1595  1.3396  0.7620
    1PA     C14 1486   2.337   2.732   6.569 -0.1658 -0.2228 -0.1077
    1PA     H4R 1487   2.283   2.732   6.664 -1.0685 -0.7201 -0.6235
    1PA     H4S 1488   2.439   2.707   6.601 -1.0836 -0.5287  2.7684
    1PA     C13 1489   2.347   2.870   6.502 -0.3283 -0.9574  0.0978
    1PA     H3R 1490   2.415   2.934   6.558 -1.0869  0.9942 -1.1563
    1PA     H3S 1491   2.380   2.853   6.399 -0.0573  1.2290 -0.2051
    1PA     C12 1492   2.217   2.948   6.489 -0.1704 -1.1202  0.4178
    1PA     H2R 1493   2.232   3.035   6.425  0.2666 -2.2585 -1.0627
    1PA     H2S 1494   2.150   2.889   6.426 -0.9152 -1.4640  1.5284
    1PC     C11 1495   2.135   2.981   6.619 -0.6422 -0.5230  0.8563
    1PC     O12 1496   2.187   3.024   6.718  0.1731  0.0058  0.1631
    1PC     O11 1497   2.014   2.916   6.626  0.3002  0.0107  0.2494
    1PC      C1 1498   1.951   2.886   6.754 -0.0567  0.2967 -0.4710
    1PC      HR 1499   2.021   2.882   6.838 -0.9346  1.6677  0.3480
    1PC      HS 1500   1.889   2.971   6.783 -1.7286 -1.7023  1.9779
    1PC      C2 1501   1.867   2.758   6.742  0.5073 -0.5075  0.0252
    1PC      HX 1502   1.799   2.744   6.827  0.2646 -0.5282 -0.1705
    1PC      C3 1503   1.951   2.634   6.753 -0.1603  0.0411  0.4238
    1PC      HA 1504   1.877   2.556   6.735 -0.2714  0.1620  0.3489
    1PC      HB 1505   2.021   2.635   6.670  1.3606  1.0300  1.6843
    1PC     O31 1506   2.019   2.627   6.881  0.2587  0.1589  0.0085
    1PC     P31 1507   1.951   2.575   7.018  0.2228  0.2917  0.0467
    1PC     O32 1508   2.053   2.468   7.069  0.8864  0.0526 -0.0748
    1PC     C31 1509   2.070   2.341   7.010 -0.6854 -0.1212 -0.3707
    1PC     H1A 1510   2.023   2.272   7.081  1.9372  0.6905  2.2677
    1PC     H1B 1511   2.020   2.338   6.913 -3.0128 -0.9039  0.8003
    1PC     C32 1512   2.226   2.322   7.000 -0.0700 -0.4693  1.0966
    1PC     H2A 1513   2.258   2.233   6.947 -1.4339 -0.2168 -0.1847
    1PC     H2B 1514   2.266   2.414   6.957  1.3915 -1.8119 -0.4354
    1PC     N31 1515   2.297   2.282   7.128  0.6551 -0.2415  0.9023
    1PC     C33 1516   2.285   2.381   7.240  0.4328 -0.1852  0.3912
    1PC     H3A 1517   2.179   2.399   7.259  0.7427 -0.1015  2.1440
    1PC     H3B 1518   2.330   2.349   7.334 -0.3568  1.7414  1.4585
    1PC     H3C 1519   2.323   2.478   7.208 -3.0103  1.2503  0.3973
    1PC     C34 1520   2.248   2.153   7.187  0.4304 -0.3400  0.2209
    1PC     H4A 1521   2.304   2.130   7.278 -1.7519  2.2182  2.3206
    1PC     H4B 1522   2.145   2.176   7.214  0.3245 -0.9942  0.3628
    1PC     H4C 1523   2.251   2.077   7.109  0.1557 -0.8277  0.6796
    1PC     C35 1524   2.444   2.277   7.088 -0.2714 -0.2018 -0.0630
    1PC     H5A 1525   2.467   2.370   7.036  1.7409 -0.4047  0.4125
    1PC     H5B 1526   2.464   2.193   7.022 -0.5493 -1.1879  1.0705
    1PC     H5C 1527   2.503   2.264   7.179 -2.8604  1.3359  1.8956
    1PC     O33 1528   1.948   2.688   7.112 -0.0681  0.1136  0.1370
    1PC     O34 1529   1.823   2.523   6.976 -0.6224 -0.3955 -0.0408
    1PC     O21 1530   1.791   2.754   6.620  0.2239 -0.6179 -0.4250
    1PC     C21 1531   1.673   2.820   6.616 -0.2406  1.0791  0.5558
    1PC     O22 1532   1.624   2.871   6.713  0.3841 -0.4918 -0.7958
    1OL     C12 1533   1.616   2.805   6.474  0.2392 -0.7203  0.6147
    1OL     H2R 1534   1.530   2.739   6.464 -0.4959  0.0986  1.4344
    1OL     H2S 1535   1.702   2.775   6.414 -0.0910  0.7669 -0.6262
    1OL     C13 1536   1.557   2.940   6.424  0.2087  0.0706  0.5835
    1OL     H3R 1537   1.648   3.001   6.418  0.0546  0.6993  3.7393
    1OL     H3S 1538   1.490   2.988   6.497  0.4717 -1.2886  1.7472
    1OL     C14 1539   1.487   2.946   6.284 -0.9345  0.1685  0.2783
    1OL     H4R 1540   1.384   2.914   6.301 -1.0264  0.6325  0.6361
    1OL     H4S 1541   1.537   2.882   6.212  1.7198  1.2546  1.1124
    1OL     C15 1542   1.482   3.090   6.225  0.3372 -0.3486 -0.0816
    1OL     H5R 1543   1.585   3.128   6.230  0.9001 -2.0390  2.6875
    1OL     H5S 1544   1.414   3.151   6.284  2.5751  1.8369  0.3125
    1OL     C16 1545   1.438   3.099   6.078  0.0372 -0.3400  0.2474
    1OL     H6R 1546   1.505   3.033   6.023 -2.2597 -1.6030 -1.1216
    1OL     H6S 1547   1.460   3.199   6.039 -0.5571 -0.5332 -0.5776
    1OL     C17 1548   1.292   3.054   6.052 -0.1427 -0.4492  0.1102
    1OL     H7R 1549   1.280   2.946   6.065  0.2857 -0.5205 -0.1019
    1OL     H7S 1550   1.266   3.071   5.948  0.5420 -0.5754 -0.0857
    1OL     C18 1551   1.182   3.111   6.136 -0.3992  0.1711 -0.2644
    1OL     H8R 1552   1.183   3.220   6.133 -0.3640  0.2622  2.0201
    1OL     H8S 1553   1.211   3.086   6.238 -1.6173 -2.1795 -0.4526
    1OL     C19 1554   1.050   3.051   6.119 -1.0585  0.0698 -0.1835
    1OL     H9R 1555   1.026   2.996   6.209  1.6864  0.5501  0.9025
    1OL    C110 1556   0.960   3.082   6.026  1.3251  0.5890 -0.4072
    1OL    H10R 1557   0.857   3.052   6.044  1.6436 -0.0581  0.3468
    1OL    C111 1558   0.972   3.172   5.905 -0.0231  0.1255  0.0573
    1OL    H11R 1559   1.052   3.247   5.912  0.0687 -0.0033  0.3784
    1OL    H11S 1560   0.874   3.220   5.902 -0.3979 -0.7072 -1.4258
    1OL    C112 1561   0.997   3.090   5.777 -0.1760  0.4764 -0.7039
    1OL    H12R 1562   1.104   3.069   5.773 -0.1683  0.2814  0.4843
    1OL    H12S 1563   0.982   3.148   5.685 -0.5999 -1.7966 -2.0950
    1OL    C113 1564   0.908   2.966   5.745  0.0607 -1.0753  0.5984
    1OL    H13R 1565   0.890   2.948   5.639  1.4306 -0.7860  0.3042
    1OL    H13S 1566   0.811   2.992   5.786 -0.9142 -1.8809 -1.1638
    1OL    C114 1567   0.941   2.832   5.809 -0.1770 -0.0942  0.0396
    1OL    H14R 1568   0.982   2.830   5.910  2.2797 -0.0666 -0.9363
    1OL    H14S 1569   1.023   2.786   5.754  0.2011 -0.8520  1.2077
    1OL    C115 1570   0.831   2.730   5.798  0.7182 -0.3999 -0.4995
    1OL    H15R 1571   0.790   2.712   5.698 -0.8543 -1.1262  0.2463
    1OL    H15S 1572   0.745   2.767   5.856  0.0520 -0.3562 -1.4979
    1OL    C116 1573   0.866   2.601   5.871  0.6425 -0.1804  0.3945
    1OL    H16R 1574   0.872   2.602   5.980 -0.8745 -0.7265  0.4918
    1OL    H16S 1575   0.957   2.551   5.835 -0.2940 -1.3071 -0.4200
    1OL    C117 1576   0.752   2.492   5.849 -0.1678 -0.6526 -0.5417
    1OL    H17R 1577   0.744   2.483   5.741  2.2669  0.2015 -0.8359
    1OL    H17S 1578   0.657   2.515   5.898  0.9595  0.5486  1.1693
    1OL    C118 1579   0.796   2.354   5.895  0.0105  0.5642 -0.7373
    1OL    H18R 1580   0.886   2.325   5.841 -0.5987  2.3352 -2.8045
    1OL    H18S 1581   0.715   2.282   5.880  0.2643 -0.1501  1.1563
    1OL    H18T 1582   0.826   2.359   5.999  1.3713 -0.3141 -1.0768
    1PA    C116 1583   2.985   1.179   5.286 -0.2144 -0.4826  0.5701
    1PA    H16R 1584   3.055   1.192   5.368  0.6268  2.5202 -0.5235
    1PA    H16S 1585   3.013   1.255   5.212  0.1101 -4.4056 -3.5702
    1PA    H16T 1586   2.987   1.083   5.234  1.4932  0.8425 -1.9052
    1PA    C115 1587   2.842   1.200   5.343 -0.8338  0.0794 -0.4631
    1PA    H15R 1588   2.824   1.299   5.385  0.3681 -0.0182  0.3344
    1PA    H15S 1589   2.773   1.177   5.262  0.4735 -1.1610 -1.2378
    1PA    C114 1590   2.814   1.089   5.456  0.1297 -0.7551  0.5728
    1PA    H14R 1591   2.710   1.108   5.483  0.3217 -0.1451  0.9024
    1PA    H14S 1592   2.824   0.987   5.419 -1.3864  0.0447 -2.2362
    1PA    C113 1593   2.910   1.119   5.581 -0.5108 -0.4683  0.2684
    1PA    H13R 1594   3.011   1.082   5.563  0.4737  2.7353 -1.0986
    1PA    H13S 1595   2.932   1.226   5.579 -1.3561 -0.2879  0.1382
    1PA    C112 1596   2.846   1.083   5.723 -0.2661 -0.1524 -0.1893
    1PA    H12R 1597   2.912   1.122   5.801  1.3614 -1.6599 -0.7664
    1PA    H12S 1598   2.744   1.121   5.718 -0.0511  0.2577 -1.5671
    1PA    C111 1599   2.831   0.936   5.742  0.0626  0.2655  0.3924
    1PA    H11R 1600   2.805   0.889   5.647  0.6281  0.6010  0.0700
    1PA    H11S 1601   2.931   0.899   5.765  0.4956  0.6820 -0.7867
    1PA    C110 1602   2.739   0.892   5.858 -0.0402 -0.7091  0.1480
    1PA    H10R 1603   2.643   0.943   5.854 -0.4723 -1.3952  1.6047
    1PA    H10S 1604   2.716   0.785   5.852 -0.7175 -0.4876 -1.8056
    1PA     C19 1605   2.806   0.927   5.999 -0.2323  0.5346 -0.1242
    1PA     H9R 1606   2.899   0.871   6.010  0.1746  1.4937  1.3709
    1PA     H9S 1607   2.843   1.030   6.005 -0.5801  0.6418  0.1745
    1PA     C18 1608   2.729   0.896   6.132  0.1148  0.3813  0.3058
    1PA     H8R 1609   2.792   0.917   6.219 -2.6324 -0.1600  2.4780
    1PA     H8S 1610   2.644   0.958   6.160  2.2199  3.4980  0.0896
    1PA     C17 1611   2.675   0.754   6.125 -0.9509 -0.2225 -0.2583
    1PA     H7R 1612   2.590   0.747   6.057 -1.1077 -1.4697  0.0453
    1PA     H7S 1613   2.760   0.691   6.098  0.3355  1.2664  0.2733
    1PA     C16 1614   2.635   0.723   6.270 -0.6414  0.4317 -0.3468
    1PA     H6R 1615   2.722   0.737   6.334  1.0577 -2.0482 -1.9982
    1PA     H6S 1616   2.553   0.792   6.289 -1.5138 -0.5187 -0.5739
    1PA     C15 1617   2.592   0.579   6.283 -0.2567  0.5175  0.2145
    1PA     H5R 1618   2.503   0.564   6.221 -0.1961 -2.2184  0.7218
    1PA     H5S 1619   2.658   0.509   6.232 -1.6369 -0.1313 -0.7037
    1PA     C14 1620   2.554   0.543   6.428  0.3551 -0.4025 -0.0393
    1PA     H4R 1621   2.644   0.536   6.489  1.5467  0.4768 -1.6525
    1PA     H4S 1622   2.489   0.613   6.480  1.2596 -0.7478  1.5674
    1PA     C13 1623   2.473   0.414   6.444 -0.1734 -0.5068 -0.3306
    1PA     H3R 1624   2.403   0.425   6.361  1.0576  0.5401 -1.2601
    1PA     H3S 1625   2.541   0.332   6.422  1.4347  0.6828  0.0887
    1PA     C12 1626   2.421   0.392   6.587 -0.3821  0.5245  1.0253
    1PA     H2R 1627   2.345   0.467   6.608 -2.0013 -0.9589  0.5612
    1PA     H2S 1628   2.372   0.294   6.590 -0.6668  0.6621  0.8841
    1PC     C11 1629   2.528   0.385   6.690 -0.2062 -0.6948  0.2237
    1PC     O12 1630   2.574   0.278   6.722 -0.2040 -0.1185  0.0219
    1PC     O11 1631   2.557   0.508   6.733 -0.3512 -0.0773  0.0557
    1PC      C1 1632   2.641   0.528   6.851 -0.0574 -0.9097  0.0844
    1PC      HR 1633   2.588   0.504   6.944  1.6959  0.9540  1.6450
    1PC      HS 1634   2.734   0.471   6.846  2.2294  2.5779  0.8009
    1PC      C2 1635   2.690   0.676   6.850 -0.1268  0.7648 -0.6870
    1PC      HX 1636   2.772   0.680   6.778  0.9898  0.5113  0.5503
    1PC      C3 1637   2.752   0.717   6.977 -0.0043 -0.3843  0.1012
    1PC      HA 1638   2.851   0.671   6.975 -0.7438 -1.9204 -2.2009
    1PC      HB 1639   2.761   0.826   6.978  1.2444 -0.3986 -3.6419
    1PC     O31 1640   2.670   0.673   7.089 -0.1412 -0.0785  0.5497
    1PC     P31 1641   2.637   0.746   7.220 -0.2565  0.1755  0.5617
    1PC     O32 1642   2.523   0.843   7.168 -0.1310  0.4682 -0.6907
    1PC     C31 1643   2.387   0.797   7.137  0.5587 -0.9350 -0.0279
    1PC     H1A 1644   2.400   0.721   7.060  1.2113  1.2780 -2.1771
    1PC     H1B 1645   2.331   0.753   7.219  1.3976 -4.2559 -1.1800
    1PC     C32 1646   2.311   0.916   7.079 -1.0230 -0.1252 -0.0566
    1PC     H2A 1647   2.383   0.992   7.048 -0.3518 -0.2578  1.1474
    1PC     H2B 1648   2.239   0.894   7.001  0.8581  2.6316 -2.7006
    1PC     N31 1649   2.229   0.993   7.180 -0.6410 -0.0347 -0.6475
    1PC     C33 1650   2.323   1.039   7.282 -0.1713 -0.4620  0.2865
    1PC     H3A 1651   2.274   1.128   7.322 -0.0299  1.1730 -2.9904
    1PC     H3B 1652   2.341   0.955   7.349 -0.2000 -0.4144  0.3525
    1PC     H3C 1653   2.416   1.068   7.233  0.2466 -2.7156 -0.2881
    1PC     C34 1654   2.168   1.111   7.121  0.4934 -1.1092 -0.1630
    1PC     H4A 1655   2.076   1.083   7.069  0.0969  2.5977 -1.5748
    1PC     H4B 1656   2.148   1.194   7.188 -2.3511 -1.2850 -0.7494
    1PC     H4C 1657   2.232   1.160   7.048  0.7905 -0.8739  0.2566
    1PC     C35 1658   2.115   0.909   7.232 -0.0276 -0.4472 -0.6759
    1PC     H5A 1659   2.057   0.868   7.149  0.2063 -3.5112  0.6229
    1PC     H5B 1660   2.051   0.977   7.290 -0.3137 -1.1358 -0.1796
    1PC     H5C 1661   2.152   0.823   7.289 -2.1200 -1.6177 -1.0388
    1PC     O33 1662   2.572   0.654   7.318 -0.1111 -0.4207 -0.2803
    1PC     O34 1663   2.753   0.826   7.259 -0.0798  0.0233  0.3907
    1PC     O21 1664   2.583   0.779   6.830  0.1368 -0.3266  0.3040
    1PC     C21 1665   2.581   0.838   6.713  0.0459  0.3857  0.2880
    1PC     O22 1666   2.653   0.816   6.620  0.2184  0.0177 -0.1278
    1OL     C12 1667   2.464   0.931   6.704 -0.4395 -0.3288 -0.0399
    1OL     H2R 1668   2.494   1.029   6.668 -0.4707 -0.1369  0.4445
    1OL     H2S 1669   2.429   0.949   6.807  2.1049 -0.8391  0.9421
    1OL     C13 1670   2.354   0.869   6.608  0.1298 -0.8288 -0.4991
    1OL     H3R 1671   2.392   0.846   6.509  1.5347 -0.6683  0.0013
    1OL     H3S 1672   2.282   0.951   6.599 -0.3377 -1.0145  1.3188
    1OL     C14 1673   2.271   0.755   6.675  0.0426 -0.1468  0.3307
    1OL     H4R 1674   2.228   0.794   6.768 -0.1196 -1.1903  0.6942
    1OL     H4S 1675   2.331   0.666   6.690 -1.7225 -1.5539 -0.7518
    1OL     C15 1676   2.157   0.706   6.576 -0.5470 -0.4178 -0.3522
    1OL     H5R 1677   2.212   0.664   6.491 -2.1841 -1.6290 -0.8547
    1OL     H5S 1678   2.100   0.790   6.536 -2.4179 -2.3946 -2.0072
    1OL     C16 1679   2.055   0.601   6.638  0.2376  0.7855  0.0732
    1OL     H6R 1680   2.029   0.633   6.739 -1.3754 -0.6944  0.1615
    1OL     H6S 1681   2.117   0.512   6.644  1.6022  1.6023 -1.5145
    1OL     C17 1682   1.926   0.576   6.558 -0.3066 -0.2868 -0.1252
    1OL     H7R 1683   1.853   0.652   6.587  1.0160  0.4128  1.5020
    1OL     H7S 1684   1.885   0.483   6.598  0.9828 -0.9390 -0.2813
    1OL     C18 1685   1.938   0.569   6.408  0.5218 -0.2777  0.7840
    1OL     H8R 1686   1.952   0.671   6.372  1.0051  0.9082  4.1551
    1OL     H8S 1687   1.838   0.539   6.376 -0.5583  2.6828  1.1982
    1OL     C19 1688   2.049   0.480   6.353 -0.0768 -0.7287  0.1190
    1OL     H9R 1689   2.082   0.397   6.415 -0.7681  0.3444  1.9845
    1OL    C110 1690   2.128   0.509   6.248 -0.1008  0.1628  0.4891
    1OL    H10R 1691   2.212   0.443   6.224  0.2790  1.6675 -2.5518
    1OL    C111 1692   2.120   0.635   6.162 -0.5526 -0.0218 -0.4447
    1OL    H11R 1693   2.204   0.701   6.184 -1.5562  1.7793 -1.8695
    1OL    H11S 1694   2.028   0.692   6.181  0.3342  0.2287  3.4917
    1OL    C112 1695   2.125   0.575   6.020  0.0097  0.0849 -0.0572
    1OL    H12R 1696   2.039   0.514   5.992  0.3040 -1.4500  2.2467
    1OL    H12S 1697   2.209   0.506   6.010  0.7285  0.6397  2.0232
    1OL    C113 1698   2.136   0.692   5.920 -0.6017  0.1126  0.1619
    1OL    H13R 1699   2.219   0.754   5.954  0.8917 -1.4307 -0.6018
    1OL    H13S 1700   2.040   0.745   5.923  0.5686  2.2092  1.7440
    1OL    C114 1701   2.156   0.648   5.774 -0.1803 -0.2198  0.4352
    1OL    H14R 1702   2.076   0.587   5.730 -0.0575 -0.6669  0.8248
    1OL    H14S 1703   2.244   0.583   5.776 -0.9638 -1.4337 -1.7957
    1OL    C115 1704   2.194   0.762   5.676  0.0089  0.3503 -0.2197
    1OL    H15R 1705   2.264   0.834   5.719  0.2525  0.7779 -1.2930
    1OL    H15S 1706   2.103   0.816   5.650 -1.1638 -0.5646  1.9072
    1OL    C116 1707   2.274   0.700   5.554 -0.0046  0.0578  0.3293
    1OL    H16R 1708   2.207   0.643   5.489  0.1049  0.5345 -0.2068
    1OL    H16S 1709   2.362   0.652   5.596  1.0806  1.1087 -0.7085
    1OL    C117 1710   2.314   0.820   5.470 -0.0235 -0.1784 -0.3436
    1OL    H17R 1711   2.354   0.897   5.536  2.7187 -0.8390 -1.1823
    1OL    H17S 1712   2.219   0.856   5.429  0.6402  1.5890 -0.3979
    1OL    C118 1713   2.408   0.789   5.356 -0.0943  0.3957 -0.6047
    1OL    H18R 1714   2.367   0.725   5.278  0.1913  0.7950 -1.0812
    1OL    H18S 1715   2.506   0.758   5.394  0.6711  0.2895 -2.6245
    1OL    H18T 1716   2.437   0.880   5.303  0.4017  0.3687 -0.3765
    1PA    C116 1717   5.031   2.750   6.121 -0.4548 -0.2089 -0.8701
    1PA    H16R 1718   5.071   2.714   6.216 -1.7420  0.7387  0.0600
    1PA    H16S 1719   4.924   2.759   6.143 -0.0359 -2.7926  2.8138
    1PA    H16T 1720   5.071   2.848   6.096 -3.1289  1.3288  0.5700
    1PA    C115 1721   5.055   2.644   6.015  0.0567  0.3997  0.0650
    1PA    H15R 1722   5.023   2.675   5.915  3.0143 -1.9880 -1.7384
    1PA    H15S 1723   5.161   2.622   5.997 -0.2232 -2.1143  1.2501
    1PA    C114 1724   4.979   2.516   6.031  0.1247 -0.7341 -0.4464
    1PA    H14R 1725   4.874   2.543   6.019  0.3789  0.5981  0.1506
    1PA    H14S 1726   5.003   2.458   5.942  2.8611  0.1009 -0.3034
    1PA    C113 1727   5.004   2.447   6.165 -0.1180 -0.0777 -0.3824
    1PA    H13R 1728   5.112   2.431   6.178 -0.2341  0.6660  1.7791
    1PA    H13S 1729   4.978   2.510   6.251 -0.6092 -0.8816  0.0636
    1PA    C112 1730   4.930   2.316   6.192  0.4889 -0.4698 -0.0959
    1PA    H12R 1731   4.985   2.225   6.168  2.4300  0.1115  1.9113
    1PA    H12S 1732   4.921   2.310   6.301 -0.0559 -0.8875 -0.1642
    1PA    C111 1733   4.788   2.312   6.129 -0.5217  0.4842 -1.0563
    1PA    H11R 1734   4.732   2.399   6.162 -1.3031  0.1314 -1.4327
    1PA    H11S 1735   4.781   2.314   6.020 -0.6415  0.5933 -1.0477
    1PA    C110 1736   4.700   2.200   6.189  0.1385 -0.1150  0.3241
    1PA    H10R 1737   4.711   2.195   6.298  3.8016 -0.9165 -0.0144
    1PA    H10S 1738   4.597   2.230   6.166  0.1811  1.4740  1.9944
    1PA     C19 1739   4.737   2.061   6.135  0.1241 -0.3832 -0.7695
    1PA     H9R 1740   4.763   2.075   6.030  1.0554  2.5965 -0.1898
    1PA     H9S 1741   4.831   2.025   6.178  0.9218  0.1750 -2.0421
    1PA     C18 1742   4.637   1.950   6.154  0.7103  1.3651  0.3543
    1PA     H8R 1743   4.553   1.966   6.086 -2.0324  1.4220  3.5823
    1PA     H8S 1744   4.684   1.855   6.128  1.0251  1.1754  1.5925
    1PA     C17 1745   4.592   1.948   6.302 -0.3770  0.2672  0.7490
    1PA     H7R 1746   4.678   1.947   6.369 -0.6816 -0.0672  1.1424
    1PA     H7S 1747   4.539   2.041   6.323 -1.2060  0.2862 -1.3449
    1PA     C16 1748   4.497   1.840   6.346  0.4373 -0.6554 -0.6143
    1PA     H6R 1749   4.410   1.850   6.281 -1.4576  0.6246  1.9895
    1PA     H6S 1750   4.534   1.745   6.306  0.0885 -2.3629  2.8869
    1PA     C15 1751   4.466   1.823   6.498  0.2468 -0.0221  0.7608
    1PA     H5R 1752   4.441   1.921   6.540  0.1754 -0.1745  1.0725
    1PA     H5S 1753   4.379   1.758   6.506  0.8234 -0.9313 -0.1812
    1PA     C14 1754   4.580   1.755   6.580  1.0783 -0.3187 -0.0720
    1PA     H4R 1755   4.667   1.820   6.576 -1.1610  2.8510  0.3942
    1PA     H4S 1756   4.556   1.760   6.687 -2.5103  1.2729 -0.8610
    1PA     C13 1757   4.624   1.615   6.542 -0.0147 -0.3978 -0.1985
    1PA     H3R 1758   4.531   1.557   6.535 -0.4781  0.3743 -0.4560
    1PA     H3S 1759   4.668   1.624   6.443 -1.0923  1.7769 -0.5139
    1PA     C12 1760   4.723   1.554   6.639  0.1026 -0.2336 -0.1452
    1PA     H2R 1761   4.674   1.524   6.732 -0.1835 -1.1110 -0.5729
    1PA     H2S 1762   4.762   1.460   6.601  1.3322 -0.1049  0.7799
    1PC     C11 1763   4.848   1.637   6.683 -0.3500 -0.1009 -0.8174
    1PC     O12 1764   4.933   1.678   6.607 -0.5547  0.3302 -0.4567
    1PC     O11 1765   4.841   1.659   6.814 -0.5188  0.3336  0.6262
    1PC      C1 1766   4.947   1.730   6.878 -0.4366  0.0073  0.4853
    1PC      HR 1767   4.942   1.681   6.976  1.2099  0.9245  1.0600
    1PC      HS 1768   5.042   1.702   6.833 -0.0456  0.1377  1.2124
    1PC      C2 1769   4.928   1.889   6.876  0.4402  0.0226  0.5818
    1PC      HX 1770   5.029   1.927   6.890  0.5609 -0.5295  1.2030
    1PC      C3 1771   4.838   1.936   6.988  0.1280  0.2116 -0.6926
    1PC      HA 1772   4.891   1.910   7.080  1.6274  0.0220 -1.5970
    1PC      HB 1773   4.808   2.041   6.977  1.2943  0.9910  2.9091
    1PC     O31 1774   4.715   1.863   6.998 -0.3452 -0.1289  0.1837
    1PC     P31 1775   4.608   1.902   7.104 -0.1652  0.4591  0.2410
    1PC     O32 1776   4.486   1.952   7.009 -0.3028 -0.9380 -0.1252
    1PC     C31 1777   4.480   2.090   6.957  0.4834  0.2509  0.2345
    1PC     H1A 1778   4.586   2.107   6.936  1.1075 -0.3102  2.7484
    1PC     H1B 1779   4.426   2.088   6.862  3.0100 -0.7222 -1.2298
    1PC     C32 1780   4.424   2.181   7.067 -0.6865  0.6202  0.7796
    1PC     H2A 1781   4.469   2.151   7.162  0.3563 -2.1383 -0.5065
    1PC     H2B 1782   4.460   2.279   7.036  1.6909 -0.3825  0.2265
    1PC     N31 1783   4.276   2.191   7.100 -0.4477  0.6138 -0.3437
    1PC     C33 1784   4.213   2.288   7.005 -0.2729  1.0580  0.4477
    1PC     H3A 1785   4.105   2.278   7.018 -0.3124 -3.7121 -2.3285
    1PC     H3B 1786   4.255   2.386   7.028  1.0559  0.4012  0.8675
    1PC     H3C 1787   4.237   2.260   6.902  2.3686 -3.5606  2.1642
    1PC     C34 1788   4.198   2.064   7.086  0.1456  0.1848 -0.1313
    1PC     H4A 1789   4.218   1.991   7.165  0.9141  1.0310  0.4710
    1PC     H4B 1790   4.091   2.085   7.083  0.0512 -0.3228 -0.3196
    1PC     H4C 1791   4.226   2.006   6.998 -0.3216 -1.5247  0.8401
    1PC     C35 1792   4.263   2.258   7.235  0.5007 -0.3097 -0.2610
    1PC     H5A 1793   4.299   2.361   7.224 -0.3598  0.1766  1.2486
    1PC     H5B 1794   4.325   2.201   7.304  0.1397 -1.5906 -0.9803
    1PC     H5C 1795   4.159   2.258   7.266  0.5233  1.1808 -0.1468
    1PC     O33 1796   4.576   1.781   7.181  0.5060 -0.0364  0.5070
    1PC     O34 1797   4.653   2.018   7.184 -0.3629  0.5689  0.5031
    1PC     O21 1798   4.870   1.932   6.746 -0.1611 -0.6124 -0.0109
    1PC     C21 1799   4.906   2.053   6.705  0.1884  0.3077 -0.4889
    1PC     O22 1800   4.996   2.125   6.752 -0.1959 -0.0518 -0.2272
    1OL     C12 1801   4.825   2.110   6.592 -0.5651  0.5030 -0.0972
    1OL     H2R 1802   4.802   2.020   6.534  0.1292  2.3775 -3.4546
    1OL     H2S 1803   4.888   2.182   6.539  0.3753  0.7825  1.3898
    1OL     C13 1804   4.699   2.178   6.649 -0.2275  0.7416 -0.4740
    1OL     H3R 1805   4.653   2.103   6.714  0.4537 -0.4515 -1.3449
    1OL     H3S 1806   4.634   2.202   6.565  0.0547 -1.0717 -1.2273
    1OL     C14 1807   4.729   2.307   6.729  0.4195 -0.2387 -0.5456
    1OL     H4R 1808   4.784   2.283   6.820 -1.7141  0.2245  0.9218
    1OL     H4S 1809   4.636   2.358   6.755  0.6302 -0.7109  1.1881
    1OL     C15 1810   4.800   2.427   6.658  0.5818  0.1946  0.1441
    1OL     H5R 1811   4.905   2.400   6.644  0.0942 -1.8401  0.1911
    1OL     H5S 1812   4.803   2.509   6.730  1.0870  0.9813 -0.7653
    1OL     C16 1813   4.744   2.475   6.523  0.5551 -0.0725 -0.1772
    1OL     H6R 1814   4.639   2.495   6.544  1.5144  3.7416  1.5465
    1OL     H6S 1815   4.737   2.400   6.444  1.7938 -2.2121  1.7252
    1OL     C17 1816   4.819   2.604   6.481  0.0730 -0.2808 -0.4826
    1OL     H7R 1817   4.922   2.577   6.456  0.3159  0.2322 -0.0360
    1OL     H7S 1818   4.817   2.672   6.566 -0.5854  0.0597 -0.7680
    1OL     C18 1819   4.769   2.676   6.351 -0.0263  0.3502 -0.4805
    1OL     H8R 1820   4.772   2.607   6.267  2.4930  2.6810 -2.3959
    1OL     H8S 1821   4.841   2.756   6.340  0.7882  0.0759  2.3476
    1OL     C19 1822   4.626   2.731   6.373  0.1385  0.6457  0.4280
    1OL     H9R 1823   4.602   2.780   6.467 -2.4601  1.6579 -0.7008
    1OL    C110 1824   4.528   2.715   6.283 -0.4422  0.1534 -0.3456
    1OL    H10R 1825   4.429   2.754   6.307 -1.8266 -2.4636 -1.6000
    1OL    C111 1826   4.533   2.643   6.155 -0.1331  0.0594  0.3241
    1OL    H11R 1827   4.443   2.585   6.133 -0.8881  1.8247 -1.4063
    1OL    H11S 1828   4.607   2.563   6.160  1.4895  1.6752  2.8457
    1OL    C112 1829   4.545   2.739   6.030  0.1656  0.2150  0.0084
    1OL    H12R 1830   4.639   2.793   6.026  0.4397 -0.1706  0.9814
    1OL    H12S 1831   4.474   2.822   6.038  1.3212  1.0956  1.2686
    1OL    C113 1832   4.513   2.661   5.902  0.4790  0.1321 -0.2061
    1OL    H13R 1833   4.515   2.737   5.823  0.2832 -1.1590 -1.4724
    1OL    H13S 1834   4.408   2.634   5.910  0.2878  0.8830 -0.1283
    1OL    C114 1835   4.601   2.541   5.881  0.1486  0.2435  0.1709
    1OL    H14R 1836   4.569   2.458   5.944  0.6398 -1.3952 -1.6993
    1OL    H14S 1837   4.705   2.573   5.892 -0.5763  1.6552  3.8359
    1OL    C115 1838   4.574   2.490   5.744  0.7093  0.4999  0.4203
    1OL    H15R 1839   4.599   2.569   5.674 -0.1458 -0.1225 -0.6042
    1OL    H15S 1840   4.465   2.480   5.736  0.2732  3.7286  1.5522
    1OL    C116 1841   4.651   2.364   5.704 -0.4805  0.4017 -0.0041
    1OL    H16R 1842   4.640   2.286   5.780 -0.1763 -0.6509 -1.0241
    1OL    H16S 1843   4.758   2.384   5.698 -0.0196 -2.5069 -2.9448
    1OL    C117 1844   4.609   2.317   5.575  0.2463  0.2049 -0.7147
    1OL    H17R 1845   4.683   2.243   5.545  0.8924 -0.0598  1.4613
    1OL    H17S 1846   4.608   2.394   5.497  1.0941  1.8184  0.8482
    1OL    C118 1847   4.474   2.245   5.579 -0.1284 -0.2964  0.2877
    1OL    H18R 1848   4.485   2.141   5.611 -2.3594 -0.3347  0.9968
    1OL    H18S 1849   4.447   2.235   5.474  0.9232 -0.6413  0.0446
    1OL    H18T 1850   4.398   2.306   5.628  0.9897  1.3676  0.0073
    1PA    C116 1851   4.287   0.165   5.737 -0.4631 -0.0605 -0.2020
    1PA    H16R 1852   4.369   0.109   5.691  0.6049  0.1607  1.4268
    1PA    H16S 1853   4.196   0.103   5.735 -0.5571  0.1078 -2.6389
    1PA    H16T 1854   4.318   0.154   5.841 -0.5391 -0.6816 -0.2405
    1PA    C115 1855   4.264   0.315   5.693  0.0508  0.4382 -0.0497
    1PA    H15R 1856   4.273   0.328   5.585  0.1967  0.4435 -0.0370
    1PA    H15S 1857   4.164   0.351   5.716 -0.4324 -0.4531 -0.7438
    1PA    C114 1858   4.361   0.408   5.760  0.1028 -0.0996 -0.0285
    1PA    H14R 1859   4.458   0.382   5.718  0.5240 -0.4179  1.1221
    1PA    H14S 1860   4.329   0.508   5.731 -0.6714  0.1384  1.5652
    1PA    C113 1861   4.363   0.421   5.916  1.3572 -0.5003 -0.0111
    1PA    H13R 1862   4.378   0.326   5.968 -0.0860  0.2297  1.7545
    1PA    H13S 1863   4.441   0.495   5.937 -1.4768  3.4290 -2.7631
    1PA    C112 1864   4.228   0.471   5.964  0.0910 -0.1596 -0.4713
    1PA    H12R 1865   4.195   0.561   5.914  0.1981 -0.6198 -1.3810
    1PA    H12S 1866   4.148   0.400   5.942 -1.6665  0.4902  3.4074
    1PA    C111 1867   4.230   0.479   6.111  0.0905 -0.6285 -0.9015
    1PA    H11R 1868   4.261   0.387   6.159 -0.6320 -0.7055 -0.5734
    1PA    H11S 1869   4.298   0.553   6.153 -1.0408 -0.6059  0.9384
    1PA    C110 1870   4.085   0.516   6.160 -0.0932 -0.0349 -0.5752
    1PA    H10R 1871   4.069   0.615   6.118 -0.6459 -0.3612 -1.1462
    1PA    H10S 1872   4.013   0.447   6.114 -2.5789  1.1428  1.5072
    1PA     C19 1873   4.067   0.514   6.320  0.7333  0.0541 -0.1859
    1PA     H9R 1874   4.071   0.413   6.362 -0.7467  1.2320  2.9249
    1PA     H9S 1875   4.142   0.576   6.370  0.0268  0.0111  0.9314
    1PA     C18 1876   3.937   0.585   6.355  0.0379 -0.5391  0.0240
    1PA     H8R 1877   3.931   0.684   6.309 -0.2139 -0.3571  0.4476
    1PA     H8S 1878   3.853   0.519   6.330 -0.6777  0.4556 -0.1988
    1PA     C17 1879   3.937   0.602   6.506  0.2213  0.0472  0.1507
    1PA     H7R 1880   3.924   0.501   6.545  1.1603 -0.5690 -1.0916
    1PA     H7S 1881   4.037   0.634   6.533  0.0104  0.7703  0.0965
    1PA     C16 1882   3.818   0.693   6.546  0.2459  0.0489 -0.1399
    1PA     H6R 1883   3.813   0.702   6.654 -2.9132 -0.1946 -0.2113
    1PA     H6S 1884   3.840   0.791   6.502  1.3135 -0.6268 -1.1334
    1PA     C15 1885   3.682   0.641   6.505  0.5591 -0.0235  0.1771
    1PA     H5R 1886   3.671   0.616   6.400 -2.1582  2.0626 -0.0711
    1PA     H5S 1887   3.660   0.547   6.555 -3.4108  0.4222 -0.5728
    1PA     C14 1888   3.559   0.737   6.547 -0.5372  1.1786 -0.4648
    1PA     H4R 1889   3.470   0.677   6.528  0.0027  0.2132 -0.0259
    1PA     H4S 1890   3.572   0.757   6.654  3.0374 -0.5319 -0.4989
    1PA     C13 1891   3.542   0.870   6.477 -1.0205  0.3192 -0.4514
    1PA     H3R 1892   3.636   0.925   6.481 -0.8480 -0.1074  1.5498
    1PA     H3S 1893   3.521   0.860   6.370 -2.0675 -2.8030 -0.0219
    1PA     C12 1894   3.434   0.968   6.537  1.4922  0.0068 -0.1199
    1PA     H2R 1895   3.440   1.059   6.477 -2.4460  1.0804  0.9379
    1PA     H2S 1896   3.336   0.923   6.516  1.3716  0.7883 -1.2884
    1PC     C11 1897   3.451   0.989   6.685  0.7381  0.3158  0.5909
    1PC     O12 1898   3.531   1.065   6.734  0.2611  0.1566  0.5842
    1PC     O11 1899   3.376   0.909   6.763  0.6903 -0.4363  0.2912
    1PC      C1 1900   3.403   0.912   6.906 -0.7187 -0.3559  0.0647
    1PC      HR 1901   3.499   0.862   6.919 -1.0092 -0.5801  1.3336
    1PC      HS 1902   3.419   1.007   6.958 -0.3229 -1.2845  1.6362
    1PC      C2 1903   3.292   0.831   6.975  0.0712  0.0773 -0.3962
    1PC      HX 1904   3.195   0.877   6.951  0.2919  1.5799  1.4963
    1PC      C3 1905   3.323   0.808   7.123  0.0259  0.4259 -0.4934
    1PC      HA 1906   3.319   0.903   7.176  0.1634  3.2705 -5.3187
    1PC      HB 1907   3.253   0.738   7.170  2.8412 -0.6982  2.2406
    1PC     O31 1908   3.455   0.757   7.150 -0.3871  0.1445 -0.1045
    1PC     P31 1909   3.517   0.771   7.292  0.4202 -0.2525 -0.2071
    1PC     O32 1910   3.405   0.704   7.386 -0.3639 -0.6941 -0.0375
    1PC     C31 1911   3.422   0.580   7.455 -0.1308  0.2088 -0.4320
    1PC     H1A 1912   3.442   0.501   7.382  0.8323  0.3939 -0.3760
    1PC     H1B 1913   3.514   0.593   7.514  0.4431  0.0521 -1.2922
    1PC     C32 1914   3.293   0.540   7.527  0.1229 -0.3579  0.2038
    1PC     H2A 1915   3.213   0.530   7.454  0.2202  0.3718 -0.0065
    1PC     H2B 1916   3.308   0.439   7.565 -0.9206 -1.4770 -2.2702
    1PC     N31 1917   3.231   0.632   7.633 -0.6289 -0.7044 -0.3721
    1PC     C33 1918   3.153   0.742   7.556 -0.7755 -0.4040 -0.5464
    1PC     H3A 1919   3.072   0.702   7.494 -1.1235  0.7865 -0.8833
    1PC     H3B 1920   3.106   0.798   7.637  3.9143  2.1385  0.5952
    1PC     H3C 1921   3.213   0.809   7.495 -0.3863  1.4244  1.7920
    1PC     C34 1922   3.133   0.559   7.722 -0.4982 -0.0016 -0.0911
    1PC     H4A 1923   3.081   0.630   7.786  0.0252 -0.8464  1.3025
    1PC     H4B 1924   3.058   0.503   7.667 -0.3899  0.6568 -0.9162
    1PC     H4C 1925   3.198   0.487   7.774 -1.3082 -1.1534 -0.6462
    1PC     C35 1926   3.337   0.699   7.713  0.9529 -0.1393  0.7617
    1PC     H5A 1927   3.294   0.715   7.812  0.8528  1.0398  0.5324
    1PC     H5B 1928   3.355   0.795   7.665 -0.5005 -0.6799 -0.9142
    1PC     H5C 1929   3.418   0.627   7.730  0.1897 -0.9813  0.8526
    1PC     O33 1930   3.638   0.689   7.298  0.1451  0.1413  0.2647
    1PC     O34 1931   3.522   0.912   7.333  0.3075 -0.2042  0.2690
    1PC     O21 1932   3.293   0.697   6.921 -0.0163 -0.0881 -0.7904
    1PC     C21 1933   3.181   0.617   6.915 -0.4300 -0.1558 -0.2260
    1PC     O22 1934   3.073   0.655   6.947  0.3305 -0.4578  0.1269
    1OL     C12 1935   3.207   0.482   6.849  0.0323  0.3738  0.1209
    1OL     H2R 1936   3.124   0.414   6.866  1.3240 -1.6069 -1.2703
    1OL     H2S 1937   3.297   0.440   6.894 -0.1355 -1.0237 -0.8041
    1OL     C13 1938   3.238   0.493   6.694  0.7037 -1.0944 -0.0833
    1OL     H3R 1939   3.250   0.392   6.654  0.0967 -0.6522 -1.4156
    1OL     H3S 1940   3.330   0.539   6.659 -0.2586  0.3753 -0.7766
    1OL     C14 1941   3.120   0.551   6.614  0.0011 -0.1619  0.1471
    1OL     H4R 1942   3.081   0.645   6.655 -1.3148 -0.9414  0.6905
    1OL     H4S 1943   3.047   0.470   6.616 -0.5325  0.3331  1.1790
    1OL     C15 1944   3.165   0.571   6.468 -0.3193  0.1664  0.2074
    1OL     H5R 1945   3.198   0.472   6.436 -1.1927 -0.1869  0.3832
    1OL     H5S 1946   3.248   0.642   6.475 -0.0536 -0.1706  0.4747
    1OL     C16 1947   3.053   0.626   6.380  1.0264 -0.4239 -0.5908
    1OL     H6R 1948   3.002   0.703   6.438 -0.1174 -0.2335 -1.8014
    1OL     H6S 1949   2.978   0.547   6.368  0.7889 -0.2506 -0.2673
    1OL     C17 1950   3.089   0.670   6.235  0.2462  0.9835  0.7980
    1OL     H7R 1951   3.002   0.692   6.173  2.4845  2.3755 -1.9866
    1OL     H7S 1952   3.137   0.583   6.189 -0.4811 -0.7255  3.1904
    1OL     C18 1953   3.173   0.795   6.217 -0.4630  0.3760  0.0953
    1OL     H8R 1954   3.176   0.810   6.109 -0.9956  0.8903  0.1470
    1OL     H8S 1955   3.272   0.762   6.248 -0.5744 -1.6206 -1.5813
    1OL     C19 1956   3.135   0.918   6.305 -0.0553  0.1979  1.0542
    1OL     H9R 1957   3.096   0.894   6.404 -0.9029  1.9057  1.1416
    1OL    C110 1958   3.142   1.041   6.261  0.2194  0.3655  0.3893
    1OL    H10R 1959   3.110   1.122   6.326 -0.1839 -1.4551  2.5227
    1OL    C111 1960   3.182   1.085   6.127 -0.4184 -0.0895  0.0757
    1OL    H11R 1961   3.106   1.057   6.054 -1.4083  0.6710  0.7970
    1OL    H11S 1962   3.273   1.033   6.097 -1.7598 -0.8051 -3.0034
    1OL    C112 1963   3.212   1.237   6.119  0.4237  0.1604 -0.0928
    1OL    H12R 1964   3.289   1.264   6.191 -0.4450 -0.8052  1.2370
    1OL    H12S 1965   3.122   1.290   6.151  1.0533 -0.1543  2.3313
    1OL    C113 1966   3.244   1.288   5.981  0.0019  0.0326  0.1877
    1OL    H13R 1967   3.159   1.280   5.913  0.4076 -1.4234 -0.1676
    1OL    H13S 1968   3.328   1.235   5.937  1.5509  2.4793  0.1035
    1OL    C114 1969   3.270   1.440   5.963  0.3656  0.4545  0.8263
    1OL    H14R 1970   3.353   1.473   6.025  1.4823  0.4659 -0.6509
    1OL    H14S 1971   3.187   1.504   5.996  0.7916  1.9391 -0.8927
    1OL    C115 1972   3.300   1.484   5.814  0.3014 -0.1657  0.0276
    1OL    H15R 1973   3.384   1.430   5.771  0.9809  0.9764 -0.1071
    1OL    H15S 1974   3.343   1.585   5.814 -0.7758  0.3085 -1.8236
    1OL    C116 1975   3.184   1.488   5.713  0.1525 -0.3267 -0.3391
    1OL    H16R 1976   3.109   1.561   5.743 -1.2899 -1.4826 -1.1032
    1OL    H16S 1977   3.130   1.393   5.704 -1.1386  0.3410  0.1993
    1OL    C117 1978   3.221   1.537   5.574 -0.7000  0.2504 -1.0531
    1OL    H17R 1979   3.281   1.460   5.526  1.3298 -0.0562  1.8799
    1OL    H17S 1980   3.283   1.626   5.581 -1.1412  0.6599 -2.2294
    1OL    C118 1981   3.091   1.572   5.502 -0.2058  0.4575 -0.1571
    1OL    H18R 1982   3.097   1.540   5.397  0.6816  0.4707 -0.1182
    1OL    H18S 1983   3.062   1.675   5.521 -0.7979  0.1330  0.7114
    1OL    H18T 1984   3.013   1.515   5.551  2.2391 -2.0701  0.9460
    1PA    C116 1985   1.698   4.838   6.302  0.0908  0.4863 -0.4369
    1PA    H16R 1986   1.599   4.882   6.304 -0.9115 -1.6906 -1.0773
    1PA    H16S 1987   1.757   4.856   6.393  1.5353 -0.7866 -1.0879
    1PA    H16T 1988   1.694   4.729   6.293  0.9011  0.2210  1.9006
    1PA    C115 1989   1.771   4.884   6.172  0.8668 -0.0225 -0.1564
    1PA    H15R 1990   1.697   4.875   6.093  1.4470  0.8869 -0.8109
    1PA    H15S 1991   1.800   4.987   6.195 -1.4923  1.5093 -3.6681
    1PA    C114 1992   1.896   4.805   6.129 -0.1559  0.0738 -0.8486
    1PA    H14R 1993   1.973   4.826   6.203 -0.6601  1.6691 -0.7663
    1PA    H14S 1994   1.871   4.699   6.140  0.2196  0.0832  0.2141
    1PA    C113 1995   1.920   4.833   5.978 -0.6820 -0.0675 -0.3791
    1PA    H13R 1996   1.844   4.787   5.914 -0.0352  0.1069 -1.2780
    1PA    H13S 1997   1.922   4.941   5.960  2.6054 -0.0220  0.0538
    1PA    C112 1998   2.057   4.792   5.932  0.1577 -0.0002  0.3666
    1PA    H12R 1999   2.075   4.688   5.963  1.6232  0.7203  1.9999
    1PA    H12S 2000   2.053   4.799   5.823  0.2683  1.0685  0.4320
    1PA    C111 2001   2.170   4.869   5.995 -0.1876 -0.2032  0.0848
    1PA    H11R 2002   2.217   4.945   5.931  0.9473  0.0113  1.1614
    1PA    H11S 2003   2.123   4.935   6.068 -1.5718 -2.3380  1.1645
    1PA    C110 2004   2.281   4.782   6.064  0.0500  0.5916 -0.0372
    1PA    H10R 2005   2.315   4.698   6.003 -0.4342  0.1597  0.2809
    1PA    H10S 2006   2.372   4.840   6.080  0.4806 -0.3008  0.8396
    1PA     C19 2007   2.229   4.731   6.205 -0.1461 -0.2354 -0.0398
    1PA     H9R 2008   2.191   4.821   6.254  2.3748  1.5892 -1.3118
    1PA     H9S 2009   2.149   4.661   6.183  0.7297 -1.5990  1.0617
    1PA     C18 2010   2.338   4.670   6.294 -0.2353  0.3084 -0.6526
    1PA     H8R 2011   2.423   4.737   6.305  0.6204 -0.9966  0.7624
    1PA     H8S 2012   2.305   4.643   6.394  0.0969  2.8343  0.1765
    1PA     C17 2013   2.398   4.541   6.236  0.7037 -0.0349  0.3074
    1PA     H7R 2014   2.317   4.469   6.225  0.3586  0.2957  0.6515
    1PA     H7S 2015   2.443   4.561   6.138 -3.0592  1.2222 -1.2466
    1PA     C16 2016   2.511   4.467   6.313  0.3057  0.0032  0.0662
    1PA     H6R 2017   2.584   4.543   6.344 -0.0145  0.9695 -1.4900
    1PA     H6S 2018   2.473   4.419   6.403  0.1307  1.3270  0.7146
    1PA     C15 2019   2.588   4.364   6.226 -0.7167  0.0996 -0.2470
    1PA     H5R 2020   2.514   4.286   6.205 -2.1019  0.6834  2.2065
    1PA     H5S 2021   2.624   4.412   6.135 -1.1118 -2.6104 -1.8649
    1PA     C14 2022   2.711   4.308   6.296  0.1703  0.2253 -0.2076
    1PA     H4R 2023   2.758   4.234   6.232 -1.6285  1.1314 -2.6684
    1PA     H4S 2024   2.777   4.394   6.304  0.1914  0.2303 -0.4526
    1PA     C13 2025   2.689   4.250   6.439  0.1617  0.1083  0.5138
    1PA     H3R 2026   2.783   4.202   6.467 -0.7279 -1.2803  1.1914
    1PA     H3S 2027   2.654   4.330   6.504 -1.4154  0.3517 -0.6161
    1PA     C12 2028   2.584   4.138   6.448 -0.1324  0.0560  0.4719
    1PA     H2R 2029   2.501   4.148   6.378  0.2945 -1.7213 -0.3128
    1PA     H2S 2030   2.621   4.039   6.420  0.5901 -0.3202  2.6583
    1PC     C11 2031   2.529   4.139   6.590 -0.5597  0.6553  0.2833
    1PC     O12 2032   2.590   4.185   6.684 -0.0040 -0.1005  0.3199
    1PC     O11 2033   2.410   4.082   6.597  0.5268  0.3871  0.0358
    1PC      C1 2034   2.361   4.066   6.729  0.3939 -0.1695 -0.3190
    1PC      HR 2035   2.443   4.039   6.796  0.9430 -0.4513 -1.0947
    1PC      HS 2036   2.302   4.156   6.743  0.3826  0.0876 -1.8987
    1PC      C2 2037   2.273   3.940   6.741 -0.7107 -0.3280  0.1035
    1PC      HX 2038   2.180   3.964   6.688 -0.2904  0.8170 -0.1277
    1PC      C3 2039   2.249   3.888   6.882  0.4147  0.4827 -0.4202
    1PC      HA 2040   2.176   3.807   6.880  0.1395  0.7424 -0.9215
    1PC      HB 2041   2.339   3.845   6.926 -0.6577 -1.3609  0.0024
    1PC     O31 2042   2.219   4.004   6.969  0.0446 -0.3122  0.2236
    1PC     P31 2043   2.217   3.984   7.129  0.2889 -0.3081  0.1118
    1PC     O32 2044   2.369   3.960   7.168 -0.4542  0.4298 -0.2793
    1PC     C31 2045   2.465   4.055   7.131 -0.6391  0.3439  0.5594
    1PC     H1A 2046   2.451   4.088   7.028  0.6547  1.4761  0.7403
    1PC     H1B 2047   2.446   4.145   7.190 -0.7231  0.3397  0.5389
    1PC     C32 2048   2.613   4.003   7.155  0.8237 -0.0633 -1.0358
    1PC     H2A 2049   2.612   3.989   7.263 -1.4411  0.5044 -0.9464
    1PC     H2B 2050   2.636   3.911   7.101  1.5391  0.0372 -0.9049
    1PC     N31 2051   2.719   4.094   7.119  0.4919  0.0740 -0.3108
    1PC     C33 2052   2.732   4.209   7.214  0.1343  0.6953  0.2317
    1PC     H3A 2053   2.703   4.166   7.310 -1.3178 -2.4998 -1.5722
    1PC     H3B 2054   2.834   4.250   7.216 -0.4622  2.2253  0.0071
    1PC     H3C 2055   2.662   4.290   7.192 -1.9023 -0.4509  2.3039
    1PC     C34 2056   2.853   4.025   7.118 -0.1303 -0.2952  0.3114
    1PC     H4A 2057   2.928   4.100   7.094 -0.3353  0.0585  0.7668
    1PC     H4B 2058   2.865   3.973   7.213  0.5521 -0.9177 -0.1073
    1PC     H4C 2059   2.844   3.945   7.044  0.9929  0.2155 -0.3826
    1PC     C35 2060   2.694   4.133   6.980  0.3065  0.1666  0.4673
    1PC     H5A 2061   2.608   4.200   6.973  0.7110  0.6013 -0.4513
    1PC     H5B 2062   2.683   4.044   6.917  1.9288 -0.2856  0.8029
    1PC     H5C 2063   2.782   4.186   6.944  0.3588  0.7779  1.5016
    1PC     O33 2064   2.178   4.107   7.200  0.0407  0.5266  0.0284
    1PC     O34 2065   2.153   3.852   7.155  0.2674 -0.1013  0.4213
    1PC     O21 2066   2.336   3.832   6.675 -0.0259  0.0649 -0.8348
    1PC     C21 2067   2.265   3.728   6.625  0.2527  0.0003  0.5638
    1PC     O22 2068   2.155   3.691   6.666 -0.4260 -0.1129 -0.2995
    1OL     C12 2069   2.332   3.657   6.510 -0.8432  0.0080  0.1469
    1OL     H2R 2070   2.347   3.556   6.550 -0.6026 -0.4379 -1.0465
    1OL     H2S 2071   2.424   3.711   6.488 -1.4083  0.7474 -0.4292
    1OL     C13 2072   2.250   3.645   6.388  0.2575  0.6965  0.0766
    1OL     H3R 2073   2.177   3.568   6.413  0.1991  0.5114 -0.6485
    1OL     H3S 2074   2.316   3.604   6.312  1.0322  0.6932  0.7462
    1OL     C14 2075   2.186   3.775   6.335  0.9747 -0.1958  0.2484
    1OL     H4R 2076   2.112   3.796   6.413  0.3199  1.2184 -0.7448
    1OL     H4S 2077   2.122   3.768   6.247 -3.9506 -0.3162  3.6239
    1OL     C15 2078   2.281   3.899   6.329  0.6294  0.3894 -0.8552
    1OL     H5R 2079   2.315   3.918   6.431 -0.8714  1.2931 -0.5049
    1OL     H5S 2080   2.223   3.982   6.287  0.6963  1.7689  1.6609
    1OL     C16 2081   2.395   3.893   6.228  0.1237 -0.0846 -0.1321
    1OL     H6R 2082   2.469   3.820   6.262 -1.8744 -1.5316  1.1837
    1OL     H6S 2083   2.456   3.983   6.240 -0.8967  0.2474  3.0208
    1OL     C17 2084   2.356   3.862   6.081 -0.3062 -0.0857 -0.4689
    1OL     H7R 2085   2.453   3.840   6.035 -0.6091  0.6239 -1.4694
    1OL     H7S 2086   2.285   3.781   6.064 -1.8876  1.2802 -0.4527
    1OL     C18 2087   2.307   3.999   6.027  0.6136 -0.3758 -0.4944
    1OL     H8R 2088   2.374   4.084   6.041 -0.1739  0.2586 -0.5814
    1OL     H8S 2089   2.210   4.024   6.070  1.1230  2.7607 -1.0643
    1OL     C19 2090   2.287   3.990   5.880 -0.3180 -0.1550  0.6390
    1OL     H9R 2091   2.382   4.005   5.830 -1.0813  0.3015 -0.7186
    1OL    C110 2092   2.180   3.981   5.802 -0.0638 -0.4509  0.4028
    1OL    H10R 2093   2.188   3.975   5.693  0.8728 -0.6683  0.4834
    1OL    C111 2094   2.044   3.980   5.853  0.3710 -0.1799 -0.8753
    1OL    H11R 2095   2.002   4.080   5.844  0.2733 -0.2977 -1.7277
    1OL    H11S 2096   2.046   3.946   5.957  2.0964  0.7387 -0.5838
    1OL    C112 2097   1.959   3.870   5.785  0.2810  0.5418  0.6661
    1OL    H12R 2098   1.974   3.870   5.676 -0.5756  3.1179  0.5010
    1OL    H12S 2099   1.852   3.886   5.801 -0.0044  0.0267 -0.6039
    1OL    C113 2100   2.004   3.725   5.822  0.5377 -0.4875 -0.0979
    1OL    H13R 2101   1.998   3.718   5.931  0.3161 -0.4907 -0.1111
    1OL    H13S 2102   2.110   3.725   5.795  1.1265  2.1861  1.9752
    1OL    C114 2103   1.928   3.609   5.753 -0.1660  0.2678 -0.4051
    1OL    H14R 2104   1.969   3.510   5.775 -1.1264  0.1786  1.0332
    1OL    H14S 2105   1.932   3.627   5.645 -1.9045 -0.0753 -0.5419
    1OL    C115 2106   1.779   3.608   5.781  0.0816  0.1034 -0.0726
    1OL    H15R 2107   1.736   3.702   5.748 -0.7471 -0.5762 -0.9566
    1OL    H15S 2108   1.757   3.592   5.886  1.9946  1.8461  0.6318
    1OL    C116 2109   1.715   3.508   5.685  0.1724 -0.4812 -0.0286
    1OL    H16R 2110   1.749   3.525   5.582 -2.7146 -0.6427 -1.0402
    1OL    H16S 2111   1.611   3.539   5.685  0.7085  1.3675  1.7213
    1OL    C117 2112   1.735   3.368   5.733  0.0942  0.3367 -0.4701
    1OL    H17R 2113   1.841   3.345   5.746 -0.0093  0.5105  0.7598
    1OL    H17S 2114   1.702   3.353   5.836 -1.7798  1.1856 -0.9266
    1OL    C118 2115   1.680   3.265   5.634  0.0007 -0.8051 -0.1996
    1OL    H18R 2116   1.708   3.163   5.661 -1.9719 -1.5183 -0.7152
    1OL    H18S 2117   1.726   3.291   5.539 -0.7671 -0.7251 -0.5513
    1OL    H18T 2118   1.573   3.280   5.614  0.2673 -0.0505 -1.0425
    1PA    C116 2119   4.645   4.720   5.717 -0.2352 -0.0108 -0.9456
    1PA    H16R 2120   4.672   4.619   5.747  0.5147  0.1847 -0.9395
    1PA    H16S 2121   4.737   4.779   5.718  0.7808 -1.5024  2.4568
    1PA    H16T 2122   4.599   4.730   5.618 -0.3422 -4.8079 -1.4620
    1PA    C115 2123   4.545   4.796   5.808 -0.5572  0.6995  0.3431
    1PA    H15R 2124   4.605   4.872   5.859 -0.4007  0.6755  0.1902
    1PA    H15S 2125   4.466   4.850   5.755  0.8809  1.0829 -1.4554
    1PA    C114 2126   4.489   4.708   5.922  0.0193 -0.4870 -0.6568
    1PA    H14R 2127   4.559   4.628   5.948  1.6113  1.0705 -0.0184
    1PA    H14S 2128   4.487   4.779   6.005 -0.3219 -1.4842  0.2167
    1PA    C113 2129   4.343   4.664   5.897  0.6606  0.3716  0.0384
    1PA    H13R 2130   4.283   4.752   5.873 -1.4942 -0.5711  1.8051
    1PA    H13S 2131   4.341   4.596   5.811  0.2022 -1.2105  1.2879
    1PA    C112 2132   4.281   4.597   6.021  0.3405 -0.5196 -0.7032
    1PA    H12R 2133   4.336   4.504   6.040 -0.1801  0.0750  4.3534
    1PA    H12S 2134   4.302   4.657   6.109 -1.4126  1.4768 -1.6175
    1PA    C111 2135   4.130   4.578   6.013 -0.3594  0.3861 -0.3553
    1PA    H11R 2136   4.076   4.672   6.002 -2.4077 -0.5554  1.2629
    1PA    H11S 2137   4.105   4.512   5.930 -1.0298 -1.0288  0.9495
    1PA    C110 2138   4.078   4.513   6.150  0.6120 -0.6051  0.7212
    1PA    H10R 2139   4.106   4.408   6.158 -0.9081 -1.2195 -1.5557
    1PA    H10S 2140   4.112   4.578   6.231 -0.7938 -0.3981  1.1507
    1PA     C19 2141   3.926   4.520   6.157 -0.6292  0.0843 -0.1977
    1PA     H9R 2142   3.887   4.621   6.142  0.3121  0.6066  0.7925
    1PA     H9S 2143   3.879   4.446   6.092  1.9951 -2.1423  0.3624
    1PA     C18 2144   3.880   4.488   6.294 -0.5712 -0.2431  0.5270
    1PA     H8R 2145   3.942   4.549   6.360  1.4025 -1.3613 -0.2236
    1PA     H8S 2146   3.775   4.517   6.304 -0.2626  0.4760  1.7714
    1PA     C17 2147   3.906   4.346   6.340  0.6615 -0.0452 -0.5171
    1PA     H7R 2148   3.829   4.279   6.303 -1.0603  0.6897  1.6241
    1PA     H7S 2149   3.995   4.300   6.296  0.7927  0.2178 -0.5276
    1PA     C16 2150   3.913   4.348   6.495  0.2269  0.0414 -0.2586
    1PA     H6R 2151   3.998   4.412   6.519  0.0463  0.0168  0.4849
    1PA     H6S 2152   3.822   4.391   6.539  0.1494 -0.0076 -0.3709
    1PA     C15 2153   3.930   4.209   6.557  0.1905 -0.0397  0.2198
    1PA     H5R 2154   3.853   4.139   6.523  2.7480 -2.0623 -1.5198
    1PA     H5S 2155   4.018   4.168   6.509 -0.9900  0.4004 -2.3803
    1PA     C14 2156   3.944   4.212   6.714 -0.0593 -0.4135 -0.9055
    1PA     H4R 2157   4.027   4.277   6.740 -0.8801  0.2098  0.1956
    1PA     H4S 2158   3.860   4.272   6.752  0.7850 -0.9538  1.9172
    1PA     C13 2159   3.941   4.068   6.781  0.0562 -0.1813  0.1401
    1PA     H3R 2160   3.860   4.012   6.733  0.6676 -0.5488 -0.4694
    1PA     H3S 2161   4.028   4.014   6.742  0.0339 -0.5361  0.5702
    1PA     C12 2162   3.924   4.072   6.934  0.3336  0.3302 -0.6047
    1PA     H2R 2163   3.825   4.110   6.959  0.3270 -0.1594  0.1113
    1PA     H2S 2164   3.937   3.978   6.987  0.7120  0.8351  0.2249
    1PC     C11 2165   4.008   4.177   7.004 -0.2635 -0.3522  0.5224
    1PC     O12 2166   4.119   4.156   7.047  0.2938  0.0371  0.3044
    1PC     O11 2167   3.956   4.298   7.008 -0.5030 -0.2045 -0.1967
    1PC      C1 2168   4.028   4.407   7.075  0.2869  0.5862 -0.0672
    1PC      HR 2169   3.992   4.422   7.177  3.2241  1.5109  0.9001
    1PC      HS 2170   4.133   4.377   7.081  0.2589  0.4689 -0.1502
    1PC      C2 2171   4.007   4.538   6.998  0.5453 -0.1787  0.3801
    1PC      HX 2172   4.048   4.625   7.051 -0.0428  0.1256  0.3390
    1PC      C3 2173   3.859   4.564   6.974  0.1444  0.1083 -0.3169
    1PC      HA 2174   3.846   4.649   6.906  1.4953 -0.2367 -1.0433
    1PC      HB 2175   3.808   4.474   6.938 -0.3446  1.0561 -2.0140
    1PC     O31 2176   3.789   4.605   7.095 -0.2123  0.1545  0.0451
    1PC     P31 2177   3.810   4.751   7.154  0.1299 -0.0827  0.0574
    1PC     O32 2178   3.941   4.744   7.243  0.1560 -0.7145  0.4966
    1PC     C31 2179   3.940   4.675   7.371  0.0833  0.3341 -0.7379
    1PC     H1A 2180   3.871   4.718   7.444  0.0150  0.8039 -1.0724
    1PC     H1B 2181   3.914   4.570   7.359 -1.8271  0.3476  2.5901
    1PC     C32 2182   4.083   4.690   7.421 -0.3409 -0.8582 -0.1790
    1PC     H2A 2183   4.143   4.629   7.354 -0.4907 -3.3185  1.8535
    1PC     H2B 2184   4.110   4.796   7.418 -2.6705 -0.2008  0.9423
    1PC     N31 2185   4.120   4.636   7.557 -0.4572 -0.8263 -0.5317
    1PC     C33 2186   4.077   4.502   7.583 -0.6449  0.1614 -0.0847
    1PC     H3A 2187   4.109   4.481   7.686  0.0477  1.6447  0.0143
    1PC     H3B 2188   3.968   4.504   7.589 -0.6953  2.0084 -1.2254
    1PC     H3C 2189   4.121   4.443   7.502 -0.9501 -1.3120  0.7912
    1PC     C34 2190   4.265   4.628   7.557 -0.5244  0.2962 -0.1998
    1PC     H4A 2191   4.303   4.583   7.649  1.3503  1.5967 -0.3149
    1PC     H4B 2192   4.300   4.578   7.466 -2.4342 -1.5455  0.0281
    1PC     H4C 2193   4.306   4.729   7.561  0.8458 -0.1792 -1.8472
    1PC     C35 2194   4.072   4.724   7.665 -0.8900  0.2716  0.0913
    1PC     H5A 2195   3.964   4.723   7.659 -0.8925  1.2568 -0.2276
    1PC     H5B 2196   4.099   4.830   7.657 -2.7889  0.9221  1.8486
    1PC     H5C 2197   4.112   4.687   7.760 -0.7483 -0.3693 -0.2167
    1PC     O33 2198   3.848   4.839   7.044 -0.0124 -0.2988 -0.0591
    1PC     O34 2199   3.694   4.792   7.236 -0.3285 -0.7648  0.2968
    1PC     O21 2200   4.060   4.528   6.865 -0.2263 -0.0208  0.4790
    1PC     C21 2201   4.163   4.601   6.820 -0.1571 -0.7683  0.0264
    1PC     O22 2202   4.240   4.668   6.891 -0.4667 -0.2075 -0.3266
    1OL     C12 2203   4.185   4.580   6.670 -0.2595  0.3190  0.5158
    1OL     H2R 2204   4.096   4.607   6.612  1.2942 -0.6661 -2.4535
    1OL     H2S 2205   4.204   4.474   6.656 -1.8538  0.1653 -0.6838
    1OL     C13 2206   4.313   4.660   6.623  0.4436  0.5447  0.0293
    1OL     H3R 2207   4.409   4.635   6.669  0.0404  1.4887  1.4203
    1OL     H3S 2208   4.293   4.763   6.654 -1.4148 -0.6115  2.9779
    1OL     C14 2209   4.321   4.665   6.475 -0.1221 -0.2218 -0.0790
    1OL     H4R 2210   4.231   4.704   6.428  0.8344  2.1835  0.0455
    1OL     H4S 2211   4.324   4.561   6.441 -2.8567 -1.3392  2.7797
    1OL     C15 2212   4.448   4.738   6.426  0.4519 -0.3691  0.7423
    1OL     H5R 2213   4.453   4.831   6.484  0.5184  0.8498 -1.1629
    1OL     H5S 2214   4.439   4.776   6.324 -3.0819 -1.5203  0.5672
    1OL     C16 2215   4.583   4.664   6.447  0.4936 -0.5531 -0.0736
    1OL     H6R 2216   4.599   4.650   6.554 -4.1533  0.9721  0.9263
    1OL     H6S 2217   4.671   4.722   6.418  2.4733 -1.5148  3.6940
    1OL     C17 2218   4.589   4.525   6.391  0.3716  0.2991  0.2775
    1OL     H7R 2219   4.513   4.460   6.434 -0.4545  3.0728  3.2191
    1OL     H7S 2220   4.688   4.485   6.414  0.5105  0.6350  0.2715
    1OL     C18 2221   4.590   4.524   6.242  0.1350 -0.3017 -0.1500
    1OL     H8R 2222   4.499   4.563   6.197  0.7817 -0.2930 -1.4689
    1OL     H8S 2223   4.597   4.423   6.201  0.3770 -0.2632 -0.2034
    1OL     C19 2224   4.702   4.611   6.187 -0.5423 -0.0379 -0.5892
    1OL     H9R 2225   4.690   4.719   6.186 -1.5396 -0.1388 -0.2105
    1OL    C110 2226   4.810   4.561   6.123  0.5661 -0.9467  0.5511
    1OL    H10R 2227   4.883   4.624   6.073  1.3110 -1.1276  1.3956
    1OL    C111 2228   4.850   4.417   6.098 -0.0002 -0.1793 -0.0399
    1OL    H11R 2229   4.809   4.337   6.161  1.0742 -0.3538  0.4461
    1OL    H11S 2230   4.956   4.402   6.116 -0.1332  0.6668  1.5648
    1OL    C112 2231   4.831   4.382   5.958 -0.5839 -0.1532 -0.0500
    1OL    H12R 2232   4.723   4.381   5.941 -0.5393  0.9341 -0.4720
    1OL    H12S 2233   4.867   4.280   5.949 -0.8530 -0.0810 -2.2531
    1OL    C113 2234   4.913   4.466   5.855  0.4050  0.2463 -0.0237
    1OL    H13R 2235   5.015   4.474   5.893 -0.0234  0.7495  1.0427
    1OL    H13S 2236   4.875   4.568   5.845  0.1611  0.1953  0.3562
    1OL    C114 2237   4.906   4.415   5.712 -0.5293 -0.9808  0.3357
    1OL    H14R 2238   4.802   4.393   5.687 -0.3017 -1.8642  0.1593
    1OL    H14S 2239   4.961   4.322   5.701 -2.6274 -2.5944  2.8368
    1OL    C115 2240   4.945   4.529   5.620 -0.3856  0.2479  0.4635
    1OL    H15R 2241   5.042   4.570   5.651  0.0767 -1.2666  1.1265
    1OL    H15S 2242   4.869   4.605   5.638 -0.2745  1.2151 -2.8215
    1OL    C116 2243   4.946   4.501   5.469 -0.3770 -0.5425 -0.5564
    1OL    H16R 2244   4.853   4.456   5.434 -0.7116  1.3491 -2.1446
    1OL    H16S 2245   5.030   4.431   5.457  1.3695  1.0660  1.7539
    1OL    C117 2246   4.994   4.616   5.384  0.0770  0.7370  0.5949
    1OL    H17R 2247   5.009   4.576   5.283 -1.6739  0.9432  0.2208
    1OL    H17S 2248   5.090   4.663   5.404  1.3239 -0.5543 -2.1197
    1OL    C118 2249   4.901   4.742   5.388  0.3576 -0.4227  0.2388
    1OL    H18R 2250   4.911   4.793   5.484 -0.4160 -0.5504  0.3873
    1OL    H18S 2251   4.798   4.737   5.354  0.9853  0.1961 -1.8590
    1OL    H18T 2252   4.947   4.811   5.316 -1.0560 -0.2851 -0.5442
    1PA    C116 2253   5.116   3.030   5.801  0.3157  0.6036  0.4434
    1PA    H16R 2254   5.185   3.004   5.721  1.5087  0.2194  1.5841
    1PA    H16S 2255   5.171   3.006   5.892  0.3614  0.8784  0.4891
    1PA    H16T 2256   5.103   3.138   5.792 -0.9333  0.3170 -1.8665
    1PA    C115 2257   4.985   2.957   5.807 -0.2657 -0.4459  0.4894
    1PA    H15R 2258   5.012   2.852   5.802 -1.2049 -0.7328  1.1385
    1PA    H15S 2259   4.935   2.963   5.904 -1.8029 -0.3423 -0.2861
    1PA    C114 2260   4.887   3.008   5.701 -0.6030  0.5473  0.6435
    1PA    H14R 2261   4.921   3.010   5.597 -1.3946  2.2134  0.3990
    1PA    H14S 2262   4.802   2.940   5.699  0.1337 -0.3810 -1.3729
    1PA    C113 2263   4.838   3.149   5.743  0.6440 -0.2502  0.3442
    1PA    H13R 2264   4.770   3.134   5.828 -0.2647 -0.7807 -0.4684
    1PA    H13S 2265   4.918   3.213   5.782  0.6103 -0.2299  0.3798
    1PA    C112 2266   4.779   3.230   5.633  0.2209 -0.6890  0.4907
    1PA    H12R 2267   4.856   3.251   5.559 -1.3020  1.8091 -0.4432
    1PA    H12S 2268   4.697   3.178   5.584  0.0344 -1.6026  1.7414
    1PA    C111 2269   4.727   3.363   5.668 -0.1402 -0.1164 -0.0658
    1PA    H11R 2270   4.794   3.409   5.740  0.4123 -1.7105  0.4462
    1PA    H11S 2271   4.735   3.424   5.577  0.4042 -2.2377 -1.4776
    1PA    C110 2272   4.584   3.371   5.729 -0.2280  0.2816  0.2509
    1PA    H10R 2273   4.506   3.317   5.675 -1.3177  0.1481  1.9416
    1PA    H10S 2274   4.585   3.346   5.835 -0.4969  0.0626  0.2026
    1PA     C19 2275   4.540   3.520   5.732 -0.0093  0.0415  0.4718
    1PA     H9R 2276   4.611   3.588   5.780 -2.1450  2.6237  0.1058
    1PA     H9S 2277   4.534   3.550   5.627  0.5913  0.5807  0.5861
    1PA     C18 2278   4.406   3.549   5.798  0.3111  0.1286 -0.4515
    1PA     H8R 2279   4.325   3.507   5.738  0.8482 -2.1894  0.3830
    1PA     H8S 2280   4.425   3.493   5.890 -1.2141  0.9015  0.3331
    1PA     C17 2281   4.373   3.696   5.821 -1.2786 -0.4496  0.1580
    1PA     H7R 2282   4.449   3.740   5.886 -0.4506  0.0881 -1.1397
    1PA     H7S 2283   4.367   3.751   5.727  3.4011 -1.5659 -0.9427
    1PA     C16 2284   4.244   3.724   5.894 -0.4037 -0.1752 -0.0988
    1PA     H6R 2285   4.237   3.833   5.904  2.0533 -0.0714  0.9276
    1PA     H6S 2286   4.166   3.684   5.828 -0.1427  0.4960 -0.8219
    1PA     C15 2287   4.230   3.650   6.032  0.3407 -0.7706  0.7637
    1PA     H5R 2288   4.135   3.680   6.078 -0.5843 -0.4073 -1.2993
    1PA     H5S 2289   4.230   3.542   6.017  2.0047 -0.5284 -1.0891
    1PA     C14 2290   4.338   3.675   6.136 -1.0696  0.4801 -0.9517
    1PA     H4R 2291   4.437   3.655   6.094 -0.0707 -0.1538  1.5957
    1PA     H4S 2292   4.342   3.778   6.174 -2.5888  0.3105 -0.3037
    1PA     C13 2293   4.318   3.574   6.257 -0.1127 -0.5694  0.7517
    1PA     H3R 2294   4.213   3.548   6.274  0.0692 -2.8222 -1.3898
    1PA     H3S 2295   4.359   3.482   6.215 -0.0450  0.1909 -0.8848
    1PA     C12 2296   4.388   3.607   6.391 -0.5432 -0.4047  0.0109
    1PA     H2R 2297   4.348   3.703   6.424  1.1038  0.8068 -1.4402
    1PA     H2S 2298   4.365   3.532   6.467  0.8702  0.4258  1.2742
    1PC     C11 2299   4.537   3.623   6.387 -0.0993  0.3286  0.3727
    1PC     O12 2300   4.595   3.662   6.294  0.2928  0.2325 -0.2687
    1PC     O11 2301   4.585   3.608   6.512 -0.2597  0.0605 -0.4891
    1PC      C1 2302   4.733   3.631   6.530 -0.1463 -0.0900  0.0460
    1PC      HR 2303   4.792   3.567   6.464 -0.3334  0.2202 -0.4239
    1PC      HS 2304   4.763   3.735   6.524  0.0117 -0.2178 -1.8868
    1PC      C2 2305   4.776   3.588   6.680  0.0249 -1.0968  0.0398
    1PC      HX 2306   4.770   3.478   6.683  1.5871 -1.2568 -1.6576
    1PC      C3 2307   4.696   3.662   6.793  0.0581 -0.4115 -0.1924
    1PC      HA 2308   4.613   3.711   6.742 -0.8868 -0.6405  1.1031
    1PC      HB 2309   4.646   3.595   6.864 -2.4572  1.7397  0.1320
    1PC     O31 2310   4.770   3.768   6.859 -0.7826  0.2355  0.0862
    1PC     P31 2311   4.804   3.762   7.011  0.3931  0.2580  0.2941
    1PC     O32 2312   4.898   3.635   7.028  0.5560 -0.2577 -0.0500
    1PC     C31 2313   4.844   3.502   7.057  0.0376 -0.2085  0.7627
    1PC     H1A 2314   4.760   3.482   6.990  0.6015 -0.6889  0.1809
    1PC     H1B 2315   4.924   3.428   7.049  0.0687  0.0017 -1.0503
    1PC     C32 2316   4.807   3.506   7.207 -0.3410  0.3202 -0.2815
    1PC     H2A 2317   4.759   3.601   7.230  0.2302  0.1971  1.4529
    1PC     H2B 2318   4.734   3.425   7.222  0.5285 -0.0652  2.0204
    1PC     N31 2319   4.920   3.482   7.309 -0.3490  0.2917  0.6860
    1PC     C33 2320   4.869   3.510   7.451 -0.3427 -0.4645  0.0073
    1PC     H3A 2321   4.792   3.587   7.443  0.4278  0.2705 -0.4353
    1PC     H3B 2322   4.834   3.422   7.504 -2.3038  0.4736  0.3269
    1PC     H3C 2323   4.953   3.545   7.510 -0.1818 -1.6229  0.4789
    1PC     C34 2324   4.982   3.345   7.303  0.0840 -0.0808 -0.0941
    1PC     H4A 2325   5.078   3.346   7.251 -0.0176  0.1453 -0.2787
    1PC     H4B 2326   4.995   3.307   7.404  1.1751 -0.7530 -0.4791
    1PC     H4C 2327   4.912   3.288   7.241 -1.5233  0.9758  0.7244
    1PC     C35 2328   5.033   3.579   7.288  0.8219  1.0878  0.3022
    1PC     H5A 2329   5.099   3.543   7.367 -1.3025 -2.9338  0.3770
    1PC     H5B 2330   4.991   3.678   7.309  0.6281  0.9888  0.3892
    1PC     H5C 2331   5.071   3.577   7.186  3.5964 -3.2712  1.2683
    1PC     O33 2332   4.881   3.883   7.053  0.1958 -0.1464 -0.1056
    1PC     O34 2333   4.676   3.737   7.084 -0.6032  0.2372 -0.7760
    1PC     O21 2334   4.920   3.630   6.696  0.0477 -0.3178  0.1185
    1PC     C21 2335   5.002   3.543   6.747  0.4693 -0.1189  0.0237
    1PC     O22 2336   4.972   3.436   6.793 -0.0061  0.3222  0.4459
    1OL     C12 2337   5.147   3.588   6.740  0.1738 -0.5865 -0.0165
    1OL     H2R 2338   5.190   3.614   6.837  1.9161  0.9285 -1.1557
    1OL     H2S 2339   5.154   3.677   6.678 -2.3139  0.0184  0.5300
    1OL     C13 2340   5.230   3.478   6.665  0.7047  0.5460  0.3435
    1OL     H3R 2341   5.205   3.388   6.723 -1.4757  1.2886  0.6158
    1OL     H3S 2342   5.336   3.498   6.679  0.7283  1.2730 -0.8741
    1OL     C14 2343   5.186   3.450   6.526 -0.2331 -0.5816 -0.3273
    1OL     H4R 2344   5.077   3.441   6.529 -0.5381  2.5607  0.0334
    1OL     H4S 2345   5.231   3.355   6.497 -0.2940 -0.5445 -0.5447
    1OL     C15 2346   5.218   3.573   6.434 -0.5139  0.6249 -0.2567
    1OL     H5R 2347   5.326   3.575   6.417 -0.5918  1.8182 -0.6131
    1OL     H5S 2348   5.186   3.669   6.475 -0.4220 -0.2626  1.9432
    1OL     C16 2349   5.157   3.541   6.297  0.5263  0.2325  0.2711
    1OL     H6R 2350   5.175   3.438   6.266  0.1638 -0.8207  3.3930
    1OL     H6S 2351   5.209   3.607   6.228 -0.1175 -1.2588 -1.6793
    1OL     C17 2352   5.005   3.575   6.287  0.2640  0.7613  0.1093
    1OL     H7R 2353   4.989   3.675   6.328  1.8649  1.4390 -0.8720
    1OL     H7S 2354   4.948   3.500   6.342  2.0708  1.2095  2.7233
    1OL     C18 2355   4.954   3.578   6.143  0.5014 -0.8980  0.3235
    1OL     H8R 2356   4.846   3.588   6.155  0.4453 -0.0599 -0.7850
    1OL     H8S 2357   4.977   3.488   6.085 -0.6852  0.2893 -2.0588
    1OL     C19 2358   5.007   3.692   6.054  0.4526  0.3752  0.3517
    1OL     H9R 2359   5.013   3.789   6.101  0.4595  0.8173 -0.5420
    1OL    C110 2360   5.067   3.680   5.936 -0.2716  0.2290  0.1854
    1OL    H10R 2361   5.097   3.769   5.881 -2.4691  0.2997 -0.9431
    1OL    C111 2362   5.087   3.553   5.864 -0.7489 -0.6733  0.2842
    1OL    H11R 2363   4.991   3.507   5.837  0.3460 -2.1330 -1.2230
    1OL    H11S 2364   5.151   3.488   5.924  0.7676 -1.6898 -2.3417
    1OL    C112 2365   5.147   3.584   5.725 -0.0490  0.0553 -0.5545
    1OL    H12R 2366   5.252   3.614   5.724 -0.6424  2.2652 -2.5247
    1OL    H12S 2367   5.079   3.659   5.683  1.2115  1.1254 -0.7348
    1OL    C113 2368   5.152   3.464   5.634 -0.2524  0.1495  0.1875
    1OL    H13R 2369   5.057   3.410   5.633  0.6923 -1.5826  1.3129
    1OL    H13S 2370   5.225   3.389   5.665 -0.1948  1.0596  2.3059
    1OL    C114 2371   5.178   3.519   5.490 -0.0233  0.4681  0.0551
    1OL    H14R 2372   5.108   3.600   5.468  1.2032  1.2963 -0.7643
    1OL    H14S 2373   5.146   3.436   5.426  0.4942  0.7068 -0.5118
    1OL    C115 2374   5.328   3.561   5.467 -0.1255 -1.1201  0.5548
    1OL    H15R 2375   5.389   3.476   5.499 -0.8500 -2.1325 -0.7131
    1OL    H15S 2376   5.351   3.641   5.538  0.6027 -2.5313  1.9554
    1OL    C116 2377   5.350   3.622   5.331  0.0068  0.8777  0.4838
    1OL    H16R 2378   5.283   3.708   5.340 -0.2013  0.8524 -0.7751
    1OL    H16S 2379   5.315   3.560   5.248 -0.1652  1.4403  0.1334
    1OL    C117 2380   5.489   3.679   5.313  0.1008 -0.3668  0.2337
    1OL    H17R 2381   5.512   3.744   5.397  0.1296 -1.9949  1.5158
    1OL    H17S 2382   5.493   3.730   5.217  0.2577 -1.3171 -0.2734
    1OL    C118 2383   5.592   3.565   5.293  0.0619  0.1156 -0.4083
    1OL    H18R 2384   5.696   3.597   5.291 -0.5954  2.4158  1.0979
    1OL    H18S 2385   5.581   3.517   5.195  0.1686 -0.5121 -0.1154
    1OL    H18T 2386   5.583   3.479   5.360 -1.2384 -0.2595 -1.0373
    1PA    C116 2387   1.135   3.963   5.485 -0.6516 -0.8521 -0.5041
    1PA    H16R 2388   1.070   4.048   5.509  1.5207  1.1234 -1.4167
    1PA    H16S 2389   1.081   3.868   5.488 -0.6928 -0.7471  3.3080
    1PA    H16T 2390   1.152   3.976   5.378 -2.7089 -0.6667 -0.8459
    1PA    C115 2391   1.267   3.956   5.558 -0.5891 -0.3461  0.6644
    1PA    H15R 2392   1.334   4.023   5.504 -0.7439 -0.5596  0.2050
    1PA    H15S 2393   1.260   3.988   5.662 -0.3628  0.9636  0.2856
    1PA    C114 2394   1.337   3.819   5.557 -0.1513  0.5994  0.5686
    1PA    H14R 2395   1.353   3.785   5.454  0.4456  0.3920  0.7311
    1PA    H14S 2396   1.442   3.821   5.587  0.5917 -3.4079 -1.3046
    1PA    C113 2397   1.257   3.716   5.648 -0.5334 -0.1718 -0.0540
    1PA    H13R 2398   1.234   3.755   5.747 -2.7284 -0.4272 -0.4348
    1PA    H13S 2399   1.161   3.694   5.600 -0.7742 -1.3059  0.9333
    1PA    C112 2400   1.343   3.589   5.658 -0.0186  0.1860 -0.2598
    1PA    H12R 2401   1.351   3.537   5.562 -0.9227 -1.7168  0.6678
    1PA    H12S 2402   1.446   3.615   5.680  1.2273 -3.4153 -1.4944
    1PA    C111 2403   1.303   3.489   5.770 -0.1925  0.3082  0.3945
    1PA    H11R 2404   1.197   3.464   5.769 -0.1402 -0.0178  1.9029
    1PA    H11S 2405   1.367   3.401   5.760 -0.3426  0.1431  0.8544
    1PA    C110 2406   1.334   3.532   5.918  0.1297 -0.0475  0.2281
    1PA    H10R 2407   1.267   3.613   5.944 -1.3883 -0.9761 -0.7016
    1PA    H10S 2408   1.304   3.445   5.977 -1.5003  1.6777  2.0218
    1PA     C19 2409   1.477   3.568   5.963  0.1152 -0.7742  0.4414
    1PA     H9R 2410   1.543   3.494   5.919  0.3070 -1.3544  1.6636
    1PA     H9S 2411   1.507   3.658   5.909 -0.7012 -0.6383  0.2068
    1PA     C18 2412   1.487   3.586   6.115  0.2736  0.8884  0.0192
    1PA     H8R 2413   1.410   3.656   6.147 -1.8133 -1.3178 -0.0332
    1PA     H8S 2414   1.479   3.483   6.149  0.8196  0.7993 -0.1176
    1PA     C17 2415   1.631   3.638   6.166 -0.2389 -0.0781  0.2504
    1PA     H7R 2416   1.712   3.570   6.139  0.4989  1.2634 -1.0199
    1PA     H7S 2417   1.656   3.726   6.107 -0.8772  0.1530  0.3201
    1PA     C16 2418   1.656   3.674   6.314  0.4701  0.2271 -0.3980
    1PA     H6R 2419   1.584   3.750   6.347  0.1371  0.6176 -2.0022
    1PA     H6S 2420   1.635   3.590   6.381 -2.9821  1.6319  0.4109
    1PA     C15 2421   1.796   3.727   6.345 -0.5221 -0.3602  1.0679
    1PA     H5R 2422   1.861   3.645   6.315 -0.2559 -0.3112  1.5096
    1PA     H5S 2423   1.822   3.824   6.301 -4.0368 -0.5746 -1.7329
    1PA     C14 2424   1.824   3.723   6.494 -0.7999  0.0886 -0.0088
    1PA     H4R 2425   1.824   3.619   6.525 -2.0276  0.4607  1.2919
    1PA     H4S 2426   1.921   3.771   6.510 -0.9160  0.4342 -0.3414
    1PA     C13 2427   1.709   3.788   6.581 -0.2355  0.4282  0.5128
    1PA     H3R 2428   1.703   3.896   6.565  1.2029  0.5801  0.9261
    1PA     H3S 2429   1.615   3.737   6.561  0.8741 -2.6458  2.8266
    1PA     C12 2430   1.744   3.757   6.728 -0.3182  1.0428  0.2637
    1PA     H2R 2431   1.760   3.649   6.736 -1.6933  0.9869  3.3849
    1PA     H2S 2432   1.829   3.820   6.754  2.0503 -2.9221  2.5669
    1PC     C11 2433   1.623   3.786   6.813 -0.1366 -0.3456  0.1906
    1PC     O12 2434   1.562   3.890   6.806  0.0804  0.1561  0.5369
    1PC     O11 2435   1.593   3.686   6.898 -0.2786 -0.2400 -0.6200
    1PC      C1 2436   1.471   3.705   6.977  0.5226 -0.3443 -0.6913
    1PC      HR 2437   1.490   3.776   7.058 -1.4195 -0.3499 -0.2113
    1PC      HS 2438   1.386   3.746   6.922 -0.4480  0.0031  1.0180
    1PC      C2 2439   1.421   3.569   7.038  0.5477 -0.8151 -0.4974
    1PC      HX 2440   1.317   3.577   7.071  0.9147  1.5373  0.2401
    1PC      C3 2441   1.509   3.535   7.153  0.5369  0.6483 -0.4443
    1PC      HA 2442   1.489   3.605   7.234  1.2435  1.8774 -1.3083
    1PC      HB 2443   1.487   3.435   7.191  0.9161  1.5009  2.1385
    1PC     O31 2444   1.651   3.536   7.115  0.0959  0.0571  0.5065
    1PC     P31 2445   1.761   3.521   7.228 -0.0746  0.1833 -0.1532
    1PC     O32 2446   1.765   3.363   7.244  0.1209 -0.0197  0.7711
    1PC     C31 2447   1.819   3.279   7.143  0.3371 -0.2575 -0.3974
    1PC     H1A 2448   1.777   3.178   7.143 -0.3130  0.0108  0.7126
    1PC     H1B 2449   1.797   3.321   7.044  0.5837  2.7462  0.7835
    1PC     C32 2450   1.965   3.261   7.186 -0.6048  0.3138 -0.5169
    1PC     H2A 2451   2.010   3.355   7.156  1.5895 -0.6860 -0.4387
    1PC     H2B 2452   1.979   3.247   7.294 -2.2067  1.7487 -0.0973
    1PC     N31 2453   2.038   3.146   7.118  0.0129  0.5119  0.4105
    1PC     C33 2454   1.987   3.013   7.165 -0.5788  0.7640  0.4049
    1PC     H3A 2455   1.882   3.001   7.139 -0.5955 -1.7747  1.4886
    1PC     H3B 2456   2.037   2.930   7.115  0.4644  0.0274  2.5930
    1PC     H3C 2457   2.011   2.996   7.270  1.7452 -1.5894 -0.4271
    1PC     C34 2458   2.031   3.148   6.964  0.2126  0.0115  0.1199
    1PC     H4A 2459   2.073   3.244   6.931 -0.4305  0.2019 -0.1546
    1PC     H4B 2460   2.106   3.078   6.928  1.4466  1.1227  0.4732
    1PC     H4C 2461   1.932   3.148   6.917  0.8260  0.3714 -1.2026
    1PC     C35 2462   2.178   3.138   7.155  0.1151  0.4401  0.2962
    1PC     H5A 2463   2.196   3.123   7.261  0.4571 -1.6325 -0.0348
    1PC     H5B 2464   2.217   3.239   7.135  0.0851  0.9881  2.7890
    1PC     H5C 2465   2.225   3.065   7.089  0.3329  1.2650 -0.4782
    1PC     O33 2466   1.891   3.562   7.164  0.0145 -0.5149 -0.1724
    1PC     O34 2467   1.717   3.576   7.356 -0.7225 -0.3792 -0.1212
    1PC     O21 2468   1.438   3.476   6.925 -0.3272 -0.0992  0.3609
    1PC     C21 2469   1.432   3.347   6.928  0.1513  0.2349 -0.5312
    1PC     O22 2470   1.386   3.284   7.025 -0.3653  0.1034  0.2180
    1OL     C12 2471   1.484   3.268   6.808 -0.6259 -0.6484 -0.1824
    1OL     H2R 2472   1.409   3.261   6.729 -0.3967  1.0559 -0.5686
    1OL     H2S 2473   1.508   3.169   6.848  1.3191  0.5097  1.5567
    1OL     C13 2474   1.617   3.325   6.763  0.7682 -0.5963  0.4021
    1OL     H3R 2475   1.683   3.309   6.848 -0.4525  1.1291  1.7120
    1OL     H3S 2476   1.602   3.429   6.733  0.5874 -0.8352 -0.3431
    1OL     C14 2477   1.674   3.256   6.635  0.0082 -0.2079  0.0018
    1OL     H4R 2478   1.611   3.284   6.551  1.4100  0.6406 -0.7940
    1OL     H4S 2479   1.672   3.148   6.648 -2.5619 -0.1718  0.0533
    1OL     C15 2480   1.815   3.296   6.610 -0.0677 -0.4697 -0.9739
    1OL     H5R 2481   1.884   3.243   6.676 -2.1211 -2.2619 -0.1957
    1OL     H5S 2482   1.823   3.402   6.636  1.5646 -1.1526  1.4550
    1OL     C16 2483   1.850   3.272   6.463  0.2915 -0.6530  0.0972
    1OL     H6R 2484   1.776   3.310   6.391  1.7584 -1.3888 -1.8476
    1OL     H6S 2485   1.848   3.164   6.446  3.0399 -0.7641  0.2283
    1OL     C17 2486   1.996   3.326   6.435 -0.8568 -0.1375 -0.1368
    1OL     H7R 2487   2.063   3.288   6.512  0.6308  0.5323 -1.0664
    1OL     H7S 2488   2.004   3.434   6.448 -0.1495  0.0961 -2.2338
    1OL     C18 2489   2.051   3.304   6.301 -0.1287 -0.1498  0.2586
    1OL     H8R 2490   2.049   3.196   6.285 -0.4405 -0.1565  0.3316
    1OL     H8S 2491   2.157   3.329   6.314  0.9714 -4.8963  1.3509
    1OL     C19 2492   1.977   3.382   6.193  1.0207  0.1422  0.1488
    1OL     H9R 2493   1.870   3.383   6.211  1.0341 -0.3424  0.2492
    1OL    C110 2494   2.030   3.456   6.096 -0.1566  0.5309 -0.3425
    1OL    H10R 2495   1.968   3.511   6.026  0.1759 -0.1564 -1.1909
    1OL    C111 2496   2.182   3.475   6.066 -0.4846 -0.7780  0.5385
    1OL    H11R 2497   2.238   3.435   6.151  0.9805 -2.0700 -0.9908
    1OL    H11S 2498   2.216   3.578   6.049 -0.9779 -0.9068 -1.4140
    1OL    C112 2499   2.244   3.398   5.942  0.6798 -0.2133  1.1177
    1OL    H12R 2500   2.352   3.412   5.952 -0.1088  5.9799  3.2207
    1OL    H12S 2501   2.213   3.450   5.852 -1.5631  1.2358  2.6763
    1OL    C113 2502   2.204   3.251   5.945  0.3931  0.7413  0.2240
    1OL    H13R 2503   2.098   3.233   5.925  1.0781 -1.5351 -1.4903
    1OL    H13S 2504   2.241   3.210   6.038 -1.0810  0.5632  0.7528
    1OL    C114 2505   2.271   3.177   5.826 -0.1195 -0.3053 -0.2027
    1OL    H14R 2506   2.249   3.071   5.840 -0.6327 -0.1444  0.2560
    1OL    H14S 2507   2.379   3.188   5.826 -0.0481 -0.8923 -1.1404
    1OL    C115 2508   2.214   3.231   5.688 -0.4572 -0.0203  0.2337
    1OL    H15R 2509   2.275   3.316   5.656 -0.8590  0.9339  1.9991
    1OL    H15S 2510   2.115   3.275   5.699 -0.1055  0.3229  2.1662
    1OL    C116 2511   2.228   3.128   5.573 -0.1448  0.2744 -0.0467
    1OL    H16R 2512   2.185   3.165   5.479  1.2276 -0.1665 -0.8496
    1OL    H16S 2513   2.175   3.035   5.596  0.4272  0.0961  0.5792
    1OL    C117 2514   2.371   3.071   5.549  0.2570  0.0879  0.6881
    1OL    H17R 2515   2.450   3.143   5.572 -0.0271  0.6055  0.0732
    1OL    H17S 2516   2.386   3.052   5.443 -0.4766 -0.5885  0.7049
    1OL    C118 2517   2.401   2.941   5.631 -0.6490 -0.2511  0.1179
    1OL    H18R 2518   2.407   2.961   5.738 -0.5868 -0.5050  0.1619
    1OL    H18S 2519   2.496   2.895   5.601 -0.7968 -1.8059  1.9368
    1OL    H18T 2520   2.321   2.870   5.609 -1.5695  1.0411 -0.7409
    1PA    C116 2521   1.837   1.303   5.100 -0.1229 -0.5015  0.2959
    1PA    H16R 2522   1.844   1.257   5.001 -1.8501  2.2866 -1.1888
    1PA    H16S 2523   1.905   1.246   5.164  0.0126  0.7015  1.2463
    1PA    H16T 2524   1.876   1.404   5.087  1.3975 -1.0181  0.7139
    1PA    C115 2525   1.695   1.303   5.156 -0.2351 -0.1165  0.0584
    1PA    H15R 2526   1.632   1.323   5.069 -1.5042  2.6789  1.5620
    1PA    H15S 2527   1.664   1.205   5.193 -0.0576 -0.8998 -1.8082
    1PA    C114 2528   1.679   1.413   5.267 -0.4939  0.1189  0.8811
    1PA    H14R 2529   1.769   1.410   5.330 -1.3000 -0.4952  2.0344
    1PA    H14S 2530   1.682   1.516   5.231  1.5343  0.1674  1.1538
    1PA    C113 2531   1.559   1.375   5.353  0.4859 -0.0590 -0.6206
    1PA    H13R 2532   1.472   1.375   5.287 -1.9595 -1.2062  2.4742
    1PA    H13S 2533   1.549   1.271   5.382 -0.2489  0.2807  0.3523
    1PA    C112 2534   1.540   1.462   5.475  0.1516  0.1505 -0.1153
    1PA    H12R 2535   1.464   1.411   5.535  0.5590  1.1203  1.2748
    1PA    H12S 2536   1.631   1.456   5.536 -0.0509 -3.7945 -0.1334
    1PA    C111 2537   1.513   1.611   5.459  0.0098  0.0581  0.8802
    1PA    H11R 2538   1.575   1.655   5.381 -1.1481 -0.8772 -0.5966
    1PA    H11S 2539   1.414   1.634   5.419 -0.3124 -0.4845  1.3518
    1PA    C110 2540   1.530   1.679   5.600 -0.5591 -0.0525 -0.1411
    1PA    H10R 2541   1.460   1.640   5.675  1.6995 -0.4400  1.8444
    1PA    H10S 2542   1.630   1.654   5.636 -0.6130  0.5743  0.4705
    1PA     C19 2543   1.516   1.827   5.605 -0.5517  0.1010 -0.2427
    1PA     H9R 2544   1.566   1.868   5.517 -1.8547 -0.3232 -1.1994
    1PA     H9S 2545   1.412   1.851   5.582 -0.1740 -0.0468 -2.1700
    1PA     C18 2546   1.571   1.882   5.736  0.5442  0.1577  0.6557
    1PA     H8R 2547   1.662   1.826   5.757 -1.0106 -2.4829  0.4659
    1PA     H8S 2548   1.594   1.988   5.722  0.9613 -0.2459 -1.9376
    1PA     C17 2549   1.465   1.867   5.851 -0.3352  0.1210  0.3106
    1PA     H7R 2550   1.372   1.915   5.818  0.0340  0.0246 -0.8760
    1PA     H7S 2551   1.455   1.762   5.876  0.3239 -0.2845 -1.0806
    1PA     C16 2552   1.504   1.950   5.976 -0.3599  0.1909  0.4670
    1PA     H6R 2553   1.511   2.052   5.937 -1.1641 -0.8395 -2.4723
    1PA     H6S 2554   1.419   1.943   6.044 -1.9433 -0.0048 -1.4993
    1PA     C15 2555   1.631   1.889   6.048  0.3889  0.2738  0.6695
    1PA     H5R 2556   1.601   1.792   6.089  1.7006 -1.3326 -2.0446
    1PA     H5S 2557   1.703   1.866   5.970  2.4187  2.9580  1.6996
    1PA     C14 2558   1.685   1.982   6.158  0.1886  1.0873  0.1085
    1PA     H4R 2559   1.777   1.943   6.204  0.6280  2.7618  0.7020
    1PA     H4S 2560   1.711   2.078   6.113  1.2656  0.9040  0.3060
    1PA     C13 2561   1.590   2.010   6.278 -0.2368 -0.0479 -0.2394
    1PA     H3R 2562   1.636   2.084   6.343 -2.0396 -1.5992  2.8800
    1PA     H3S 2563   1.494   2.052   6.247  0.1933  1.7457  0.8285
    1PA     C12 2564   1.569   1.886   6.362  0.6541  0.1970  0.0581
    1PA     H2R 2565   1.520   1.809   6.302  1.4732 -0.0505 -0.3074
    1PA     H2S 2566   1.669   1.846   6.384 -0.1706 -2.0524 -0.1847
    1PC     C11 2567   1.500   1.911   6.493  0.1925  0.2899  0.1004
    1PC     O12 2568   1.505   2.002   6.567 -0.0529  0.0441  0.2851
    1PC     O11 2569   1.420   1.796   6.516  0.2227 -0.1501  0.1514
    1PC      C1 2570   1.325   1.803   6.634  0.2896  0.3303 -0.1048
    1PC      HR 2571   1.286   1.903   6.654 -1.2558  0.2020 -2.3012
    1PC      HS 2572   1.236   1.745   6.610 -0.6598  1.0174  1.6622
    1PC      C2 2573   1.384   1.732   6.760  0.9119 -0.1942 -0.0027
    1PC      HX 2574   1.413   1.630   6.735 -0.3611 -1.0053  1.8040
    1PC      C3 2575   1.278   1.728   6.879 -0.2208  0.0535  0.4492
    1PC      HA 2576   1.194   1.660   6.860  1.3149 -1.6216 -0.5724
    1PC      HB 2577   1.324   1.688   6.969 -0.7280  0.7735  1.0322
    1PC     O31 2578   1.221   1.859   6.894 -0.7187 -0.0173  0.1055
    1PC     P31 2579   1.228   1.943   7.032  0.4548  0.2005  0.5392
    1PC     O32 2580   1.370   2.020   7.034 -0.0083 -0.0934  0.1112
    1PC     C31 2581   1.383   2.147   6.968 -0.6233 -0.2818  0.1771
    1PC     H1A 2582   1.322   2.216   7.026 -0.4807  0.2774 -0.3269
    1PC     H1B 2583   1.489   2.171   6.980 -1.0460  0.8018  1.7841
    1PC     C32 2584   1.332   2.145   6.815 -0.9178 -0.0754 -0.6926
    1PC     H2A 2585   1.390   2.077   6.753  0.3858 -0.1515  0.5873
    1PC     H2B 2586   1.231   2.103   6.819 -1.0106  0.2920  1.9221
    1PC     N31 2587   1.336   2.272   6.730  0.6303  0.0323 -0.9891
    1PC     C33 2588   1.265   2.242   6.606  0.2334 -0.1062  0.0756
    1PC     H3A 2589   1.162   2.211   6.624  0.1881  0.6282  1.1537
    1PC     H3B 2590   1.267   2.336   6.551 -0.3696 -0.1363 -0.0077
    1PC     H3C 2591   1.327   2.166   6.558 -2.3274 -1.5450 -1.0522
    1PC     C34 2592   1.265   2.391   6.793 -0.3416 -0.2252 -0.2516
    1PC     H4A 2593   1.159   2.379   6.816 -0.9910  2.6271 -1.5533
    1PC     H4B 2594   1.320   2.426   6.880 -1.8912 -2.4734  1.7118
    1PC     H4C 2595   1.263   2.476   6.725 -0.1251  0.2577  0.3462
    1PC     C35 2596   1.480   2.298   6.699  0.9123 -0.1628 -0.6329
    1PC     H5A 2597   1.523   2.210   6.650 -0.4352 -0.9112 -0.5054
    1PC     H5B 2598   1.530   2.311   6.795 -2.6353 -0.2905  1.2943
    1PC     H5C 2599   1.488   2.393   6.646  0.9947  0.1770 -0.0250
    1PC     O33 2600   1.119   2.045   7.028 -0.3508  0.3533 -0.0900
    1PC     O34 2601   1.220   1.850   7.148  0.3872 -0.1831  0.2569
    1PC     O21 2602   1.501   1.810   6.797  0.3348  0.2655  0.0513
    1PC     C21 2603   1.601   1.751   6.858 -0.1804  0.4063 -0.2980
    1PC     O22 2604   1.604   1.637   6.902  0.3925 -0.5281  0.0377
    1OL     C12 2605   1.725   1.842   6.878  0.6567  0.0613 -0.0300
    1OL     H2R 2606   1.812   1.786   6.911  1.2851  0.1893 -1.4250
    1OL     H2S 2607   1.691   1.921   6.945 -1.1903 -0.2471 -0.5613
    1OL     C13 2608   1.777   1.916   6.746  0.0213  0.1789  0.2065
    1OL     H3R 2609   1.710   1.996   6.713  1.2042  0.3729 -1.8114
    1OL     H3S 2610   1.785   1.829   6.680 -0.1338 -0.8325  1.5118
    1OL     C14 2611   1.924   1.964   6.763 -0.2105  0.6045  0.4751
    1OL     H4R 2612   1.972   1.875   6.804 -2.2466 -0.5307  0.4543
    1OL     H4S 2613   1.924   2.048   6.833 -0.4460 -0.7482  2.1216
    1OL     C15 2614   1.976   2.014   6.630 -0.2716  0.4065  0.1461
    1OL     H5R 2615   1.985   1.921   6.575 -2.8917 -1.4509  2.7294
    1OL     H5S 2616   2.079   2.042   6.652  0.1866 -0.5688 -0.7263
    1OL     C16 2617   1.905   2.128   6.551 -0.4063  0.2347 -0.6673
    1OL     H6R 2618   1.818   2.083   6.502  0.2779 -0.8471 -0.9173
    1OL     H6S 2619   1.975   2.155   6.472  0.6843  1.1943  0.5967
    1OL     C17 2620   1.870   2.254   6.637  0.1379 -1.1642  0.3712
    1OL     H7R 2621   1.963   2.288   6.683  0.7444 -2.4453  0.0963
    1OL     H7S 2622   1.804   2.224   6.719 -1.1314  0.2105 -0.1269
    1OL     C18 2623   1.788   2.363   6.563 -0.3771  0.0356 -0.3222
    1OL     H8R 2624   1.750   2.449   6.618  0.4225  0.0054  0.2895
    1OL     H8S 2625   1.696   2.314   6.530  0.7702 -2.1611 -0.4033
    1OL     C19 2626   1.872   2.412   6.437 -0.2903 -0.3672  0.3599
    1OL     H9R 2627   1.966   2.465   6.454 -0.7225  1.0931 -1.6002
    1OL    C110 2628   1.825   2.409   6.310 -0.7638 -0.0081  0.9474
    1OL    H10R 2629   1.883   2.453   6.229 -0.5816 -4.2877 -1.3691
    1OL    C111 2630   1.698   2.357   6.255 -0.2819  0.0694  0.8807
    1OL    H11R 2631   1.642   2.329   6.345 -2.6347 -2.9182 -1.4258
    1OL    H11S 2632   1.708   2.264   6.199  0.5564  0.6989 -0.0297
    1OL    C112 2633   1.622   2.459   6.159  0.1492 -0.1541 -0.1093
    1OL    H12R 2634   1.677   2.446   6.066 -0.4881  0.4109 -0.5694
    1OL    H12S 2635   1.625   2.561   6.198 -0.4083 -0.4584  0.7401
    1OL    C113 2636   1.478   2.407   6.138  0.1309 -0.1849  1.1043
    1OL    H13R 2637   1.419   2.401   6.230 -0.4871  3.0371  0.9766
    1OL    H13S 2638   1.497   2.308   6.096 -1.4069  1.2624 -3.2489
    1OL    C114 2639   1.391   2.473   6.021  0.4245  0.4194 -0.0852
    1OL    H14R 2640   1.456   2.488   5.934  1.1429 -0.8932  0.2007
    1OL    H14S 2641   1.356   2.569   6.059 -0.5173 -0.5342  1.4989
    1OL    C115 2642   1.266   2.378   5.987  0.0951 -0.3060  0.1151
    1OL    H15R 2643   1.193   2.446   5.943 -0.3704 -0.0143  1.3190
    1OL    H15S 2644   1.218   2.342   6.078  1.4504  0.1554  1.0371
    1OL    C116 2645   1.300   2.258   5.899  0.0288 -0.1490  0.0403
    1OL    H16R 2646   1.289   2.164   5.953 -1.5861 -0.3545 -0.6269
    1OL    H16S 2647   1.403   2.267   5.862 -0.5522  1.3193 -1.2625
    1OL    C117 2648   1.209   2.243   5.778  0.7958  0.5383 -0.6124
    1OL    H17R 2649   1.184   2.343   5.743  1.4207  0.1620 -2.1854
    1OL    H17S 2650   1.119   2.193   5.814  1.3531 -0.7110 -0.9298
    1OL    C118 2651   1.251   2.157   5.662 -0.6162  0.5385 -1.0329
    1OL    H18R 2652   1.167   2.142   5.595 -2.0402 -2.2163  1.2306
    1OL    H18S 2653   1.294   2.064   5.702 -0.8364  1.4103  1.2991
    1OL    H18T 2654   1.330   2.200   5.601  0.6703  1.5206  1.2383
    1PA    C116 2655   2.452   1.209   6.251  0.0760 -0.3481 -0.0055
    1PA    H16R 2656   2.542   1.159   6.288  1.4878  2.1741  0.0690
    1PA    H16S 2657   2.485   1.300   6.201  1.4279 -0.3785  0.7975
    1PA    H16T 2658   2.387   1.140   6.198  0.2065 -0.8671  0.5050
    1PA    C115 2659   2.377   1.271   6.369  0.5249 -0.8812  0.3347
    1PA    H15R 2660   2.355   1.197   6.447 -1.6136 -1.8688 -1.1678
    1PA    H15S 2661   2.437   1.353   6.408  0.4143  0.1071 -1.5292
    1PA    C114 2662   2.240   1.336   6.328  0.7969 -0.3817 -0.0776
    1PA    H14R 2663   2.261   1.413   6.254 -0.8078  0.8344  0.6911
    1PA    H14S 2664   2.172   1.260   6.289  1.1905  0.0499 -1.6106
    1PA    C113 2665   2.165   1.402   6.449  0.0820  1.2127 -0.0867
    1PA    H13R 2666   2.136   1.325   6.520  0.1516  1.1579 -0.1189
    1PA    H13S 2667   2.241   1.464   6.496  1.2217 -1.4148  1.6356
    1PA    C112 2668   2.043   1.481   6.402  0.2314 -0.3019  0.0754
    1PA    H12R 2669   2.072   1.570   6.346  0.7792 -0.2364  0.4586
    1PA    H12S 2670   1.980   1.417   6.340 -3.1648  2.2538  0.6986
    1PA    C111 2671   1.945   1.529   6.512  0.4481  0.3359 -0.3670
    1PA    H11R 2672   1.925   1.446   6.580  0.8987  1.2188  0.8590
    1PA    H11S 2673   1.993   1.606   6.573 -0.6273  1.5293 -1.0065
    1PA    C110 2674   1.818   1.595   6.464 -0.9769  0.0442 -0.7474
    1PA    H10R 2675   1.780   1.664   6.540 -2.6821  0.6680 -2.1381
    1PA    H10S 2676   1.842   1.659   6.379 -0.6810  1.8981  0.6684
    1PA     C19 2677   1.705   1.506   6.404  0.0167 -0.5914 -0.8370
    1PA     H9R 2678   1.626   1.575   6.374  1.4360  1.1068 -0.7300
    1PA     H9S 2679   1.746   1.472   6.309 -1.3987 -0.4520 -1.5165
    1PA     C18 2680   1.664   1.380   6.479  0.0129 -0.7467 -0.2543
    1PA     H8R 2681   1.578   1.345   6.422 -0.4802 -0.0058  0.0254
    1PA     H8S 2682   1.749   1.312   6.471 -0.4645 -1.3726 -0.0465
    1PA     C17 2683   1.628   1.414   6.624  0.8933 -0.2085 -0.3679
    1PA     H7R 2684   1.724   1.435   6.670  0.6364 -1.9026  1.0316
    1PA     H7S 2685   1.555   1.494   6.638  1.3065  0.2402 -0.7598
    1PA     C16 2686   1.580   1.290   6.702 -0.5505 -0.8023 -0.0223
    1PA     H6R 2687   1.661   1.217   6.705 -1.5081 -2.0425 -2.4449
    1PA     H6S 2688   1.559   1.316   6.806 -0.6105  1.7581 -0.6583
    1PA     C15 2689   1.457   1.221   6.637 -0.6436  0.3208 -0.2838
    1PA     H5R 2690   1.374   1.292   6.629 -1.8636 -1.1570 -1.0360
    1PA     H5S 2691   1.484   1.185   6.537  0.3927 -1.7796  0.7149
    1PA     C14 2692   1.422   1.087   6.716  0.1283  0.3747  0.2886
    1PA     H4R 2693   1.406   1.123   6.818  1.0968  1.1087  0.1979
    1PA     H4S 2694   1.331   1.040   6.679 -0.7616  3.3940 -1.5615
    1PA     C13 2695   1.531   0.980   6.729 -0.6363  0.3062  0.0002
    1PA     H3R 2696   1.582   0.949   6.637 -2.8044 -1.9505 -0.5044
    1PA     H3S 2697   1.600   1.012   6.807 -0.0390  0.3119 -0.5247
    1PA     C12 2698   1.463   0.856   6.787 -0.2285 -0.0544  0.4748
    1PA     H2R 2699   1.427   0.877   6.888  1.5554 -1.1675  1.3659
    1PA     H2S 2700   1.380   0.816   6.729  0.2493  0.6888 -0.7319
    1PC     C11 2701   1.566   0.753   6.791 -0.0466  0.0242 -0.1683
    1PC     O12 2702   1.620   0.717   6.688 -0.0105  0.0620  0.3123
    1PC     O11 2703   1.593   0.719   6.917 -0.2998 -0.2816 -0.5669
    1PC      C1 2704   1.728   0.664   6.933 -0.5651 -0.0665  0.7941
    1PC      HR 2705   1.735   0.578   7.000  1.5345 -2.0203 -1.8048
    1PC      HS 2706   1.768   0.620   6.842 -0.3751  0.0052  0.8428
    1PC      C2 2707   1.817   0.769   6.989  0.2321  0.8226  0.3544
    1PC      HX 2708   1.911   0.714   6.996  0.4761  1.0265 -1.1107
    1PC      C3 2709   1.756   0.824   7.123  0.2372  0.0665  0.2512
    1PC      HA 2710   1.648   0.834   7.113  0.2327 -0.4369 -0.2507
    1PC      HB 2711   1.783   0.753   7.202  0.5157  0.2850  0.3526
    1PC     O31 2712   1.816   0.963   7.140 -0.3442 -0.1636 -0.2772
    1PC     P31 2713   1.798   1.049   7.275  0.1125  0.0607  0.0359
    1PC     O32 2714   1.642   1.091   7.255 -0.5603  0.2013 -0.1972
    1PC     C31 2715   1.612   1.221   7.190 -0.6566  0.0133 -0.7329
    1PC     H1A 2716   1.698   1.242   7.125 -1.1550 -2.4457 -2.2372
    1PC     H1B 2717   1.520   1.206   7.133 -0.5652 -1.9485 -0.3845
    1PC     C32 2718   1.588   1.336   7.296  0.5827  0.8302  0.0516
    1PC     H2A 2719   1.681   1.344   7.354  0.4389  1.2416  0.2346
    1PC     H2B 2720   1.570   1.435   7.252  0.7230  0.2601 -1.3164
    1PC     N31 2721   1.472   1.317   7.397  0.1471  0.1092  0.2570
    1PC     C33 2722   1.343   1.275   7.326  0.1410 -0.0065 -0.0777
    1PC     H3A 2723   1.356   1.172   7.293  1.2443 -0.5713  1.9787
    1PC     H3B 2724   1.252   1.269   7.387 -1.4295  0.8047 -2.3074
    1PC     H3C 2725   1.317   1.335   7.240 -1.8372 -0.9930 -0.1860
    1PC     C34 2726   1.514   1.206   7.488  0.2607 -0.2488  0.0435
    1PC     H4A 2727   1.609   1.219   7.540 -0.8719  3.0163  1.4391
    1PC     H4B 2728   1.434   1.194   7.562  1.8604 -0.0979  1.8360
    1PC     H4C 2729   1.512   1.114   7.429 -1.4458 -0.2959  0.1516
    1PC     C35 2730   1.445   1.444   7.475 -0.2522 -0.4226 -0.8366
    1PC     H5A 2731   1.398   1.516   7.409 -0.5491  0.1170 -0.0419
    1PC     H5B 2732   1.536   1.495   7.505 -1.7866  2.6238 -1.1949
    1PC     H5C 2733   1.379   1.427   7.561 -0.1312 -0.9476 -0.8467
    1PC     O33 2734   1.837   0.953   7.384  0.3556 -0.7839 -0.0634
    1PC     O34 2735   1.885   1.170   7.257  0.6279 -0.2246 -0.1559
    1PC     O21 2736   1.823   0.883   6.904 -0.1173 -0.0893  0.0307
    1PC     C21 2737   1.941   0.937   6.874 -0.3273  0.4454  0.1795
    1PC     O22 2738   2.052   0.904   6.914 -0.2729  0.0131  0.0578
    1OL     C12 2739   1.919   1.067   6.802  0.5231  0.1062 -0.5559
    1OL     H2R 2740   1.971   1.144   6.860  1.8751  0.8454 -2.6785
    1OL     H2S 2741   1.813   1.092   6.799  0.6289  0.6782  0.3118
    1OL     C13 2742   1.981   1.072   6.665 -0.7874 -0.2442  0.1754
    1OL     H3R 2743   2.067   1.005   6.666  0.4587  1.3058  1.5682
    1OL     H3S 2744   2.019   1.174   6.655  0.4283 -0.5530  1.3805
    1OL     C14 2745   1.886   1.045   6.545 -0.0954  0.7941 -0.7799
    1OL     H4R 2746   1.813   1.126   6.539  0.2321  1.1746  0.2145
    1OL     H4S 2747   1.835   0.952   6.569  0.6344  0.5201 -0.2763
    1OL     C15 2748   1.956   1.045   6.410  0.1712 -0.3587 -0.0897
    1OL     H5R 2749   2.051   0.992   6.417 -0.8231 -1.9183  1.9917
    1OL     H5S 2750   1.987   1.143   6.374  0.6595 -0.6151 -0.3941
    1OL     C16 2751   1.881   0.985   6.284  0.2051  0.0892 -0.4056
    1OL     H6R 2752   1.857   0.881   6.305  0.5263  0.5120  2.2276
    1OL     H6S 2753   1.956   0.986   6.205 -0.4565 -0.0588 -1.0391
    1OL     C17 2754   1.755   1.065   6.246 -0.2445  0.2249 -0.1548
    1OL     H7R 2755   1.695   1.065   6.337  3.0288  0.5373  2.0662
    1OL     H7S 2756   1.711   1.006   6.165 -1.4741  3.0351 -1.5875
    1OL     C18 2757   1.786   1.199   6.180  0.3340  0.3224 -0.4995
    1OL     H8R 2758   1.871   1.190   6.113  1.4409 -0.8316  1.0378
    1OL     H8S 2759   1.816   1.272   6.255  0.3581  0.4887 -0.6706
    1OL     C19 2760   1.665   1.276   6.120  0.2814 -0.3586  0.5865
    1OL     H9R 2761   1.605   1.330   6.193 -0.9013 -0.7975 -0.0455
    1OL    C110 2762   1.633   1.288   5.993  0.7125  0.6332  0.5138
    1OL    H10R 2763   1.553   1.354   5.959 -0.9957 -0.5386  2.1226
    1OL    C111 2764   1.709   1.224   5.890  0.0225 -0.0842  0.0336
    1OL    H11R 2765   1.645   1.154   5.836 -0.7228  1.3265 -0.9616
    1OL    H11S 2766   1.792   1.169   5.936  1.1311  1.5589  0.0443
    1OL    C112 2767   1.756   1.321   5.780 -0.1276 -0.2604 -1.2293
    1OL    H12R 2768   1.837   1.388   5.813 -0.6875  0.4541 -1.2939
    1OL    H12S 2769   1.670   1.382   5.754 -1.0931 -1.0939 -0.0406
    1OL    C113 2770   1.817   1.259   5.649 -0.2505  0.2525 -0.3286
    1OL    H13R 2771   1.824   1.334   5.569 -1.5740  0.3481 -0.3697
    1OL    H13S 2772   1.748   1.179   5.620 -0.4580 -0.5052  2.2062
    1OL    C114 2773   1.945   1.173   5.664  0.5369 -0.4681  0.3492
    1OL    H14R 2774   1.956   1.109   5.576  0.1560  0.1143 -0.1228
    1OL    H14S 2775   1.930   1.109   5.752 -0.5878 -1.4015 -0.5106
    1OL    C115 2776   2.067   1.267   5.667 -0.5061 -0.4646  0.0842
    1OL    H15R 2777   2.042   1.343   5.742  1.2065  0.3374 -0.1458
    1OL    H15S 2778   2.074   1.332   5.579  3.0047  1.6671  1.8364
    1OL    C116 2779   2.200   1.198   5.690 -0.8300  0.0846 -1.1916
    1OL    H16R 2780   2.286   1.266   5.691  0.0264 -0.9840 -0.2999
    1OL    H16S 2781   2.215   1.133   5.603 -2.7615 -0.9445 -0.7762
    1OL    C117 2782   2.206   1.099   5.810 -0.0834 -0.5647  0.0810
    1OL    H17R 2783   2.295   1.039   5.789 -0.7364 -1.1616 -1.0195
    1OL    H17S 2784   2.125   1.025   5.802 -1.1780  0.4661  1.4066
    1OL    C118 2785   2.219   1.155   5.955 -0.0758 -0.3155 -0.6112
    1OL    H18R 2786   2.202   1.262   5.974  1.4670 -0.1570 -0.0805
    1OL    H18S 2787   2.322   1.147   5.989 -0.9893 -1.6939  1.9054
    1OL    H18T 2788   2.149   1.105   6.022 -1.5195  0.0340 -1.8185
    1PA    C116 2789   2.763   4.775   5.459  0.2498 -0.1690  0.8423
    1PA    H16R 2790   2.656   4.779   5.478  0.0659  0.6279 -0.3355
    1PA    H16S 2791   2.799   4.676   5.489 -1.7943 -0.5780  2.0531
    1PA    H16T 2792   2.779   4.776   5.351 -0.2748 -1.5995  0.7384
    1PA    C115 2793   2.834   4.900   5.527  0.3855 -0.0311  0.1708
    1PA    H15R 2794   2.799   4.988   5.472  0.3767 -0.9248 -1.2636
    1PA    H15S 2795   2.801   4.911   5.631  1.1133  2.5498  0.1786
    1PA    C114 2796   2.988   4.891   5.526  0.3757 -0.5510  0.6251
    1PA    H14R 2797   3.033   4.870   5.429  0.2732  1.9375  0.0085
    1PA    H14S 2798   3.031   4.989   5.548  0.1638  0.2318 -2.2005
    1PA    C113 2799   3.036   4.785   5.624  0.3597 -0.2160  0.3657
    1PA    H13R 2800   2.969   4.699   5.614  1.5734 -1.1294  0.0053
    1PA    H13S 2801   3.126   4.737   5.586 -0.5188  0.3000 -2.4706
    1PA    C112 2802   3.042   4.839   5.769 -0.0511  0.2014 -0.0477
    1PA    H12R 2803   2.945   4.876   5.805  0.3628  1.2918 -0.0265
    1PA    H12S 2804   3.064   4.752   5.832 -1.3370 -0.1667 -0.0900
    1PA    C111 2805   3.137   4.954   5.792  0.3740  0.3773 -0.6460
    1PA    H11R 2806   3.231   4.920   5.746 -1.5109 -1.6246 -3.1983
    1PA    H11S 2807   3.107   5.045   5.741 -1.3568 -0.3795 -1.0059
    1PA    C110 2808   3.152   4.996   5.942 -0.0756 -0.7928 -0.2996
    1PA    H10R 2809   3.214   5.084   5.925  1.0671 -1.5643 -0.1825
    1PA    H10S 2810   3.055   5.028   5.981  0.1532  0.1695 -0.5194
    1PA     C19 2811   3.225   4.891   6.035 -0.6802  0.3611  0.1705
    1PA     H9R 2812   3.156   4.806   6.030  1.1411 -1.1338  0.2180
    1PA     H9S 2813   3.308   4.857   5.973  0.3844  0.6267  1.4272
    1PA     C18 2814   3.287   4.934   6.170  0.7856 -0.0667  0.2202
    1PA     H8R 2815   3.360   5.014   6.157  1.4673 -0.9961 -1.8854
    1PA     H8S 2816   3.207   4.963   6.239  1.6645  1.3225  0.6885
    1PA     C17 2817   3.373   4.832   6.246 -1.4403  0.1910  0.6389
    1PA     H7R 2818   3.318   4.739   6.261 -0.8563 -0.1373  0.7888
    1PA     H7S 2819   3.461   4.805   6.187 -0.4099 -0.6811  2.5185
    1PA     C16 2820   3.422   4.887   6.385 -0.3156  0.4224  0.0853
    1PA     H6R 2821   3.460   4.988   6.366  1.4395 -0.1678  0.3519
    1PA     H6S 2822   3.333   4.891   6.448  0.4790 -0.1750  1.2764
    1PA     C15 2823   3.535   4.802   6.449 -0.0133  0.2691  0.0769
    1PA     H5R 2824   3.509   4.697   6.467  2.1255 -0.6800 -2.1350
    1PA     H5S 2825   3.615   4.790   6.376  0.0368  1.1983 -0.0267
    1PA     C14 2826   3.591   4.858   6.579 -0.3830  0.3389  0.4732
    1PA     H4R 2827   3.605   4.967   6.586  1.6184  0.0932  0.7277
    1PA     H4S 2828   3.523   4.843   6.663 -1.6406  2.3518 -0.1405
    1PA     C13 2829   3.725   4.784   6.622  0.4603  0.0783 -0.5704
    1PA     H3R 2830   3.809   4.804   6.555 -0.3950 -0.2676 -1.7621
    1PA     H3S 2831   3.770   4.843   6.702 -1.2664  1.2748 -0.4511
    1PA     C12 2832   3.715   4.633   6.652  0.2250 -0.0913 -0.0227
    1PA     H2R 2833   3.700   4.580   6.558 -1.5258  1.5878 -0.7297
    1PA     H2S 2834   3.805   4.606   6.708 -0.5767  0.5032  1.5774
    1PC     C11 2835   3.592   4.605   6.738 -0.4136  0.3181  0.1167
    1PC     O12 2836   3.570   4.658   6.843  0.2162 -0.2835 -0.5589
    1PC     O11 2837   3.515   4.499   6.697 -0.2725 -0.0886  0.4607
    1PC      C1 2838   3.411   4.450   6.782 -0.1625 -0.5809  0.2398
    1PC      HR 2839   3.366   4.354   6.756  1.0179 -0.7640 -1.1708
    1PC      HS 2840   3.455   4.446   6.882  0.4690  0.5746  0.0088
    1PC      C2 2841   3.293   4.548   6.782 -0.1065 -0.4126 -0.0672
    1PC      HX 2842   3.325   4.640   6.832 -0.5159 -0.6341  0.6176
    1PC      C3 2843   3.169   4.492   6.854 -0.0349  0.2533  0.1674
    1PC      HA 2844   3.096   4.565   6.891  0.7686 -0.1203  2.5982
    1PC      HB 2845   3.109   4.431   6.787 -0.0048 -0.1281  0.4893
    1PC     O31 2846   3.205   4.414   6.971  0.4153  0.0324  0.0721
    1PC     P31 2847   3.090   4.353   7.065  0.1587 -0.2154  0.3571
    1PC     O32 2848   3.157   4.209   7.104  0.4706  0.8146 -0.7544
    1PC     C31 2849   3.251   4.208   7.216 -0.3089 -0.4708  0.0956
    1PC     H1A 2850   3.223   4.282   7.292 -0.9303 -0.8569  0.2478
    1PC     H1B 2851   3.240   4.108   7.258 -1.0062  0.9093  3.3860
    1PC     C32 2852   3.394   4.228   7.156 -0.6333  0.2818  0.4717
    1PC     H2A 2853   3.432   4.137   7.110 -1.8424  0.0718 -0.1329
    1PC     H2B 2854   3.398   4.302   7.076 -1.5234  0.9988  1.0784
    1PC     N31 2855   3.497   4.262   7.263  0.3221  0.5684  0.7034
    1PC     C33 2856   3.637   4.271   7.198 -0.3806 -0.0390 -0.1957
    1PC     H3A 2857   3.714   4.278   7.276  0.5001 -1.4932 -0.9138
    1PC     H3B 2858   3.656   4.184   7.135  0.8097  0.3584 -0.3969
    1PC     H3C 2859   3.639   4.355   7.128 -0.2460 -1.2756 -1.6889
    1PC     C34 2860   3.470   4.390   7.341  0.0844 -0.5135  0.7317
    1PC     H4A 2861   3.468   4.484   7.286  0.5460  0.9843  3.2141
    1PC     H4B 2862   3.381   4.390   7.404  0.6185 -0.6526  1.4799
    1PC     H4C 2863   3.555   4.402   7.408  0.3942 -1.3670  0.5034
    1PC     C35 2864   3.500   4.153   7.364 -0.4858 -0.2303  0.7811
    1PC     H5A 2865   3.504   4.058   7.310  0.0326 -0.3929  1.1042
    1PC     H5B 2866   3.408   4.161   7.421 -2.0685  1.9629 -1.9922
    1PC     H5C 2867   3.588   4.166   7.428 -0.5895  1.7382  0.5608
    1PC     O33 2868   3.084   4.430   7.189  0.3301 -0.3138  0.4678
    1PC     O34 2869   2.971   4.327   6.987 -0.0587  0.6370 -0.6836
    1PC     O21 2870   3.266   4.579   6.646  0.5031  0.4648  0.3261
    1PC     C21 2871   3.203   4.691   6.608 -0.0840  0.4112  0.7655
    1PC     O22 2872   3.215   4.793   6.668  0.9085 -0.3696  0.2374
    1OL     C12 2873   3.124   4.674   6.480  0.3357 -0.0168  0.2108
    1OL     H2R 2874   3.156   4.581   6.432 -0.9297 -0.6482  0.5653
    1OL     H2S 2875   3.141   4.759   6.413  1.2872 -0.8009 -0.5733
    1OL     C13 2876   2.972   4.661   6.511  0.0607  0.0090 -0.2900
    1OL     H3R 2877   2.943   4.729   6.591  2.1478  0.8064 -0.1881
    1OL     H3S 2878   2.952   4.555   6.528 -0.8390  0.3202  0.6445
    1OL     C14 2879   2.880   4.719   6.406 -1.0323 -0.6067 -0.4938
    1OL     H4R 2880   2.888   4.828   6.403 -2.4477 -0.4629  0.5560
    1OL     H4S 2881   2.777   4.699   6.434  0.0326 -1.9188  2.7107
    1OL     C15 2882   2.897   4.656   6.259 -0.1765  0.4985  0.7481
    1OL     H5R 2883   2.889   4.547   6.253  1.5834  0.4123 -0.3285
    1OL     H5S 2884   2.996   4.686   6.227  0.9069 -2.1544  1.4796
    1OL     C16 2885   2.794   4.725   6.168 -0.1165  0.0321  0.0671
    1OL     H6R 2886   2.813   4.832   6.154 -0.8750  0.2707  0.8311
    1OL     H6S 2887   2.694   4.704   6.206  0.7796 -1.1946  1.8189
    1OL     C17 2888   2.786   4.665   6.027  0.0237  0.4196  0.0694
    1OL     H7R 2889   2.775   4.556   6.033 -0.7312  0.5216  0.5208
    1OL     H7S 2890   2.880   4.687   5.976  0.4728  2.1875  1.5991
    1OL     C18 2891   2.677   4.728   5.933 -0.1196  0.3560  1.3721
    1OL     H8R 2892   2.686   4.836   5.924 -1.6505  0.7090  3.6075
    1OL     H8S 2893   2.582   4.717   5.987  0.3250 -0.7762  1.9469
    1OL     C19 2894   2.678   4.675   5.793  0.1666 -0.1157 -0.1255
    1OL     H9R 2895   2.763   4.710   5.734  0.6317  1.0527  1.1852
    1OL    C110 2896   2.587   4.597   5.734 -0.0852 -0.0467 -1.0597
    1OL    H10R 2897   2.588   4.590   5.625 -0.0657 -2.1077 -0.9535
    1OL    C111 2898   2.457   4.538   5.794  0.0836  0.4163  0.6011
    1OL    H11R 2899   2.446   4.551   5.902 -0.9404 -2.4997  0.8868
    1OL    H11S 2900   2.470   4.431   5.777  1.8612  0.8907 -1.1983
    1OL    C112 2901   2.335   4.590   5.717 -0.2868 -0.1712  0.1379
    1OL    H12R 2902   2.334   4.572   5.609  0.6277 -1.2544  0.2939
    1OL    H12S 2903   2.339   4.699   5.730  0.7855 -0.1114 -0.6501
    1OL    C113 2904   2.200   4.533   5.754  0.3322  0.4056  0.7950
    1OL    H13R 2905   2.117   4.589   5.709  0.5007 -1.0429 -1.4103
    1OL    H13S 2906   2.198   4.536   5.863 -0.9051 -1.6079  0.8513
    1OL    C114 2907   2.178   4.385   5.712 -0.1826 -0.4119 -0.6698
    1OL    H14R 2908   2.077   4.367   5.748 -0.2108  2.0938  0.6039
    1OL    H14S 2909   2.246   4.313   5.759  1.3750  0.4191 -1.6107
    1OL    C115 2910   2.198   4.362   5.562  0.3521  0.3291 -0.3717
    1OL    H15R 2911   2.306   4.373   5.546 -0.0839  2.4183 -2.0679
    1OL    H15S 2912   2.140   4.433   5.504 -0.5751 -0.5445 -0.5125
    1OL    C116 2913   2.155   4.218   5.523  0.2807 -0.0735 -0.0151
    1OL    H16R 2914   2.219   4.150   5.580 -0.8938 -0.2478  1.1125
    1OL    H16S 2915   2.161   4.212   5.414  1.3595  1.9915 -0.0928
    1OL    C117 2916   2.005   4.192   5.556  0.1658 -0.3497  0.1011
    1OL    H17R 2917   1.953   4.277   5.512 -1.0405  0.0964  2.2820
    1OL    H17S 2918   1.995   4.199   5.665 -0.3693  0.5853 -0.0033
    1OL    C118 2919   1.967   4.059   5.500  0.8685 -0.3487 -0.1844
    1OL    H18R 2920   1.947   4.079   5.394  0.3746 -2.6904 -0.5758
    1OL    H18S 2921   1.884   4.014   5.554 -0.4020  0.7601 -1.1979
    1OL    H18T 2922   2.051   3.990   5.513  1.3491  0.2020 -0.3520
    1PA    C116 2923   5.484   2.783   5.196  0.4754  0.2562 -0.2129
    1PA    H16R 2924   5.404   2.831   5.253  1.9147 -1.9903  3.8729
    1PA    H16S 2925   5.446   2.712   5.122 -0.1179  2.2015 -1.8143
    1PA    H16T 2926   5.522   2.865   5.135 -0.5955  0.0787 -1.1468
    1PA    C115 2927   5.567   2.731   5.308  0.5238  0.2817 -0.1599
    1PA    H15R 2928   5.653   2.679   5.264 -0.0210  0.6278 -1.6790
    1PA    H15S 2929   5.604   2.811   5.373  0.0447 -0.1607  0.6630
    1PA    C114 2930   5.485   2.631   5.396  0.0016  0.2541  0.1569
    1PA    H14R 2931   5.446   2.549   5.336 -1.8584 -0.1250  1.8156
    1PA    H14S 2932   5.552   2.583   5.468  1.3003 -2.1833 -2.5570
    1PA    C113 2933   5.372   2.687   5.479  0.6105 -0.1262 -0.2213
    1PA    H13R 2934   5.291   2.723   5.415 -0.4477 -2.1502 -0.0501
    1PA    H13S 2935   5.323   2.600   5.523 -1.4634  1.6818  1.1112
    1PA    C112 2936   5.395   2.792   5.594  0.8336 -0.0821  0.5241
    1PA    H12R 2937   5.416   2.887   5.543  0.2724 -0.0802  0.2879
    1PA    H12S 2938   5.302   2.805   5.649  1.2668  0.2587  1.1797
    1PA    C111 2939   5.504   2.743   5.691  0.7915  0.4347 -0.6707
    1PA    H11R 2940   5.480   2.647   5.737  2.2741  1.3003  2.0240
    1PA    H11S 2941   5.595   2.723   5.634 -0.1810 -0.9176 -1.8080
    1PA    C110 2942   5.521   2.836   5.808 -0.4077 -0.0575  0.1316
    1PA    H10R 2943   5.626   2.865   5.818 -0.6592  0.5545  1.1088
    1PA    H10S 2944   5.481   2.933   5.777 -1.7819 -1.1049 -1.3933
    1PA     C19 2945   5.449   2.790   5.938  0.0112 -0.2844  0.0670
    1PA     H9R 2946   5.343   2.805   5.917 -0.9701 -1.6768  3.6228
    1PA     H9S 2947   5.465   2.684   5.958  1.2002  0.0977  1.2153
    1PA     C18 2948   5.486   2.865   6.063  0.1378 -0.2463 -0.7167
    1PA     H8R 2949   5.594   2.855   6.076 -0.2493 -2.4368  1.0934
    1PA     H8S 2950   5.472   2.969   6.034 -0.9440  0.0277  0.7522
    1PA     C17 2951   5.409   2.843   6.194 -0.0565 -0.1464  0.0734
    1PA     H7R 2952   5.479   2.889   6.264 -1.0074  0.4243  0.6595
    1PA     H7S 2953   5.321   2.904   6.176  0.7756  1.0361 -0.0716
    1PA     C16 2954   5.363   2.698   6.224  0.0466  0.3240 -0.7616
    1PA     H6R 2955   5.274   2.677   6.165 -0.3195  1.2041 -0.5298
    1PA     H6S 2956   5.446   2.627   6.213  1.1294  1.3896  0.3580
    1PA     C15 2957   5.326   2.676   6.375 -0.3777  0.3513 -0.4914
    1PA     H5R 2958   5.400   2.725   6.439 -1.9184  0.4394  1.2803
    1PA     H5S 2959   5.237   2.732   6.406  0.4883  0.1243  2.6134
    1PA     C14 2960   5.304   2.527   6.426  0.1975 -0.1893 -0.0628
    1PA     H4R 2961   5.219   2.489   6.367  0.9748 -0.4335 -1.0404
    1PA     H4S 2962   5.381   2.451   6.412 -0.5170 -0.8980 -0.1842
    1PA     C13 2963   5.263   2.527   6.578  0.6262  0.1234  0.5773
    1PA     H3R 2964   5.337   2.579   6.639  2.3487 -0.0975 -1.2821
    1PA     H3S 2965   5.167   2.579   6.584 -0.2999 -1.1191 -2.4330
    1PA     C12 2966   5.246   2.385   6.644 -0.1026 -0.1561 -0.0539
    1PA     H2R 2967   5.158   2.337   6.601  0.1207  0.9992 -1.8204
    1PA     H2S 2968   5.338   2.329   6.623 -0.7180 -1.2766  0.1678
    1PC     C11 2969   5.236   2.395   6.793  0.2466  0.2168 -0.2527
    1PC     O12 2970   5.147   2.461   6.845  0.6884 -0.3324 -0.0970
    1PC     O11 2971   5.346   2.346   6.855  0.7775  0.7904  0.5682
    1PC      C1 2972   5.358   2.375   6.994 -0.6883 -0.3430 -0.4195
    1PC      HR 2973   5.259   2.385   7.040  0.0739  3.4211  0.5011
    1PC      HS 2974   5.408   2.289   7.039 -0.0781 -0.1675 -0.7583
    1PC      C2 2975   5.439   2.505   7.024  0.0736  0.3033 -0.7452
    1PC      HX 2976   5.546   2.482   7.017 -0.6962 -3.6064 -0.9669
    1PC      C3 2977   5.412   2.555   7.166 -0.1093  0.6272  0.8528
    1PC      HA 2978   5.416   2.467   7.230 -1.4418  0.8841  1.3038
    1PC      HB 2979   5.494   2.619   7.196  1.9142 -1.4330 -0.0979
    1PC     O31 2980   5.289   2.634   7.169  0.5129  0.0062 -0.6313
    1PC     P31 2981   5.210   2.654   7.310 -0.1351 -0.2681 -0.2054
    1PC     O32 2982   5.086   2.561   7.300  0.4921  0.6787 -0.6342
    1PC     C31 2983   5.074   2.435   7.365  0.0938  0.9551  0.4231
    1PC     H1A 2984   5.166   2.378   7.353  0.1813  0.5785  2.6311
    1PC     H1B 2985   5.045   2.457   7.469  0.8238  1.6454  0.4818
    1PC     C32 2986   4.968   2.347   7.279 -0.1033  0.4031 -0.0163
    1PC     H2A 2987   5.010   2.324   7.181 -1.1066 -0.4861 -0.2441
    1PC     H2B 2988   4.965   2.247   7.323 -3.4749 -0.0080 -1.0774
    1PC     N31 2989   4.819   2.384   7.271 -0.0823 -0.0386 -0.2611
    1PC     C33 2990   4.756   2.377   7.411  0.5835  0.7562  0.4273
    1PC     H3A 2991   4.814   2.450   7.467 -0.9006  2.2048  0.1023
    1PC     H3B 2992   4.647   2.386   7.416  0.5631  0.2329  1.1209
    1PC     H3C 2993   4.790   2.277   7.440 -0.0771  0.4335  0.1024
    1PC     C34 2994   4.805   2.515   7.209 -0.2115 -0.0833  0.3326
    1PC     H4A 2995   4.874   2.583   7.259 -0.5126  1.1875 -0.9413
    1PC     H4B 2996   4.844   2.522   7.107  1.4510 -1.4815  0.8479
    1PC     H4C 2997   4.705   2.557   7.217  0.5367  2.2645 -1.8978
    1PC     C35 2998   4.754   2.282   7.180 -0.1273 -0.2728  0.3560
    1PC     H5A 2999   4.750   2.187   7.233  0.9073 -0.4175  0.1945
    1PC     H5B 3000   4.807   2.278   7.084 -1.7706 -1.9743 -0.5161
    1PC     H5C 3001   4.651   2.313   7.165  0.3398  0.7175 -0.9141
    1PC     O33 3002   5.301   2.612   7.422 -0.4126  0.1035  0.2768
    1PC     O34 3003   5.174   2.797   7.305  0.5045  0.1959  0.0362
    1PC     O21 3004   5.393   2.600   6.924  0.6176 -0.1121 -0.4808
    1PC     C21 3005   5.467   2.713   6.901 -0.3874 -0.1720 -0.4445
    1PC     O22 3006   5.566   2.739   6.964  0.2422 -0.6206  0.4144
    1OL     C12 3007   5.409   2.817   6.810  0.3128 -0.4519 -0.0713
    1OL     H2R 3008   5.312   2.781   6.776 -0.8545  0.4679  2.2007
    1OL     H2S 3009   5.481   2.824   6.727  0.8431  0.8068  0.4774
    1OL     C13 3010   5.393   2.958   6.868  0.0814  0.0188  0.2347
    1OL     H3R 3011   5.474   2.982   6.938 -0.4413  0.9181  0.5346
    1OL     H3S 3012   5.306   2.945   6.933 -0.6723 -2.1088 -1.1488
    1OL     C14 3013   5.389   3.066   6.761 -0.4198 -0.2133  0.3475
    1OL     H4R 3014   5.485   3.059   6.708  0.3078 -0.1978  1.6472
    1OL     H4S 3015   5.368   3.162   6.809 -0.6347 -0.7641  1.3567
    1OL     C15 3016   5.277   3.042   6.651 -0.2566  0.1761  0.1929
    1OL     H5R 3017   5.300   2.959   6.584 -0.6996 -1.9718  2.6743
    1OL     H5S 3018   5.283   3.133   6.590  1.8053  0.8519  1.3664
    1OL     C16 3019   5.140   3.033   6.721 -0.8842  0.0315 -0.2611
    1OL     H6R 3020   5.114   3.129   6.768  0.8058  0.5258 -0.3054
    1OL     H6S 3021   5.149   2.957   6.799 -4.3627 -0.3238 -0.1413
    1OL     C17 3022   5.037   2.978   6.624  1.0362  0.0573  0.3663
    1OL     H7R 3023   4.953   2.928   6.673  1.7209  0.6819  2.2305
    1OL     H7S 3024   5.085   2.895   6.572  1.6877  0.2613  0.6357
    1OL     C18 3025   4.997   3.081   6.511  1.0488  0.6131  0.2094
    1OL     H8R 3026   4.941   3.023   6.437  1.9719  0.6969 -0.5609
    1OL     H8S 3027   5.089   3.128   6.476  1.6809 -0.5848  0.2392
    1OL     C19 3028   4.899   3.190   6.557 -0.0613  0.8279 -0.1730
    1OL     H9R 3029   4.900   3.213   6.663 -2.0537 -1.8862  0.4946
    1OL    C110 3030   4.824   3.260   6.473 -0.0592  0.8732  0.4850
    1OL    H10R 3031   4.765   3.336   6.524 -0.4534 -0.5619  2.1980
    1OL    C111 3032   4.818   3.244   6.321  0.2664  0.1327  0.0715
    1OL    H11R 3033   4.879   3.164   6.278 -1.3914 -0.7707 -0.6528
    1OL    H11S 3034   4.842   3.336   6.269 -2.5645  0.4157 -0.8195
    1OL    C112 3035   4.667   3.218   6.297  1.1772 -0.0986 -0.3881
    1OL    H12R 3036   4.605   3.304   6.323 -0.4800 -0.8668 -1.6587
    1OL    H12S 3037   4.634   3.133   6.358 -1.3712  1.0311 -0.1255
    1OL    C113 3038   4.631   3.168   6.159  0.0881 -0.1493 -0.2390
    1OL    H13R 3039   4.690   3.077   6.144  0.1201 -0.4720  1.7217
    1OL    H13S 3040   4.663   3.247   6.090 -2.2569  2.0473  1.1229
    1OL    C114 3041   4.487   3.130   6.134  0.7305  0.5505 -0.9395
    1OL    H14R 3042   4.426   3.217   6.159  0.6192  0.0431  0.6153
    1OL    H14S 3043   4.455   3.056   6.208 -0.9825  2.1646 -0.0263
    1OL    C115 3044   4.451   3.089   5.996 -0.5819 -0.3626 -0.5386
    1OL    H15R 3045   4.529   3.026   5.951 -0.6057 -1.9449  1.5643
    1OL    H15S 3046   4.446   3.175   5.929  0.4532  0.7092  0.7384
    1OL    C116 3047   4.305   3.031   5.989  0.3646  0.4249 -0.2815
    1OL    H16R 3048   4.231   3.103   6.024 -0.9922  0.2295 -2.6659
    1OL    H16S 3049   4.309   2.952   6.064  1.3352 -0.6703 -1.4527
    1OL    C117 3050   4.265   2.969   5.853  0.1330 -0.0471 -0.2318
    1OL    H17R 3051   4.167   2.924   5.865 -0.0132  0.4389  0.4710
    1OL    H17S 3052   4.342   2.898   5.822  1.3692 -0.4415  3.4234
    1OL    C118 3053   4.252   3.084   5.747  0.5161  0.1320  0.1960
    1OL    H18R 3054   4.225   3.044   5.649  0.4630 -0.2613  0.3712
    1OL    H18S 3055   4.352   3.128   5.743  1.8447 -2.7281  1.0568
    1OL    H18T 3056   4.183   3.164   5.775 -0.3067 -0.3335 -0.4584
    1PA    C116 3057   4.555   1.211   5.242  0.2820  0.0326 -0.3426
    1PA    H16R 3058   4.567   1.173   5.140 -0.1635 -0.6421 -0.1466
    1PA    H16S 3059   4.556   1.319   5.230 -1.1896  0.5070  3.4251
    1PA    H16T 3060   4.464   1.171   5.285 -0.0837  0.9432 -0.2705
    1PA    C115 3061   4.684   1.164   5.312  0.7303 -0.4850 -0.2775
    1PA    H15R 3062   4.690   1.055   5.317 -0.1249 -0.5054  0.4748
    1PA    H15S 3063   4.766   1.206   5.254  0.0129  1.5180  0.1207
    1PA    C114 3064   4.703   1.209   5.458 -0.0809  0.2251 -0.0403
    1PA    H14R 3065   4.701   1.319   5.461  3.9897  0.3448  2.7560
    1PA    H14S 3066   4.611   1.186   5.511  0.1607  1.7772  1.1144
    1PA    C113 3067   4.834   1.164   5.517  0.0990 -0.4473 -0.5425
    1PA    H13R 3068   4.842   1.056   5.521  0.2795 -0.4471 -0.9008
    1PA    H13S 3069   4.916   1.194   5.452  2.3979 -4.7851  0.2279
    1PA    C112 3070   4.847   1.226   5.662  0.4217 -0.8893  0.5065
    1PA    H12R 3071   4.866   1.333   5.657 -0.7658 -0.6511  0.9970
    1PA    H12S 3072   4.751   1.201   5.707  0.1027 -1.3999 -0.4544
    1PA    C111 3073   4.953   1.149   5.740 -0.3062 -0.1214 -0.1900
    1PA    H11R 3074   4.924   1.044   5.739 -1.6613  0.2384  0.3372
    1PA    H11S 3075   5.049   1.153   5.688  0.2633  0.5321  0.8739
    1PA    C110 3076   4.977   1.210   5.875  0.2785 -0.1576 -0.0529
    1PA    H10R 3077   5.032   1.304   5.868  1.2011 -0.4663  2.5769
    1PA    H10S 3078   4.876   1.227   5.913  0.7483  1.3384  0.5771
    1PA     C19 3079   5.057   1.114   5.967 -0.3069  0.1177  0.5960
    1PA     H9R 3080   5.147   1.070   5.924  0.0793  0.4549  1.0608
    1PA     H9S 3081   5.096   1.172   6.051 -1.2658  1.4563  0.1511
    1PA     C18 3082   4.972   0.995   6.023 -0.1350 -0.0282  0.5240
    1PA     H8R 3083   4.881   1.038   6.066  0.1959 -0.3378  1.5406
    1PA     H8S 3084   4.952   0.927   5.939  0.1763 -0.8500  1.1066
    1PA     C17 3085   5.055   0.926   6.138  0.6684  0.2324  0.3476
    1PA     H7R 3086   5.148   0.896   6.089  1.2061  1.9076  0.3197
    1PA     H7S 3087   5.087   0.995   6.217  1.2682 -1.0597  1.2472
    1PA     C16 3088   4.995   0.787   6.177  0.9360  0.1133 -0.8039
    1PA     H6R 3089   4.908   0.800   6.242  2.9753 -1.9460  2.5190
    1PA     H6S 3090   4.959   0.730   6.091 -3.4222  0.5357  0.6239
    1PA     C15 3091   5.094   0.685   6.236 -0.5050  0.6742  0.1603
    1PA     H5R 3092   5.039   0.596   6.265  0.4715 -0.7091 -2.1485
    1PA     H5S 3093   5.159   0.644   6.159  0.5173 -1.3102  2.0097
    1PA     C14 3094   5.185   0.737   6.342  0.5184  0.1424  0.3747
    1PA     H4R 3095   5.274   0.674   6.344 -0.9473 -2.0224 -0.1073
    1PA     H4S 3096   5.215   0.840   6.326  1.6996 -0.0398  1.3917
    1PA     C13 3097   5.107   0.734   6.475  0.4166 -0.3401  0.1744
    1PA     H3R 3098   5.012   0.787   6.467  1.1770  1.2496  1.4124
    1PA     H3S 3099   5.077   0.630   6.492 -0.5904  0.0193  0.6636
    1PA     C12 3100   5.189   0.784   6.591  0.2215  0.3318  0.3192
    1PA     H2R 3101   5.278   0.722   6.591 -0.1580 -0.2330 -1.2366
    1PA     H2S 3102   5.218   0.889   6.585 -1.6083  0.9323  1.4134
    1PC     C11 3103   5.125   0.768   6.728 -0.0625 -0.2903 -0.4781
    1PC     O12 3104   5.176   0.697   6.812 -0.2278  0.2885 -0.2867
    1PC     O11 3105   5.006   0.834   6.749  0.1121  0.3161  0.2533
    1PC      C1 3106   4.951   0.821   6.887  0.0523 -0.1074 -0.5063
    1PC      HR 3107   4.843   0.825   6.896 -0.0556 -1.7901 -0.8975
    1PC      HS 3108   4.965   0.721   6.928 -1.5596  0.3753  1.2568
    1PC      C2 3109   5.012   0.935   6.977  0.1888 -0.1095  0.3137
    1PC      HX 3110   5.121   0.926   6.971  0.0674 -2.6211  1.1520
    1PC      C3 3111   4.958   0.924   7.117 -0.2229  0.3093  0.1760
    1PC      HA 3112   4.983   0.828   7.162 -3.2067 -0.9276 -0.6666
    1PC      HB 3113   4.993   1.013   7.171 -0.8773  1.6574 -1.5819
    1PC     O31 3114   4.816   0.913   7.112  0.0135 -0.3568 -0.3229
    1PC     P31 3115   4.725   0.985   7.215 -0.2660  0.3022 -0.1231
    1PC     O32 3116   4.711   1.129   7.152 -0.1198  0.4866  0.0116
    1PC     C31 3117   4.652   1.142   7.018  0.4196 -0.3104 -0.7018
    1PC     H1A 3118   4.718   1.098   6.944 -0.0996 -0.7406 -0.9129
    1PC     H1B 3119   4.553   1.098   7.005 -0.6146  2.1501 -1.3946
    1PC     C32 3120   4.647   1.296   6.980 -0.4651  0.7556  0.3090
    1PC     H2A 3121   4.749   1.331   6.994  0.0800  0.1115 -1.9093
    1PC     H2B 3122   4.633   1.297   6.872  0.9084  1.2838  0.1302
    1PC     N31 3123   4.553   1.392   7.051  0.0842  0.5399  0.4767
    1PC     C33 3124   4.415   1.337   7.043  0.2440 -0.3789  0.7281
    1PC     H3A 3125   4.411   1.239   7.090 -2.0899 -0.1773  1.0366
    1PC     H3B 3126   4.345   1.402   7.096  1.4542  0.2867  1.5147
    1PC     H3C 3127   4.383   1.344   6.939 -0.1763 -0.2749  0.8627
    1PC     C34 3128   4.586   1.402   7.196 -0.3809  0.5257 -0.1369
    1PC     H4A 3129   4.689   1.438   7.200  0.0434 -0.8400  1.2666
    1PC     H4B 3130   4.512   1.471   7.236  1.8196  1.9861  1.5700
    1PC     H4C 3131   4.583   1.301   7.236  0.3789  0.9699  1.0619
    1PC     C35 3132   4.554   1.520   6.984  0.3364  0.4923 -0.0955
    1PC     H5A 3133   4.558   1.507   6.876 -1.8832 -1.3368  0.0192
    1PC     H5B 3134   4.651   1.563   7.013 -0.1859  1.4955  0.2049
    1PC     H5C 3135   4.472   1.587   7.013  2.5210  3.5053 -0.6000
    1PC     O33 3136   4.594   0.917   7.211 -0.6767  0.0001 -0.4278
    1PC     O34 3137   4.790   0.998   7.347  0.0479  0.4854 -0.0374
    1PC     O21 3138   4.978   1.064   6.921 -0.4909 -0.1920 -0.1853
    1PC     C21 3139   5.063   1.168   6.937 -0.5531  0.3847 -0.1802
    1PC     O22 3140   5.162   1.167   7.011  0.3870  0.2740  0.3337
    1OL     C12 3141   5.026   1.293   6.861 -0.5909  0.1348 -0.2874
    1OL     H2R 3142   5.050   1.376   6.927 -1.9018  1.6961 -1.7193
    1OL     H2S 3143   4.918   1.301   6.845 -0.6483  0.7742  0.3985
    1OL     C13 3144   5.106   1.289   6.727 -0.2587 -0.4463 -0.9101
    1OL     H3R 3145   5.205   1.247   6.744 -0.0237  1.0973  1.7051
    1OL     H3S 3146   5.122   1.391   6.689  0.8764  0.9238  3.0098
    1OL     C14 3147   5.031   1.212   6.612  0.2985  0.0782 -0.3104
    1OL     H4R 3148   4.938   1.255   6.576  1.5152  1.0951 -2.3096
    1OL     H4S 3149   5.008   1.109   6.640 -4.9233  0.8866 -1.2405
    1OL     C15 3150   5.115   1.198   6.486  0.6096  0.2956  0.4461
    1OL     H5R 3151   5.065   1.135   6.411  0.9929  0.0412  0.4050
    1OL     H5S 3152   5.205   1.143   6.513  1.5335  1.1100 -0.8946
    1OL     C16 3153   5.164   1.330   6.422 -0.1772 -0.4664 -0.1080
    1OL     H6R 3154   5.219   1.320   6.328 -0.6025 -0.3029 -0.3778
    1OL     H6S 3155   5.233   1.376   6.491 -0.3573  1.2351 -1.0360
    1OL     C17 3156   5.043   1.429   6.384 -0.3392  0.6204 -0.2289
    1OL     H7R 3157   4.990   1.449   6.477 -0.4743 -0.6938 -0.0103
    1OL     H7S 3158   4.981   1.371   6.314  0.6975 -0.6168 -0.1424
    1OL     C18 3159   5.084   1.559   6.308  0.4588  0.0124 -0.2258
    1OL     H8R 3160   5.149   1.533   6.225 -0.8431 -2.0746 -0.6326
    1OL     H8S 3161   5.150   1.614   6.375  0.0974  1.6074 -1.1709
    1OL     C19 3162   4.969   1.655   6.291 -0.0730 -0.1290  0.4850
    1OL     H9R 3163   4.900   1.663   6.374  0.5327  0.9182  0.9016
    1OL    C110 3164   4.944   1.735   6.186  0.7858 -0.5034  0.7921
    1OL    H10R 3165   4.853   1.795   6.186  0.9926 -0.1834  1.4527
    1OL    C111 3166   5.024   1.758   6.063 -0.5255  0.0659 -0.0430
    1OL    H11R 3167   5.130   1.753   6.091 -0.8283 -1.1698  0.9293
    1OL    H11S 3168   5.005   1.860   6.028  0.4943 -0.7844 -3.1928
    1OL    C112 3169   4.998   1.657   5.948 -0.1745  0.5713  0.4439
    1OL    H12R 3170   4.892   1.629   5.951 -0.7292  2.1690 -2.5979
    1OL    H12S 3171   5.048   1.564   5.977 -1.5927 -1.5645 -3.5484
    1OL    C113 3172   5.033   1.703   5.807  0.6866 -0.2132 -0.8387
    1OL    H13R 3173   5.140   1.723   5.813  0.8257 -1.4520  1.1399
    1OL    H13S 3174   4.976   1.792   5.777 -1.5794 -1.7654 -1.2440
    1OL    C114 3175   4.997   1.594   5.716 -0.7510 -0.5256  0.0189
    1OL    H14R 3176   4.889   1.585   5.701 -0.5864 -1.5207 -0.6510
    1OL    H14S 3177   5.032   1.501   5.760  0.8479 -1.0082 -2.1532
    1OL    C115 3178   5.055   1.624   5.574 -0.5360 -0.4694 -0.6762
    1OL    H15R 3179   5.164   1.634   5.577 -0.3478 -2.0136 -1.7479
    1OL    H15S 3180   5.030   1.729   5.558 -0.4481 -0.0655  1.6418
    1OL    C116 3181   5.007   1.523   5.473  0.1604  0.0342 -0.6490
    1OL    H16R 3182   4.900   1.545   5.479  0.0504 -1.2599  3.2250
    1OL    H16S 3183   5.029   1.421   5.506 -0.3087 -0.2965 -1.3280
    1OL    C117 3184   5.066   1.550   5.333 -0.5426  0.1074  0.6233
    1OL    H17R 3185   5.174   1.554   5.343 -0.5132  0.3911  0.2010
    1OL    H17S 3186   5.032   1.649   5.303  0.8523  0.3711 -0.0963
    1OL    C118 3187   5.019   1.448   5.231 -0.4590 -0.8220 -0.0822
    1OL    H18R 3188   4.915   1.457   5.199  0.2582  3.0026 -1.5675
    1OL    H18S 3189   5.025   1.346   5.269 -2.4769 -0.2628  1.8207
    1OL    H18T 3190   5.071   1.466   5.136  0.3755 -0.0705  0.5079
    1PA    C116 3191   4.197   1.022   5.658 -0.3613 -0.3333  0.6082
    1PA    H16R 3192   4.239   0.966   5.742  0.4094 -0.4394  0.1556
    1PA    H16S 3193   4.143   0.952   5.593 -1.6169  1.1328  0.0527
    1PA    H16T 3194   4.128   1.093   5.704 -1.0436 -0.2718 -0.4896
    1PA    C115 3195   4.327   1.102   5.599 -0.3418  0.4839  0.3099
    1PA    H15R 3196   4.394   1.025   5.559 -1.7129  0.4206 -1.9052
    1PA    H15S 3197   4.294   1.176   5.526  0.7860  0.3168 -0.3825
    1PA    C114 3198   4.397   1.176   5.709 -0.5006 -0.1506  0.1173
    1PA    H14R 3199   4.392   1.116   5.800 -0.8219  0.1138  0.2780
    1PA    H14S 3200   4.501   1.191   5.681 -0.7582 -3.0538 -2.6308
    1PA    C113 3201   4.336   1.313   5.744 -0.2294 -0.0735 -0.4802
    1PA    H13R 3202   4.344   1.382   5.660  0.8437 -0.6731 -0.8843
    1PA    H13S 3203   4.229   1.306   5.761  0.0793 -0.0663  1.4883
    1PA    C112 3204   4.405   1.377   5.871  0.6146 -0.0746  0.2084
    1PA    H12R 3205   4.356   1.474   5.887 -0.2711 -0.4101 -0.4826
    1PA    H12S 3206   4.387   1.316   5.960 -0.2151 -0.7275 -0.4069
    1PA    C111 3207   4.559   1.399   5.845 -0.2794  0.9249 -0.0840
    1PA    H11R 3208   4.605   1.301   5.860  2.1060  2.3304  2.2562
    1PA    H11S 3209   4.582   1.433   5.744 -0.4918  0.3634 -0.3204
    1PA    C110 3210   4.610   1.512   5.942  0.5108 -0.6385 -0.7322
    1PA    H10R 3211   4.710   1.539   5.910  1.0099  0.1302  1.3753
    1PA    H10S 3212   4.547   1.600   5.929  0.7053 -0.7488 -2.4930
    1PA     C19 3213   4.615   1.465   6.091 -0.1198 -0.1165  0.3860
    1PA     H9R 3214   4.646   1.543   6.160 -1.0494  1.4518 -0.9144
    1PA     H9S 3215   4.511   1.452   6.121  0.3138 -0.6834  1.6534
    1PA     C18 3216   4.688   1.332   6.124  0.2848 -0.5379  0.4758
    1PA     H8R 3217   4.635   1.255   6.068  1.0003 -1.7562  1.4556
    1PA     H8S 3218   4.790   1.322   6.085  0.1456 -1.5284  0.3623
    1PA     C17 3219   4.684   1.293   6.274 -0.3930 -0.9213 -0.8569
    1PA     H7R 3220   4.728   1.375   6.331  1.0374 -3.7317  2.2787
    1PA     H7S 3221   4.578   1.289   6.296 -0.6463 -0.5637 -1.9860
    1PA     C16 3222   4.743   1.161   6.310  0.6920  0.6423 -0.3341
    1PA     H6R 3223   4.708   1.089   6.236 -0.2905 -0.8104  1.5169
    1PA     H6S 3224   4.852   1.159   6.306  0.7152 -0.4787  0.7565
    1PA     C15 3225   4.694   1.107   6.445 -0.3824  0.5594  0.4753
    1PA     H5R 3226   4.707   1.174   6.530  0.1695  0.0643  0.7887
    1PA     H5S 3227   4.586   1.095   6.438 -0.1989 -1.1983  0.4537
    1PA     C14 3228   4.761   0.974   6.475 -0.3163  0.2594  0.5870
    1PA     H4R 3229   4.752   0.900   6.396 -1.3508 -1.4883  2.2763
    1PA     H4S 3230   4.867   0.996   6.489  0.0630 -0.2419 -1.4593
    1PA     C13 3231   4.717   0.916   6.613 -0.0058  0.3489  0.7253
    1PA     H3R 3232   4.778   0.832   6.645  1.0300  1.1803  0.9741
    1PA     H3S 3233   4.748   0.986   6.691 -0.4287  1.6542 -0.2514
    1PA     C12 3234   4.565   0.890   6.623  0.0077 -0.4306 -0.5139
    1PA     H2R 3235   4.497   0.971   6.597  2.0260  1.5059  0.1529
    1PA     H2S 3236   4.548   0.810   6.551 -1.4079 -0.8124  0.2057
    1PC     C11 3237   4.509   0.843   6.758 -0.2731  0.5874  0.0599
    1PC     O12 3238   4.574   0.831   6.861 -0.6266  0.0352  0.9752
    1PC     O11 3239   4.379   0.800   6.743 -0.0867 -0.5606  0.2802
    1PC      C1 3240   4.315   0.751   6.855  0.1867  0.7343  0.6222
    1PC      HR 3241   4.222   0.708   6.818  0.1157  0.6862  0.8538
    1PC      HS 3242   4.365   0.665   6.901  3.0713  2.1729  0.3551
    1PC      C2 3243   4.292   0.854   6.969  0.2088  0.3159 -0.2954
    1PC      HX 3244   4.386   0.894   7.007 -1.3781  3.6655  0.3384
    1PC      C3 3245   4.215   0.793   7.095  0.1194  0.4428 -0.4137
    1PC      HA 3246   4.296   0.738   7.142 -1.1978 -0.7169  0.5106
    1PC      HB 3247   4.172   0.870   7.160 -1.4699  2.1314 -3.3252
    1PC     O31 3248   4.103   0.704   7.047 -1.4564  0.5729  0.1951
    1PC     P31 3249   4.056   0.585   7.138 -0.1922 -0.4523 -0.2802
    1PC     O32 3250   4.164   0.474   7.110  0.3658  0.2023  0.2293
    1PC     C31 3251   4.174   0.404   6.984  0.2310 -1.1676 -0.0977
    1PC     H1A 3252   4.079   0.355   6.963 -0.3721 -0.2825  0.5192
    1PC     H1B 3253   4.186   0.478   6.904  1.0749 -0.0963  1.0025
    1PC     C32 3254   4.283   0.293   6.979  0.3610 -0.1592 -0.2784
    1PC     H2A 3255   4.285   0.236   6.886 -2.7818 -1.4150  0.3756
    1PC     H2B 3256   4.378   0.345   6.991  0.1684  0.7709 -2.5787
    1PC     N31 3257   4.282   0.185   7.086 -0.1909  0.2133 -0.2853
    1PC     C33 3258   4.303   0.245   7.227  0.2388 -0.4789  0.1849
    1PC     H3A 3259   4.339   0.169   7.297  0.7628  0.1031  0.5486
    1PC     H3B 3260   4.373   0.328   7.219 -1.7577  0.9596 -3.8467
    1PC     H3C 3261   4.211   0.287   7.269  1.2872  1.6592  0.4088
    1PC     C34 3262   4.166   0.101   7.089  0.2459 -0.5192  0.5420
    1PC     H4A 3263   4.162   0.034   7.003 -0.9905 -1.2141  1.1311
    1PC     H4B 3264   4.169   0.049   7.185  0.9832 -2.2297 -0.3930
    1PC     H4C 3265   4.085   0.174   7.085  0.0477 -0.7142  1.0052
    1PC     C35 3266   4.399   0.105   7.057  0.0818  0.7433 -0.0433
    1PC     H5A 3267   4.388   0.069   6.954  2.0078  0.8430 -0.3033
    1PC     H5B 3268   4.396   0.022   7.127  1.7056  0.1834 -0.6140
    1PC     H5C 3269   4.489   0.166   7.064  0.4357  0.1195  0.8824
    1PC     O33 3270   4.060   0.638   7.280  0.2319 -0.4756  0.0750
    1PC     O34 3271   3.934   0.527   7.086  1.0463 -0.0561  0.0804
    1PC     O21 3272   4.206   0.967   6.915  0.1443 -0.1790 -0.0893
    1PC     C21 3273   4.257   1.078   6.858 -0.0790 -0.0010 -0.3415
    1PC     O22 3274   4.376   1.100   6.849 -0.3218 -0.4277  0.6009
    1OL     C12 3275   4.156   1.166   6.789  0.6165  0.4798  0.6349
    1OL     H2R 3276   4.209   1.255   6.754  0.4622 -0.1409 -1.1895
    1OL     H2S 3277   4.094   1.207   6.869 -0.9054 -1.2946  0.3853
    1OL     C13 3278   4.086   1.086   6.680 -0.2097 -0.4855  0.0779
    1OL     H3R 3279   3.982   1.119   6.675 -0.8736 -2.5855 -0.1617
    1OL     H3S 3280   4.087   0.981   6.708  1.0796 -0.1162  1.4683
    1OL     C14 3281   4.165   1.104   6.546 -1.2205  0.0185  0.5519
    1OL     H4R 3282   4.262   1.058   6.568 -2.1604 -0.5943  3.6546
    1OL     H4S 3283   4.173   1.209   6.519  2.2574 -0.6708 -1.4819
    1OL     C15 3284   4.103   1.011   6.435 -0.1602 -0.0825 -0.1095
    1OL     H5R 3285   3.995   1.016   6.445 -0.2465 -0.3239 -0.9190
    1OL     H5S 3286   4.123   0.906   6.457  0.8330 -0.5210 -2.8417
    1OL     C16 3287   4.121   1.045   6.286  0.7250  0.7483 -0.0756
    1OL     H6R 3288   4.078   1.143   6.269 -0.5873  0.0095 -1.1164
    1OL     H6S 3289   4.056   0.979   6.228  0.4505  0.3965  0.6274
    1OL     C17 3290   4.265   1.044   6.252 -0.1824  0.6704  0.2778
    1OL     H7R 3291   4.317   1.106   6.325 -0.0952  1.0193 -0.0804
    1OL     H7S 3292   4.284   1.097   6.158  0.4949  0.3532  0.2282
    1OL     C18 3293   4.318   0.897   6.242 -0.9864 -0.2088 -0.7203
    1OL     H8R 3294   4.276   0.852   6.152 -0.1023 -2.0765 -0.2335
    1OL     H8S 3295   4.297   0.838   6.332  1.0769 -0.3454 -0.3141
    1OL     C19 3296   4.469   0.920   6.238  0.8106  0.1297 -0.4744
    1OL     H9R 3297   4.513   0.958   6.329 -0.5252 -1.3900  0.8324
    1OL    C110 3298   4.544   0.913   6.130  1.2582  0.1736 -1.3661
    1OL    H10R 3299   4.649   0.942   6.135  0.9136  1.0609  1.9435
    1OL    C111 3300   4.504   0.869   5.994  0.5610  0.7284  0.4280
    1OL    H11R 3301   4.436   0.947   5.957  1.4214  1.6500  0.7607
    1OL    H11S 3302   4.444   0.778   5.994  1.6040  0.0219 -0.1773
    1OL    C112 3303   4.630   0.843   5.907  0.5606 -0.9049 -0.4754
    1OL    H12R 3304   4.692   0.762   5.947  0.2657 -1.1987 -0.6114
    1OL    H12S 3305   4.691   0.934   5.913 -0.5074 -0.0015 -2.6644
    1OL    C113 3306   4.591   0.820   5.758  0.0451 -0.7539 -0.3548
    1OL    H13R 3307   4.503   0.881   5.736  0.0629 -1.4072 -2.3401
    1OL    H13S 3308   4.551   0.721   5.736  0.3280 -0.5330 -1.9740
    1OL    C114 3309   4.705   0.837   5.653  0.0776  0.2096  0.3890
    1OL    H14R 3310   4.734   0.942   5.651  0.3465  0.1254 -0.5372
    1OL    H14S 3311   4.665   0.803   5.557 -3.7569  0.3302  1.8680
    1OL    C115 3312   4.829   0.755   5.686  0.5830  0.5618 -0.6999
    1OL    H15R 3313   4.794   0.653   5.704  0.2263  0.7517 -0.2941
    1OL    H15S 3314   4.872   0.775   5.785  2.3971  0.4188 -1.4482
    1OL    C116 3315   4.932   0.753   5.578  0.3375  0.1821  0.7843
    1OL    H16R 3316   4.952   0.856   5.545  1.5618 -0.4554 -0.4933
    1OL    H16S 3317   4.886   0.705   5.491  3.7220  1.0510 -1.6079
    1OL    C117 3318   5.058   0.666   5.600  0.1120  0.5923 -0.2540
    1OL    H17R 3319   5.022   0.564   5.587 -0.6861  0.9212 -0.7015
    1OL    H17S 3320   5.098   0.676   5.701  1.1027  0.1474 -0.5955
    1OL    C118 3321   5.174   0.697   5.508 -0.1213  0.6579  0.2012
    1OL    H18R 3322   5.263   0.636   5.524  2.9415  4.6698 -0.6907
    1OL    H18S 3323   5.197   0.802   5.526 -1.6297  0.7914  1.4537
    1OL    H18T 3324   5.139   0.687   5.405 -0.9305  0.4573  0.4946
    1PA    C116 3325   4.399   3.884   5.264 -0.0593 -0.5281 -0.6553
    1PA    H16R 3326   4.457   3.890   5.172  1.3659 -2.3942  0.0915
    1PA    H16S 3327   4.327   3.966   5.255  2.2704  1.6889  0.4906
    1PA    H16T 3328   4.348   3.790   5.241 -0.5487  0.2701 -3.0285
    1PA    C115 3329   4.492   3.897   5.385 -0.1898  0.7883  0.0320
    1PA    H15R 3330   4.442   3.892   5.482 -1.0452 -1.9572 -0.5014
    1PA    H15S 3331   4.565   3.816   5.383 -0.6099  0.3814  0.9285
    1PA    C114 3332   4.577   4.021   5.391  0.1686  0.4947 -0.7242
    1PA    H14R 3333   4.619   4.049   5.294 -0.9051  0.5115 -1.1931
    1PA    H14S 3334   4.517   4.109   5.413  0.4207  0.5926 -0.4279
    1PA    C113 3335   4.694   3.989   5.489  0.4124 -0.0240  0.3856
    1PA    H13R 3336   4.747   3.900   5.453 -0.9321 -0.4738 -0.5258
    1PA    H13S 3337   4.756   4.077   5.472 -0.6723  0.8585  0.9878
    1PA    C112 3338   4.655   3.964   5.631 -0.2897 -0.7126  0.2929
    1PA    H12R 3339   4.582   4.041   5.653  0.7022  0.0909  0.8101
    1PA    H12S 3340   4.599   3.871   5.644  0.6281 -1.7648 -2.7078
    1PA    C111 3341   4.782   3.965   5.727  0.3329  0.2154  0.5268
    1PA    H11R 3342   4.844   3.876   5.713  1.5524  1.0910  0.2529
    1PA    H11S 3343   4.836   4.058   5.710  1.0521 -0.1338  0.8844
    1PA    C110 3344   4.726   3.966   5.871 -0.6592  0.3793 -0.0466
    1PA    H10R 3345   4.642   4.031   5.896 -1.5418 -0.7570 -0.0220
    1PA    H10S 3346   4.689   3.865   5.893 -0.5678  0.4899  0.6461
    1PA     C19 3347   4.842   3.990   5.970  0.1578  0.4782 -0.3503
    1PA     H9R 3348   4.902   3.899   5.958 -0.5428 -0.0714  0.2383
    1PA     H9S 3349   4.891   4.084   5.943  0.0335  1.3637  2.3597
    1PA     C18 3350   4.795   3.981   6.116  0.4381 -0.3149 -0.5288
    1PA     H8R 3351   4.704   4.042   6.124 -0.3278 -1.2423 -1.9845
    1PA     H8S 3352   4.758   3.880   6.132  0.4443 -0.6136 -2.3346
    1PA     C17 3353   4.919   4.014   6.211  0.1998  0.5131 -0.4585
    1PA     H7R 3354   5.001   3.958   6.165 -0.7507 -0.5883 -0.8334
    1PA     H7S 3355   4.946   4.120   6.213  0.6865  0.3788  0.1997
    1PA     C16 3356   4.905   3.969   6.358  0.4035  0.6615 -0.1516
    1PA     H6R 3357   4.828   4.027   6.409 -1.7982 -2.4257  0.1526
    1PA     H6S 3358   4.870   3.866   6.356 -0.6581  0.9556  1.9432
    1PA     C15 3359   5.039   3.988   6.436  0.1271  0.3824 -0.2015
    1PA     H5R 3360   5.116   3.924   6.391  0.3873  1.9063 -1.9991
    1PA     H5S 3361   5.076   4.091   6.438  1.5861 -0.1010 -1.1455
    1PA     C14 3362   5.027   3.931   6.580 -0.6413 -0.1560  0.2046
    1PA     H4R 3363   5.001   3.825   6.573 -1.5026 -0.0052  1.0514
    1PA     H4S 3364   5.118   3.940   6.640 -2.0460 -2.2580  2.7646
    1PA     C13 3365   4.911   3.997   6.663 -0.2977  0.1563 -0.2892
    1PA     H3R 3366   4.825   3.936   6.635  1.2549 -2.1225 -0.1777
    1PA     H3S 3367   4.927   3.977   6.769 -0.1050 -0.9289 -0.5172
    1PA     C12 3368   4.882   4.146   6.644  0.1942  0.0568  0.1911
    1PA     H2R 3369   4.972   4.199   6.678 -0.1970 -0.1981  1.6347
    1PA     H2S 3370   4.868   4.176   6.540  1.1412 -0.0976  0.0099
    1PC     C11 3371   4.762   4.209   6.712  0.2199 -0.5355 -0.0099
    1PC     O12 3372   4.693   4.146   6.792 -0.8255  0.0151 -0.1942
    1PC     O11 3373   4.736   4.336   6.678 -0.0075 -0.0937 -0.0307
    1PC      C1 3374   4.626   4.408   6.756  0.2089  0.2553  0.1678
    1PC      HR 3375   4.571   4.483   6.699 -1.5454 -0.9085  0.2843
    1PC      HS 3376   4.547   4.338   6.782  0.0741  0.1214 -0.5783
    1PC      C2 3377   4.675   4.468   6.890  0.4771  0.4676 -0.0305
    1PC      HX 3378   4.708   4.393   6.962 -2.0217  0.0688  0.7552
    1PC      C3 3379   4.575   4.571   6.941  0.1633 -0.6473  0.7948
    1PC      HA 3380   4.571   4.662   6.881  0.2320  0.6065  2.6462
    1PC      HB 3381   4.475   4.528   6.947 -0.2524  0.2745  0.4248
    1PC     O31 3382   4.599   4.620   7.075 -0.7350  0.5279 -0.3554
    1PC     P31 3383   4.582   4.533   7.205 -0.2325  0.0648  0.6217
    1PC     O32 3384   4.707   4.438   7.196 -0.4622  0.0728 -0.0128
    1PC     C31 3385   4.840   4.490   7.207  0.3179  0.1609  0.7552
    1PC     H1A 3386   4.891   4.422   7.138 -1.4602 -1.8031  1.3404
    1PC     H1B 3387   4.845   4.594   7.174  0.5772  0.4859  1.8027
    1PC     C32 3388   4.870   4.466   7.356 -0.0261  0.3744  0.3021
    1PC     H2A 3389   4.966   4.519   7.363 -1.3043  2.8132 -0.3171
    1PC     H2B 3390   4.796   4.502   7.427  1.7579  1.9056  1.4398
    1PC     N31 3391   4.901   4.325   7.401  0.0453  0.3599  0.1412
    1PC     C33 3392   5.001   4.257   7.314  0.3492 -0.1010  0.7934
    1PC     H3A 3393   5.053   4.175   7.365 -1.1983 -0.6895  1.4722
    1PC     H3B 3394   4.958   4.213   7.224  4.7390 -2.1431 -0.4838
    1PC     H3C 3395   5.075   4.331   7.284  0.0004  0.0354  0.2593
    1PC     C34 3396   4.938   4.326   7.548  0.1094 -0.0366  0.3158
    1PC     H4A 3397   4.850   4.348   7.609  1.4589 -2.4828  3.2646
    1PC     H4B 3398   4.969   4.226   7.579 -1.2433 -1.1327 -1.7509
    1PC     H4C 3399   5.023   4.393   7.558  0.7803 -0.6805 -1.0181
    1PC     C35 3400   4.776   4.250   7.394  0.3700 -0.7006 -0.6984
    1PC     H5A 3401   4.794   4.150   7.434 -2.1915 -0.7042  0.5840
    1PC     H5B 3402   4.744   4.229   7.292 -1.5073 -0.2849 -0.2206
    1PC     H5C 3403   4.691   4.287   7.452  2.0622 -1.8990  2.6867
    1PC     O33 3404   4.604   4.621   7.319 -0.5182 -0.0233 -0.2592
    1PC     O34 3405   4.457   4.457   7.186  0.1398  0.1360  0.3696
    1PC     O21 3406   4.789   4.543   6.866  0.1719 -0.5234 -0.4968
    1PC     C21 3407   4.908   4.488   6.846 -0.3438 -0.3437  0.0718
    1PC     O22 3408   4.935   4.372   6.869 -0.5292  0.2598  0.5025
    1OL     C12 3409   5.008   4.584   6.783  0.0292 -0.2259  0.2183
    1OL     H2R 3410   5.107   4.544   6.805  0.0014 -0.0759  0.6274
    1OL     H2S 3411   4.999   4.682   6.830 -2.7198 -1.4623  2.3663
    1OL     C13 3412   4.989   4.591   6.628 -0.4538 -0.0673  0.2366
    1OL     H3R 3413   4.893   4.638   6.608 -0.3379  0.2976  0.5284
    1OL     H3S 3414   4.992   4.491   6.586  2.9490  0.1582 -0.2140
    1OL     C14 3415   5.097   4.675   6.559 -0.7216  0.4106 -0.2336
    1OL     H4R 3416   5.197   4.649   6.596 -0.5041  2.8986  1.0578
    1OL     H4S 3417   5.092   4.782   6.581  2.0408  0.7364 -1.0045
    1OL     C15 3418   5.072   4.659   6.405  0.1860 -0.7438 -0.1546
    1OL     H5R 3419   4.965   4.665   6.386 -0.1764  0.4361  2.0610
    1OL     H5S 3420   5.116   4.565   6.372  1.7783 -0.4849  1.1741
    1OL     C16 3421   5.134   4.766   6.312 -0.0517  0.4328 -0.3040
    1OL     H6R 3422   5.240   4.744   6.303 -0.4223 -0.9526 -1.4812
    1OL     H6S 3423   5.127   4.863   6.361 -0.1864  0.5288 -0.5146
    1OL     C17 3424   5.074   4.781   6.175  0.5553  0.7784 -0.1896
    1OL     H7R 3425   4.967   4.788   6.194  0.1912  0.2684 -1.9320
    1OL     H7S 3426   5.099   4.686   6.126  3.0583  1.3720 -0.1423
    1OL     C18 3427   5.114   4.901   6.094  0.7679  0.3375 -0.1995
    1OL     H8R 3428   5.085   4.982   6.160 -2.4785 -2.3012  1.7927
    1OL     H8S 3429   5.063   4.897   5.997 -0.3471 -1.1507  0.4175
    1OL     C19 3430   5.264   4.902   6.085  0.4770 -0.6656  0.1176
    1OL     H9R 3431   5.313   4.878   6.179 -2.0344 -4.6696  0.5395
    1OL    C110 3432   5.339   4.916   5.977 -0.1029 -0.5627  1.4311
    1OL    H10R 3433   5.446   4.921   5.995  0.4926 -2.3405 -1.3933
    1OL    C111 3434   5.293   4.947   5.842 -0.1341 -0.1549 -1.3200
    1OL    H11R 3435   5.184   4.941   5.836 -0.3004  0.7193  0.4586
    1OL    H11S 3436   5.331   4.877   5.767 -0.4405 -2.4477  0.6043
    1OL    C112 3437   5.333   5.089   5.808  0.2752 -0.2849 -0.5563
    1OL    H12R 3438   5.439   5.110   5.824  0.0545 -0.2097  0.8642
    1OL    H12S 3439   5.294   5.158   5.883 -0.1107  0.2062 -1.2009
    1OL    C113 3440   5.306   5.135   5.657 -0.6884  0.4964  0.0019
    1OL    H13R 3441   5.349   5.062   5.588  2.2891  2.2919 -0.1346
    1OL    H13S 3442   5.368   5.224   5.645 -0.0670  0.1411  0.5746
    1OL    C114 3443   5.160   5.164   5.623  0.5730  0.3465 -0.8707
    1OL    H14R 3444   5.110   5.226   5.698  0.9579  0.5932 -0.8156
    1OL    H14S 3445   5.118   5.064   5.633  1.0039  0.1215 -1.2951
    1OL    C115 3446   5.142   5.221   5.480 -0.7214 -0.4987 -0.2941
    1OL    H15R 3447   5.221   5.297   5.474  0.4323 -1.5464  1.2862
    1OL    H15S 3448   5.042   5.264   5.472 -0.7208 -0.3418  0.5555
    1OL    C116 3449   5.156   5.120   5.366  0.1013 -0.3285  0.1379
    1OL    H16R 3450   5.074   5.049   5.361 -1.7682  1.6784  1.2844
    1OL    H16S 3451   5.248   5.067   5.389  1.9113  2.9614  0.8852
    1OL    C117 3452   5.171   5.195   5.220 -0.4065 -0.2890 -0.3048
    1OL    H17R 3453   5.268   5.245   5.218 -1.5049  1.8224 -1.4460
    1OL    H17S 3454   5.100   5.278   5.214 -0.2206 -0.0161  0.9483
    1OL    C118 3455   5.162   5.093   5.104  0.7531  0.2374  0.1057
    1OL    H18R 3456   5.057   5.066   5.086 -0.0397  3.5117 -0.3745
    1OL    H18S 3457   5.230   5.007   5.112  0.3305 -0.2519 -1.4217
    1OL    H18T 3458   5.190   5.145   5.012 -1.1312 -2.7816 -2.3111
    1PA    C116 3459   2.091   5.411   5.421  0.5186 -0.0942  0.6488
    1PA    H16R 3460   2.111   5.408   5.314  2.2521 -2.1996  0.9979
    1PA    H16S 3461   2.166   5.476   5.467 -0.9405 -0.2210  3.3229
    1PA    H16T 3462   1.998   5.462   5.447  0.4595 -0.2502  0.7441
    1PA    C115 3463   2.108   5.274   5.486  0.2013  0.0446  0.0974
    1PA    H15R 3464   2.038   5.203   5.440 -0.0590 -0.4149  1.2011
    1PA    H15S 3465   2.206   5.228   5.468 -0.3689 -1.5592  0.9872
    1PA    C114 3466   2.086   5.267   5.639  0.8361  0.9393  0.0617
    1PA    H14R 3467   1.989   5.313   5.657 -1.5222 -3.5601 -0.3130
    1PA    H14S 3468   2.075   5.162   5.668  0.8307  0.2539 -2.3296
    1PA    C113 3469   2.189   5.328   5.733 -1.2024  0.6348 -0.3034
    1PA    H13R 3470   2.196   5.435   5.713  1.0751  1.0597  2.4550
    1PA    H13S 3471   2.154   5.325   5.836  1.2376 -1.9926  0.5130
    1PA    C112 3472   2.337   5.277   5.714 -1.6787 -0.2012  0.3269
    1PA    H12R 3473   2.343   5.168   5.715 -1.1055 -0.1727  3.2526
    1PA    H12S 3474   2.373   5.297   5.613  0.1581 -0.6119  0.8851
    1PA    C111 3475   2.431   5.333   5.819  0.9254  0.2949  0.3187
    1PA    H11R 3476   2.385   5.424   5.857  0.2494 -0.4334  1.2714
    1PA    H11S 3477   2.432   5.259   5.900  1.7761  0.8550  0.8248
    1PA    C110 3478   2.572   5.354   5.766 -0.3385  0.6037 -0.0356
    1PA    H10R 3479   2.569   5.374   5.658  0.1877  2.2126  0.2341
    1PA    H10S 3480   2.610   5.445   5.814 -0.0991 -0.2524  1.4129
    1PA     C19 3481   2.669   5.235   5.810  0.0561 -0.0550  0.1279
    1PA     H9R 3482   2.679   5.224   5.918  0.0016  0.8293  0.2261
    1PA     H9S 3483   2.632   5.139   5.774 -0.3692  0.7151 -1.5734
    1PA     C18 3484   2.813   5.245   5.749 -0.0655  0.9055  0.0334
    1PA     H8R 3485   2.863   5.152   5.774 -1.8223  0.8315  3.5890
    1PA     H8S 3486   2.800   5.253   5.641 -1.3829  1.0172  0.1947
    1PA     C17 3487   2.885   5.375   5.800  0.0936  0.1293  0.4690
    1PA     H7R 3488   2.985   5.376   5.756  0.3210  2.1605  0.9792
    1PA     H7S 3489   2.831   5.462   5.761  0.6578  0.4505  0.3988
    1PA     C16 3490   2.883   5.394   5.951 -0.2800 -0.8118 -0.3466
    1PA     H6R 3491   2.936   5.487   5.977 -2.5980  0.1578  1.0336
    1PA     H6S 3492   2.780   5.412   5.981 -0.1565  2.1880 -1.5299
    1PA     C15 3493   2.956   5.289   6.028  0.0865  0.4702 -1.2506
    1PA     H5R 3494   2.907   5.192   6.015 -0.3238  0.4800  0.0733
    1PA     H5S 3495   3.057   5.280   5.988 -0.1472 -1.6488 -1.4447
    1PA     C14 3496   2.984   5.325   6.175 -0.4540  0.4297 -0.0170
    1PA     H4R 3497   3.055   5.407   6.182 -0.0558 -0.0485  1.9054
    1PA     H4S 3498   2.903   5.374   6.230 -0.9982 -0.8385  0.3331
    1PA     C13 3499   3.029   5.206   6.254 -0.0960 -0.3571 -0.2266
    1PA     H3R 3500   2.961   5.123   6.233 -0.3165  0.4329 -2.8263
    1PA     H3S 3501   3.135   5.185   6.235  0.6030  0.6999  2.2930
    1PA     C12 3502   3.032   5.241   6.400 -0.9508  0.8164 -0.2095
    1PA     H2R 3503   3.106   5.320   6.411  0.5318 -0.5792  0.0057
    1PA     H2S 3504   2.931   5.273   6.426 -0.8246 -0.2372  1.6950
    1PC     C11 3505   3.050   5.119   6.490 -0.1252 -0.0385 -0.7733
    1PC     O12 3506   3.123   5.027   6.455  0.3257  0.0974  0.0666
    1PC     O11 3507   2.981   5.128   6.611  0.0612 -0.1617 -0.0740
    1PC      C1 3508   2.998   5.022   6.709  0.1781  0.5819 -0.0045
    1PC      HR 3509   2.899   5.027   6.756  0.7057 -0.0226  1.2018
    1PC      HS 3510   3.006   4.925   6.659 -2.0346  1.1147 -1.4498
    1PC      C2 3511   3.112   5.057   6.816 -0.4472  0.0712 -0.2060
    1PC      HX 3512   3.207   5.040   6.765  0.5513  1.5915  1.0987
    1PC      C3 3513   3.104   4.970   6.944 -0.0130  0.0799 -0.2668
    1PC      HA 3514   3.104   4.866   6.910  3.1087 -1.2384  3.4158
    1PC      HB 3515   3.189   4.985   7.011  0.4798  3.6945 -1.5578
    1PC     O31 3516   2.981   4.984   7.013  0.1390 -0.2323 -0.1248
    1PC     P31 3517   2.960   5.075   7.143  0.2944 -0.2033 -0.1266
    1PC     O32 3518   2.905   5.216   7.089  0.1299 -0.1860 -0.0853
    1PC     C31 3519   2.774   5.241   7.039 -0.3419  0.0572  0.2250
    1PC     H1A 3520   2.758   5.329   6.977 -1.3890  0.5053  1.1119
    1PC     H1B 3521   2.747   5.149   6.986 -1.4543 -0.1845  1.1837
    1PC     C32 3522   2.682   5.260   7.160  0.7484  0.9333  0.6048
    1PC     H2A 3523   2.580   5.265   7.121  1.2904 -1.6030 -1.2617
    1PC     H2B 3524   2.690   5.170   7.221 -1.3025  0.6256  0.4815
    1PC     N31 3525   2.702   5.386   7.251  0.0487  0.0757 -0.1572
    1PC     C33 3526   2.665   5.505   7.166  0.0623  0.1241 -0.4226
    1PC     H3A 3527   2.569   5.475   7.123 -0.1900  2.0893 -1.3076
    1PC     H3B 3528   2.644   5.589   7.232  0.7567  1.3337 -1.7174
    1PC     H3C 3529   2.750   5.518   7.098 -0.4270 -1.7344 -1.4158
    1PC     C34 3530   2.600   5.388   7.365  0.1866  0.4918  0.1304
    1PC     H4A 3531   2.500   5.385   7.320 -0.2498 -0.9667  1.1441
    1PC     H4B 3532   2.601   5.296   7.425  0.4151 -0.5960 -1.5034
    1PC     H4C 3533   2.615   5.476   7.427  0.3758  1.7281 -1.6610
    1PC     C35 3534   2.838   5.395   7.312  0.8559  0.7572  0.0292
    1PC     H5A 3535   2.854   5.330   7.398  0.0286 -2.2390 -2.0173
    1PC     H5B 3536   2.843   5.496   7.355 -0.8565  0.9439 -0.1861
    1PC     H5C 3537   2.918   5.373   7.241 -1.1845  1.7406 -2.6533
    1PC     O33 3538   2.852   5.005   7.218  0.2565 -0.3629 -0.0670
    1PC     O34 3539   3.089   5.093   7.208  0.0519 -0.4249  0.1100
    1PC     O21 3540   3.100   5.199   6.865  0.4986 -0.0889  0.0050
    1PC     C21 3541   3.159   5.289   6.789 -0.0748 -0.3544 -0.7583
    1PC     O22 3542   3.238   5.263   6.701  0.7161  0.0939  0.2107
    1OL     C12 3543   3.123   5.436   6.821 -0.5710 -0.2154 -0.1777
    1OL     H2R 3544   3.208   5.503   6.803  0.5498 -0.5712  3.4729
    1OL     H2S 3545   3.095   5.444   6.926 -1.0033  4.0010 -0.4933
    1OL     C13 3546   3.007   5.477   6.733  0.0662 -0.2716  0.2457
    1OL     H3R 3547   2.921   5.417   6.762 -0.2412 -0.1975 -0.5100
    1OL     H3S 3548   3.030   5.444   6.632 -1.7538 -0.5052 -0.1060
    1OL     C14 3549   2.977   5.625   6.754 -0.3257 -0.0975  0.2141
    1OL     H4R 3550   3.071   5.680   6.755  0.0918 -0.7905 -0.5128
    1OL     H4S 3551   2.928   5.638   6.851 -1.2679  0.7080 -0.3696
    1OL     C15 3552   2.890   5.673   6.640 -0.1419  0.2123 -0.3072
    1OL     H5R 3553   2.866   5.776   6.666  0.7541  0.2255  0.5001
    1OL     H5S 3554   2.792   5.625   6.647  0.6623 -1.2827  1.1293
    1OL     C16 3555   2.954   5.676   6.502 -0.1929  0.9472 -0.9888
    1OL     H6R 3556   2.982   5.574   6.479  3.1537  1.4277  0.7510
    1OL     H6S 3557   3.039   5.744   6.511 -1.6686  2.6891  0.2374
    1OL     C17 3558   2.864   5.722   6.388 -0.4752  0.0180  0.3046
    1OL     H7R 3559   2.791   5.790   6.432 -1.6335 -0.5279 -0.7453
    1OL     H7S 3560   2.809   5.634   6.354 -0.8199  0.0864  0.6831
    1OL     C18 3561   2.935   5.801   6.275 -0.9331 -0.1555 -0.5477
    1OL     H8R 3562   2.984   5.889   6.318  0.2136 -1.4913  0.9546
    1OL     H8S 3563   2.863   5.817   6.195  0.7014  2.6941 -1.5200
    1OL     C19 3564   3.060   5.732   6.221 -0.2352  0.0218  0.0612
    1OL     H9R 3565   3.125   5.689   6.297 -0.8584 -0.3540  0.3799
    1OL    C110 3566   3.102   5.720   6.095  0.4958 -0.0708 -0.2090
    1OL    H10R 3567   3.196   5.672   6.068 -0.3637 -1.7765 -0.2390
    1OL    C111 3568   3.028   5.770   5.973  0.2938 -0.0658 -0.1016
    1OL    H11R 3569   2.922   5.758   5.995  0.7187 -0.3847  1.8417
    1OL    H11S 3570   3.041   5.716   5.879  1.3538  0.4166 -0.2340
    1OL    C112 3571   3.063   5.917   5.956 -0.9448 -0.3304  0.4207
    1OL    H12R 3572   3.171   5.931   5.948 -0.8785 -0.8034  0.4672
    1OL    H12S 3573   3.039   5.971   6.048  1.8455  2.5400 -0.4559
    1OL    C113 3574   3.004   5.993   5.834  0.2893 -0.4018  0.3223
    1OL    H13R 3575   2.896   5.975   5.840  0.2928 -0.7801 -0.7948
    1OL    H13S 3576   3.036   5.947   5.741 -0.4988  0.2609 -0.2808
    1OL    C114 3577   3.035   6.148   5.842  0.7142 -0.2458  0.1353
    1OL    H14R 3578   3.018   6.190   5.941  2.6462  1.5833 -0.2650
    1OL    H14S 3579   2.969   6.205   5.777 -0.1533 -2.0986 -0.6492
    1OL    C115 3580   3.174   6.183   5.788 -0.7550 -0.0277  0.1963
    1OL    H15R 3581   3.180   6.152   5.683  0.8007 -0.3907  0.3766
    1OL    H15S 3582   3.249   6.125   5.843  0.7952  1.7784  0.0602
    1OL    C116 3583   3.221   6.329   5.808  0.7300 -0.5696 -0.5467
    1OL    H16R 3584   3.193   6.353   5.911  0.4146  0.3261 -0.8302
    1OL    H16S 3585   3.167   6.393   5.738  2.4511 -0.2711 -1.6341
    1OL    C117 3586   3.371   6.348   5.783 -0.8146  0.0487 -0.7843
    1OL    H17R 3587   3.393   6.329   5.678  2.1030 -3.4693  0.3942
    1OL    H17S 3588   3.425   6.277   5.845 -0.8512  0.8344  0.1629
    1OL    C118 3589   3.407   6.490   5.833  0.1365  0.1397 -0.4555
    1OL    H18R 3590   3.337   6.564   5.795 -0.2611  0.0379  0.0608
    1OL    H18S 3591   3.503   6.512   5.786 -0.1891 -0.2701 -1.3165
    1OL    H18T 3592   3.430   6.499   5.940 -0.0716  0.8501 -0.4734
    1PA    C116 3593   0.511   2.726   5.484  0.9744  0.2260 -0.1830
    1PA    H16R 3594   0.412   2.762   5.455  1.4246 -0.3312 -2.5023
    1PA    H16S 3595   0.588   2.729   5.407  0.5065  2.8184 -0.6020
    1PA    H16T 3596   0.548   2.800   5.556  0.6225 -0.2888  0.5413
    1PA    C115 3597   0.496   2.591   5.556 -0.0659  0.0693 -0.5919
    1PA    H15R 3598   0.495   2.517   5.477 -1.3288  0.4677 -0.9584
    1PA    H15S 3599   0.593   2.566   5.600 -0.7288  1.9473  2.0836
    1PA    C114 3600   0.384   2.578   5.660  0.1788  0.1406 -0.1122
    1PA    H14R 3601   0.284   2.578   5.617  0.8133 -0.5148 -1.6247
    1PA    H14S 3602   0.391   2.476   5.699  0.4721  0.4709  0.7129
    1PA    C113 3603   0.405   2.686   5.769  0.2340 -0.9748  0.0848
    1PA    H13R 3604   0.511   2.687   5.796  0.3138 -1.5153 -0.2029
    1PA    H13S 3605   0.372   2.780   5.724 -0.8045 -1.1486  0.4672
    1PA    C112 3606   0.328   2.649   5.896 -0.1063  0.5110  0.3410
    1PA    H12R 3607   0.224   2.631   5.870  0.6376 -0.3283 -2.2207
    1PA    H12S 3608   0.372   2.555   5.930 -0.1994  0.1035 -0.6391
    1PA    C111 3609   0.331   2.758   5.998 -0.4595 -0.3097  0.5603
    1PA    H11R 3610   0.311   2.852   5.946 -0.1709 -0.0372  0.9383
    1PA    H11S 3611   0.252   2.741   6.071  0.3325 -2.3168  0.9794
    1PA    C110 3612   0.465   2.761   6.072 -0.8452 -0.3888 -0.8883
    1PA    H10R 3613   0.478   2.665   6.123 -0.1066 -0.2924 -0.8956
    1PA    H10S 3614   0.548   2.781   6.003 -1.6353  1.8549 -1.2335
    1PA     C19 3615   0.455   2.887   6.172 -0.5452  0.2689 -0.0274
    1PA     H9R 3616   0.435   2.979   6.118 -1.5754 -0.1480 -0.3706
    1PA     H9S 3617   0.363   2.864   6.228  0.4745 -3.0933  0.4112
    1PA     C18 3618   0.568   2.906   6.273 -0.6475 -0.5864 -1.0584
    1PA     H8R 3619   0.553   3.003   6.322 -0.3942 -0.3529 -1.4450
    1PA     H8S 3620   0.558   2.825   6.345  0.7692  0.7644  0.7188
    1PA     C17 3621   0.702   2.905   6.198  0.1921  0.4749 -0.6781
    1PA     H7R 3622   0.697   2.903   6.089  0.2203 -1.7512 -0.6644
    1PA     H7S 3623   0.759   2.993   6.229 -1.6843  1.2457  0.6459
    1PA     C16 3624   0.808   2.785   6.218 -0.0371  0.2581 -0.0410
    1PA     H6R 3625   0.764   2.697   6.170 -0.4390  0.0420  0.7279
    1PA     H6S 3626   0.894   2.815   6.158 -0.7937 -1.2648 -1.9290
    1PA     C15 3627   0.842   2.765   6.363  0.2942 -0.2334  0.3418
    1PA     H5R 3628   0.914   2.843   6.388  0.0244 -0.0310  0.4795
    1PA     H5S 3629   0.756   2.775   6.429  1.5350  0.3813  1.8948
    1PA     C14 3630   0.900   2.623   6.385 -0.2127  0.1458 -0.2644
    1PA     H4R 3631   0.923   2.607   6.490  1.1093  1.9697 -0.2381
    1PA     H4S 3632   0.824   2.553   6.351 -0.2166  0.5869 -1.2077
    1PA     C13 3633   1.024   2.596   6.303 -0.1612 -0.4423 -0.1942
    1PA     H3R 3634   1.047   2.489   6.310  0.3231 -0.3400 -0.1840
    1PA     H3S 3635   1.001   2.618   6.199  1.6572 -0.3002 -0.5837
    1PA     C12 3636   1.146   2.680   6.340  0.5781  0.0369  0.1522
    1PA     H2R 3637   1.227   2.664   6.269  0.5323 -1.9791  0.5326
    1PA     H2S 3638   1.133   2.788   6.331 -2.7043 -0.3883 -0.9949
    1PC     C11 3639   1.207   2.657   6.477 -0.6686 -0.2950 -0.4358
    1PC     O12 3640   1.242   2.551   6.525 -0.2135  0.2264  0.0980
    1PC     O11 3641   1.234   2.771   6.541  0.1945  0.2438  0.0725
    1PC      C1 3642   1.289   2.767   6.673  0.7363  0.0994 -0.0406
    1PC      HR 3643   1.225   2.696   6.726 -0.7574  0.6013 -1.1417
    1PC      HS 3644   1.389   2.724   6.682  0.9436  1.0665  3.0118
    1PC      C2 3645   1.299   2.914   6.729 -0.3549  0.3318 -0.1505
    1PC      HX 3646   1.390   2.953   6.683  0.8387 -3.7722 -1.4543
    1PC      C3 3647   1.314   2.909   6.885  0.5671 -0.5808  0.8252
    1PC      HA 3648   1.418   2.884   6.906  1.4224 -0.0747 -2.5714
    1PC      HB 3649   1.297   3.008   6.927 -1.3998  0.5687 -2.4664
    1PC     O31 3650   1.220   2.822   6.948  0.0122  0.1085  0.2214
    1PC     P31 3651   1.279   2.719   7.068 -0.0061 -0.1404  0.5390
    1PC     O32 3652   1.280   2.804   7.208  0.2549  0.0427  0.5113
    1PC     C31 3653   1.376   2.911   7.223 -0.3633  0.5619  0.4177
    1PC     H1A 3654   1.475   2.866   7.204 -0.6578 -0.0011  0.1993
    1PC     H1B 3655   1.355   2.985   7.146  0.0929  0.8992  0.6159
    1PC     C32 3656   1.385   2.960   7.367  0.0912 -0.1361 -0.3011
    1PC     H2A 3657   1.289   3.009   7.384 -0.9019 -1.2144 -2.5889
    1PC     H2B 3658   1.399   2.876   7.435 -1.7837 -0.0245  0.2374
    1PC     N31 3659   1.493   3.057   7.409  0.9765 -0.2594  0.5972
    1PC     C33 3660   1.626   2.994   7.400 -0.0134  0.5944  0.2577
    1PC     H3A 3661   1.691   3.081   7.393  1.4226 -0.3829  0.9178
    1PC     H3B 3662   1.637   2.935   7.492 -4.2830  0.2426  0.6039
    1PC     H3C 3663   1.648   2.923   7.320  3.3385  0.2327  1.3936
    1PC     C34 3664   1.505   3.175   7.317  0.7272 -0.2006 -0.0720
    1PC     H4A 3665   1.410   3.227   7.305  0.4603 -0.6553  0.0259
    1PC     H4B 3666   1.580   3.244   7.355 -0.4413  1.1788 -0.2172
    1PC     H4C 3667   1.527   3.138   7.216 -1.8684  2.3395 -1.6421
    1PC     C35 3668   1.473   3.110   7.546 -0.5146 -1.1887  0.3758
    1PC     H5A 3669   1.372   3.152   7.540  0.1327  0.5713  1.6366
    1PC     H5B 3670   1.546   3.183   7.581  0.1093 -0.6936 -1.9077
    1PC     H5C 3671   1.477   3.029   7.619 -1.5525 -0.7364  0.9489
    1PC     O33 3672   1.191   2.600   7.080  0.3678 -0.1702  0.0897
    1PC     O34 3673   1.420   2.679   7.039 -0.5537  0.2813  0.0251
    1PC     O21 3674   1.178   2.986   6.692  0.6915  0.3024 -0.2546
    1PC     C21 3675   1.185   3.079   6.597 -0.1165 -0.0286 -0.1314
    1PC     O22 3676   1.282   3.097   6.519 -0.3041 -0.0563 -1.5935
    1OL     C12 3677   1.063   3.164   6.600  0.3956 -0.7631  0.9133
    1OL     H2R 3678   1.095   3.264   6.632  0.9366 -0.9782  1.0531
    1OL     H2S 3679   0.991   3.125   6.672 -1.9680 -1.6736 -1.8683
    1OL     C13 3680   0.989   3.150   6.471  0.1985 -0.3229 -0.0716
    1OL     H3R 3681   0.959   3.045   6.457  2.5351 -1.3346  2.1359
    1OL     H3S 3682   1.047   3.177   6.382 -1.4476  0.2073 -1.0111
    1OL     C14 3683   0.870   3.244   6.469  0.3109  0.0613 -0.0359
    1OL     H4R 3684   0.833   3.247   6.366  1.2939 -0.8470 -0.4187
    1OL     H4S 3685   0.891   3.339   6.518 -0.3997  0.4467 -0.4710
    1OL     C15 3686   0.759   3.184   6.556 -0.0911 -0.3852 -0.2473
    1OL     H5R 3687   0.793   3.183   6.660  0.1761 -0.3058 -0.3349
    1OL     H5S 3688   0.736   3.084   6.518  1.4236 -0.6752 -0.4211
    1OL     C16 3689   0.631   3.266   6.551 -0.2125  0.6411 -0.2804
    1OL     H6R 3690   0.561   3.215   6.617  1.8246 -0.6528  0.9400
    1OL     H6S 3691   0.597   3.266   6.447 -0.4364  0.7961 -0.2061
    1OL     C17 3692   0.644   3.414   6.590 -0.6560 -0.1656  0.0277
    1OL     H7R 3693   0.706   3.461   6.512 -2.5976 -0.6547 -1.8590
    1OL     H7S 3694   0.693   3.417   6.688 -0.4882  2.2312 -0.0956
    1OL     C18 3695   0.518   3.498   6.591  0.2062  0.1806  0.0827
    1OL     H8R 3696   0.442   3.441   6.645 -0.1598  1.4403  0.9297
    1OL     H8S 3697   0.485   3.517   6.489  1.2465 -0.0924 -0.3157
    1OL     C19 3698   0.551   3.634   6.652 -0.3581 -0.4374  0.1257
    1OL     H9R 3699   0.626   3.638   6.731 -0.5857  1.4118  0.2648
    1OL    C110 3700   0.508   3.755   6.609 -0.1801 -0.7445  0.5346
    1OL    H10R 3701   0.551   3.835   6.669 -0.3171 -0.5815  0.4140
    1OL    C111 3702   0.412   3.790   6.500  0.4197  0.1111 -0.1203
    1OL    H11R 3703   0.325   3.838   6.546 -0.6952 -2.0197  0.0520
    1OL    H11S 3704   0.361   3.703   6.459  2.1414 -0.9027 -0.1515
    1OL    C112 3705   0.470   3.878   6.397  0.1050 -0.5507 -0.2648
    1OL    H12R 3706   0.576   3.857   6.379 -0.0463 -1.7322  0.1384
    1OL    H12S 3707   0.459   3.974   6.448  1.2064  0.2071 -1.4414
    1OL    C113 3708   0.403   3.880   6.258 -0.1261 -0.3913 -0.0854
    1OL    H13R 3709   0.457   3.952   6.196  1.0981  0.2934  1.7315
    1OL    H13S 3710   0.304   3.924   6.273 -0.6940 -1.1519 -1.5166
    1OL    C114 3711   0.367   3.746   6.186 -0.1614 -0.0625 -0.5968
    1OL    H14R 3712   0.327   3.762   6.086 -1.2830 -0.9903 -0.3130
    1OL    H14S 3713   0.285   3.705   6.245  1.1916 -0.4741  1.0279
    1OL    C115 3714   0.494   3.644   6.175 -0.1707 -0.3434 -0.3187
    1OL    H15R 3715   0.513   3.604   6.275 -0.7787  1.1953  0.4367
    1OL    H15S 3716   0.578   3.699   6.131 -0.6515  1.4110  0.8998
    1OL    C116 3717   0.459   3.526   6.083  0.0989  0.7885  0.4249
    1OL    H16R 3718   0.449   3.566   5.982  1.2882 -0.4776 -0.2152
    1OL    H16S 3719   0.363   3.484   6.115  0.0144 -0.3726 -1.3137
    1OL    C117 3720   0.571   3.408   6.092  0.4239  0.5559  0.1654
    1OL    H17R 3721   0.612   3.418   6.192  0.1143 -1.1748  0.4749
    1OL    H17S 3722   0.639   3.406   6.006  0.9324 -2.6768  0.5667
    1OL    C118 3723   0.506   3.272   6.125 -0.4502 -0.1674  0.4492
    1OL    H18R 3724   0.434   3.284   6.206 -0.2416  1.1985  0.4435
    1OL    H18S 3725   0.587   3.208   6.160  0.7090  0.6682 -0.6440
    1OL    H18T 3726   0.457   3.238   6.033  1.0903  0.1731 -0.5254
    1PA    C116 3727   1.793   0.897   5.381  0.3468  0.0251  0.2933
    1PA    H16R 3728   1.712   0.838   5.338  0.5589  0.8105 -1.2334
    1PA    H16S 3729   1.881   0.898   5.317 -0.4669 -1.5340 -0.8696
    1PA    H16T 3730   1.749   0.997   5.390 -2.8707 -1.3696  0.7311
    1PA    C115 3731   1.835   0.834   5.515  0.8521  0.0844  0.2103
    1PA    H15R 3732   1.841   0.726   5.508 -0.5514 -0.1379  1.9657
    1PA    H15S 3733   1.927   0.885   5.545  1.3834  0.7966 -2.5607
    1PA    C114 3734   1.729   0.860   5.629 -0.0504  0.1499 -0.3056
    1PA    H14R 3735   1.683   0.959   5.623 -1.5900 -0.4942  0.4984
    1PA    H14S 3736   1.639   0.806   5.598 -0.9484  2.8175 -2.6223
    1PA    C113 3737   1.767   0.806   5.764  0.0602 -0.5213  0.3088
    1PA    H13R 3738   1.857   0.853   5.804  0.8709  0.6487 -2.7846
    1PA    H13S 3739   1.692   0.855   5.827  0.3148  0.0902  0.1378
    1PA    C112 3740   1.760   0.656   5.782  0.1550  0.1184 -0.3598
    1PA    H12R 3741   1.725   0.596   5.697  2.5150 -2.1790  0.2274
    1PA    H12S 3742   1.862   0.619   5.793 -0.3299 -0.4288  2.5529
    1PA    C111 3743   1.690   0.620   5.917 -0.2095 -0.7463  0.2074
    1PA    H11R 3744   1.583   0.639   5.912 -0.1073 -0.0348  0.5840
    1PA    H11S 3745   1.702   0.512   5.921 -2.6486 -1.0485 -0.0790
    1PA    C110 3746   1.748   0.679   6.043  0.4807  0.1298 -0.2803
    1PA    H10R 3747   1.835   0.621   6.074  0.4399  0.3197  0.2019
    1PA    H10S 3748   1.785   0.781   6.036 -0.7669  0.6995  1.0441
    1PA     C19 3749   1.635   0.689   6.158  0.4173 -0.1857  0.1422
    1PA     H9R 3750   1.677   0.734   6.248 -1.9295 -0.6456  1.4947
    1PA     H9S 3751   1.562   0.758   6.116  1.6732  2.0906  1.5910
    1PA     C18 3752   1.569   0.552   6.194 -0.2499  0.1455 -0.5135
    1PA     H8R 3753   1.529   0.502   6.107  1.1457 -1.1847 -0.4193
    1PA     H8S 3754   1.655   0.495   6.231  2.1322  2.8917 -1.6470
    1PA     C17 3755   1.449   0.582   6.294 -0.3546  0.2975  0.5054
    1PA     H7R 3756   1.476   0.653   6.373  2.3860  0.0383 -0.1452
    1PA     H7S 3757   1.358   0.617   6.245 -1.0683 -0.0888  1.5484
    1PA     C16 3758   1.418   0.446   6.369  0.3644 -0.1236  0.2634
    1PA     H6R 3759   1.313   0.444   6.400  0.0881  0.3430 -0.6303
    1PA     H6S 3760   1.427   0.360   6.304  0.1507  0.7327 -0.9180
    1PA     C15 3761   1.519   0.413   6.480 -0.6943 -0.1635  0.0060
    1PA     H5R 3762   1.617   0.385   6.441 -1.0133  1.4996 -2.0895
    1PA     H5S 3763   1.528   0.507   6.535 -1.9488 -1.7891  3.1400
    1PA     C14 3764   1.467   0.306   6.582 -0.0712 -0.3256 -0.3150
    1PA     H4R 3765   1.380   0.355   6.624 -0.6236 -1.7854  0.2806
    1PA     H4S 3766   1.428   0.217   6.533 -0.0049 -0.8775  0.6161
    1PA     C13 3767   1.574   0.275   6.682  0.2552  0.5568  0.2255
    1PA     H3R 3768   1.534   0.194   6.744  1.1460  1.1639  1.6150
    1PA     H3S 3769   1.659   0.236   6.625  0.4286 -1.0275  1.5420
    1PA     C12 3770   1.613   0.397   6.773 -0.8101 -0.3807  0.2071
    1PA     H2R 3771   1.694   0.455   6.728  1.4503 -3.2229  0.4853
    1PA     H2S 3772   1.523   0.456   6.795  1.1164  2.9567 -0.3857
    1PC     C11 3773   1.679   0.349   6.895 -0.8223  0.7582  0.2824
    1PC     O12 3774   1.619   0.325   6.998  0.2535 -0.1142 -0.0723
    1PC     O11 3775   1.812   0.326   6.875  0.2538  0.0886 -0.0302
    1PC      C1 3776   1.885   0.256   6.979 -0.6027 -0.7161  0.6269
    1PC      HR 3777   1.852   0.309   7.068 -3.7451  1.6798 -1.8390
    1PC      HS 3778   1.853   0.151   6.973  2.1065 -1.6203  0.8493
    1PC      C2 3779   2.038   0.266   6.959 -0.2256 -0.1606  1.2334
    1PC      HX 3780   2.083   0.211   7.042 -0.0112  0.3139  1.4323
    1PC      C3 3781   2.092   0.408   6.968  0.7250 -0.3771  0.7819
    1PC      HA 3782   2.186   0.409   6.912  0.1435  2.5281 -0.2304
    1PC      HB 3783   2.032   0.491   6.930  1.7471  0.5692  1.2086
    1PC     O31 3784   2.139   0.439   7.102  0.4282  0.3063  0.4381
    1PC     P31 3785   2.038   0.475   7.222  0.1577  0.1753 -0.0859
    1PC     O32 3786   2.018   0.333   7.296  0.3918 -0.0694 -0.6548
    1PC     C31 3787   2.113   0.261   7.372  0.7124  0.8651 -0.1769
    1PC     H1A 3788   2.154   0.177   7.315  1.2867 -0.8605  2.6870
    1PC     H1B 3789   2.196   0.327   7.399  0.5811  0.9844 -0.0630
    1PC     C32 3790   2.030   0.209   7.490  0.7129  0.0654  0.3141
    1PC     H2A 3791   2.094   0.155   7.560  1.9947  0.3709 -0.6109
    1PC     H2B 3792   2.000   0.297   7.548 -0.7745  1.9862 -3.1788
    1PC     N31 3793   1.900   0.126   7.458 -0.7922  0.0411 -0.4313
    1PC     C33 3794   1.778   0.202   7.481  0.0598 -0.2002  0.0840
    1PC     H3A 3795   1.767   0.255   7.386 -2.6427 -0.2304  0.3161
    1PC     H3B 3796   1.690   0.137   7.484 -0.8409  1.0631  1.5376
    1PC     H3C 3797   1.787   0.279   7.558 -2.2406  0.1586  0.0403
    1PC     C34 3798   1.899   0.063   7.327  0.0479 -0.3834  0.2072
    1PC     H4A 3799   1.979  -0.008   7.310  0.0779  0.2565 -2.5956
    1PC     H4B 3800   1.800   0.016   7.321  0.7023 -1.4330 -2.8941
    1PC     H4C 3801   1.903   0.140   7.250 -1.6701 -1.5107 -1.0340
    1PC     C35 3802   1.883   0.023   7.568  0.6128  0.3480  0.5215
    1PC     H5A 3803   1.975  -0.034   7.579  0.2083 -0.4044  0.0584
    1PC     H5B 3804   1.798  -0.035   7.534  0.3870  1.4607 -0.8800
    1PC     H5C 3805   1.876   0.065   7.668 -0.8092 -0.0563  0.5910
    1PC     O33 3806   2.125   0.556   7.317  0.1197 -0.2451 -0.0367
    1PC     O34 3807   1.904   0.516   7.176  0.3046  0.2951 -0.6307
    1PC     O21 3808   2.079   0.215   6.825  0.4880  0.6210 -0.3726
    1PC     C21 3809   2.146   0.099   6.823  0.0981  1.0252 -0.7143
    1PC     O22 3810   2.157   0.022   6.918  0.0605  0.5750  0.0702
    1OL     C12 3811   2.199   0.076   6.681 -0.1690 -0.4044 -0.3094
    1OL     H2R 3812   2.229  -0.030   6.681 -0.5830 -0.5305 -1.8018
    1OL     H2S 3813   2.283   0.145   6.685 -1.2218  0.8914 -0.3952
    1OL     C13 3814   2.097   0.118   6.575  0.2374 -0.3493 -0.3085
    1OL     H3R 3815   2.155   0.099   6.485  0.9928 -1.3110  0.3758
    1OL     H3S 3816   2.062   0.221   6.585 -1.4747 -1.1226  2.2629
    1OL     C14 3817   1.966   0.030   6.561  0.4059 -0.8002  0.2071
    1OL     H4R 3818   1.919  -0.006   6.652  1.6812  0.3348  1.3464
    1OL     H4S 3819   1.990  -0.062   6.506  1.8310 -1.2659  1.5691
    1OL     C15 3820   1.851   0.100   6.488  0.5737  0.0972 -0.0138
    1OL     H5R 3821   1.835   0.199   6.531  0.7921  0.0155  0.2592
    1OL     H5S 3822   1.760   0.041   6.490  0.8539 -0.3155  0.7821
    1OL     C16 3823   1.893   0.119   6.339  0.4327  0.4050 -0.1330
    1OL     H6R 3824   1.879   0.030   6.277  1.0597 -0.2550  0.6655
    1OL     H6S 3825   1.996   0.154   6.337  0.2996  0.8360  0.3020
    1OL     C17 3826   1.822   0.235   6.270  0.0331 -0.0382 -0.3010
    1OL     H7R 3827   1.842   0.323   6.331 -0.0485  1.1046 -1.8738
    1OL     H7S 3828   1.716   0.213   6.269 -0.1018  0.5754 -2.6798
    1OL     C18 3829   1.871   0.273   6.122  0.2401  0.2772  0.2594
    1OL     H8R 3830   1.980   0.270   6.120  0.2281  0.0608 -0.5492
    1OL     H8S 3831   1.838   0.374   6.097  0.2623 -0.0650 -1.1981
    1OL     C19 3832   1.813   0.180   6.019  0.2897 -0.4510  0.5426
    1OL     H9R 3833   1.706   0.170   6.037 -0.4273  1.1682 -2.5528
    1OL    C110 3834   1.873   0.132   5.906  0.0836 -0.1145 -0.1775
    1OL    H10R 3835   1.811   0.066   5.847 -1.8378  1.3619  0.1216
    1OL    C111 3836   2.017   0.155   5.868 -0.5684 -0.7711 -0.0326
    1OL    H11R 3837   2.087   0.077   5.899  1.4711  1.1575  0.3702
    1OL    H11S 3838   2.050   0.250   5.912  1.3898 -0.2903 -2.4033
    1OL    C112 3839   2.033   0.174   5.717  0.3262 -0.1015  0.3016
    1OL    H12R 3840   2.006   0.079   5.671 -2.1388 -0.3674  2.1432
    1OL    H12S 3841   2.138   0.193   5.696  0.4882  0.6106  1.6527
    1OL    C113 3842   1.941   0.283   5.656  0.1777 -0.6439  0.3944
    1OL    H13R 3843   1.947   0.380   5.705 -0.4402 -0.0470 -0.6818
    1OL    H13S 3844   1.836   0.252   5.662  0.4295 -1.3165  1.3810
    1OL    C114 3845   1.967   0.295   5.507 -0.5544 -0.8539 -0.5191
    1OL    H14R 3846   1.902   0.377   5.476  0.3568  0.3132  0.5742
    1OL    H14S 3847   1.945   0.199   5.460 -1.6515  0.5053 -2.9068
    1OL    C115 3848   2.108   0.334   5.463  0.0854  0.0180  0.0185
    1OL    H15R 3849   2.181   0.253   5.463 -0.1230 -0.1716  0.3697
    1OL    H15S 3850   2.133   0.417   5.528  1.7369  0.5715 -1.2861
    1OL    C116 3851   2.107   0.386   5.318  0.4813  0.3538 -0.7811
    1OL    H16R 3852   2.054   0.314   5.254  1.0137 -0.2749 -0.5140
    1OL    H16S 3853   2.210   0.379   5.284  0.6237 -1.5723 -0.0447
    1OL    C117 3854   2.060   0.533   5.299 -0.5314  0.9122  0.1476
    1OL    H17R 3855   2.143   0.600   5.271 -2.2204  2.3901 -1.4511
    1OL    H17S 3856   2.001   0.565   5.385  0.2019 -0.3195  1.1278
    1OL    C118 3857   1.978   0.523   5.168 -0.7739  1.0990  0.3127
    1OL    H18R 3858   2.046   0.489   5.090 -0.1388  0.5928  1.0718
    1OL    H18S 3859   1.944   0.624   5.142  1.6456  1.8420 -0.0930
    1OL    H18T 3860   1.896   0.451   5.167  0.2241 -0.0565  0.3200
    1PA    C116 3861   5.410   1.811   4.864 -0.0989 -0.2754  0.0908
    1PA    H16R 3862   5.466   1.903   4.880  0.4042 -0.8413  1.7045
    1PA    H16S 3863   5.309   1.841   4.838  0.4756 -0.2612 -2.2191
    1PA    H16T 3864   5.459   1.773   4.774 -0.6350  0.5294 -0.5418
    1PA    C115 3865   5.424   1.725   4.997 -0.2464  0.0591  0.0983
    1PA    H15R 3866   5.340   1.655   4.996  0.7104 -1.0948 -1.1216
    1PA    H15S 3867   5.517   1.672   4.978  0.5276  2.2161 -2.4574
    1PA    C114 3868   5.435   1.824   5.120  0.0596 -0.4941  0.4635
    1PA    H14R 3869   5.529   1.879   5.115  0.1736 -0.6683  0.6663
    1PA    H14S 3870   5.348   1.890   5.115 -0.4324 -1.2043 -0.3462
    1PA    C113 3871   5.420   1.741   5.250  0.2350  0.3421  0.7346
    1PA    H13R 3872   5.337   1.671   5.261 -0.0969  0.1133 -2.7427
    1PA    H13S 3873   5.506   1.675   5.247  0.9451  1.2410  0.9952
    1PA    C112 3874   5.426   1.827   5.371 -0.6238  0.0771 -0.1999
    1PA    H12R 3875   5.489   1.916   5.357  1.0976 -1.1976 -0.6846
    1PA    H12S 3876   5.323   1.857   5.389  0.0379  1.0872  2.0952
    1PA    C111 3877   5.489   1.753   5.491  1.0348  0.2810  0.5195
    1PA    H11R 3878   5.419   1.674   5.518  0.9152  1.1074  2.7490
    1PA    H11S 3879   5.579   1.696   5.468  1.3327  0.9591 -0.0178
    1PA    C110 3880   5.505   1.838   5.619 -0.2308  0.2486 -0.1586
    1PA    H10R 3881   5.606   1.880   5.620  0.4297 -1.3185  1.7277
    1PA    H10S 3882   5.426   1.913   5.630 -2.3785 -2.2575  1.9892
    1PA     C19 3883   5.488   1.752   5.752 -0.6921 -0.6855  0.5786
    1PA     H9R 3884   5.390   1.705   5.743 -0.1634 -1.6018 -0.6023
    1PA     H9S 3885   5.564   1.674   5.744  1.1526  1.1535 -0.4710
    1PA     C18 3886   5.505   1.829   5.888  0.4723 -0.7497  0.3182
    1PA     H8R 3887   5.590   1.897   5.880  0.2860 -0.4604  0.7928
    1PA     H8S 3888   5.423   1.899   5.903  1.0853  0.5570 -2.0614
    1PA     C17 3889   5.517   1.733   6.012 -0.1852 -0.1370 -0.5092
    1PA     H7R 3890   5.423   1.679   6.028 -1.3188  1.9965  0.1143
    1PA     H7S 3891   5.598   1.661   5.998  2.5005  2.0228  3.3005
    1PA     C16 3892   5.549   1.810   6.140 -0.3282  0.0688  0.2139
    1PA     H6R 3893   5.622   1.888   6.120 -1.5919  1.4043  0.7120
    1PA     H6S 3894   5.463   1.869   6.172  0.1494  0.8936 -0.0108
    1PA     C15 3895   5.601   1.720   6.256 -0.4436  0.0065 -0.2242
    1PA     H5R 3896   5.522   1.650   6.284  0.0500 -0.5183 -0.1144
    1PA     H5S 3897   5.685   1.658   6.223  0.5856  0.8478  0.7860
    1PA     C14 3898   5.656   1.789   6.386 -0.1012  0.6853  1.0927
    1PA     H4R 3899   5.742   1.851   6.357  0.3908 -0.1529  0.7314
    1PA     H4S 3900   5.583   1.858   6.429 -1.0853  0.2448  0.1284
    1PA     C13 3901   5.704   1.683   6.495  0.4885  0.0871  0.2368
    1PA     H3R 3902   5.615   1.655   6.552  1.2494  0.9667  1.8948
    1PA     H3S 3903   5.772   1.607   6.457  0.3421  0.2707 -0.4054
    1PA     C12 3904   5.785   1.745   6.602  0.1337  0.2612 -0.2649
    1PA     H2R 3905   5.865   1.680   6.637  0.7676  0.7607 -0.7529
    1PA     H2S 3906   5.830   1.840   6.571 -1.6565  1.8167  1.6930
    1PC     C11 3907   5.702   1.785   6.718 -0.6094 -0.4490  0.9369
    1PC     O12 3908   5.614   1.862   6.719 -0.1229 -0.0232  0.5708
    1PC     O11 3909   5.736   1.711   6.830  0.3192 -0.6037 -0.3612
    1PC      C1 3910   5.655   1.731   6.957 -0.5073 -0.1800 -0.3674
    1PC      HR 3911   5.725   1.717   7.039 -0.6932  0.9538 -0.0068
    1PC      HS 3912   5.614   1.831   6.974 -0.1229 -0.2190  0.8108
    1PC      C2 3913   5.541   1.627   6.957 -0.4923  0.0324  0.8694
    1PC      HX 3914   5.471   1.656   7.037  0.2340 -0.3200  1.6331
    1PC      C3 3915   5.604   1.490   6.976  0.1254 -0.2940 -0.1199
    1PC      HA 3916   5.519   1.423   6.960 -0.0452  0.0731 -0.7684
    1PC      HB 3917   5.692   1.469   6.914  0.3559  0.1298  0.0673
    1PC     O31 3918   5.654   1.473   7.107  0.1452  0.4305 -0.2640
    1PC     P31 3919   5.560   1.456   7.239 -0.0006  0.1425 -0.1417
    1PC     O32 3920   5.540   1.295   7.241  0.4259  0.2677 -0.0997
    1PC     C31 3921   5.448   1.231   7.163  0.1298  0.0944 -0.2207
    1PC     H1A 3922   5.368   1.296   7.126 -0.4715 -0.9567 -0.7639
    1PC     H1B 3923   5.507   1.203   7.075  0.9982  1.1718  0.0062
    1PC     C32 3924   5.383   1.113   7.250 -0.0367 -0.2008 -0.2924
    1PC     H2A 3925   5.295   1.090   7.190 -0.1072 -1.3977  0.2719
    1PC     H2B 3926   5.447   1.026   7.262 -0.5377 -0.4337  0.7543
    1PC     N31 3927   5.316   1.150   7.380  0.5397  0.1096  0.2683
    1PC     C33 3928   5.247   1.028   7.437 -0.0433  0.0951 -0.4577
    1PC     H3A 3929   5.165   1.069   7.495  0.0394  2.0625 -1.7088
    1PC     H3B 3930   5.207   0.969   7.355 -0.7615  3.3701 -2.5116
    1PC     H3C 3931   5.311   0.968   7.502  0.1102 -1.0416 -1.6297
    1PC     C34 3932   5.421   1.193   7.479  0.4731 -0.2641  0.3834
    1PC     H4A 3933   5.465   1.287   7.446  1.7164 -1.1316 -0.5114
    1PC     H4B 3934   5.379   1.209   7.579 -0.2465  1.9731 -0.2518
    1PC     H4C 3935   5.494   1.112   7.489  2.9018  1.7527 -0.5467
    1PC     C35 3936   5.210   1.261   7.378 -0.7271  1.0131 -0.5774
    1PC     H5A 3937   5.124   1.226   7.322  0.1389 -1.2861 -0.5145
    1PC     H5B 3938   5.254   1.354   7.342 -1.9297  1.4747 -0.8723
    1PC     H5C 3939   5.188   1.273   7.484 -1.0219  0.4215 -0.5686
    1PC     O33 3940   5.642   1.500   7.353 -0.2889  0.2787  0.8680
    1PC     O34 3941   5.437   1.533   7.218  0.5354 -0.6056 -0.5155
    1PC     O21 3942   5.467   1.617   6.831  0.6190  0.2959  0.1034
    1PC     C21 3943   5.353   1.701   6.826  0.4075 -0.5918  0.5050
    1PC     O22 3944   5.313   1.766   6.919 -0.2571  0.0214 -0.7060
    1OL     C12 3945   5.294   1.707   6.690  0.0615  0.3506 -0.0392
    1OL     H2R 3946   5.204   1.645   6.688 -1.3700  2.4058 -0.6736
    1OL     H2S 3947   5.366   1.658   6.624 -0.9356 -0.5471 -0.4690
    1OL     C13 3948   5.252   1.853   6.653 -0.4207  0.5631 -0.0381
    1OL     H3R 3949   5.339   1.916   6.671 -0.5766  0.3563  1.4674
    1OL     H3S 3950   5.177   1.887   6.725  1.1358  1.3606  1.2227
    1OL     C14 3951   5.209   1.852   6.502 -0.1326 -0.2856  0.2155
    1OL     H4R 3952   5.112   1.802   6.501  0.4309 -1.4010 -1.4985
    1OL     H4S 3953   5.281   1.797   6.441  1.5321  0.4448  1.4827
    1OL     C15 3954   5.187   1.994   6.445 -0.0868 -0.0408 -0.2961
    1OL     H5R 3955   5.124   2.053   6.512  0.1642  2.1369 -1.9088
    1OL     H5S 3956   5.124   1.978   6.358 -1.1088 -2.6762  0.8749
    1OL     C16 3957   5.329   2.060   6.414  0.7290  0.4190 -0.4551
    1OL     H6R 3958   5.399   1.986   6.376  0.9528 -0.0415  0.8150
    1OL     H6S 3959   5.383   2.097   6.502  0.4142  0.2766 -0.2008
    1OL     C17 3960   5.314   2.169   6.311 -0.0159 -0.7509 -0.1392
    1OL     H7R 3961   5.250   2.251   6.345  0.8945 -0.4149  0.7935
    1OL     H7S 3962   5.265   2.127   6.223 -1.2100 -0.6671  0.4688
    1OL     C18 3963   5.452   2.211   6.252 -0.1981 -0.8428 -0.0059
    1OL     H8R 3964   5.497   2.125   6.200 -2.4244 -3.0075  1.5194
    1OL     H8S 3965   5.520   2.229   6.336 -1.6194 -1.6338  1.3359
    1OL     C19 3966   5.457   2.336   6.164 -0.5445 -0.1163 -0.1465
    1OL     H9R 3967   5.475   2.434   6.208 -3.1607  0.3619 -0.0118
    1OL    C110 3968   5.434   2.333   6.033  0.5550 -0.2506  0.0706
    1OL    H10R 3969   5.447   2.430   5.986  0.0375 -0.7581 -1.1492
    1OL    C111 3970   5.415   2.215   5.939  0.6972 -1.2085 -0.3513
    1OL    H11R 3971   5.405   2.119   5.990 -2.0966 -0.0519  1.4398
    1OL    H11S 3972   5.501   2.209   5.872  0.9065  0.7816 -0.2820
    1OL    C112 3973   5.281   2.244   5.858  0.1375  0.7074 -0.3544
    1OL    H12R 3974   5.285   2.344   5.813 -1.0235 -0.3196 -2.8273
    1OL    H12S 3975   5.202   2.238   5.932  2.4084 -1.6232  1.9568
    1OL    C113 3976   5.258   2.142   5.748 -0.1173  0.2095  0.5811
    1OL    H13R 3977   5.250   2.047   5.801  2.0155 -0.5991 -0.5019
    1OL    H13S 3978   5.348   2.142   5.687 -0.7109  1.4183 -0.3410
    1OL    C114 3979   5.127   2.162   5.673  0.1712  0.1126  0.7123
    1OL    H14R 3980   5.138   2.251   5.611  0.3527  0.7312  1.6237
    1OL    H14S 3981   5.045   2.184   5.742 -0.4425 -1.1908  0.4261
    1OL    C115 3982   5.094   2.036   5.591 -0.1063  0.3218  0.0816
    1OL    H15R 3983   5.062   1.962   5.665 -1.5032  2.0631  1.2590
    1OL    H15S 3984   5.180   2.002   5.533 -1.5008  0.6309 -2.2184
    1OL    C116 3985   4.982   2.062   5.494  0.5218 -0.1459 -0.8468
    1OL    H16R 3986   4.901   2.111   5.548  0.9053 -0.7393  0.2928
    1OL    H16S 3987   4.935   1.971   5.454 -1.2511  0.9347 -1.2930
    1OL    C117 3988   5.008   2.162   5.379 -0.1350 -0.2580 -0.2603
    1OL    H17R 3989   5.100   2.143   5.323 -0.1441  1.7980 -1.0164
    1OL    H17S 3990   5.011   2.262   5.421  1.2087  0.6134 -2.3280
    1OL    C118 3991   4.899   2.166   5.276  0.4528 -0.6353  0.3284
    1OL    H18R 3992   4.800   2.201   5.307  0.1302 -3.4136  2.6672
    1OL    H18S 3993   4.880   2.065   5.238  0.0175  0.0261 -1.2495
    1OL    H18T 3994   4.938   2.221   5.190  1.2882 -2.6514 -0.6162
    1PA    C116 3995   1.624   0.050   5.548 -1.0018  0.0273  0.4330
    1PA    H16R 3996   1.629   0.155   5.520  1.4300  0.0069  0.6940
    1PA    H16S 3997   1.708   0.007   5.602  1.4024  1.1698 -2.3255
    1PA    H16T 3998   1.535   0.041   5.611 -1.4349 -0.1631 -0.2010
    1PA    C115 3999   1.606  -0.029   5.415 -0.2003 -0.2701 -0.6507
    1PA    H15R 4000   1.516  -0.015   5.355 -0.2831 -0.1400 -0.4955
    1PA    H15S 4001   1.688   0.005   5.352  1.3274 -2.7128 -0.0725
    1PA    C114 4002   1.628  -0.182   5.423  0.1932 -0.3648 -0.4576
    1PA    H14R 4003   1.625  -0.211   5.318 -0.2512  1.9372 -1.1022
    1PA    H14S 4004   1.726  -0.214   5.461 -0.7235 -3.5446 -0.6323
    1PA    C113 4005   1.509  -0.244   5.504  0.2842 -0.2498 -0.1462
    1PA    H13R 4006   1.510  -0.180   5.592 -1.9963 -0.7932  0.3191
    1PA    H13S 4007   1.410  -0.236   5.460  0.2239  0.0483  0.0408
    1PA    C112 4008   1.539  -0.389   5.544 -0.2956  0.6361 -0.6298
    1PA    H12R 4009   1.548  -0.451   5.454  0.0791 -2.2381  1.3289
    1PA    H12S 4010   1.638  -0.393   5.589 -1.0214  0.3506  0.9937
    1PA    C111 4011   1.425  -0.444   5.642  0.2351 -0.1118 -0.7836
    1PA    H11R 4012   1.390  -0.359   5.701  0.7206  0.6202 -1.5224
    1PA    H11S 4013   1.333  -0.475   5.592 -1.1836  1.5429  0.7409
    1PA    C110 4014   1.474  -0.556   5.737  0.2979  0.2052  0.2981
    1PA    H10R 4015   1.531  -0.629   5.679 -0.9054 -1.6306  1.3880
    1PA    H10S 4016   1.537  -0.502   5.808 -2.5534  2.0850  1.4868
    1PA     C19 4017   1.371  -0.645   5.810 -0.3919 -0.1722 -0.4283
    1PA     H9R 4018   1.312  -0.584   5.879 -1.1491 -0.9161 -0.4122
    1PA     H9S 4019   1.298  -0.680   5.737 -0.5794 -0.1747 -0.2388
    1PA     C18 4020   1.444  -0.750   5.892 -0.3579  0.0016 -0.0492
    1PA     H8R 4021   1.507  -0.813   5.828  0.4340 -2.2937  2.8635
    1PA     H8S 4022   1.508  -0.704   5.968 -1.2421  0.1742  0.5951
    1PA     C17 4023   1.336  -0.829   5.963 -0.2913 -0.3154 -1.0341
    1PA     H7R 4024   1.310  -0.761   6.045  1.3785 -0.7090 -0.1588
    1PA     H7S 4025   1.252  -0.837   5.894 -1.5614  0.8561  0.3172
    1PA     C16 4026   1.382  -0.966   6.015 -0.2361 -0.0362 -0.1504
    1PA     H6R 4027   1.291  -1.020   6.042  0.7916 -0.7831  1.9472
    1PA     H6S 4028   1.426  -1.021   5.932 -0.1496 -0.1825 -0.0083
    1PA     C15 4029   1.492  -0.958   6.117  0.0248  1.2834  0.2186
    1PA     H5R 4030   1.586  -0.937   6.064  0.8757 -2.1234  0.2782
    1PA     H5S 4031   1.487  -0.867   6.177  0.4187  0.4108  1.5806
    1PA     C14 4032   1.501  -1.092   6.199  0.1082  0.6281  0.0143
    1PA     H4R 4033   1.462  -1.180   6.148  1.3680  0.2380 -0.2979
    1PA     H4S 4034   1.608  -1.114   6.210  0.4783  2.0316 -0.6215
    1PA     C13 4035   1.460  -1.085   6.344 -0.1610 -0.4004 -0.3731
    1PA     H3R 4036   1.351  -1.072   6.344 -0.1174  0.0825  2.1611
    1PA     H3S 4037   1.482  -1.183   6.386  2.8097  0.8879  1.1808
    1PA     C12 4038   1.523  -0.971   6.433  0.1510  0.4607 -0.5057
    1PA     H2R 4039   1.630  -0.974   6.410  0.4792 -0.4848  1.0710
    1PA     H2S 4040   1.482  -0.875   6.401  0.1301  1.1627  1.5277
    1PC     C11 4041   1.501  -1.000   6.584  0.0614  0.7377 -0.3449
    1PC     O12 4042   1.408  -0.956   6.646 -0.2139 -0.2815 -0.2531
    1PC     O11 4043   1.598  -1.078   6.632  0.4732  0.1255 -0.1287
    1PC      C1 4044   1.590  -1.146   6.761  0.5586 -0.4466 -0.0488
    1PC      HR 4045   1.679  -1.208   6.768 -0.2742 -1.7052 -0.4677
    1PC      HS 4046   1.598  -1.073   6.843 -1.1080  1.0873 -1.2028
    1PC      C2 4047   1.462  -1.230   6.751  0.2528 -0.1815  0.4988
    1PC      HX 4048   1.372  -1.176   6.721  0.6850  0.5002  0.4038
    1PC      C3 4049   1.425  -1.293   6.887  0.2618  0.5553 -0.5289
    1PC      HA 4050   1.318  -1.284   6.904  0.7586  0.3395  3.2738
    1PC      HB 4051   1.471  -1.393   6.892  0.8383  0.8813  1.1833
    1PC     O31 4052   1.498  -1.238   7.000 -0.0323 -0.1597  0.1985
    1PC     P31 4053   1.432  -1.125   7.092  0.0560 -0.4460  0.1007
    1PC     O32 4054   1.343  -1.206   7.195 -0.2886 -0.8672 -0.5721
    1PC     C31 4055   1.395  -1.258   7.320  0.9996  0.6104  0.0390
    1PC     H1A 4056   1.453  -1.180   7.370  2.0871 -1.1367  1.5717
    1PC     H1B 4057   1.309  -1.284   7.382  1.9553 -1.8713  0.4233
    1PC     C32 4058   1.477  -1.382   7.280  0.2182 -0.4270 -0.4460
    1PC     H2A 4059   1.415  -1.448   7.219 -0.4447 -1.7451  1.6215
    1PC     H2B 4060   1.563  -1.355   7.218  0.2861 -1.2112 -0.7006
    1PC     N31 4061   1.538  -1.469   7.382 -0.0459 -0.6071  0.5258
    1PC     C33 4062   1.433  -1.525   7.473  0.3940  0.2152  0.2887
    1PC     H3A 4063   1.367  -1.592   7.419  1.1510 -0.1312 -0.2092
    1PC     H3B 4064   1.487  -1.583   7.548  0.8240  0.5187  0.2157
    1PC     H3C 4065   1.375  -1.447   7.522 -0.9378 -0.4007 -0.3018
    1PC     C34 4066   1.617  -1.580   7.308 -0.1050 -0.0733 -0.2237
    1PC     H4A 4067   1.661  -1.649   7.380 -2.6069 -2.1252 -0.5916
    1PC     H4B 4068   1.548  -1.634   7.243 -0.1341 -0.0909 -0.1778
    1PC     H4C 4069   1.695  -1.526   7.254 -0.0655 -0.7460 -0.8443
    1PC     C35 4070   1.641  -1.393   7.468  0.1660  0.0397 -0.5350
    1PC     H5A 4071   1.589  -1.332   7.543  1.7437  3.0586 -1.8176
    1PC     H5B 4072   1.699  -1.333   7.397 -1.1227  1.0931 -0.7257
    1PC     H5C 4073   1.708  -1.461   7.520 -2.6172 -2.6494 -0.3813
    1PC     O33 4074   1.541  -1.058   7.162  0.1923  0.1592  0.0199
    1PC     O34 4075   1.344  -1.040   7.011 -0.0170 -0.3613  0.1167
    1PC     O21 4076   1.486  -1.334   6.646 -0.3867  0.2247 -0.8017
    1PC     C21 4077   1.373  -1.394   6.592 -0.5181  0.2832 -0.4665
    1PC     O22 4078   1.261  -1.348   6.607 -0.4859  0.1982  0.2779
    1OL     C12 4079   1.404  -1.519   6.510  0.3447 -0.4187 -0.4282
    1OL     H2R 4080   1.431  -1.601   6.576  0.2023 -1.3366 -1.5062
    1OL     H2S 4081   1.490  -1.503   6.445  0.0389 -1.3828 -1.0875
    1OL     C13 4082   1.278  -1.563   6.432  0.2674 -0.1401  0.1495
    1OL     H3R 4083   1.192  -1.554   6.498 -0.7891  0.1143 -1.2517
    1OL     H3S 4084   1.299  -1.665   6.398  0.9792  0.1804 -0.3995
    1OL     C14 4085   1.250  -1.476   6.306 -0.0592 -0.8284 -0.1360
    1OL     H4R 4086   1.221  -1.375   6.339  1.5038 -0.3192 -0.2710
    1OL     H4S 4087   1.160  -1.509   6.255  0.3710 -1.6146 -0.3905
    1OL     C15 4088   1.357  -1.451   6.200  0.3060 -1.0730 -0.0721
    1OL     H5R 4089   1.442  -1.397   6.243  0.5068  0.1516 -1.9095
    1OL     H5S 4090   1.317  -1.385   6.123  1.8697 -1.9008 -1.6511
    1OL     C16 4091   1.405  -1.575   6.133 -1.0390  0.0628  0.1382
    1OL     H6R 4092   1.318  -1.631   6.100  0.6847 -2.3543 -0.4349
    1OL     H6S 4093   1.455  -1.647   6.198  1.3635  1.9063  0.3953
    1OL     C17 4094   1.488  -1.544   6.007 -0.5981  0.1665 -0.6436
    1OL     H7R 4095   1.527  -1.638   5.967  0.4307 -0.2963  1.4031
    1OL     H7S 4096   1.571  -1.477   6.033 -0.7445  0.5485 -1.1414
    1OL     C18 4097   1.422  -1.462   5.892 -0.0681  0.2141  0.3099
    1OL     H8R 4098   1.403  -1.357   5.914  0.1635  0.2762  0.2121
    1OL     H8S 4099   1.323  -1.504   5.874  0.2311 -0.8724  1.1158
    1OL     C19 4100   1.503  -1.463   5.765  0.2091  0.1797  0.1070
    1OL     H9R 4101   1.530  -1.560   5.724 -0.7509 -0.0487  0.0058
    1OL    C110 4102   1.551  -1.363   5.689 -0.0173 -1.1101 -0.5908
    1OL    H10R 4103   1.609  -1.380   5.599 -0.6224  4.3607 -2.1655
    1OL    C111 4104   1.533  -1.214   5.712  0.7798 -0.1911  0.2216
    1OL    H11R 4105   1.463  -1.192   5.793  1.1451  0.0845  0.4625
    1OL    H11S 4106   1.498  -1.161   5.624  1.1026 -1.4224 -0.6689
    1OL    C112 4107   1.662  -1.148   5.749  0.2517 -0.1127 -0.5492
    1OL    H12R 4108   1.648  -1.041   5.732  0.2632 -0.5938 -3.8928
    1OL    H12S 4109   1.735  -1.169   5.670 -0.3591  1.4914 -1.5703
    1OL    C113 4110   1.701  -1.175   5.895 -0.3416  0.3004  0.3038
    1OL    H13R 4111   1.703  -1.282   5.913 -0.0949  0.3201  0.4010
    1OL    H13S 4112   1.624  -1.124   5.954 -0.8129 -0.5121  0.3929
    1OL    C114 4113   1.845  -1.120   5.919  0.1344  0.1429 -0.2783
    1OL    H14R 4114   1.851  -1.018   5.880  0.8922  0.3647  0.4060
    1OL    H14S 4115   1.912  -1.194   5.874 -0.5038 -1.8542  1.9645
    1OL    C115 4116   1.867  -1.111   6.070 -0.2534 -0.8609  0.1203
    1OL    H15R 4117   1.785  -1.045   6.100 -0.6222 -2.2231  2.1955
    1OL    H15S 4118   1.963  -1.062   6.087 -0.7240  0.1777 -0.1884
    1OL    C116 4119   1.863  -1.240   6.155  0.0921 -0.2567 -0.5490
    1OL    H16R 4120   1.940  -1.314   6.128 -0.2438  0.2713 -3.1487
    1OL    H16S 4121   1.765  -1.284   6.139  0.1870 -1.2692  1.5426
    1OL    C117 4122   1.887  -1.221   6.308  0.2022  0.4749  0.1652
    1OL    H17R 4123   1.842  -1.127   6.341 -0.7169  0.6234 -1.4269
    1OL    H17S 4124   1.995  -1.221   6.318  0.2718  0.3318 -0.5112
    1OL    C118 4125   1.831  -1.335   6.384 -0.1418  0.0604 -0.5879
    1OL    H18R 4126   1.851  -1.326   6.490 -0.8625 -1.5116 -0.3013
    1OL    H18S 4127   1.886  -1.424   6.353 -1.7385 -1.3436  0.5143
    1OL    H18T 4128   1.728  -1.340   6.347  0.2230 -1.1948 -1.4479
    1PA    C116 4129   3.474   0.468   5.841 -0.3119  0.0621  0.5421
    1PA    H16R 4130   3.374   0.437   5.810  0.0240  1.2100 -1.7839
    1PA    H16S 4131   3.545   0.386   5.824 -1.0786 -0.8632  1.6767
    1PA    H16T 4132   3.491   0.547   5.768  1.9094 -0.3445  0.5841
    1PA    C115 4133   3.474   0.512   5.987  0.6820 -0.1159  0.4643
    1PA    H15R 4134   3.569   0.550   6.025  0.0347  1.8360  0.1851
    1PA    H15S 4135   3.409   0.597   6.010 -0.0298 -0.9849  1.7380
    1PA    C114 4136   3.437   0.397   6.085 -0.0523 -0.4174  0.0567
    1PA    H14R 4137   3.443   0.449   6.181 -0.3835 -1.2572  0.5347
    1PA    H14S 4138   3.333   0.365   6.078  0.1795 -0.8291 -1.6540
    1PA    C113 4139   3.520   0.272   6.075  0.4821  0.3129  0.7007
    1PA    H13R 4140   3.471   0.180   6.110 -0.7559  0.9693  0.7096
    1PA    H13S 4141   3.518   0.247   5.969  0.0947 -2.7398  1.3814
    1PA    C112 4142   3.666   0.277   6.110  0.0352 -0.1717  0.8465
    1PA    H12R 4143   3.714   0.348   6.043 -0.7318  1.4323  1.9686
    1PA    H12S 4144   3.682   0.316   6.210  2.0099 -1.0070  0.8846
    1PA    C111 4145   3.745   0.143   6.091  0.3663  0.0026  0.4328
    1PA    H11R 4146   3.708   0.062   6.154 -0.8507 -0.2966 -0.6243
    1PA    H11S 4147   3.733   0.116   5.986  1.4405 -2.0522  0.8161
    1PA    C110 4148   3.899   0.146   6.114 -0.3188 -0.0867  0.1051
    1PA    H10R 4149   3.933   0.230   6.052  0.8297  0.2601  1.1844
    1PA    H10S 4150   3.921   0.165   6.219  1.4670 -2.9810  0.3124
    1PA     C19 4151   3.963   0.011   6.067  0.4501 -0.9695 -0.4223
    1PA     H9R 4152   3.934  -0.072   6.132 -0.4439 -0.4041 -0.0922
    1PA     H9S 4153   3.931  -0.013   5.965 -1.4558 -1.5757  0.2994
    1PA     C18 4154   4.113   0.024   6.071  0.2627 -0.0824 -0.0182
    1PA     H8R 4155   4.164  -0.059   6.022  0.1530  1.0541 -2.0861
    1PA     H8S 4156   4.135   0.116   6.017  0.1329  1.0414  1.7999
    1PA     C17 4157   4.164   0.052   6.216 -0.0474 -0.0078  0.6227
    1PA     H7R 4158   4.126   0.146   6.258 -0.4241  0.4493 -0.6853
    1PA     H7S 4159   4.110  -0.016   6.281  1.6412 -0.0897  1.9548
    1PA     C16 4160   4.312   0.025   6.246  0.4817  0.2543 -0.2952
    1PA     H6R 4161   4.342   0.049   6.349  1.6397  2.7575 -1.1850
    1PA     H6S 4162   4.332  -0.081   6.230 -0.1131 -0.2187  1.8843
    1PA     C15 4163   4.416   0.099   6.164  0.4456 -0.8167 -0.7263
    1PA     H5R 4164   4.386   0.089   6.059 -2.6987 -1.8046  0.2059
    1PA     H5S 4165   4.420   0.204   6.195 -0.8935 -1.1384  0.5388
    1PA     C14 4166   4.554   0.037   6.172  0.1161 -0.5029 -0.0784
    1PA     H4R 4167   4.539  -0.070   6.161  1.0831 -0.8673  1.9334
    1PA     H4S 4168   4.617   0.074   6.091 -1.4693  0.3141 -0.9748
    1PA     C13 4169   4.638   0.071   6.296  0.5141 -0.2856 -0.4433
    1PA     H3R 4170   4.631   0.177   6.323 -4.2938 -0.6948  0.3661
    1PA     H3S 4171   4.593   0.014   6.378  0.1549  0.3375 -0.2019
    1PA     C12 4172   4.782   0.027   6.285 -0.5046 -0.3248  0.7802
    1PA     H2R 4173   4.793  -0.079   6.262  1.9357 -0.0111  0.3431
    1PA     H2S 4174   4.838   0.084   6.211 -3.6239  1.2981 -0.4300
    1PC     C11 4175   4.854   0.058   6.416 -0.5087 -0.4598  0.0120
    1PC     O12 4176   4.899   0.164   6.442  0.5477 -0.1695 -0.2235
    1PC     O11 4177   4.865  -0.048   6.487  0.4151  1.0693 -0.6493
    1PC      C1 4178   4.924  -0.041   6.621 -0.4473 -0.2504 -0.3817
    1PC      HR 4179   4.953  -0.145   6.641  0.9064  0.1522 -0.2136
    1PC      HS 4180   5.017   0.017   6.621 -0.5408 -0.0358  1.7939
    1PC      C2 4181   4.823   0.017   6.731 -0.2411  0.2355  0.3795
    1PC      HX 4182   4.802   0.118   6.696  3.6224  0.1941 -2.3112
    1PC      C3 4183   4.880   0.030   6.872  0.2221 -0.6099 -0.1214
    1PC      HA 4184   4.909  -0.069   6.907  1.0478 -0.2799  0.1226
    1PC      HB 4185   4.963   0.101   6.873 -1.0982  1.0643 -2.4962
    1PC     O31 4186   4.768   0.074   6.957 -0.2350 -1.0027 -0.1992
    1PC     P31 4187   4.768   0.048   7.117 -0.3036 -0.2605  0.4452
    1PC     O32 4188   4.656  -0.070   7.128  1.0403 -0.2959 -0.0679
    1PC     C31 4189   4.692  -0.209   7.089 -0.2153 -0.8071 -0.0985
    1PC     H1A 4190   4.598  -0.261   7.070 -1.2386  1.9054 -2.9194
    1PC     H1B 4191   4.751  -0.214   6.996 -1.5332 -1.8072 -0.8876
    1PC     C32 4192   4.770  -0.280   7.206 -0.2088  0.1466 -0.0465
    1PC     H2A 4193   4.808  -0.372   7.162  2.9177  1.4301 -0.1529
    1PC     H2B 4194   4.858  -0.220   7.228  1.3972 -0.4842 -4.3691
    1PC     N31 4195   4.696  -0.310   7.331 -0.2191 -0.2985  0.3718
    1PC     C33 4196   4.571  -0.391   7.311 -0.3924 -0.2781  0.0261
    1PC     H3A 4197   4.508  -0.371   7.398  0.9598 -2.1811  1.4982
    1PC     H3B 4198   4.524  -0.361   7.218  1.8217 -2.6251 -1.9113
    1PC     H3C 4199   4.599  -0.496   7.305  0.0893 -0.4112  3.2676
    1PC     C34 4200   4.793  -0.387   7.410 -0.2859 -0.4957 -0.0436
    1PC     H4A 4201   4.874  -0.315   7.425 -0.3794 -0.2540 -0.6816
    1PC     H4B 4202   4.757  -0.417   7.508  0.9746 -1.8445  0.0372
    1PC     H4C 4203   4.827  -0.468   7.345 -1.2073 -1.0031  0.1044
    1PC     C35 4204   4.662  -0.194   7.413 -0.3796 -0.2491 -0.2401
    1PC     H5A 4205   4.604  -0.245   7.491  1.9473  1.6171  2.7795
    1PC     H5B 4206   4.596  -0.126   7.359 -0.7116  0.3185  0.8668
    1PC     H5C 4207   4.756  -0.150   7.446  0.1382 -0.3952 -1.4783
    1PC     O33 4208   4.896  -0.009   7.170  0.1896  0.4645  0.1492
    1PC     O34 4209   4.709   0.169   7.183  0.8745  0.1572  0.2239
    1PC     O21 4210   4.714  -0.075   6.734 -0.0226 -0.7571  0.7057
    1PC     C21 4211   4.587  -0.029   6.758  0.6795 -0.1725 -0.0388
    1PC     O22 4212   4.560   0.090   6.764 -0.0554 -0.3254 -0.3094
    1OL     C12 4213   4.486  -0.139   6.779 -0.6493  0.0737  0.2967
    1OL     H2R 4214   4.471  -0.144   6.887 -0.0038 -0.6587  0.3566
    1OL     H2S 4215   4.529  -0.231   6.739  0.3661  0.7832 -0.3020
    1OL     C13 4216   4.350  -0.107   6.709  0.4183 -0.0442 -0.2611
    1OL     H3R 4217   4.369  -0.084   6.605  2.8782 -1.5743 -0.1875
    1OL     H3S 4218   4.306  -0.018   6.756 -1.5978 -1.8553  1.4313
    1OL     C14 4219   4.239  -0.217   6.722 -0.1328  1.0746  0.2770
    1OL     H4R 4220   4.138  -0.177   6.708  1.0373  3.4105 -1.8518
    1OL     H4S 4221   4.240  -0.247   6.827  0.0327 -1.5703 -0.4588
    1OL     C15 4222   4.272  -0.341   6.640  0.0192  0.4771 -1.0293
    1OL     H5R 4223   4.195  -0.415   6.663 -0.1394  0.5150 -1.4231
    1OL     H5S 4224   4.366  -0.381   6.677 -0.5091  1.4848  1.5242
    1OL     C16 4225   4.269  -0.312   6.491  1.1285 -0.6482  0.8014
    1OL     H6R 4226   4.338  -0.235   6.459 -0.0279  1.2510  2.7627
    1OL     H6S 4227   4.173  -0.269   6.461  0.8820 -1.1921  0.8050
    1OL     C17 4228   4.289  -0.438   6.405  0.0247 -0.0395  0.7766
    1OL     H7R 4229   4.209  -0.510   6.427 -0.0820  0.1510  1.0156
    1OL     H7S 4230   4.385  -0.487   6.422 -0.9191 -2.0479  0.5026
    1OL     C18 4231   4.259  -0.403   6.255 -0.1708  0.6087 -0.5830
    1OL     H8R 4232   4.342  -0.336   6.230  0.0371 -0.0225 -1.6104
    1OL     H8S 4233   4.172  -0.338   6.246  0.8572  2.1799  0.4946
    1OL     C19 4234   4.255  -0.520   6.162  0.0872  0.8347  0.8157
    1OL     H9R 4235   4.273  -0.618   6.205 -1.6440  0.4856  0.7964
    1OL    C110 4236   4.233  -0.520   6.034  0.5438  0.1584  0.4236
    1OL    H10R 4237   4.230  -0.617   5.985 -0.2510  0.2326  0.3169
    1OL    C111 4238   4.206  -0.393   5.945 -0.7849  0.1323  0.2072
    1OL    H11R 4239   4.272  -0.311   5.973 -0.5181  0.3303 -0.9538
    1OL    H11S 4240   4.105  -0.354   5.957  0.8274  4.2302  1.1767
    1OL    C112 4241   4.231  -0.431   5.792  0.2197  0.0641 -0.3417
    1OL    H12R 4242   4.147  -0.496   5.766  0.0629 -0.1205  0.6006
    1OL    H12S 4243   4.325  -0.487   5.785  0.4928  0.5949 -0.8816
    1OL    C113 4244   4.243  -0.309   5.708  0.2797 -0.9194 -0.0531
    1OL    H13R 4245   4.319  -0.237   5.739  0.4368 -0.4666 -1.4358
    1OL    H13S 4246   4.152  -0.249   5.709  0.9217  0.0984 -0.7223
    1OL    C114 4247   4.283  -0.352   5.565 -0.5049 -0.2502  0.7976
    1OL    H14R 4248   4.218  -0.437   5.545 -0.2364 -0.3322  0.2869
    1OL    H14S 4249   4.384  -0.393   5.556  0.7573  3.1184 -1.6148
    1OL    C115 4250   4.279  -0.236   5.465 -0.4796  0.2108  0.0939
    1OL    H15R 4251   4.353  -0.158   5.486  0.9670 -1.4294  1.2128
    1OL    H15S 4252   4.182  -0.187   5.475 -0.9126 -0.6369  0.0351
    1OL    C116 4253   4.283  -0.266   5.316 -0.3722  0.4850  0.1556
    1OL    H16R 4254   4.368  -0.333   5.304  0.7573  1.6048  1.6656
    1OL    H16S 4255   4.305  -0.174   5.262  1.3282 -0.1782 -0.2940
    1OL    C117 4256   4.157  -0.335   5.261 -0.2428  0.1168  0.6619
    1OL    H17R 4257   4.064  -0.281   5.283 -0.3365 -0.5901  2.0282
    1OL    H17S 4258   4.157  -0.432   5.311  1.2796 -1.4474 -2.2711
    1OL    C118 4259   4.157  -0.349   5.111 -0.0999  0.2720 -0.5271
    1OL    H18R 4260   4.080  -0.419   5.078 -0.3969 -0.3562  1.4290
    1OL    H18S 4261   4.255  -0.382   5.077  0.4430  2.4049 -1.1440
    1OL    H18T 4262   4.144  -0.251   5.063  0.7062  1.3246  1.3717
    1PA    C116 4263   3.904   0.026   5.629 -0.0603 -0.2041  0.5500
    1PA    H16R 4264   3.922  -0.027   5.723 -0.7895 -0.0933  0.7547
    1PA    H16S 4265   3.843   0.114   5.651 -0.0307 -0.5480  2.0514
    1PA    H16T 4266   4.002   0.056   5.591  0.1796 -0.6651  0.8068
    1PA    C115 4267   3.827  -0.066   5.527  0.5197 -0.4983  0.0126
    1PA    H15R 4268   3.721  -0.065   5.550  0.5815 -0.4681  0.3001
    1PA    H15S 4269   3.846  -0.056   5.420  0.1387 -0.6149 -0.0657
    1PA    C114 4270   3.870  -0.217   5.546  0.0762  0.0714  0.3198
    1PA    H14R 4271   3.976  -0.235   5.527  0.2324  0.8159  0.4539
    1PA    H14S 4272   3.843  -0.246   5.647  3.1936 -2.1649  0.5788
    1PA    C113 4273   3.797  -0.317   5.460 -0.0280 -0.2872  0.0276
    1PA    H13R 4274   3.690  -0.305   5.474  0.3079  1.5884  1.1965
    1PA    H13S 4275   3.811  -0.287   5.356  0.8764  1.6410  0.6813
    1PA    C112 4276   3.841  -0.464   5.481  0.7074  0.2087 -0.2927
    1PA    H12R 4277   3.771  -0.529   5.428  0.3678  0.4530 -0.1436
    1PA    H12S 4278   3.944  -0.477   5.446  0.9281  1.2877 -0.0835
    1PA    C111 4279   3.833  -0.502   5.627  0.2885  0.7619  0.1368
    1PA    H11R 4280   3.855  -0.608   5.624 -0.5911  0.5325  1.2810
    1PA    H11S 4281   3.908  -0.452   5.688 -0.4535  1.5038  0.4585
    1PA    C110 4282   3.696  -0.495   5.694  0.2918 -0.4772 -0.0075
    1PA    H10R 4283   3.681  -0.393   5.732  0.6134 -0.4570  0.0687
    1PA    H10S 4284   3.619  -0.511   5.619  0.7206  1.0003 -0.7813
    1PA     C19 4285   3.690  -0.582   5.822  0.0404  0.5431  0.1136
    1PA     H9R 4286   3.587  -0.592   5.855 -0.7012  0.5969 -2.1352
    1PA     H9S 4287   3.725  -0.683   5.798  1.0742  0.9690 -0.2077
    1PA     C18 4288   3.788  -0.520   5.918 -0.3842  0.1150  0.0016
    1PA     H8R 4289   3.888  -0.524   5.875  0.0018 -0.0812  0.9025
    1PA     H8S 4290   3.778  -0.412   5.931 -0.6167  0.0250  0.5765
    1PA     C17 4291   3.776  -0.570   6.062 -0.5113 -0.4927  0.7878
    1PA     H7R 4292   3.689  -0.535   6.118 -2.1968 -1.9098 -0.8692
    1PA     H7S 4293   3.757  -0.678   6.058 -0.2861 -0.5541  1.3319
    1PA     C16 4294   3.902  -0.537   6.144 -0.2436  0.1325  0.2888
    1PA     H6R 4295   3.987  -0.592   6.104 -0.2461  0.0990  0.3294
    1PA     H6S 4296   3.924  -0.431   6.131  0.2223  0.4248  3.1293
    1PA     C15 4297   3.896  -0.575   6.294  0.2396  0.1703  0.0878
    1PA     H5R 4298   3.857  -0.675   6.313  2.3734 -0.2040  2.7321
    1PA     H5S 4299   3.992  -0.573   6.347  1.3200 -0.6379 -1.7810
    1PA     C14 4300   3.806  -0.468   6.374  0.3616 -0.2648 -0.7234
    1PA     H4R 4301   3.714  -0.450   6.317 -0.4009 -0.2252  0.4898
    1PA     H4S 4302   3.773  -0.516   6.467  1.1025  0.8518  0.1326
    1PA     C13 4303   3.885  -0.338   6.402  0.1749 -0.9933  0.2375
    1PA     H3R 4304   3.979  -0.370   6.447 -0.8799 -2.9799  1.1074
    1PA     H3S 4305   3.915  -0.293   6.308 -1.2098  1.3918  0.8897
    1PA     C12 4306   3.831  -0.220   6.486 -0.0410 -0.1985 -0.3217
    1PA     H2R 4307   3.907  -0.144   6.507  0.7464 -1.4968  1.7261
    1PA     H2S 4308   3.745  -0.175   6.437  0.1225  2.1494  1.4355
    1PC     C11 4309   3.778  -0.280   6.617 -0.4980 -0.4962  0.1697
    1PC     O12 4310   3.661  -0.279   6.644  0.2421 -0.4250  0.3071
    1PC     O11 4311   3.880  -0.327   6.688 -0.4544  0.4199 -0.4406
    1PC      C1 4312   3.858  -0.393   6.821  0.4370 -0.3994 -0.3691
    1PC      HR 4313   3.756  -0.433   6.825  1.0360 -1.7253  4.1351
    1PC      HS 4314   3.938  -0.467   6.825  0.4245 -0.5066 -2.0259
    1PC      C2 4315   3.865  -0.278   6.929 -0.1649  0.8785  0.7298
    1PC      HX 4316   3.970  -0.252   6.936 -0.1237  0.9798 -0.2585
    1PC      C3 4317   3.803  -0.319   7.063 -0.1574  0.1191 -0.3783
    1PC      HA 4318   3.695  -0.312   7.053 -0.0948 -1.1355 -2.1233
    1PC      HB 4319   3.829  -0.423   7.082 -0.5891  0.2363  0.8658
    1PC     O31 4320   3.850  -0.235   7.169 -0.8638  0.5381  0.2865
    1PC     P31 4321   3.963  -0.273   7.272 -0.5452 -0.4081 -0.3159
    1PC     O32 4322   3.879  -0.340   7.384 -0.3966  0.3184 -0.3860
    1PC     C31 4323   3.827  -0.473   7.364 -0.3795 -0.0589 -0.2624
    1PC     H1A 4324   3.817  -0.507   7.261  0.1399 -1.1482  0.0462
    1PC     H1B 4325   3.894  -0.545   7.411  0.4990 -0.8842 -2.7169
    1PC     C32 4326   3.691  -0.495   7.436 -0.1695 -0.0552 -0.3760
    1PC     H2A 4327   3.650  -0.596   7.428 -1.9243  0.5061  1.2035
    1PC     H2B 4328   3.714  -0.483   7.542  0.3194 -0.9027 -0.3789
    1PC     N31 4329   3.572  -0.408   7.396  1.0562 -0.2304  0.2604
    1PC     C33 4330   3.523  -0.434   7.262 -0.1527 -0.3224 -0.4100
    1PC     H3A 4331   3.600  -0.400   7.193 -0.4819  0.5939 -0.3368
    1PC     H3B 4332   3.515  -0.539   7.235  3.3151  0.2720 -4.1564
    1PC     H3C 4333   3.424  -0.392   7.244 -0.4421  0.0275  1.8082
    1PC     C34 4334   3.461  -0.441   7.492 -0.1989  0.4506  0.1800
    1PC     H4A 4335   3.374  -0.381   7.465 -0.4846  0.7206  1.6610
    1PC     H4B 4336   3.432  -0.545   7.476  2.4707  0.1304 -3.2445
    1PC     H4C 4337   3.495  -0.410   7.591  0.5439  1.2068 -0.2994
    1PC     C35 4338   3.602  -0.260   7.410  0.4874  0.3801 -0.0411
    1PC     H5A 4339   3.686  -0.231   7.346  0.3128  2.5511  0.6639
    1PC     H5B 4340   3.624  -0.241   7.515 -0.5624 -1.8186  0.5971
    1PC     H5C 4341   3.507  -0.215   7.379  1.4155  1.4477 -1.4246
    1PC     O33 4342   4.060  -0.364   7.208  0.2220 -0.2606 -0.4876
    1PC     O34 4343   4.002  -0.142   7.324 -0.1331  0.2729  0.1113
    1PC     O21 4344   3.777  -0.168   6.898 -0.4568 -0.0163 -0.5360
    1PC     C21 4345   3.836  -0.049   6.868 -0.9488  0.2538  0.9391
    1PC     O22 4346   3.953  -0.027   6.850 -0.0455 -0.0179 -0.0053
    1OL     C12 4347   3.730   0.059   6.858  0.5108 -0.0290  0.7466
    1OL     H2R 4348   3.777   0.148   6.901 -2.3946  1.7911  0.3343
    1OL     H2S 4349   3.650   0.033   6.928  0.5074 -1.3385  0.2628
    1OL     C13 4350   3.671   0.078   6.714 -0.2574  0.9058 -0.4201
    1OL     H3R 4351   3.621  -0.011   6.676  0.7218 -0.5250  1.5947
    1OL     H3S 4352   3.758   0.096   6.650 -1.3919  1.0619 -1.9608
    1OL     C14 4353   3.583   0.204   6.692 -0.2543 -0.0090 -0.4302
    1OL     H4R 4354   3.642   0.284   6.737 -2.1889  1.2616 -0.1111
    1OL     H4S 4355   3.498   0.184   6.758  0.2072 -0.7353 -0.0416
    1OL     C15 4356   3.553   0.251   6.552  0.0717  0.1055 -0.1960
    1OL     H5R 4357   3.645   0.284   6.502 -0.4293  0.6716 -0.7413
    1OL     H5S 4358   3.488   0.338   6.556 -2.0082 -1.4488  0.4480
    1OL     C16 4359   3.493   0.141   6.459  0.3379 -0.1078 -0.1596
    1OL     H6R 4360   3.575   0.070   6.443  0.1909  0.7722 -5.7870
    1OL     H6S 4361   3.479   0.187   6.361  0.2617  0.4409  0.1058
    1OL     C17 4362   3.363   0.077   6.519 -0.3410 -0.2782  0.4782
    1OL     H7R 4363   3.282   0.150   6.514 -0.3200 -0.0947  2.2750
    1OL     H7S 4364   3.365   0.028   6.617 -4.0079 -1.0046  0.2705
    1OL     C18 4365   3.316  -0.038   6.422  0.3173 -0.7349  0.3054
    1OL     H8R 4366   3.324   0.000   6.320  1.5966 -1.4285  0.1403
    1OL     H8S 4367   3.209  -0.043   6.445  0.7992  0.1646  2.9921
    1OL     C19 4368   3.377  -0.172   6.442  0.2529 -0.7923 -0.4260
    1OL     H9R 4369   3.334  -0.224   6.527  0.7647  0.5638  0.6843
    1OL    C110 4370   3.465  -0.228   6.358  0.3216  0.3378 -0.5111
    1OL    H10R 4371   3.507  -0.325   6.384  0.4531  0.1082 -1.5536
    1OL    C111 4372   3.525  -0.170   6.233 -0.2180 -0.5699 -0.0230
    1OL    H11R 4373   3.629  -0.201   6.216  0.0255  0.0139  0.3792
    1OL    H11S 4374   3.541  -0.063   6.248 -0.2150 -0.7691  1.4836
    1OL    C112 4375   3.429  -0.204   6.119  0.2377  0.4665 -0.2394
    1OL    H12R 4376   3.333  -0.155   6.136 -0.3686 -0.0726 -2.0174
    1OL    H12S 4377   3.396  -0.307   6.108  1.1764  0.1617 -0.2916
    1OL    C113 4378   3.480  -0.153   5.982 -0.1374  0.1107  0.4045
    1OL    H13R 4379   3.583  -0.189   5.979  1.2534  3.8335  1.3040
    1OL    H13S 4380   3.490  -0.045   5.985 -3.6638  0.5187 -0.2258
    1OL    C114 4381   3.412  -0.207   5.856  0.2976  0.0130  0.8024
    1OL    H14R 4382   3.307  -0.179   5.865  0.4300  0.2141  1.7817
    1OL    H14S 4383   3.432  -0.314   5.854 -2.2317 -0.4592 -2.3127
    1OL    C115 4384   3.461  -0.141   5.726  0.5761  0.5317  0.1806
    1OL    H15R 4385   3.559  -0.173   5.690  1.0199 -1.3315  2.9485
    1OL    H15S 4386   3.469  -0.033   5.744  1.1554  0.9477 -2.3670
    1OL    C116 4387   3.358  -0.166   5.610  0.1206 -0.1670 -0.2894
    1OL    H16R 4388   3.399  -0.121   5.519  1.8292  0.7508  0.9159
    1OL    H16S 4389   3.270  -0.111   5.645 -0.4643 -1.4626  0.2943
    1OL    C117 4390   3.331  -0.311   5.599  0.5460  0.1464 -0.0769
    1OL    H17R 4391   3.273  -0.341   5.686 -0.0887  2.7145  0.4305
    1OL    H17S 4392   3.422  -0.371   5.604 -0.2074 -1.0436 -0.5241
    1OL    C118 4393   3.258  -0.334   5.463  0.2712  0.3620  1.3004
    1OL    H18R 4394   3.220  -0.436   5.451  1.7447  0.0036 -0.7899
    1OL    H18S 4395   3.317  -0.311   5.373  1.0796 -0.4172  1.6163
    1OL    H18T 4396   3.165  -0.278   5.463  0.5314  0.8107  3.1180
    1PA    C116 4397   1.576   5.297   5.999  0.2299 -0.5391 -0.5339
    1PA    H16R 4398   1.494   5.358   5.960 -0.1463 -0.3385  0.5666
    1PA    H16S 4399   1.614   5.347   6.088  0.5170  1.2832 -1.6445
    1PA    H16T 4400   1.546   5.194   6.020 -1.4328  0.4811  2.3889
    1PA    C115 4401   1.691   5.307   5.902  0.4264  0.0957 -0.1571
    1PA    H15R 4402   1.670   5.239   5.819 -2.6982  1.1071 -0.2624
    1PA    H15S 4403   1.699   5.410   5.865  1.1013  0.7945  1.8380
    1PA    C114 4404   1.819   5.254   5.957 -0.0903 -0.4277  0.2396
    1PA    H14R 4405   1.807   5.151   5.991 -0.1679 -0.2297  0.8354
    1PA    H14S 4406   1.891   5.253   5.875  1.3964 -0.1649  1.5015
    1PA    C113 4407   1.874   5.339   6.082 -0.3785  0.2124 -0.2503
    1PA    H13R 4408   1.878   5.445   6.058 -0.2683 -0.2192 -2.2433
    1PA    H13S 4409   1.818   5.318   6.173  1.6845  1.4024  1.3242
    1PA    C112 4410   2.019   5.310   6.125  0.3754 -0.1394 -0.1081
    1PA    H12R 4411   2.083   5.307   6.037 -0.0651  1.8062 -0.5206
    1PA    H12S 4412   2.055   5.388   6.194  1.5344  0.7787 -1.7241
    1PA    C111 4413   2.047   5.174   6.187  0.5729 -0.7008 -0.1488
    1PA    H11R 4414   1.981   5.157   6.272  0.8827  1.2538  0.5007
    1PA    H11S 4415   2.025   5.104   6.106  2.7201  0.1574 -1.5249
    1PA    C110 4416   2.190   5.143   6.230 -0.6437 -0.3881  0.1570
    1PA    H10R 4417   2.213   5.038   6.245  2.0658 -0.2378 -2.3532
    1PA    H10S 4418   2.257   5.179   6.152 -1.0750  0.6135  0.2421
    1PA     C19 4419   2.234   5.236   6.348 -0.3137  0.1098  0.1946
    1PA     H9R 4420   2.339   5.215   6.370 -0.3817 -0.9880 -0.5238
    1PA     H9S 4421   2.231   5.341   6.318 -0.6931  0.0103 -0.1181
    1PA     C18 4422   2.157   5.216   6.484  0.0581 -0.3668  0.0011
    1PA     H8R 4423   2.197   5.291   6.553 -1.5889 -0.5318  1.1563
    1PA     H8S 4424   2.052   5.242   6.473 -0.0304 -0.8245 -0.2524
    1PA     C17 4425   2.159   5.078   6.553 -0.6165  0.5255  0.2675
    1PA     H7R 4426   2.244   5.023   6.512 -0.1071  2.2232 -0.9911
    1PA     H7S 4427   2.172   5.083   6.661  0.0817  0.0559  0.2097
    1PA     C16 4428   2.036   4.985   6.528  0.7774  0.1442 -0.1985
    1PA     H6R 4429   1.956   5.035   6.582  0.8512 -0.9402  0.9582
    1PA     H6S 4430   2.013   4.976   6.422  0.0519 -3.1357  0.1610
    1PA     C15 4431   2.072   4.850   6.594 -0.5355  0.3900  0.0547
    1PA     H5R 4432   2.144   4.808   6.523  0.8937  1.6310  0.7320
    1PA     H5S 4433   2.125   4.866   6.688  0.0169 -0.4689 -0.0984
    1PA     C14 4434   1.957   4.747   6.606 -0.0167 -0.1786 -0.0373
    1PA     H4R 4435   1.872   4.785   6.662 -0.2479  0.6104 -0.9134
    1PA     H4S 4436   1.924   4.725   6.505 -1.3865 -2.1635  0.8002
    1PA     C13 4437   2.015   4.619   6.667 -0.1664 -0.3440  0.1734
    1PA     H3R 4438   2.111   4.585   6.628 -0.0156 -0.0992  0.3244
    1PA     H3S 4439   2.035   4.636   6.773  1.1489 -1.1027  0.0625
    1PA     C12 4440   1.923   4.498   6.660  0.5020  0.4697  0.9400
    1PA     H2R 4441   1.829   4.514   6.712 -1.5702 -2.7175 -1.6260
    1PA     H2S 4442   1.883   4.479   6.560 -1.2229  0.2774  1.6635
    1PC     C11 4443   1.990   4.372   6.710 -0.2734  0.3486 -0.1843
    1PC     O12 4444   2.063   4.308   6.641 -0.2780 -0.1473  0.3332
    1PC     O11 4445   1.953   4.339   6.840  0.6460 -0.6197 -0.7258
    1PC      C1 4446   2.035   4.245   6.914 -0.3410  0.6467  0.0169
    1PC      HR 4447   1.971   4.187   6.981  2.5416  0.7161  2.9581
    1PC      HS 4448   2.095   4.184   6.846  0.7197 -0.1565  1.6219
    1PC      C2 4449   2.125   4.342   6.999 -0.1256 -0.1865 -0.1945
    1PC      HX 4450   2.189   4.289   7.069  0.6299 -0.0618 -0.7862
    1PC      C3 4451   2.042   4.436   7.081  0.2051  0.1043 -0.4682
    1PC      HA 4452   1.985   4.507   7.020 -1.3440 -1.9459 -1.4892
    1PC      HB 4453   1.969   4.377   7.137 -0.1878  1.2905  0.2762
    1PC     O31 4454   2.117   4.505   7.183 -0.0432  0.1050 -0.1936
    1PC     P31 4455   2.047   4.593   7.303  0.0981 -0.3029  0.0422
    1PC     O32 4456   2.105   4.738   7.273 -0.1542 -0.1515  0.3177
    1PC     C31 4457   2.079   4.800   7.144 -0.2429  0.9628 -0.1653
    1PC     H1A 4458   2.163   4.764   7.084  0.4508  1.3992  0.5380
    1PC     H1B 4459   1.981   4.776   7.103  0.7497  1.2591 -2.8336
    1PC     C32 4460   2.088   4.955   7.155 -0.0370 -0.6400  0.1417
    1PC     H2A 4461   2.186   4.982   7.196  0.8284 -2.0015 -0.9490
    1PC     H2B 4462   2.070   5.006   7.061 -2.4860  1.1174  1.5390
    1PC     N31 4463   1.996   5.022   7.255  0.3053  0.1519  0.2123
    1PC     C33 4464   2.016   4.985   7.397 -0.1212  0.0134 -0.6193
    1PC     H3A 4465   1.952   5.056   7.450 -1.6584 -0.9727 -1.1269
    1PC     H3B 4466   1.996   4.880   7.417  0.3581  0.0921  0.2963
    1PC     H3C 4467   2.119   5.001   7.429 -0.5275  0.2659  0.5763
    1PC     C34 4468   2.003   5.173   7.244  0.1951  0.7118 -0.1236
    1PC     H4A 4469   1.988   5.203   7.140  0.0701 -0.4639 -0.4503
    1PC     H4B 4470   1.947   5.224   7.322 -0.8176 -0.7438  0.1152
    1PC     H4C 4471   2.105   5.203   7.270 -0.2238  2.2284 -0.1880
    1PC     C35 4472   1.849   4.995   7.229  0.6176  0.3269  0.2292
    1PC     H5A 4473   1.820   4.903   7.279 -2.3283  0.5117 -1.0434
    1PC     H5B 4474   1.825   4.980   7.123  1.9949  0.3316 -0.0965
    1PC     H5C 4475   1.794   5.077   7.275  1.4231 -0.8116  3.3255
    1PC     O33 4476   1.901   4.598   7.289 -0.4296 -0.8794  0.1152
    1PC     O34 4477   2.097   4.540   7.427 -0.2939 -0.4832 -0.2287
    1PC     O21 4478   2.210   4.423   6.912 -0.7598 -0.0677  0.2477
    1PC     C21 4479   2.337   4.423   6.928  0.0383  0.3067 -0.3032
    1PC     O22 4480   2.399   4.346   7.001  0.1554  0.0082 -0.0998
    1OL     C12 4481   2.397   4.546   6.859  0.1443  0.1641  0.0120
    1OL     H2R 4482   2.440   4.612   6.934 -0.4308  0.7226 -0.1504
    1OL     H2S 4483   2.316   4.600   6.808 -1.9799 -1.4884  1.5496
    1OL     C13 4484   2.514   4.502   6.768 -0.2850 -0.1638 -0.0003
    1OL     H3R 4485   2.477   4.423   6.702  0.7150 -0.0776 -0.6685
    1OL     H3S 4486   2.589   4.452   6.829  2.7212  2.9740 -0.9643
    1OL     C14 4487   2.555   4.620   6.682  0.1479  0.4463  0.2389
    1OL     H4R 4488   2.476   4.643   6.610 -1.0623 -0.8320  1.1315
    1OL     H4S 4489   2.647   4.590   6.631  0.4116 -0.7179  1.3842
    1OL     C15 4490   2.576   4.754   6.760  0.0380 -0.0589  0.0662
    1OL     H5R 4491   2.663   4.754   6.825 -0.6250  2.3699  1.0085
    1OL     H5S 4492   2.480   4.771   6.810 -1.0795 -1.5669 -1.4527
    1OL     C16 4493   2.585   4.868   6.658  1.1256  0.3245  0.6658
    1OL     H6R 4494   2.494   4.876   6.598  3.0489 -0.4973 -2.5194
    1OL     H6S 4495   2.668   4.847   6.590 -0.9637 -1.5559 -1.4445
    1OL     C17 4496   2.591   5.003   6.729  0.7002  0.1387 -0.1211
    1OL     H7R 4497   2.671   5.016   6.802  0.4454  0.0000  0.1797
    1OL     H7S 4498   2.499   5.009   6.788  1.0426 -1.6102  0.6184
    1OL     C18 4499   2.591   5.118   6.625 -0.1414  0.3355  0.1693
    1OL     H8R 4500   2.499   5.115   6.566 -0.7146  1.6689  0.9766
    1OL     H8S 4501   2.678   5.117   6.559 -1.2141 -0.2753 -1.2520
    1OL     C19 4502   2.583   5.246   6.705  0.2729 -1.0803 -0.0799
    1OL     H9R 4503   2.555   5.238   6.810 -0.3268 -2.9876 -0.3684
    1OL    C110 4504   2.593   5.370   6.651 -0.2276  0.2668  0.2272
    1OL    H10R 4505   2.579   5.455   6.718 -0.6402  1.1762 -1.0049
    1OL    C111 4506   2.600   5.400   6.501  0.7472 -0.3497  0.7251
    1OL    H11R 4507   2.576   5.318   6.433  1.3599  0.8673 -0.9856
    1OL    H11S 4508   2.701   5.439   6.487  0.4305  0.5842  1.0169
    1OL    C112 4509   2.500   5.500   6.461 -0.3806 -0.0268 -0.1042
    1OL    H12R 4510   2.491   5.596   6.513 -1.3327  0.1510 -0.5838
    1OL    H12S 4511   2.404   5.454   6.486 -1.1999  2.2660  1.2375
    1OL    C113 4512   2.488   5.524   6.311  0.2943  0.8503  0.3383
    1OL    H13R 4513   2.474   5.436   6.249 -1.4036  2.1336 -1.1528
    1OL    H13S 4514   2.583   5.566   6.279  1.4650  0.1738  2.7851
    1OL    C114 4515   2.366   5.609   6.258  0.7015 -0.5051  0.0375
    1OL    H14R 4516   2.378   5.713   6.289  0.1456 -0.3897 -0.1325
    1OL    H14S 4517   2.275   5.570   6.305 -0.1105 -0.4661 -1.4629
    1OL    C115 4518   2.343   5.594   6.104 -0.6905 -0.5258  0.2772
    1OL    H15R 4519   2.247   5.640   6.077  0.8043  1.4969 -1.7389
    1OL    H15S 4520   2.341   5.487   6.085  0.7376 -0.8858  1.9957
    1OL    C116 4521   2.450   5.662   6.017 -0.3595  0.0484 -0.6460
    1OL    H16R 4522   2.421   5.642   5.914  0.3646  0.6498 -0.9602
    1OL    H16S 4523   2.554   5.635   6.036 -0.1787  0.4982 -1.0184
    1OL    C117 4524   2.452   5.813   6.046 -0.0652 -1.0693 -0.5871
    1OL    H17R 4525   2.486   5.823   6.149  1.2973  1.2598 -1.2331
    1OL    H17S 4526   2.358   5.868   6.036  0.5549  0.1185  0.0511
    1OL    C118 4527   2.548   5.893   5.967 -0.0754  0.3813 -0.1339
    1OL    H18R 4528   2.571   5.990   6.012  1.8776  0.2918 -0.8836
    1OL    H18S 4529   2.515   5.902   5.863 -4.2344 -2.3356  0.8384
    1OL    H18T 4530   2.643   5.838   5.963 -0.6354 -0.5007 -2.1284
    1PA    C116 4531   5.463   4.646   4.817  0.1032 -0.3404 -0.1681
    1PA    H16R 4532   5.540   4.721   4.838 -1.8328  0.9310  2.8383
    1PA    H16S 4533   5.371   4.676   4.768  0.6191 -1.1075 -1.6226
    1PA    H16T 4534   5.514   4.570   4.757 -0.5418 -0.8036 -0.1364
    1PA    C115 4535   5.420   4.579   4.952 -0.4526 -0.2817 -0.6133
    1PA    H15R 4536   5.339   4.508   4.933 -1.0066  0.0977  0.2889
    1PA    H15S 4537   5.513   4.539   4.993 -0.5500 -0.8038 -0.8994
    1PA    C114 4538   5.361   4.690   5.045 -0.4050  1.2807 -0.3684
    1PA    H14R 4539   5.425   4.778   5.053 -2.0419  2.3758  1.1288
    1PA    H14S 4540   5.269   4.732   5.004 -0.1009  2.3386  0.0189
    1PA    C113 4541   5.328   4.656   5.189  0.5381  0.3197 -0.5014
    1PA    H13R 4542   5.323   4.759   5.223  2.6952  0.2835  0.0056
    1PA    H13S 4543   5.233   4.606   5.210  0.8924  0.1519  0.7590
    1PA    C112 4544   5.442   4.584   5.264 -1.0675  0.0377  0.1054
    1PA    H12R 4545   5.457   4.488   5.214 -1.1663 -0.2931  0.7154
    1PA    H12S 4546   5.536   4.632   5.238  0.2433 -2.9621 -0.9295
    1PA    C111 4547   5.433   4.570   5.416 -0.2536 -0.0099 -0.4799
    1PA    H11R 4548   5.402   4.661   5.469  2.0880  0.2317  0.5417
    1PA    H11S 4549   5.358   4.493   5.435 -0.1407 -1.0801 -3.9656
    1PA    C110 4550   5.563   4.518   5.485 -0.0633 -0.7621  0.7638
    1PA    H10R 4551   5.646   4.560   5.427 -0.0512 -1.1407  0.5031
    1PA    H10S 4552   5.567   4.569   5.581  0.4116  0.2287  0.2272
    1PA     C19 4553   5.567   4.367   5.500  0.2886 -0.4106  0.0589
    1PA     H9R 4554   5.479   4.328   5.552  1.0573  0.8571  2.3837
    1PA     H9S 4555   5.567   4.319   5.402  0.7687 -0.2027 -0.0436
    1PA     C18 4556   5.687   4.301   5.578 -0.1956 -0.7630  0.8494
    1PA     H8R 4557   5.690   4.195   5.552  1.8802 -1.0999  2.3662
    1PA     H8S 4558   5.779   4.335   5.531 -0.3374 -1.2766  0.1807
    1PA     C17 4559   5.689   4.300   5.731 -0.2104 -0.0823 -0.5959
    1PA     H7R 4560   5.705   4.401   5.770  0.2380  0.1126 -1.2603
    1PA     H7S 4561   5.592   4.267   5.768 -0.4256  2.9984  1.7658
    1PA     C16 4562   5.808   4.214   5.786  0.5214  0.1651 -0.4226
    1PA     H6R 4563   5.796   4.113   5.745 -0.4336 -0.3215  1.0078
    1PA     H6S 4564   5.905   4.243   5.743  2.6403 -0.7344  3.5117
    1PA     C15 4565   5.799   4.194   5.940 -0.0808  0.2252  0.2091
    1PA     H5R 4566   5.699   4.224   5.971  0.4134  2.9297 -0.6149
    1PA     H5S 4567   5.804   4.090   5.973 -0.9868 -0.3806 -1.4822
    1PA     C14 4568   5.899   4.280   6.028 -0.2671 -0.4788 -0.1275
    1PA     H4R 4569   6.005   4.271   6.003  0.7214  2.2060  2.6898
    1PA     H4S 4570   5.874   4.386   6.020 -0.6198 -0.5641 -0.1812
    1PA     C13 4571   5.889   4.255   6.183 -0.5195 -0.1517  0.6478
    1PA     H3R 4572   5.911   4.149   6.195 -0.0808 -0.0078  1.1165
    1PA     H3S 4573   5.969   4.307   6.235 -1.0547  1.2846  0.0786
    1PA     C12 4574   5.752   4.288   6.255 -0.6461  0.7813 -0.2006
    1PA     H2R 4575   5.713   4.376   6.202  0.6167  0.1679 -2.2091
    1PA     H2S 4576   5.680   4.207   6.246  1.3722 -1.0893  0.0451
    1PC     C11 4577   5.778   4.323   6.399 -0.7769  0.0823  0.4635
    1PC     O12 4578   5.824   4.426   6.433  0.0192 -0.4856  0.2115
    1PC     O11 4579   5.752   4.223   6.487 -0.3983 -0.0897 -0.4212
    1PC      C1 4580   5.782   4.243   6.629 -0.4476 -0.8634  0.4026
    1PC      HR 4581   5.774   4.150   6.687  1.5039 -0.7712  0.8395
    1PC      HS 4582   5.885   4.278   6.630 -0.3420 -1.0288 -2.4065
    1PC      C2 4583   5.685   4.338   6.694  0.3289 -0.6446 -0.4968
    1PC      HX 4584   5.696   4.433   6.641 -2.1057  0.2173  0.4521
    1PC      C3 4585   5.711   4.362   6.849 -0.6473 -0.2649  0.3221
    1PC      HA 4586   5.800   4.420   6.874 -0.2649 -0.1279 -1.2988
    1PC      HB 4587   5.626   4.414   6.893  0.2119  0.3891  1.2311
    1PC     O31 4588   5.732   4.229   6.908  0.0293 -0.4012 -0.6564
    1PC     P31 4589   5.739   4.222   7.064 -0.2329  0.0337 -0.5626
    1PC     O32 4590   5.606   4.150   7.106 -0.5364  0.1670 -0.6506
    1PC     C31 4591   5.596   4.004   7.102  0.6932 -0.7943 -0.0288
    1PC     H1A 4592   5.614   3.972   6.999  0.0930 -0.7836 -0.1404
    1PC     H1B 4593   5.675   3.955   7.159  2.0113  2.5686  1.1711
    1PC     C32 4594   5.459   3.940   7.148 -0.4188  0.0100  0.1260
    1PC     H2A 4595   5.388   3.982   7.075 -0.2649 -0.9620 -0.5972
    1PC     H2B 4596   5.466   3.831   7.149  0.7145 -0.0049 -3.2867
    1PC     N31 4597   5.405   3.995   7.282 -0.5136 -0.0468 -0.6186
    1PC     C33 4598   5.365   4.134   7.284 -0.0021  0.9398 -0.8817
    1PC     H3A 4599   5.273   4.155   7.230 -0.8769  2.9302  1.2981
    1PC     H3B 4600   5.349   4.172   7.385  1.1327 -0.7407 -0.0503
    1PC     H3C 4601   5.442   4.198   7.239  0.2760  1.1434 -0.1344
    1PC     C34 4602   5.277   3.934   7.320 -0.0756  0.5312 -0.0161
    1PC     H4A 4603   5.242   3.970   7.417 -0.0570  0.3675  0.0530
    1PC     H4B 4604   5.198   3.945   7.246  0.7257  0.2864 -0.9145
    1PC     H4C 4605   5.298   3.827   7.329 -0.3558  0.4668 -0.1263
    1PC     C35 4606   5.503   3.982   7.390  0.2210  0.0497  0.0985
    1PC     H5A 4607   5.463   4.012   7.486  2.4211 -0.2713  1.1427
    1PC     H5B 4608   5.593   4.040   7.369  0.3835  0.7567  2.6055
    1PC     H5C 4609   5.526   3.876   7.405 -0.1348 -0.0937 -0.3547
    1PC     O33 4610   5.851   4.133   7.105 -0.4752  0.0287  0.0350
    1PC     O34 4611   5.730   4.360   7.123  0.2116  0.5638  0.0731
    1PC     O21 4612   5.548   4.286   6.680  0.6266  0.1388  0.3371
    1PC     C21 4613   5.449   4.377   6.671 -0.2848 -0.2115  0.4976
    1PC     O22 4614   5.465   4.496   6.669 -0.0289  0.0775  0.1111
    1OL     C12 4615   5.314   4.315   6.661  0.5705  0.0112 -0.7805
    1OL     H2R 4616   5.252   4.373   6.730 -0.5393 -0.5450 -1.3156
    1OL     H2S 4617   5.308   4.209   6.688 -0.1079 -0.6842 -3.5837
    1OL     C13 4618   5.259   4.334   6.525 -0.7040  0.1790  0.2508
    1OL     H3R 4619   5.237   4.439   6.509  1.6553  0.6509 -0.0474
    1OL     H3S 4620   5.158   4.291   6.522  0.3555 -2.2883 -1.4338
    1OL     C14 4621   5.336   4.266   6.407  0.3131  0.0032  1.1758
    1OL     H4R 4622   5.327   4.157   6.413 -1.0650  0.1442  1.8384
    1OL     H4S 4623   5.439   4.303   6.408  0.7979 -1.1900 -0.8995
    1OL     C15 4624   5.281   4.305   6.271  0.0349  0.3042 -0.2762
    1OL     H5R 4625   5.265   4.413   6.277 -1.2204  0.2054 -1.5697
    1OL     H5S 4626   5.187   4.251   6.259  0.8993 -1.0351 -1.2203
    1OL     C16 4627   5.374   4.272   6.151  0.1404  1.0046 -0.3400
    1OL     H6R 4628   5.390   4.165   6.156  0.5176  1.1294  1.5210
    1OL     H6S 4629   5.473   4.317   6.161 -0.1504  1.7444 -0.7231
    1OL     C17 4630   5.304   4.324   6.022 -0.2635  0.5405  0.3661
    1OL     H7R 4631   5.380   4.314   5.944 -2.1316  0.1530 -1.4316
    1OL     H7S 4632   5.271   4.428   6.031 -3.0098 -0.3987  1.6611
    1OL     C18 4633   5.185   4.240   5.969  0.0947  0.1771 -0.0610
    1OL     H8R 4634   5.158   4.284   5.872  0.5704  0.0014 -0.2785
    1OL     H8S 4635   5.103   4.261   6.038 -1.8614 -2.1784 -1.5877
    1OL     C19 4636   5.213   4.090   5.960 -0.3145  0.7858 -0.1724
    1OL     H9R 4637   5.180   4.029   6.043 -0.4475  2.0124  0.6987
    1OL    C110 4638   5.256   4.022   5.852  0.1825 -0.0068 -0.3985
    1OL    H10R 4639   5.274   3.916   5.866  0.4627  0.3900  2.5682
    1OL    C111 4640   5.287   4.069   5.711  0.1059 -0.7547 -0.6781
    1OL    H11R 4641   5.380   4.034   5.666  1.0465  0.9500 -0.1149
    1OL    H11S 4642   5.313   4.175   5.709  2.1793 -1.2165  0.2372
    1OL    C112 4643   5.164   4.041   5.618  0.3112 -0.3588 -0.0534
    1OL    H12R 4644   5.077   4.097   5.654  0.0523 -0.8338  0.0539
    1OL    H12S 4645   5.136   3.936   5.615  0.8562 -0.4828 -1.5609
    1OL    C113 4646   5.191   4.107   5.483 -0.4057 -0.0643 -0.2010
    1OL    H13R 4647   5.285   4.063   5.449 -0.0161  0.6939 -0.1173
    1OL    H13S 4648   5.203   4.215   5.498  3.6542 -0.8117  2.6081
    1OL    C114 4649   5.071   4.086   5.388  0.4834  1.4041  0.9199
    1OL    H14R 4650   5.095   4.146   5.300 -0.6308 -0.3076 -0.5905
    1OL    H14S 4651   4.983   4.128   5.438 -0.4165 -1.2098  1.6090
    1OL    C115 4652   5.035   3.936   5.355 -0.5869  0.5260  0.3808
    1OL    H15R 4653   5.002   3.885   5.445 -1.5316 -0.3552 -0.4551
    1OL    H15S 4654   5.125   3.883   5.322  0.6387  1.4456  2.1432
    1OL    C116 4655   4.945   3.938   5.225  0.2678 -0.4607 -0.2828
    1OL    H16R 4656   4.877   4.022   5.244 -0.3255 -1.1818  0.8227
    1OL    H16S 4657   4.893   3.843   5.224  2.0551 -1.4710  0.6179
    1OL    C117 4658   5.027   3.958   5.090 -0.2457  0.6163 -0.2512
    1OL    H17R 4659   5.079   4.053   5.105 -0.3688  0.5163  0.8854
    1OL    H17S 4660   4.951   3.972   5.014 -0.1277  0.2649 -0.4372
    1OL    C118 4661   5.129   3.848   5.062  0.3241 -0.2685 -0.3642
    1OL    H18R 4662   5.082   3.750   5.059  1.0538 -0.5990 -1.5074
    1OL    H18S 4663   5.215   3.844   5.129  0.0706 -2.6331 -0.1605
    1OL    H18T 4664   5.153   3.856   4.955 -1.7944  0.6276 -0.7904
    1PA    C116 4665   1.303   0.588   5.150 -0.2375  0.2768 -0.3310
    1PA    H16R 4666   1.205   0.631   5.131 -0.0409  2.4265  2.9393
    1PA    H16S 4667   1.303   0.509   5.225 -0.0322 -0.4027 -1.0465
    1PA    H16T 4668   1.332   0.550   5.052  1.6811 -0.4347  0.4902
    1PA    C115 4669   1.401   0.704   5.183 -0.3054 -0.2108 -0.9468
    1PA    H15R 4670   1.504   0.677   5.156 -0.3062 -1.5006  0.2476
    1PA    H15S 4671   1.375   0.791   5.123 -1.6766  0.4032  0.4950
    1PA    C114 4672   1.404   0.745   5.329 -0.3890 -0.0995 -0.2435
    1PA    H14R 4673   1.449   0.669   5.393  0.5993  1.8487  1.4650
    1PA    H14S 4674   1.473   0.828   5.347 -1.0919 -0.0975  2.7699
    1PA    C113 4675   1.263   0.783   5.383  0.6351 -0.2632  0.3087
    1PA    H13R 4676   1.214   0.849   5.311 -3.3568 -1.0421  2.1671
    1PA    H13S 4677   1.197   0.697   5.397  1.4030 -0.5858  2.0367
    1PA    C112 4678   1.257   0.853   5.522 -0.8056  0.1565  0.1209
    1PA    H12R 4679   1.152   0.864   5.550 -0.1436  0.2596  2.6596
    1PA    H12S 4680   1.305   0.781   5.589  1.4689 -0.1206 -1.7123
    1PA    C111 4681   1.332   0.985   5.543 -0.7605 -0.3571  0.1723
    1PA    H11R 4682   1.439   0.965   5.536 -0.6417 -0.0448  0.9532
    1PA    H11S 4683   1.294   1.052   5.466  0.2185 -0.7246 -0.6432
    1PA    C110 4684   1.307   1.054   5.676  0.1842 -0.4060  0.1458
    1PA    H10R 4685   1.204   1.045   5.711 -0.2948 -0.8847 -1.3669
    1PA    H10S 4686   1.366   0.996   5.748  0.4087  0.0527  0.3290
    1PA     C19 4687   1.354   1.197   5.672 -0.2625 -0.0198 -1.1354
    1PA     H9R 4688   1.460   1.199   5.647  0.0954 -0.6491  0.3094
    1PA     H9S 4689   1.292   1.245   5.595 -0.8705  1.6365  0.3495
    1PA     C18 4690   1.318   1.273   5.801 -0.3466 -0.5678  0.2008
    1PA     H8R 4691   1.213   1.252   5.824 -0.4630  0.1431  0.3433
    1PA     H8S 4692   1.374   1.229   5.884 -0.3607 -0.2663  0.3709
    1PA     C17 4693   1.332   1.424   5.809  0.5548  0.2777 -0.0157
    1PA     H7R 4694   1.436   1.443   5.834  0.1330  3.3363 -0.3535
    1PA     H7S 4695   1.307   1.470   5.713 -0.7995  1.5975  0.9443
    1PA     C16 4696   1.244   1.484   5.924  0.0007  0.1864 -0.0035
    1PA     H6R 4697   1.287   1.582   5.947  0.3069  0.1919 -0.5727
    1PA     H6S 4698   1.144   1.507   5.886 -0.8068 -1.4385  1.1244
    1PA     C15 4699   1.232   1.402   6.057  0.1598 -0.5586 -0.3329
    1PA     H5R 4700   1.167   1.314   6.053 -0.8228  0.1270  0.2545
    1PA     H5S 4701   1.331   1.363   6.083 -0.3363 -0.5630  1.6217
    1PA     C14 4702   1.197   1.484   6.172  0.1312 -0.7384  0.1382
    1PA     H4R 4703   1.259   1.573   6.184  0.0912 -0.4292 -1.8629
    1PA     H4S 4704   1.093   1.509   6.153  0.2263 -0.7262 -0.3674
    1PA     C13 4705   1.197   1.416   6.308  0.0108  0.5242 -0.1701
    1PA     H3R 4706   1.139   1.323   6.314  3.1073 -1.5971 -1.5139
    1PA     H3S 4707   1.295   1.380   6.342  0.9960  1.7023 -1.6886
    1PA     C12 4708   1.134   1.515   6.407  0.1031 -0.3446 -0.4524
    1PA     H2R 4709   1.202   1.600   6.420 -0.6350 -0.0528  1.5977
    1PA     H2S 4710   1.041   1.560   6.373 -0.3328  1.0592  2.4419
    1PC     C11 4711   1.113   1.448   6.540  0.4869 -0.2547 -0.1573
    1PC     O12 4712   1.194   1.454   6.631 -0.3816  0.9276 -0.0026
    1PC     O11 4713   0.984   1.406   6.550  0.1535 -0.2239  0.3632
    1PC      C1 4714   0.940   1.342   6.672  0.2369 -0.9911  0.2604
    1PC      HR 4715   0.850   1.286   6.646 -0.3977  1.0526 -2.1272
    1PC      HS 4716   1.011   1.275   6.721 -0.1646 -0.5342  1.4672
    1PC      C2 4717   0.896   1.451   6.778 -0.6734 -0.1569 -1.0245
    1PC      HX 4718   0.977   1.516   6.809 -1.2336  0.4556 -0.8291
    1PC      C3 4719   0.848   1.371   6.906  0.0373 -0.5189  0.3477
    1PC      HA 4720   0.936   1.354   6.967 -0.2763 -2.0180  0.4117
    1PC      HB 4721   0.786   1.442   6.961  2.3280  1.5960  0.2715
    1PC     O31 4722   0.791   1.240   6.883  0.8540  0.3537 -0.2628
    1PC     P31 4723   0.724   1.166   7.004 -0.0079 -0.1126 -0.0790
    1PC     O32 4724   0.575   1.225   6.993  0.5558  0.5071 -0.2513
    1PC     C31 4725   0.497   1.270   7.108  0.6033 -0.1073  0.7110
    1PC     H1A 4726   0.552   1.339   7.172  2.8661  1.6932 -3.0180
    1PC     H1B 4727   0.414   1.329   7.070  1.2620  0.8889  0.7932
    1PC     C32 4728   0.442   1.157   7.196  0.0274  0.4097 -0.0713
    1PC     H2A 4729   0.516   1.099   7.252  0.3934  1.0031  0.0543
    1PC     H2B 4730   0.371   1.200   7.266  0.1623 -1.4526  1.2667
    1PC     N31 4731   0.353   1.047   7.144 -0.2195 -0.2885  0.8516
    1PC     C33 4732   0.424   0.970   7.044 -0.3308  0.5545  0.0822
    1PC     H3A 4733   0.359   0.888   7.013  0.1917  0.7524 -1.5773
    1PC     H3B 4734   0.441   1.036   6.958 -0.2992  1.1041  0.5061
    1PC     H3C 4735   0.519   0.937   7.086 -1.1472 -1.5732  0.3052
    1PC     C34 4736   0.316   0.964   7.266  0.1088  0.4693  0.1803
    1PC     H4A 4737   0.240   1.013   7.328 -0.2535 -0.4704  0.4818
    1PC     H4B 4738   0.258   0.884   7.220  0.9369 -1.3545  2.2311
    1PC     H4C 4739   0.396   0.934   7.333 -1.6901 -1.6763  1.4315
    1PC     C35 4740   0.230   1.107   7.087 -0.0739  0.5369  0.5402
    1PC     H5A 4741   0.168   1.033   7.037  1.9133 -0.4520 -0.5229
    1PC     H5B 4742   0.254   1.185   7.015 -0.0296 -0.1425 -0.1808
    1PC     H5C 4743   0.173   1.151   7.169 -0.8330 -1.3055  1.0400
    1PC     O33 4744   0.721   1.019   6.976 -0.3341 -0.4797  0.7122
    1PC     O34 4745   0.785   1.216   7.130  0.5983  0.3173  0.0712
    1PC     O21 4746   0.785   1.537   6.733  0.7776 -0.8807  0.7333
    1PC     C21 4747   0.817   1.650   6.662 -0.6138  0.4475  0.4194
    1PC     O22 4748   0.926   1.702   6.663 -0.0605  0.2647  0.0099
    1OL     C12 4749   0.693   1.717   6.602  0.5633  0.2015  0.0387
    1OL     H2R 4750   0.723   1.820   6.582  1.9646 -0.7453 -3.1736
    1OL     H2S 4751   0.617   1.727   6.679  1.5671  0.5967  0.9915
    1OL     C13 4752   0.636   1.644   6.474  0.6519  0.2786  0.1792
    1OL     H3R 4753   0.539   1.689   6.454  0.8098 -0.4340 -2.3965
    1OL     H3S 4754   0.619   1.538   6.494 -2.7168  0.8075  0.2825
    1OL     C14 4755   0.738   1.670   6.355 -0.1442 -0.5562 -0.4675
    1OL     H4R 4756   0.846   1.670   6.373 -0.2003  0.9207 -0.0673
    1OL     H4S 4757   0.722   1.768   6.309 -1.2090  0.3752  1.8010
    1OL     C15 4758   0.703   1.558   6.254 -0.6567 -0.0692  0.1288
    1OL     H5R 4759   0.690   1.470   6.316  1.4741  0.1653  0.9496
    1OL     H5S 4760   0.786   1.533   6.187  1.2469  3.9529  0.7961
    1OL     C16 4761   0.585   1.603   6.169  0.1803 -0.2342  0.3950
    1OL     H6R 4762   0.603   1.697   6.118 -0.6636  0.5997  1.6142
    1OL     H6S 4763   0.495   1.624   6.227 -1.6447 -2.1350 -1.6288
    1OL     C17 4764   0.557   1.491   6.072 -0.5643  0.1734 -0.2047
    1OL     H7R 4765   0.571   1.404   6.136 -3.6347  0.8492  1.4596
    1OL     H7S 4766   0.634   1.484   5.995 -0.1285  2.5277 -0.0427
    1OL     C18 4767   0.412   1.499   6.016 -0.0463  0.2304 -0.1594
    1OL     H8R 4768   0.342   1.489   6.100  3.0108  0.3847  2.4902
    1OL     H8S 4769   0.394   1.409   5.957  0.9048 -0.6203  0.8346
    1OL     C19 4770   0.369   1.628   5.942 -0.1252 -0.3109  0.2235
    1OL     H9R 4771   0.348   1.716   6.002 -1.2825 -0.9864  0.8428
    1OL    C110 4772   0.385   1.647   5.811 -0.4402 -0.1654 -0.1901
    1OL    H10R 4773   0.351   1.743   5.772  1.1005  0.7064  0.5591
    1OL    C111 4774   0.446   1.547   5.715  0.2828  0.3362  0.1655
    1OL    H11R 4775   0.512   1.477   5.767  1.7522  0.1770 -1.8307
    1OL    H11S 4776   0.510   1.599   5.643 -1.8242 -0.4227 -2.3386
    1OL    C112 4777   0.333   1.471   5.652 -0.0673  0.5443  0.3530
    1OL    H12R 4778   0.254   1.540   5.622  0.2446  1.0725  0.7481
    1OL    H12S 4779   0.292   1.406   5.730 -2.6463 -1.0540 -2.2276
    1OL    C113 4780   0.381   1.371   5.538  0.5503  0.0425 -0.2700
    1OL    H13R 4781   0.336   1.272   5.542  1.2510 -0.2678  0.1051
    1OL    H13S 4782   0.488   1.355   5.554  0.6216 -0.2224 -1.0355
    1OL    C114 4783   0.367   1.423   5.400  0.3556  0.0926  0.5538
    1OL    H14R 4784   0.261   1.433   5.378  0.8541 -0.2227 -2.1216
    1OL    H14S 4785   0.400   1.339   5.339 -0.8795 -0.9268  1.2514
    1OL    C115 4786   0.442   1.548   5.354 -0.1009 -0.2127  0.1557
    1OL    H15R 4787   0.549   1.533   5.343 -0.4008 -0.7281 -2.3878
    1OL    H15S 4788   0.436   1.625   5.431 -1.7392 -0.5128  0.3424
    1OL    C116 4789   0.400   1.601   5.220  0.3460 -0.1136 -0.0026
    1OL    H16R 4790   0.381   1.515   5.155  0.8019 -1.1690  1.2322
    1OL    H16S 4791   0.479   1.666   5.183 -0.5111  1.0375  0.1563
    1OL    C117 4792   0.263   1.669   5.220 -0.1083  0.2592 -0.6227
    1OL    H17R 4793   0.193   1.599   5.266  0.9715 -0.9193 -0.7695
    1OL    H17S 4794   0.228   1.672   5.117 -0.9572  0.1735 -0.3427
    1OL    C118 4795   0.253   1.803   5.298  0.6470  0.5407 -0.8661
    1OL    H18R 4796   0.325   1.883   5.278  0.8664  0.1150 -1.8157
    1OL    H18S 4797   0.257   1.778   5.405  0.7504  0.6582 -0.8421
    1OL    H18T 4798   0.154   1.847   5.292  0.3055  0.5679  3.1123
    1PA    C116 4799   0.033   2.294   5.580  0.2444  0.1928  0.4039
    1PA    H16R 4800   0.071   2.361   5.657 -1.5220  1.7915 -0.0913
    1PA    H16S 4801   0.017   2.196   5.626 -0.7408  0.2238  0.1521
    1PA    H16T 4802  -0.063   2.339   5.551  1.5508  2.0932 -1.1180
    1PA    C115 4803   0.117   2.288   5.450  0.4851 -0.3577  0.1542
    1PA    H15R 4804   0.068   2.217   5.383  1.9019 -1.2084 -0.0210
    1PA    H15S 4805   0.115   2.388   5.407  1.5579 -0.3192  0.1819
    1PA    C114 4806   0.265   2.254   5.486 -0.4135  0.1787  0.0735
    1PA    H14R 4807   0.328   2.300   5.409 -1.4657  0.1968 -0.7913
    1PA    H14S 4808   0.301   2.296   5.580  0.3452  0.7842 -0.4825
    1PA    C113 4809   0.277   2.097   5.485  0.3215  0.4749 -0.2752
    1PA    H13R 4810   0.194   2.061   5.545  0.9437  0.4629  0.5884
    1PA    H13S 4811   0.263   2.067   5.381 -1.8427  1.0563 -0.1777
    1PA    C112 4812   0.417   2.044   5.531 -0.1726 -0.1475  0.1737
    1PA    H12R 4813   0.422   1.935   5.522 -0.2274 -0.3987  2.9387
    1PA    H12S 4814   0.492   2.094   5.469  0.3830  0.5555  1.4132
    1PA    C111 4815   0.446   2.085   5.676 -0.2277  0.4286 -0.1895
    1PA    H11R 4816   0.543   2.042   5.701 -0.1479  1.6720  1.7691
    1PA    H11S 4817   0.447   2.194   5.669 -3.8362  0.4695 -0.9002
    1PA    C110 4818   0.350   2.044   5.794 -0.6565  0.2237  0.3926
    1PA    H10R 4819   0.249   2.075   5.770 -0.4766  0.8988  0.5146
    1PA    H10S 4820   0.351   1.935   5.785 -0.0414  0.3972 -1.7756
    1PA     C19 4821   0.386   2.072   5.941 -0.6849 -0.0370  0.0306
    1PA     H9R 4822   0.329   2.007   6.007  0.3892 -0.3336  0.6637
    1PA     H9S 4823   0.488   2.034   5.947 -0.0504  0.8281 -3.5515
    1PA     C18 4824   0.384   2.214   5.986 -0.0702  0.4078 -0.1154
    1PA     H8R 4825   0.472   2.261   5.943  0.0570  1.4049  1.2173
    1PA     H8S 4826   0.299   2.267   5.942  0.5839  0.5394 -1.2365
    1PA     C17 4827   0.383   2.228   6.140 -0.5496 -0.2460 -0.5219
    1PA     H7R 4828   0.286   2.192   6.175 -1.8401  4.0459  0.6012
    1PA     H7S 4829   0.460   2.159   6.178  1.3890  1.7542 -0.7277
    1PA     C16 4830   0.407   2.375   6.190 -0.7507 -0.0373 -0.3037
    1PA     H6R 4831   0.506   2.411   6.160 -0.6909  1.5500  1.6780
    1PA     H6S 4832   0.340   2.452   6.154  0.8470  1.5904  0.1255
    1PA     C15 4833   0.404   2.379   6.347  0.5937 -0.4705  0.5971
    1PA     H5R 4834   0.306   2.337   6.372 -0.2099  1.1597  0.2829
    1PA     H5S 4835   0.486   2.317   6.384 -0.2426 -1.0372  1.5560
    1PA     C14 4836   0.417   2.518   6.407  0.0877 -0.7764 -0.3681
    1PA     H4R 4837   0.425   2.506   6.515 -2.3096 -1.3356 -0.2167
    1PA     H4S 4838   0.510   2.560   6.368  0.1772 -0.8948 -0.2820
    1PA     C13 4839   0.296   2.609   6.377  0.0838 -0.0758  0.2127
    1PA     H3R 4840   0.303   2.705   6.429  1.0471  0.2774 -0.5524
    1PA     H3S 4841   0.299   2.645   6.274 -1.3617  0.6891  0.4261
    1PA     C12 4842   0.159   2.540   6.394 -0.9274  0.0636 -0.3578
    1PA     H2R 4843   0.092   2.626   6.382  0.5409  1.0652 -1.6415
    1PA     H2S 4844   0.137   2.458   6.326 -3.9691  0.8710 -0.3825
    1PC     C11 4845   0.126   2.506   6.539  0.7340  0.0811  0.2471
    1PC     O12 4846   0.075   2.585   6.619 -0.5232 -0.0779  0.5478
    1PC     O11 4847   0.141   2.374   6.567 -0.0516 -0.0700  0.0301
    1PC      C1 4848   0.114   2.335   6.699 -0.8029 -0.1202  0.0501
    1PC      HR 4849   0.133   2.407   6.779  0.3188  1.1018 -1.2953
    1PC      HS 4850   0.008   2.314   6.715 -0.7318 -0.1267  0.5384
    1PC      C2 4851   0.194   2.214   6.744 -0.9903 -0.0514  0.3980
    1PC      HX 4852   0.183   2.130   6.676  0.9602  0.3957 -0.5186
    1PC      C3 4853   0.156   2.158   6.887  1.1019  0.5034  0.1923
    1PC      HA 4854   0.061   2.103   6.884  0.1956  1.8861  2.2466
    1PC      HB 4855   0.219   2.079   6.927 -0.9392 -1.8913 -1.2103
    1PC     O31 4856   0.133   2.252   6.991  0.4581  0.2142 -0.1142
    1PC     P31 4857   0.237   2.283   7.109  0.2520  0.4221  0.2051
    1PC     O32 4858   0.353   2.370   7.036 -0.1162  0.3267  0.3890
    1PC     C31 4859   0.327   2.501   6.995  0.8970 -0.6210 -0.5009
    1PC     H1A 4860   0.246   2.512   6.923  0.6415 -2.0489 -0.4365
    1PC     H1B 4861   0.301   2.557   7.086  1.2077 -1.0733 -0.1268
    1PC     C32 4862   0.455   2.562   6.940 -0.4871  0.5987 -0.8429
    1PC     H2A 4863   0.487   2.515   6.847  1.3590 -1.0366  0.5727
    1PC     H2B 4864   0.433   2.664   6.910  0.1425  0.6947 -0.9723
    1PC     N31 4865   0.573   2.566   7.032 -0.3507  0.2421 -0.6756
    1PC     C33 4866   0.533   2.592   7.174  0.1795 -0.1903 -0.3449
    1PC     H3A 4867   0.483   2.503   7.212 -0.0180  0.7865  1.7779
    1PC     H3B 4868   0.624   2.612   7.230  0.1353  0.1110 -0.3805
    1PC     H3C 4869   0.462   2.675   7.183  0.7179  0.1849  0.4397
    1PC     C34 4870   0.657   2.442   7.032 -0.5261 -0.5959  0.4081
    1PC     H4A 4871   0.692   2.411   6.933 -0.0883  2.3770 -0.4092
    1PC     H4B 4872   0.734   2.457   7.107 -1.2428  3.7280  0.4054
    1PC     H4C 4873   0.583   2.370   7.068  0.6450 -2.8819 -1.6334
    1PC     C35 4874   0.662   2.673   6.990  0.5779 -0.5213  0.2144
    1PC     H5A 4875   0.760   2.654   7.035  1.6213 -1.2845 -2.2872
    1PC     H5B 4876   0.627   2.774   7.011 -0.4667 -0.8619  0.1655
    1PC     H5C 4877   0.673   2.672   6.882  1.0527 -1.4949  0.2668
    1PC     O33 4878   0.169   2.374   7.197 -0.5885 -0.3010 -0.0448
    1PC     O34 4879   0.294   2.159   7.163  0.2749 -0.0423 -0.8164
    1PC     O21 4880   0.336   2.256   6.747  0.2254  0.5316 -0.3257
    1PC     C21 4881   0.425   2.154   6.733  0.2632  0.0346  0.4313
    1PC     O22 4882   0.401   2.045   6.688 -0.2415 -1.1013 -0.3932
    1OL     C12 4883   0.559   2.213   6.764 -0.4336 -0.0522 -0.8505
    1OL     H2R 4884   0.560   2.238   6.871  2.2653 -0.9705 -0.6157
    1OL     H2S 4885   0.560   2.312   6.718 -0.8385  0.8546  1.0361
    1OL     C13 4886   0.686   2.149   6.732 -0.8678  0.0725 -0.2013
    1OL     H3R 4887   0.685   2.051   6.779 -0.3707 -0.0584 -0.4683
    1OL     H3S 4888   0.765   2.199   6.789 -0.8088  0.0539 -0.2675
    1OL     C14 4889   0.723   2.133   6.586  0.0194 -0.5704 -0.0277
    1OL     H4R 4890   0.643   2.086   6.529  0.1170 -2.7032  1.5277
    1OL     H4S 4891   0.805   2.065   6.561 -1.9555 -1.9809 -2.8883
    1OL     C15 4892   0.764   2.268   6.527  0.4044 -0.2751  0.6952
    1OL     H5R 4893   0.843   2.321   6.581 -1.5663  2.2463  1.1965
    1OL     H5S 4894   0.674   2.329   6.527  0.8771  0.4289  1.7205
    1OL     C16 4895   0.805   2.260   6.374 -0.0987  0.0482  1.2280
    1OL     H6R 4896   0.817   2.360   6.333 -2.4024 -0.1620 -0.0658
    1OL     H6S 4897   0.731   2.199   6.321  1.7927  0.6723 -2.3513
    1OL     C17 4898   0.932   2.176   6.351 -0.0468  0.4047 -0.1934
    1OL     H7R 4899   0.908   2.078   6.393 -0.6436  0.2696 -0.8384
    1OL     H7S 4900   1.021   2.218   6.398 -1.3591  0.6740  2.1600
    1OL     C18 4901   0.969   2.155   6.201  0.4831 -0.0179 -0.6226
    1OL     H8R 4902   0.954   2.256   6.162  2.0631  0.0235 -1.1390
    1OL     H8S 4903   0.899   2.094   6.144 -1.9488  1.0009  1.1966
    1OL     C19 4904   1.108   2.102   6.176  0.3209 -0.0924  0.3097
    1OL     H9R 4905   1.192   2.171   6.172  0.9281 -0.8681 -1.0741
    1OL    C110 4906   1.139   1.973   6.133 -0.0666 -0.1229 -0.6004
    1OL    H10R 4907   1.242   1.947   6.107  0.7077  2.0737  0.1311
    1OL    C111 4908   1.041   1.860   6.118 -0.8135 -0.5735  0.0255
    1OL    H11R 4909   0.958   1.860   6.189 -1.4017 -0.9857 -0.6605
    1OL    H11S 4910   1.095   1.766   6.134  2.2476  1.2056  0.4714
    1OL    C112 4911   0.988   1.858   5.974  0.1971  0.2637  0.4325
    1OL    H12R 4912   1.072   1.837   5.908 -0.9832 -0.6360 -0.8333
    1OL    H12S 4913   0.954   1.958   5.945  2.9916  0.8517 -1.0024
    1OL    C113 4914   0.878   1.749   5.952  0.5578  0.5293 -0.4841
    1OL    H13R 4915   0.813   1.721   6.036  2.0426  2.4990  1.3850
    1OL    H13S 4916   0.930   1.655   5.933 -0.2639  0.0816 -0.5631
    1OL    C114 4917   0.796   1.791   5.833  0.4516 -0.0290  0.4377
    1OL    H14R 4918   0.744   1.880   5.868  0.1232 -0.4179  0.9412
    1OL    H14S 4919   0.723   1.710   5.823 -1.0705  1.5412 -1.5348
    1OL    C115 4920   0.872   1.822   5.702 -0.3050 -0.6787  0.0154
    1OL    H15R 4921   0.942   1.906   5.711 -1.1800  0.6063 -4.2602
    1OL    H15S 4922   0.804   1.849   5.622  0.0516  2.3490  0.6751
    1OL    C116 4923   0.962   1.708   5.652  0.2475  0.1716 -0.6287
    1OL    H16R 4924   0.915   1.610   5.654  0.6252 -0.0454 -2.0988
    1OL    H16S 4925   1.044   1.699   5.723 -0.5881 -1.4990  0.1364
    1OL    C117 4926   1.007   1.741   5.509 -0.3321  0.3451  0.1767
    1OL    H17R 4927   1.066   1.833   5.512  1.0136 -0.5283  1.2584
    1OL    H17S 4928   0.923   1.769   5.446 -1.0832 -1.5759  0.2773
    1OL    C118 4929   1.087   1.620   5.447 -0.2779 -0.2415  0.8289
    1OL    H18R 4930   1.123   1.640   5.345  1.1839 -0.4745  1.2821
    1OL    H18S 4931   1.179   1.599   5.503 -0.3962  1.1410  1.5562
    1OL    H18T 4932   1.030   1.527   5.444 -0.2080 -0.2498 -1.0435
    1PA    C116 4933   0.835   4.654   5.165  0.1799  0.0895 -0.1297
    1PA    H16R 4934   0.864   4.566   5.107 -1.8347 -0.0956 -0.8960
    1PA    H16S 4935   0.921   4.721   5.158  0.5111 -0.2720  0.4796
    1PA    H16T 4936   0.755   4.694   5.102 -2.5974  0.5162  3.4858
    1PA    C115 4937   0.782   4.628   5.305 -0.2771 -0.1131 -0.3306
    1PA    H15R 4938   0.728   4.714   5.347  0.7470  0.0604  0.6252
    1PA    H15S 4939   0.699   4.558   5.314 -0.0272 -0.1475  1.8688
    1PA    C114 4940   0.893   4.578   5.404 -0.3931 -0.8881 -0.0646
    1PA    H14R 4941   0.931   4.482   5.370  1.1176 -0.3954  0.2049
    1PA    H14S 4942   0.984   4.639   5.401 -0.2788 -1.0892 -0.9027
    1PA    C113 4943   0.850   4.565   5.558 -1.2084  0.7667  0.6477
    1PA    H13R 4944   0.828   4.661   5.605  0.5196  1.7487 -0.4832
    1PA    H13S 4945   0.752   4.517   5.550 -0.5193 -0.9517  2.2650
    1PA    C112 4946   0.949   4.483   5.641  0.0180 -0.0547  0.1468
    1PA    H12R 4947   0.949   4.386   5.592 -1.1672 -0.8745  1.7008
    1PA    H12S 4948   1.054   4.509   5.632  0.1228 -0.6803 -0.4051
    1PA    C111 4949   0.907   4.473   5.790 -0.0294  0.3899  0.3146
    1PA    H11R 4950   0.905   4.573   5.833  2.7115 -0.1538  1.8006
    1PA    H11S 4951   0.803   4.438   5.798 -0.9388  2.4001 -2.1383
    1PA    C110 4952   1.016   4.395   5.871 -0.5202 -0.0225  0.2316
    1PA    H10R 4953   0.999   4.291   5.842 -1.8257 -0.4203  2.3619
    1PA    H10S 4954   1.112   4.438   5.842 -1.2250  2.6123  1.6424
    1PA     C19 4955   1.003   4.400   6.020  0.0619 -0.0653  0.2345
    1PA     H9R 4956   1.089   4.341   6.051 -0.0455 -0.2583  0.1651
    1PA     H9S 4957   1.006   4.505   6.050 -1.2773  0.1418 -0.3058
    1PA     C18 4958   0.874   4.324   6.061  0.4473  0.3150  0.2233
    1PA     H8R 4959   0.784   4.381   6.039  0.0210 -0.0686  0.9460
    1PA     H8S 4960   0.865   4.232   6.003  0.7289  2.1151 -2.7705
    1PA     C17 4961   0.882   4.298   6.213  0.0998 -0.5351  0.7085
    1PA     H7R 4962   0.944   4.209   6.220  0.7362 -0.4194 -2.6348
    1PA     H7S 4963   0.926   4.387   6.258  1.6922 -1.5932  1.2996
    1PA     C16 4964   0.740   4.270   6.267 -0.9724  0.1242 -0.1281
    1PA     H6R 4965   0.688   4.366   6.265 -0.0883  0.6168  0.3208
    1PA     H6S 4966   0.695   4.204   6.192 -0.8944  0.3442 -0.3697
    1PA     C15 4967   0.738   4.205   6.409 -0.3644  0.6266 -0.2063
    1PA     H5R 4968   0.805   4.259   6.477  2.5233 -0.7850 -1.8576
    1PA     H5S 4969   0.634   4.200   6.440 -0.0890 -0.7493  0.5168
    1PA     C14 4970   0.802   4.064   6.414  0.0276 -0.2325  0.4676
    1PA     H4R 4971   0.746   3.998   6.348 -0.2013  0.4722 -0.0505
    1PA     H4S 4972   0.908   4.061   6.387 -0.3239 -0.2351 -0.9316
    1PA     C13 4973   0.784   4.012   6.564  0.4297 -0.1008 -0.0891
    1PA     H3R 4974   0.837   4.075   6.635 -0.2135  1.3043 -0.8211
    1PA     H3S 4975   0.679   3.993   6.587  0.1828 -1.1794 -1.9656
    1PA     C12 4976   0.828   3.864   6.574  0.1126  0.1306 -0.7878
    1PA     H2R 4977   0.770   3.801   6.505  0.1960 -0.7148 -0.0950
    1PA     H2S 4978   0.932   3.854   6.544 -0.2637 -0.2475 -1.9871
    1PC     C11 4979   0.817   3.812   6.713  0.3340  0.1078  0.0158
    1PC     O12 4980   0.744   3.851   6.803  0.2730 -0.1697  0.0074
    1PC     O11 4981   0.895   3.704   6.730 -0.5632 -0.3474  0.3897
    1PC      C1 4982   0.920   3.648   6.862  0.1056 -0.0405 -0.1818
    1PC      HR 4983   0.839   3.677   6.929  1.0270  1.9939  0.1080
    1PC      HS 4984   0.919   3.539   6.853 -2.2533 -0.3154  2.8068
    1PC      C2 4985   1.056   3.696   6.920  0.0455 -0.1760 -0.4914
    1PC      HX 4986   1.078   3.646   7.014  2.2470  0.7879 -0.4422
    1PC      C3 4987   1.049   3.850   6.960  0.4858  0.6286 -0.3106
    1PC      HA 4988   1.051   3.905   6.866  0.8192  0.2832 -0.5047
    1PC      HB 4989   0.965   3.875   7.026  0.5952  0.5991 -0.1606
    1PC     O31 4990   1.170   3.882   7.035  0.6282 -0.5487  0.1739
    1PC     P31 4991   1.182   3.851   7.193  0.5431 -0.0877 -0.0020
    1PC     O32 4992   1.155   3.997   7.259  0.0924 -0.1937 -0.5293
    1PC     C31 4993   1.031   4.038   7.317 -0.1580 -0.0820 -0.2821
    1PC     H1A 4994   0.989   3.956   7.375  2.2607 -1.8060 -0.8687
    1PC     H1B 4995   1.054   4.124   7.380  1.7951 -1.2149  0.5917
    1PC     C32 4996   0.930   4.078   7.210  0.2518  0.1524 -0.1133
    1PC     H2A 4997   0.922   4.007   7.128  1.2047 -0.1505  0.0509
    1PC     H2B 4998   0.837   4.074   7.266  1.5166 -1.5242  1.9640
    1PC     N31 4999   0.936   4.215   7.136 -0.1038 -0.1288 -0.5161
    1PC     C33 5000   1.054   4.226   7.045 -0.1796 -0.1165  0.0036
    1PC     H3A 5001   1.138   4.173   7.090  1.8446  1.7263 -1.4938
    1PC     H3B 5002   1.027   4.173   6.954 -0.7424  0.1008  0.0449
    1PC     H3C 5003   1.082   4.327   7.017  1.1988 -0.1666  1.1254
    1PC     C34 5004   0.808   4.251   7.077  0.4027  0.3026 -0.2836
    1PC     H4A 5005   0.782   4.179   6.999 -0.9178 -0.0471  0.4635
    1PC     H4B 5006   0.732   4.241   7.154 -1.1707 -1.3395 -1.9880
    1PC     H4C 5007   0.813   4.352   7.036 -2.4066  1.6127  2.3806
    1PC     C35 5008   0.938   4.317   7.245  0.2052  0.5359 -0.1882
    1PC     H5A 5009   0.873   4.281   7.325  0.8255  2.5434  1.2751
    1PC     H5B 5010   0.904   4.415   7.209  0.7366  1.4608  1.7313
    1PC     H5C 5011   1.044   4.321   7.270  0.4157  0.9091 -1.1015
    1PC     O33 5012   1.068   3.761   7.225  0.1315 -0.1887 -0.2424
    1PC     O34 5013   1.321   3.800   7.223 -0.6068  0.1638  0.2815
    1PC     O21 5014   1.159   3.695   6.816  0.4310 -0.2500  0.4364
    1PC     C21 5015   1.200   3.581   6.763 -0.4950  0.0430 -0.4509
    1PC     O22 5016   1.166   3.472   6.805  0.0697  0.2666  0.5776
    1OL     C12 5017   1.307   3.600   6.655  0.0187 -0.3567  0.0688
    1OL     H2R 5018   1.388   3.531   6.678  1.0041  1.1427  1.1619
    1OL     H2S 5019   1.343   3.703   6.655  0.2879 -0.4312 -2.0735
    1OL     C13 5020   1.248   3.560   6.518  0.4130  1.1497 -0.0862
    1OL     H3R 5021   1.249   3.450   6.521 -1.1387  1.1374  0.1767
    1OL     H3S 5022   1.322   3.583   6.441 -0.2976  0.6518 -0.9274
    1OL     C14 5023   1.109   3.607   6.475  0.8003  0.3484 -0.0238
    1OL     H4R 5024   1.106   3.712   6.446 -0.9824 -0.8860 -4.6387
    1OL     H4S 5025   1.030   3.575   6.543 -2.4039  1.7997 -2.9187
    1OL     C15 5026   1.082   3.539   6.344 -0.2732  0.4962 -0.4368
    1OL     H5R 5027   1.093   3.435   6.373  0.9282  0.7867  0.2033
    1OL     H5S 5028   1.163   3.551   6.271 -0.0324 -0.2915 -0.3015
    1OL     C16 5029   0.945   3.562   6.285  0.1006  0.2665  0.7621
    1OL     H6R 5030   0.863   3.550   6.356  0.8930  1.9064  1.9875
    1OL     H6S 5031   0.925   3.485   6.210 -3.4938  2.2008 -0.3988
    1OL     C17 5032   0.929   3.705   6.227  0.5381 -1.4827  0.4404
    1OL     H7R 5033   0.965   3.776   6.301  1.4512 -1.5390  0.0566
    1OL     H7S 5034   0.824   3.721   6.202  1.0746 -0.6947 -1.3913
    1OL     C18 5035   1.011   3.726   6.100 -0.1241 -0.9337 -0.1029
    1OL     H8R 5036   0.978   3.659   6.021  0.5723 -1.1405 -0.2244
    1OL     H8S 5037   1.116   3.705   6.125  0.1226 -0.2119 -0.5154
    1OL     C19 5038   0.993   3.868   6.049 -0.7658 -0.0031  0.3277
    1OL     H9R 5039   1.039   3.950   6.103  0.0347 -0.7262  0.7491
    1OL    C110 5040   0.939   3.907   5.931 -0.2354 -0.0388  0.1383
    1OL    H10R 5041   0.944   4.013   5.907 -0.4383  0.5316  2.4591
    1OL    C111 5042   0.878   3.812   5.834 -0.1324 -0.5573 -0.0491
    1OL    H11R 5043   0.938   3.723   5.813  0.9047  0.3050 -0.7759
    1OL    H11S 5044   0.877   3.868   5.740  1.1236  1.0925  0.9030
    1OL    C112 5045   0.727   3.778   5.862 -0.2669  0.9409  0.1330
    1OL    H12R 5046   0.726   3.697   5.935  2.4030  0.4851 -0.3006
    1OL    H12S 5047   0.682   3.740   5.770  0.9683  0.7927 -0.4218
    1OL    C113 5048   0.640   3.894   5.917 -0.5414  0.2343  0.0957
    1OL    H13R 5049   0.675   3.927   6.015 -2.3598  0.7848  0.5801
    1OL    H13S 5050   0.542   3.851   5.941 -0.3309 -0.2992  0.0017
    1OL    C114 5051   0.635   4.030   5.834  0.0045  0.0072 -0.2635
    1OL    H14R 5052   0.734   4.073   5.819  0.6801 -0.3892  2.7853
    1OL    H14S 5053   0.582   4.109   5.887  1.5515  1.8002 -1.3720
    1OL    C115 5054   0.563   4.008   5.696  0.1219 -0.3441 -0.5038
    1OL    H15R 5055   0.476   4.073   5.686 -0.0907 -0.5789 -0.1907
    1OL    H15S 5056   0.532   3.904   5.686  1.5911 -0.8620  0.2181
    1OL    C116 5057   0.659   4.040   5.573  0.6751  0.5594 -0.1569
    1OL    H16R 5058   0.616   4.001   5.481  1.1106  0.4850 -0.3285
    1OL    H16S 5059   0.754   3.986   5.580  1.0413  0.9636 -1.8956
    1OL    C117 5060   0.697   4.189   5.562 -0.7125 -0.8834  0.2464
    1OL    H17R 5061   0.780   4.197   5.492  0.1880 -0.0479  1.3895
    1OL    H17S 5062   0.717   4.223   5.664  1.5640 -0.1514 -0.4123
    1OL    C118 5063   0.570   4.262   5.511 -0.3143 -0.3837  0.0022
    1OL    H18R 5064   0.472   4.235   5.549 -0.8022  1.8213  0.3937
    1OL    H18S 5065   0.577   4.244   5.404  1.7102 -0.0489  0.0592
    1OL    H18T 5066   0.580   4.369   5.533 -0.3187  0.0110 -1.8402
    1PA    C116 5067   0.571   0.891   5.436 -0.1486 -0.1032  0.0041
    1PA    H16R 5068   0.532   0.953   5.355  1.1531  1.3053  0.4343
    1PA    H16S 5069   0.536   0.788   5.437 -0.4499 -0.0180 -1.1436
    1PA    H16T 5070   0.680   0.891   5.439 -0.1492 -1.5240  0.3869
    1PA    C115 5071   0.524   0.960   5.565  0.8698 -0.4043 -0.0629
    1PA    H15R 5072   0.556   0.903   5.652 -3.3489 -1.2602  1.0815
    1PA    H15S 5073   0.569   1.059   5.574  0.1125 -0.0143 -0.4696
    1PA    C114 5074   0.373   0.976   5.582 -0.2206  0.0021 -0.3001
    1PA    H14R 5075   0.331   1.032   5.498  4.1602  2.4567 -1.0233
    1PA    H14S 5076   0.325   0.878   5.575  0.6020 -0.7839  4.0702
    1PA    C113 5077   0.338   1.045   5.718  0.1575  0.3476 -0.6982
    1PA    H13R 5078   0.387   0.989   5.797  2.2971  0.5902 -1.8011
    1PA    H13S 5079   0.385   1.144   5.713  2.4360 -0.6972 -0.6682
    1PA    C112 5080   0.188   1.051   5.755 -0.5961 -0.7626 -0.0163
    1PA    H12R 5081   0.172   1.121   5.838  0.2645 -2.8906  1.9973
    1PA    H12S 5082   0.150   1.088   5.660 -0.9592 -0.6752  0.1613
    1PA    C111 5083   0.136   0.912   5.796  0.1014 -0.3200  0.2788
    1PA    H11R 5084   0.154   0.846   5.711  0.3051  0.7219 -0.4888
    1PA    H11S 5085   0.185   0.871   5.885  0.7836  0.7880  0.4128
    1PA    C110 5086  -0.018   0.918   5.818  0.1885  0.0934 -0.1588
    1PA    H10R 5087  -0.037   0.997   5.891 -1.3853 -0.1131 -0.3275
    1PA    H10S 5088  -0.067   0.937   5.722  0.1321  1.2256  0.0911
    1PA     C19 5089  -0.084   0.787   5.862  0.4370  0.1122 -0.0299
    1PA     H9R 5090  -0.067   0.782   5.970 -2.7470 -2.0145  0.4270
    1PA     H9S 5091  -0.190   0.796   5.841  0.9062  1.6248 -1.8334
    1PA     C18 5092  -0.034   0.655   5.796  0.7926 -0.2143 -0.6468
    1PA     H8R 5093  -0.039   0.663   5.687 -2.0770 -2.2764 -0.7180
    1PA     H8S 5094   0.068   0.639   5.831  0.4304  1.3103  1.2265
    1PA     C17 5095  -0.114   0.530   5.834 -0.0691 -0.0280 -0.1057
    1PA     H7R 5096  -0.216   0.542   5.797  0.1907  1.1693 -0.4535
    1PA     H7S 5097  -0.058   0.445   5.795  1.7985 -0.0420  2.4318
    1PA     C16 5098  -0.128   0.510   5.987  0.4491  0.3200 -0.0196
    1PA     H6R 5099  -0.034   0.525   6.040 -0.4746 -0.7862  2.0182
    1PA     H6S 5100  -0.196   0.582   6.031 -0.7727 -1.5346  1.2165
    1PA     C15 5101  -0.184   0.370   6.021  0.0365  0.5436  0.1939
    1PA     H5R 5102  -0.270   0.347   5.957  1.0326 -1.5408 -0.4070
    1PA     H5S 5103  -0.108   0.293   6.006 -0.7569 -0.6906  2.4058
    1PA     C14 5104  -0.235   0.356   6.170  0.5508  0.0604  0.2418
    1PA     H4R 5105  -0.170   0.399   6.247 -0.8551 -1.5442  2.3739
    1PA     H4S 5106  -0.326   0.416   6.177 -0.4572 -1.4036 -0.1154
    1PA     C13 5107  -0.257   0.212   6.207  0.2604 -0.1402 -0.1392
    1PA     H3R 5108  -0.313   0.163   6.127  0.4484  1.4728 -1.2755
    1PA     H3S 5109  -0.159   0.163   6.207  0.9296  1.1779  0.4907
    1PA     C12 5110  -0.330   0.208   6.335  0.1189 -0.0000  0.4634
    1PA     H2R 5111  -0.384   0.302   6.348  0.3248  0.3328 -1.0229
    1PA     H2S 5112  -0.402   0.126   6.330 -1.0669  0.8612  2.7528
    1PC     C11 5113  -0.230   0.177   6.450  0.4710  0.2946 -0.0854
    1PC     O12 5114  -0.112   0.197   6.454 -0.4773  0.0374 -0.3973
    1PC     O11 5115  -0.289   0.127   6.562 -0.4010 -0.0111  0.1717
    1PC      C1 5116  -0.217   0.111   6.683  0.0695  0.1494 -0.5350
    1PC      HR 5117  -0.282   0.043   6.739  0.2116  0.1892 -0.3209
    1PC      HS 5118  -0.114   0.079   6.668  0.4083  0.5969  0.7984
    1PC      C2 5119  -0.210   0.240   6.755 -0.4698  0.2201 -0.4615
    1PC      HX 5120  -0.149   0.310   6.698  2.0530 -1.4832  0.0387
    1PC      C3 5121  -0.140   0.225   6.890 -0.1853 -0.3733  0.6536
    1PC      HA 5122  -0.034   0.205   6.869  0.0937  1.3316  0.3590
    1PC      HB 5123  -0.143   0.319   6.945 -0.1422 -1.6528  2.9442
    1PC     O31 5124  -0.192   0.116   6.970  0.0575  0.3671  0.0385
    1PC     P31 5125  -0.160   0.097   7.123  0.1258  0.5925 -0.1132
    1PC     O32 5126  -0.219   0.227   7.201 -0.2586  0.0754 -0.1613
    1PC     C31 5127  -0.360   0.248   7.216  0.4976  0.1441  0.5946
    1PC     H1A 5128  -0.396   0.292   7.122 -2.3167 -1.3331  0.9468
    1PC     H1B 5129  -0.412   0.153   7.227  0.2353 -0.0910 -2.1979
    1PC     C32 5130  -0.384   0.338   7.337 -0.7419  0.2629 -0.2520
    1PC     H2A 5131  -0.338   0.295   7.426  1.8594 -0.0416 -1.6944
    1PC     H2B 5132  -0.347   0.440   7.326 -2.5241  0.9478 -0.1157
    1PC     N31 5133  -0.529   0.361   7.369  0.1848  0.5592  0.3576
    1PC     C33 5134  -0.540   0.463   7.476 -0.1764 -0.2107 -0.2841
    1PC     H3A 5135  -0.640   0.450   7.518 -0.0564 -0.5936 -0.1073
    1PC     H3B 5136  -0.461   0.448   7.551 -0.7484 -3.1361 -0.1922
    1PC     H3C 5137  -0.536   0.561   7.429  1.5758  0.5751  1.4300
    1PC     C34 5138  -0.612   0.407   7.252 -0.5468 -0.3800  0.3181
    1PC     H4A 5139  -0.696   0.459   7.298  0.8631  0.7539  1.6768
    1PC     H4B 5140  -0.556   0.470   7.183 -0.9289 -0.7427 -0.3329
    1PC     H4C 5141  -0.656   0.319   7.206  0.6632 -1.2491  0.7996
    1PC     C35 5142  -0.583   0.232   7.426  0.0353  0.5770 -0.0139
    1PC     H5A 5143  -0.504   0.204   7.496  0.7955  0.7624 -0.7804
    1PC     H5B 5144  -0.603   0.166   7.341 -2.7067 -1.6663  2.3030
    1PC     H5C 5145  -0.678   0.249   7.476 -1.2733 -1.2918 -1.7944
    1PC     O33 5146  -0.246  -0.013   7.172  0.1103  0.4981  0.4745
    1PC     O34 5147  -0.018   0.100   7.141 -0.1610  0.9542 -1.0745
    1PC     O21 5148  -0.342   0.301   6.773 -0.6637 -0.1040 -0.0781
    1PC     C21 5149  -0.387   0.389   6.678  0.4905  1.0776 -0.0169
    1PC     O22 5150  -0.310   0.440   6.601 -0.1750 -0.4157 -0.8239
    1OL     C12 5151  -0.537   0.411   6.678 -0.1986  0.6667  0.3313
    1OL     H2R 5152  -0.586   0.320   6.642 -0.0528  1.7386 -2.6276
    1OL     H2S 5153  -0.553   0.490   6.605  0.7987 -0.4270 -1.0826
    1OL     C13 5154  -0.597   0.433   6.820 -0.4975 -0.0994 -0.3757
    1OL     H3R 5155  -0.526   0.497   6.873  0.6322 -2.1699  0.6604
    1OL     H3S 5156  -0.603   0.342   6.880  2.1999  0.5590  0.9522
    1OL     C14 5157  -0.733   0.500   6.817  0.0184 -0.7202  0.5147
    1OL     H4R 5158  -0.736   0.599   6.770  1.0985 -0.9571 -0.0653
    1OL     H4S 5159  -0.760   0.511   6.922 -1.8994 -0.7083  0.0562
    1OL     C15 5160  -0.836   0.416   6.747 -0.1813  0.9131 -0.3316
    1OL     H5R 5161  -0.850   0.327   6.810  0.9746  0.1764 -1.1020
    1OL     H5S 5162  -0.799   0.385   6.650 -1.2377 -0.7134 -0.2355
    1OL     C16 5163  -0.974   0.483   6.729 -0.1844 -0.3944  0.4861
    1OL     H6R 5164  -0.970   0.572   6.666  4.0021 -0.2371  0.8356
    1OL     H6S 5165  -1.011   0.515   6.826  2.4627 -0.5686  1.5740
    1OL     C17 5166  -1.077   0.381   6.666  0.0272 -0.3133  0.0505
    1OL     H7R 5167  -1.174   0.426   6.691  0.8895  1.4143  0.3852
    1OL     H7S 5168  -1.065   0.281   6.708  0.1040 -1.4662 -2.5668
    1OL     C18 5169  -1.062   0.359   6.515 -0.0076  0.3059 -0.4314
    1OL     H8R 5170  -1.120   0.272   6.485 -0.8092  0.1303  1.5665
    1OL     H8S 5171  -0.960   0.334   6.483 -0.4664 -0.1694 -1.5497
    1OL     C19 5172  -1.100   0.478   6.440  0.4619 -0.7454 -0.5325
    1OL     H9R 5173  -1.206   0.496   6.427  0.1407 -0.7485  1.9084
    1OL    C110 5174  -1.013   0.548   6.365  0.0778 -0.7520 -0.0851
    1OL    H10R 5175  -1.056   0.624   6.300  1.3653  1.6484  1.7692
    1OL    C111 5176  -0.865   0.532   6.332  0.5488  0.6612 -0.8330
    1OL    H11R 5177  -0.818   0.476   6.413 -1.3232  1.1468  0.6446
    1OL    H11S 5178  -0.827   0.633   6.321 -1.0767  1.3066 -0.7571
    1OL    C112 5179  -0.847   0.453   6.204  0.0970  0.0790  0.3164
    1OL    H12R 5180  -0.903   0.500   6.123  0.5261  1.7493  0.9752
    1OL    H12S 5181  -0.894   0.356   6.225 -1.5454  0.7095 -0.3169
    1OL    C113 5182  -0.702   0.446   6.151 -0.1332 -0.0816  0.8909
    1OL    H13R 5183  -0.642   0.396   6.227  0.1199 -0.7638  0.2485
    1OL    H13S 5184  -0.655   0.542   6.133  1.2890 -0.8628  0.3158
    1OL    C114 5185  -0.673   0.356   6.027 -0.5158  0.0902  0.7859
    1OL    H14R 5186  -0.701   0.256   6.061 -1.0342 -0.1312 -0.2845
    1OL    H14S 5187  -0.564   0.357   6.017 -0.6196  3.0446 -0.6954
    1OL    C115 5188  -0.744   0.390   5.898  0.3961  0.3918  0.5514
    1OL    H15R 5189  -0.696   0.476   5.851  1.0521 -0.6263 -0.6670
    1OL    H15S 5190  -0.842   0.429   5.926  1.0000  0.6784  2.3017
    1OL    C116 5191  -0.751   0.280   5.787  0.1231  0.4511 -0.2598
    1OL    H16R 5192  -0.650   0.247   5.764  0.0587 -0.0261  0.1176
    1OL    H16S 5193  -0.791   0.340   5.705  0.5709  2.3581  0.8753
    1OL    C117 5194  -0.851   0.165   5.820  0.1388 -0.2308  0.6743
    1OL    H17R 5195  -0.941   0.206   5.866 -0.6416 -0.0778 -0.9236
    1OL    H17S 5196  -0.809   0.084   5.880  1.0727 -0.1624  0.1273
    1OL    C118 5197  -0.896   0.109   5.682 -0.0004 -0.1874 -0.0598
    1OL    H18R 5198  -0.961   0.028   5.714  1.1055 -0.3263  1.8855
    1OL    H18S 5199  -0.805   0.070   5.636  2.1467  2.4548  1.8048
    1OL    H18T 5200  -0.948   0.183   5.620  0.0584 -0.6270 -0.6377
    1PA    C116 5201   0.713   0.631   5.088  0.1228 -0.2047  0.1756
    1PA    H16R 5202   0.648   0.600   5.005 -0.7717 -0.6572  1.0273
    1PA    H16S 5203   0.796   0.690   5.050 -1.3203  0.4845 -1.9622
    1PA    H16T 5204   0.652   0.691   5.156  0.7647  1.3899 -0.6387
    1PA    C115 5205   0.772   0.504   5.150 -0.0288  0.7668  0.0416
    1PA    H15R 5206   0.697   0.437   5.192  0.4863  0.0261 -0.2032
    1PA    H15S 5207   0.812   0.433   5.078  0.0998  0.2432  0.6245
    1PA    C114 5208   0.883   0.542   5.249 -0.1652  0.6193 -0.3323
    1PA    H14R 5209   0.946   0.624   5.213 -0.4139 -0.0674 -2.3885
    1PA    H14S 5210   0.838   0.575   5.343 -2.4909  0.3938 -1.3406
    1PA    C113 5211   0.972   0.421   5.282  0.4968 -0.0092  0.1494
    1PA    H13R 5212   1.011   0.378   5.190 -0.0014 -2.5012  1.0759
    1PA    H13S 5213   1.061   0.459   5.334  0.7209 -1.1745  0.6398
    1PA    C112 5214   0.915   0.291   5.345  0.3745 -0.0003  0.1735
    1PA    H12R 5215   0.851   0.241   5.272  2.3428 -0.1004 -1.5607
    1PA    H12S 5216   0.988   0.214   5.373 -1.4419 -1.1635  1.8324
    1PA    C111 5217   0.837   0.302   5.479 -0.8252 -0.0631 -1.0336
    1PA    H11R 5218   0.740   0.348   5.462 -1.5164 -1.4395 -0.9360
    1PA    H11S 5219   0.800   0.204   5.513 -0.7477  0.1513 -0.3128
    1PA    C110 5220   0.918   0.354   5.601 -0.3185 -0.6611  0.0460
    1PA    H10R 5221   0.999   0.287   5.628  0.4964  0.7552  1.2128
    1PA    H10S 5222   0.956   0.451   5.566 -0.2835 -0.9557 -0.7458
    1PA     C19 5223   0.832   0.381   5.728  0.1800 -0.1923  0.4690
    1PA     H9R 5224   0.749   0.443   5.693 -1.1164 -1.2732  1.5811
    1PA     H9S 5225   0.799   0.286   5.770 -1.6102 -0.7447 -2.0767
    1PA     C18 5226   0.906   0.457   5.836 -0.3871  0.2765 -0.0409
    1PA     H8R 5227   1.015   0.449   5.825 -0.2529  0.6137  0.9357
    1PA     H8S 5228   0.871   0.560   5.826 -0.9597  0.1591  0.7228
    1PA     C17 5229   0.874   0.404   5.975  0.1817  0.0970 -0.5614
    1PA     H7R 5230   0.765   0.401   5.970  0.2390  0.7078 -2.5184
    1PA     H7S 5231   0.914   0.302   5.975 -1.2189 -0.4671 -1.4963
    1PA     C16 5232   0.924   0.483   6.089 -0.0017  0.1023  0.1030
    1PA     H6R 5233   1.024   0.520   6.069  0.1381 -0.4163 -0.1625
    1PA     H6S 5234   0.869   0.576   6.109 -1.0589 -0.0654 -1.9422
    1PA     C15 5235   0.932   0.385   6.207  0.0648 -0.4692 -0.9661
    1PA     H5R 5236   0.830   0.371   6.243  0.3228  2.7653  1.2504
    1PA     H5S 5237   0.981   0.289   6.188 -0.0009 -1.0239  1.5020
    1PA     C14 5238   1.001   0.447   6.325  0.2345 -0.4717 -0.2943
    1PA     H4R 5239   1.101   0.471   6.289  0.3636  2.1238  1.6058
    1PA     H4S 5240   0.952   0.542   6.346 -0.3633 -1.1817  1.6529
    1PA     C13 5241   1.015   0.353   6.452  0.4229 -0.1459  0.0933
    1PA     H3R 5242   0.913   0.319   6.472  0.5429 -2.4315 -2.8400
    1PA     H3S 5243   1.071   0.263   6.431 -0.8394 -0.8240 -0.4457
    1PA     C12 5244   1.077   0.403   6.591 -0.4840  0.6170  0.7428
    1PA     H2R 5245   1.186   0.409   6.584 -0.7037  2.2860 -1.9221
    1PA     H2S 5246   1.039   0.502   6.617 -0.1905  0.6145  1.1820
    1PC     C11 5247   1.057   0.299   6.709  0.4965  0.4247  0.5554
    1PC     O12 5248   1.145   0.266   6.780  0.5833 -0.6657 -0.6278
    1PC     O11 5249   0.940   0.232   6.712  0.0369 -0.1730  0.6665
    1PC      C1 5250   0.912   0.144   6.829  0.0329  0.5142 -0.0517
    1PC      HR 5251   0.837   0.072   6.795 -2.2339  3.4960 -1.6562
    1PC      HS 5252   0.994   0.074   6.846  0.4109  0.4458 -2.0465
    1PC      C2 5253   0.858   0.218   6.961 -0.0836 -0.6373  0.6463
    1PC      HX 5254   0.919   0.302   6.994 -0.9145  0.0863  0.3639
    1PC      C3 5255   0.843   0.121   7.079 -1.0219  0.6351 -0.1615
    1PC      HA 5256   0.744   0.074   7.084 -1.2395  0.6233 -3.6224
    1PC      HB 5257   0.922   0.047   7.063 -0.1206  1.6319 -0.3513
    1PC     O31 5258   0.883   0.184   7.209 -0.4576  0.3388  0.3542
    1PC     P31 5259   0.792   0.279   7.289 -0.1658 -0.8204  0.2333
    1PC     O32 5260   0.801   0.422   7.205  0.0173 -0.6256  0.1075
    1PC     C31 5261   0.932   0.491   7.197 -0.1083  0.5350 -0.5864
    1PC     H1A 5262   1.018   0.424   7.200  0.7930  1.4933 -3.2240
    1PC     H1B 5263   0.946   0.551   7.106  2.6730  1.5440  0.4555
    1PC     C32 5264   0.936   0.585   7.313  0.3031  0.3338  0.5532
    1PC     H2A 5265   0.858   0.660   7.301  1.5140  1.1080 -3.0483
    1PC     H2B 5266   0.901   0.530   7.401  0.4651 -1.3983 -0.4344
    1PC     N31 5267   1.072   0.639   7.346  0.5568 -0.6872 -0.4141
    1PC     C33 5268   1.098   0.760   7.256  0.0375 -0.4539  0.3918
    1PC     H3A 5269   1.019   0.835   7.267 -0.5194 -0.5329 -2.5113
    1PC     H3B 5270   1.198   0.799   7.272  0.2121  0.2170 -2.0483
    1PC     H3C 5271   1.096   0.719   7.155 -1.6002  3.5331 -1.3374
    1PC     C34 5272   1.063   0.702   7.486 -0.1420  0.2286 -0.1343
    1PC     H4A 5273   0.992   0.784   7.477 -0.8679 -0.2427  1.2030
    1PC     H4B 5274   1.016   0.630   7.553  0.2600  0.1040  0.0132
    1PC     H4C 5275   1.160   0.749   7.502 -0.2004  0.6497 -0.9676
    1PC     C35 5276   1.183   0.540   7.349 -0.6601  0.0723 -0.2081
    1PC     H5A 5277   1.148   0.437   7.358 -1.6559  0.3450 -0.8543
    1PC     H5B 5278   1.247   0.560   7.435 -1.4491 -0.1202  0.4328
    1PC     H5C 5279   1.245   0.554   7.260 -1.4013  2.6036 -0.3737
    1PC     O33 5280   0.653   0.224   7.281 -0.1967  0.0887 -0.3053
    1PC     O34 5281   0.850   0.296   7.425 -0.1696 -0.2006 -0.6773
    1PC     O21 5282   0.731   0.290   6.927  0.6526  0.1596  0.0570
    1PC     C21 5283   0.737   0.426   6.902 -0.7590  0.4388  0.3314
    1PC     O22 5284   0.841   0.487   6.875  0.4826  0.2433 -0.4086
    1OL     C12 5285   0.596   0.486   6.899  0.5683 -0.4882  0.1646
    1OL     H2R 5286   0.601   0.578   6.957 -0.3674 -2.2086  3.1103
    1OL     H2S 5287   0.517   0.424   6.942  0.0430 -0.8704 -1.3362
    1OL     C13 5288   0.549   0.510   6.758 -0.6678  0.3793 -0.4490
    1OL     H3R 5289   0.442   0.518   6.741 -0.9655 -2.0596  0.1585
    1OL     H3S 5290   0.580   0.428   6.693  0.9732  0.6261 -0.0135
    1OL     C14 5291   0.612   0.639   6.707  0.0459  0.2538  0.1848
    1OL     H4R 5292   0.719   0.617   6.713  0.0360  0.2504  0.3489
    1OL     H4S 5293   0.586   0.726   6.768 -2.2299 -0.4060  0.2051
    1OL     C15 5294   0.585   0.679   6.555  0.0904 -0.4376 -0.0404
    1OL     H5R 5295   0.481   0.702   6.534  0.8043  2.3814 -0.6816
    1OL     H5S 5296   0.611   0.588   6.500  0.4893  0.3702 -1.2262
    1OL     C16 5297   0.674   0.796   6.520  0.1226 -0.0725 -0.0657
    1OL     H6R 5298   0.680   0.789   6.411 -2.1806 -0.1922 -0.2015
    1OL     H6S 5299   0.772   0.779   6.565 -0.6922 -1.8820  1.0832
    1OL     C17 5300   0.629   0.934   6.581 -0.4837  0.3046 -0.2482
    1OL     H7R 5301   0.599   0.930   6.686 -1.2950  0.5790 -0.4704
    1OL     H7S 5302   0.541   0.970   6.528 -0.2566  2.8161  0.9894
    1OL     C18 5303   0.738   1.040   6.563  0.0556 -0.2082 -0.3751
    1OL     H8R 5304   0.703   1.141   6.588  1.0618  0.3614 -1.2442
    1OL     H8S 5305   0.761   1.046   6.457 -2.4566 -0.0658 -0.9498
    1OL     C19 5306   0.851   1.001   6.656 -0.1169 -0.8223 -0.4029
    1OL     H9R 5307   0.814   0.960   6.750  0.2038  0.2580  0.2066
    1OL    C110 5308   0.981   1.007   6.632 -0.2531 -0.2654  0.3661
    1OL    H10R 5309   1.052   0.964   6.702  1.5059  0.1240 -1.1236
    1OL    C111 5310   1.046   1.055   6.505  0.0607  0.1698 -0.2511
    1OL    H11R 5311   1.136   1.108   6.538  1.0357 -2.9306  2.2238
    1OL    H11S 5312   0.971   1.112   6.450 -1.0017 -1.3626 -0.4276
    1OL    C112 5313   1.083   0.928   6.432 -0.4634 -0.5412 -1.1303
    1OL    H12R 5314   0.995   0.891   6.379 -1.1928 -0.9436  0.3400
    1OL    H12S 5315   1.112   0.851   6.504  1.8928  0.5605 -0.8471
    1OL    C113 5316   1.191   0.958   6.332  0.7598 -0.9424 -0.2042
    1OL    H13R 5317   1.247   0.865   6.320  0.1497 -1.3485  0.1118
    1OL    H13S 5318   1.261   1.029   6.377  1.0722  0.6791 -3.0974
    1OL    C114 5319   1.146   1.016   6.201  0.3470  0.4160  0.7051
    1OL    H14R 5320   1.109   1.118   6.214 -0.6914 -0.1971  2.8423
    1OL    H14S 5321   1.066   0.953   6.164 -0.4376  2.0800 -0.4503
    1OL    C115 5322   1.256   1.031   6.092  0.6915  0.2847 -0.9592
    1OL    H15R 5323   1.338   1.099   6.118  1.5068 -1.7423  2.0107
    1OL    H15S 5324   1.206   1.090   6.015  0.5981  3.0965  1.1525
    1OL    C116 5325   1.303   0.893   6.039 -0.1183 -0.6818 -0.4123
    1OL    H16R 5326   1.352   0.837   6.119  1.5277  0.0506 -0.8853
    1OL    H16S 5327   1.363   0.915   5.951  0.9445 -1.5112  0.0946
    1OL    C117 5328   1.197   0.799   5.984 -0.1584 -0.8343 -0.0667
    1OL    H17R 5329   1.131   0.851   5.914  0.5896  1.8076  1.1095
    1OL    H17S 5330   1.141   0.764   6.070  2.0586 -0.2893  1.6497
    1OL    C118 5331   1.254   0.676   5.915  0.6228  0.3752  0.7478
    1OL    H18R 5332   1.323   0.698   5.833 -0.0456 -1.8227 -0.4530
    1OL    H18S 5333   1.175   0.619   5.866  0.0710 -0.7588  2.8981
    1OL    H18T 5334   1.302   0.614   5.991  0.5243 -0.9373 -0.2436
    1PA    C116 5335   5.259   0.047   5.153  0.0438  0.3217  0.2025
    1PA    H16R 5336   5.292   0.135   5.098 -2.1202  2.4747  2.2132
    1PA    H16S 5337   5.192  -0.007   5.086  0.4872  1.4336 -1.1569
    1PA    H16T 5338   5.337  -0.027   5.172  0.0413  0.0931 -0.6643
    1PA    C115 5339   5.189   0.096   5.288  0.2659  0.1285 -0.1598
    1PA    H15R 5340   5.110   0.169   5.264  0.7658  1.0736  1.0339
    1PA    H15S 5341   5.146   0.005   5.329  0.9762  0.6390  1.7869
    1PA    C114 5342   5.282   0.162   5.389  0.3471  0.3997  0.4980
    1PA    H14R 5343   5.370   0.100   5.408 -0.5281 -1.5849 -1.5567
    1PA    H14S 5344   5.322   0.255   5.348  1.3692 -0.9356 -1.6429
    1PA    C113 5345   5.209   0.192   5.522  0.1019 -0.4221  0.3864
    1PA    H13R 5346   5.270   0.261   5.580  1.2314 -1.7076  0.7403
    1PA    H13S 5347   5.113   0.243   5.512  0.5459  0.7981  2.0525
    1PA    C112 5348   5.186   0.072   5.620 -0.3477  0.4985  0.0087
    1PA    H12R 5349   5.101   0.018   5.579 -0.2883  0.4628 -0.0680
    1PA    H12S 5350   5.278   0.013   5.628 -0.7131 -0.0457  0.1777
    1PA    C111 5351   5.149   0.132   5.757 -0.4492 -0.2540  0.6892
    1PA    H11R 5352   5.236   0.185   5.796 -1.1730  1.8440 -0.4594
    1PA    H11S 5353   5.081   0.215   5.740  2.6948  2.1727 -0.7055
    1PA    C110 5354   5.102   0.029   5.860  0.2254 -0.1431 -0.3552
    1PA    H10R 5355   5.073   0.074   5.955  0.2387  0.5478 -0.6739
    1PA    H10S 5356   5.019  -0.029   5.818 -1.8707  2.4553  0.0758
    1PA     C19 5357   5.213  -0.070   5.901  0.3273  0.7388  0.2661
    1PA     H9R 5358   5.234  -0.126   5.810 -0.5858 -0.9421  1.0572
    1PA     H9S 5359   5.293  -0.002   5.930  1.8838 -0.9429  0.0144
    1PA     C18 5360   5.178  -0.174   6.014  0.0958  0.0769  0.0402
    1PA     H8R 5361   5.112  -0.255   5.981  1.2342 -0.8283 -0.0352
    1PA     H8S 5362   5.275  -0.220   6.034  1.8517  3.0859 -1.3487
    1PA     C17 5363   5.120  -0.120   6.145  0.6727 -0.3030 -0.2024
    1PA     H7R 5364   5.187  -0.040   6.178 -0.3185  0.4905 -0.0706
    1PA     H7S 5365   5.027  -0.067   6.122  0.7380 -0.2743 -0.4040
    1PA     C16 5366   5.091  -0.225   6.249  0.7771  0.2495  0.0751
    1PA     H6R 5367   5.069  -0.181   6.347 -2.3640  0.6156 -0.7594
    1PA     H6S 5368   4.995  -0.273   6.229  1.2340  0.3597 -2.5856
    1PA     C15 5369   5.195  -0.335   6.276 -0.6779 -0.4779  0.2335
    1PA     H5R 5370   5.136  -0.413   6.324  0.0420 -1.8247 -1.0323
    1PA     H5S 5371   5.233  -0.383   6.186  0.0333  0.3405  0.0925
    1PA     C14 5372   5.311  -0.303   6.376 -0.7418  0.4359  0.6615
    1PA     H4R 5373   5.362  -0.217   6.334 -1.4310 -0.1639 -1.4477
    1PA     H4S 5374   5.268  -0.297   6.476 -0.4059  0.5099  0.8033
    1PA     C13 5375   5.415  -0.425   6.390 -0.7432  0.2395  0.2408
    1PA     H3R 5376   5.367  -0.515   6.428  0.9574 -1.2366 -1.0029
    1PA     H3S 5377   5.455  -0.443   6.290 -0.8760  0.2048  0.1957
    1PA     C12 5378   5.540  -0.390   6.477 -0.1823 -0.3661  0.0508
    1PA     H2R 5379   5.622  -0.461   6.465  1.9900  2.1039 -0.0904
    1PA     H2S 5380   5.583  -0.292   6.456 -0.5225 -0.2744 -0.2422
    1PC     C11 5381   5.511  -0.394   6.625 -0.2883 -0.1199 -0.1850
    1PC     O12 5382   5.494  -0.504   6.671  0.5958  0.5514  0.0581
    1PC     O11 5383   5.500  -0.277   6.689  0.3620 -0.4100 -0.0995
    1PC      C1 5384   5.529  -0.286   6.835  0.6063  0.2058  0.2985
    1PC      HR 5385   5.561  -0.386   6.864 -2.0988 -0.5340  0.8709
    1PC      HS 5386   5.615  -0.224   6.863  1.7382 -1.3639  0.3406
    1PC      C2 5387   5.406  -0.247   6.918 -0.1484 -0.0539  0.2565
    1PC      HX 5388   5.369  -0.148   6.888 -3.0308  0.2339  4.2809
    1PC      C3 5389   5.449  -0.250   7.064  0.0413  0.2011  0.8656
    1PC      HA 5390   5.500  -0.156   7.088 -2.5250  1.1449  2.8636
    1PC      HB 5391   5.363  -0.258   7.131 -0.3760 -0.6766  0.2278
    1PC     O31 5392   5.531  -0.356   7.108 -0.2621  0.1539 -0.2205
    1PC     P31 5393   5.522  -0.411   7.252 -0.1401 -0.1876 -0.1859
    1PC     O32 5394   5.382  -0.494   7.255 -0.2935 -0.0151  0.0011
    1PC     C31 5395   5.377  -0.633   7.206 -0.3388  0.0245 -1.1560
    1PC     H1A 5396   5.467  -0.684   7.241  0.6156  2.0839 -0.5273
    1PC     H1B 5397   5.291  -0.676   7.258  1.5350 -1.6314  0.6716
    1PC     C32 5398   5.359  -0.633   7.055 -0.0723  0.7717  1.0064
    1PC     H2A 5399   5.260  -0.592   7.033  0.0633  1.2014  1.2056
    1PC     H2B 5400   5.435  -0.566   7.016  1.1464 -0.6720  0.8852
    1PC     N31 5401   5.372  -0.767   6.979 -0.7765 -0.7836 -0.4376
    1PC     C33 5402   5.266  -0.860   7.020 -0.4930  0.3827 -0.0001
    1PC     H3A 5403   5.293  -0.957   6.978  0.5131  0.9517 -0.6891
    1PC     H3B 5404   5.277  -0.847   7.128 -1.5859  1.5513 -0.0232
    1PC     H3C 5405   5.170  -0.821   6.988 -0.6197  0.3616  0.3452
    1PC     C34 5406   5.359  -0.742   6.836 -1.2045 -0.2479 -0.0625
    1PC     H4A 5407   5.432  -0.673   6.793  0.0149 -1.4449  0.0480
    1PC     H4B 5408   5.364  -0.837   6.782  0.5181 -0.2597  0.0754
    1PC     H4C 5409   5.255  -0.717   6.814 -1.9482 -3.2645 -0.1831
    1PC     C35 5410   5.510  -0.831   7.006 -0.1692 -0.1957 -0.0325
    1PC     H5A 5411   5.594  -0.761   7.000  1.9357 -2.6718 -0.1957
    1PC     H5B 5412   5.527  -0.915   6.939 -0.9216 -0.1900 -0.2395
    1PC     H5C 5413   5.521  -0.862   7.110  1.4760  0.0429 -0.1172
    1PC     O33 5414   5.635  -0.505   7.262 -0.5087  0.2625  0.5164
    1PC     O34 5415   5.504  -0.298   7.343 -0.1017 -0.1989 -0.1892
    1PC     O21 5416   5.296  -0.340   6.903  0.6114 -0.2825  0.3704
    1PC     C21 5417   5.201  -0.325   6.813  0.2038 -0.3099  0.0384
    1PC     O22 5418   5.189  -0.231   6.737 -0.6767  0.0032  0.2217
    1OL     C12 5419   5.114  -0.442   6.821 -0.5327  0.0164  0.0284
    1OL     H2R 5420   5.119  -0.488   6.920 -1.0993 -0.7339 -0.2871
    1OL     H2S 5421   5.152  -0.526   6.763 -0.9795 -0.9171  1.0654
    1OL     C13 5422   4.966  -0.415   6.783 -0.4947 -0.4093  0.5079
    1OL     H3R 5423   4.954  -0.340   6.705  0.0288  0.2240  1.0257
    1OL     H3S 5424   4.903  -0.387   6.869 -0.1881  3.8919 -0.5549
    1OL     C14 5425   4.895  -0.541   6.724 -0.4008 -0.1959  0.6351
    1OL     H4R 5426   4.885  -0.611   6.806  1.4532 -0.1928  0.8888
    1OL     H4S 5427   4.961  -0.590   6.652 -0.1444 -0.5027  1.0758
    1OL     C15 5428   4.749  -0.521   6.676 -0.1199  0.2212  0.9570
    1OL     H5R 5429   4.685  -0.491   6.759 -2.0588  0.0644 -0.4455
    1OL     H5S 5430   4.715  -0.615   6.631  0.3957 -0.1053  1.2495
    1OL     C16 5431   4.745  -0.414   6.562  0.9241 -0.2688 -0.2406
    1OL     H6R 5432   4.764  -0.317   6.608  1.2173  0.1837 -1.2843
    1OL     H6S 5433   4.639  -0.406   6.535  0.8105 -0.4844  0.1349
    1OL     C17 5434   4.845  -0.427   6.449  0.9521  0.1767 -0.1375
    1OL     H7R 5435   4.947  -0.419   6.488  1.3542 -0.3669 -1.0563
    1OL     H7S 5436   4.828  -0.342   6.383 -1.0097  1.6224  2.1465
    1OL     C18 5437   4.830  -0.551   6.362  0.6515 -0.1414  0.4956
    1OL     H8R 5438   4.846  -0.635   6.430  1.6749  1.0005  1.7059
    1OL     H8S 5439   4.918  -0.550   6.298 -0.2140  1.0854 -0.6980
    1OL     C19 5440   4.697  -0.563   6.293  0.1078  0.0985 -0.2033
    1OL     H9R 5441   4.622  -0.609   6.357  1.0700 -2.1813 -0.6545
    1OL    C110 5442   4.678  -0.544   6.164  0.5418 -0.7636  0.4882
    1OL    H10R 5443   4.577  -0.547   6.122  1.0237 -2.3782 -0.6278
    1OL    C111 5444   4.779  -0.496   6.059  0.1779  0.4978 -0.6161
    1OL    H11R 5445   4.812  -0.577   5.993 -1.7411 -0.0660 -0.9367
    1OL    H11S 5446   4.866  -0.450   6.106 -0.1412  2.7947 -2.2272
    1OL    C112 5447   4.708  -0.394   5.966  0.2466  0.0765 -0.0048
    1OL    H12R 5448   4.676  -0.309   6.026 -2.8721 -1.8663  1.1849
    1OL    H12S 5449   4.619  -0.438   5.921 -0.2019 -0.6636  1.5873
    1OL    C113 5450   4.804  -0.345   5.860 -0.0705  0.1400 -0.3916
    1OL    H13R 5451   4.858  -0.434   5.825 -0.1394  0.2765 -0.8417
    1OL    H13S 5452   4.875  -0.288   5.921  0.4089 -0.5638 -0.2717
    1OL    C114 5453   4.749  -0.252   5.751  0.2688  0.3393  0.0130
    1OL    H14R 5454   4.826  -0.216   5.684 -1.8190  1.2239 -1.9605
    1OL    H14S 5455   4.699  -0.164   5.792 -0.6626  0.6159 -1.6888
    1OL    C115 5456   4.661  -0.318   5.646  0.0883  0.3551 -0.4606
    1OL    H15R 5457   4.626  -0.232   5.588  0.3052  0.5960 -0.2355
    1OL    H15S 5458   4.570  -0.356   5.694  0.1338 -1.0763 -1.4863
    1OL    C116 5459   4.731  -0.426   5.562  0.0397 -0.4519  0.4709
    1OL    H16R 5460   4.770  -0.505   5.626  0.6125  0.6248  1.4838
    1OL    H16S 5461   4.817  -0.379   5.512 -0.8510  0.9776  0.2670
    1OL    C117 5462   4.637  -0.492   5.455 -0.6802  0.4664  0.5364
    1OL    H17R 5463   4.540  -0.524   5.496 -0.7195  2.6237  2.2389
    1OL    H17S 5464   4.678  -0.582   5.411 -3.2798 -1.1661  1.3090
    1OL    C118 5465   4.612  -0.393   5.341 -0.1181  0.2234 -0.7805
    1OL    H18R 5466   4.705  -0.358   5.297  0.0413  0.0210 -0.5996
    1OL    H18S 5467   4.547  -0.308   5.361 -2.3088 -0.9900 -2.4330
    1OL    H18T 5468   4.569  -0.449   5.257  0.6066  0.2577 -1.1777
    1PA    C116 5469   0.228   3.669   5.768 -0.2304 -0.2576 -0.3317
    1PA    H16R 5470   0.191   3.596   5.841 -0.8741 -1.3336 -1.7068
    1PA    H16S 5471   0.313   3.710   5.824 -0.1914  0.9196 -1.2451
    1PA    H16T 5472   0.253   3.625   5.672 -0.1223  1.3265 -1.0393
    1PA    C115 5473   0.129   3.781   5.743 -0.4149 -0.8777  0.4910
    1PA    H15R 5474   0.169   3.855   5.673 -0.2601  0.2103  1.7060
    1PA    H15S 5475   0.043   3.742   5.688  0.8912 -1.5773 -1.1097
    1PA    C114 5476   0.091   3.852   5.881  0.2481  0.3311  0.0081
    1PA    H14R 5477   0.181   3.904   5.915 -0.4516  0.8236  1.1314
    1PA    H14S 5478   0.023   3.933   5.854 -0.9487 -0.8908 -0.6847
    1PA    C113 5479   0.009   3.766   5.982 -0.1715 -0.8713 -0.1737
    1PA    H13R 5480  -0.094   3.742   5.953 -1.8591  2.3992  2.6472
    1PA    H13S 5481   0.055   3.669   6.002  0.7203 -0.3577  0.3245
    1PA    C112 5482  -0.006   3.853   6.111 -0.3556  0.6427  0.3342
    1PA    H12R 5483   0.095   3.863   6.151 -0.5656  0.0741  1.0115
    1PA    H12S 5484  -0.033   3.954   6.078 -2.5725 -0.5964 -1.8762
    1PA    C111 5485  -0.123   3.801   6.211  0.5128  0.0486 -0.6620
    1PA    H11R 5486  -0.210   3.829   6.152 -0.9921 -0.3239  1.3537
    1PA    H11S 5487  -0.131   3.693   6.226 -0.0330  0.0021 -1.2807
    1PA    C110 5488  -0.128   3.866   6.345  0.4129  0.1374 -0.3209
    1PA    H10R 5489  -0.143   3.974   6.332 -2.4012 -0.3241 -1.0847
    1PA    H10S 5490  -0.216   3.825   6.394 -0.2072  0.7367 -0.9423
    1PA     C19 5491  -0.012   3.832   6.436 -0.6855  0.6265 -0.0631
    1PA     H9R 5492  -0.019   3.725   6.458  0.0059  0.6273  0.1666
    1PA     H9S 5493   0.087   3.845   6.391  0.4738 -1.4776  1.8141
    1PA     C18 5494  -0.028   3.912   6.571 -0.2063  0.0142  0.1014
    1PA     H8R 5495   0.010   4.014   6.572  0.1741 -0.1183  2.2150
    1PA     H8S 5496  -0.134   3.917   6.593  0.0419 -0.6695  1.4967
    1PA     C17 5497   0.038   3.839   6.689  0.3587  0.0160  0.6239
    1PA     H7R 5498   0.128   3.785   6.659 -1.0112 -1.7090 -0.4027
    1PA     H7S 5499   0.069   3.903   6.772  3.8402  1.1064 -1.4209
    1PA     C16 5500  -0.055   3.734   6.747  0.1396  0.4593  0.6475
    1PA     H6R 5501  -0.141   3.796   6.772 -0.1886  0.7577 -1.1518
    1PA     H6S 5502  -0.089   3.660   6.674 -1.1731 -0.5736  2.2975
    1PA     C15 5503   0.002   3.655   6.861 -0.4674  0.6533  0.3506
    1PA     H5R 5504   0.030   3.719   6.945 -3.5562 -0.0451  2.0027
    1PA     H5S 5505  -0.075   3.586   6.897  1.0376 -0.9497  0.5539
    1PA     C14 5506   0.123   3.571   6.811  0.0598  0.2082 -0.2185
    1PA     H4R 5507   0.112   3.528   6.711  1.5259  0.6452 -0.5808
    1PA     H4S 5508   0.208   3.638   6.798 -0.3704  0.4859 -1.6712
    1PA     C13 5509   0.183   3.478   6.918 -0.0673 -0.7227  0.0756
    1PA     H3R 5510   0.268   3.431   6.869 -0.6987 -0.6065 -1.1502
    1PA     H3S 5511   0.222   3.543   6.996 -0.4323 -0.3899 -0.0145
    1PA     C12 5512   0.090   3.371   6.979 -0.7341 -0.7713 -0.5845
    1PA     H2R 5513   0.007   3.418   7.032 -1.1841  2.3653 -3.8989
    1PA     H2S 5514   0.051   3.300   6.906  0.4285 -1.7355 -0.2902
    1PC     C11 5515   0.177   3.299   7.077  0.0211  0.5688 -0.0797
    1PC     O12 5516   0.160   3.308   7.195  0.1466  0.2245 -0.1895
    1PC     O11 5517   0.276   3.228   7.009  0.1850  0.3277 -0.2033
    1PC      C1 5518   0.393   3.179   7.087  0.3134 -0.5345  0.4454
    1PC      HR 5519   0.424   3.241   7.171 -1.0193  1.2916 -0.3826
    1PC      HS 5520   0.356   3.081   7.116 -1.2949 -0.0792 -0.0336
    1PC      C2 5521   0.519   3.163   6.999 -0.3604 -0.6799 -0.1779
    1PC      HX 5522   0.586   3.095   7.054 -0.6458 -1.2924 -0.5746
    1PC      C3 5523   0.591   3.302   6.973  0.5214 -0.0991  0.5778
    1PC      HA 5524   0.689   3.286   6.929  0.3507  1.1512 -0.2983
    1PC      HB 5525   0.525   3.353   6.902  2.9694  1.7720 -0.4299
    1PC     O31 5526   0.603   3.380   7.097  0.8845 -0.5927  0.0362
    1PC     P31 5527   0.727   3.365   7.191  0.5576  0.3886  0.1198
    1PC     O32 5528   0.685   3.247   7.290 -0.2966  0.5023  0.5187
    1PC     C31 5529   0.603   3.269   7.403  0.1580  0.0972  0.7911
    1PC     H1A 5530   0.628   3.360   7.459 -0.2511  0.8905 -0.2940
    1PC     H1B 5531   0.499   3.292   7.381  0.2168  0.2114  0.6248
    1PC     C32 5532   0.601   3.135   7.476  0.2490  0.0953 -0.2915
    1PC     H2A 5533   0.508   3.132   7.533 -0.7072 -0.9959 -1.8613
    1PC     H2B 5534   0.608   3.056   7.401  0.6810  0.3570 -0.5304
    1PC     N31 5535   0.715   3.107   7.567  0.2301 -0.1231  0.1711
    1PC     C33 5536   0.704   2.961   7.610  1.0389 -0.5771 -0.4120
    1PC     H3A 5537   0.693   2.887   7.531  0.2706 -0.6790 -0.2074
    1PC     H3B 5538   0.793   2.941   7.670  0.7095 -0.3131  0.1657
    1PC     H3C 5539   0.611   2.969   7.667 -1.1686  0.3313 -3.9917
    1PC     C34 5540   0.846   3.130   7.497  0.3115 -0.1334  0.1468
    1PC     H4A 5541   0.863   3.059   7.416  3.5801  1.0894 -0.2881
    1PC     H4B 5542   0.846   3.236   7.473 -0.6121 -0.3042 -0.6501
    1PC     H4C 5543   0.930   3.109   7.564 -0.9243 -1.9204  1.1936
    1PC     C35 5544   0.707   3.192   7.689 -0.6191 -0.1079  0.2218
    1PC     H5A 5545   0.802   3.176   7.741 -0.1561 -2.4834 -1.2931
    1PC     H5B 5546   0.616   3.169   7.744 -0.5168  1.3568  1.0330
    1PC     H5C 5547   0.694   3.297   7.663 -0.7122  0.0108  0.7449
    1PC     O33 5548   0.846   3.329   7.110  0.3030  0.3186 -0.2671
    1PC     O34 5549   0.733   3.486   7.273 -0.0304  0.4489 -0.4764
    1PC     O21 5550   0.492   3.110   6.867  0.1482  0.3506  0.1061
    1PC     C21 5551   0.437   2.988   6.849  0.7809 -0.0138 -0.8355
    1PC     O22 5552   0.406   2.914   6.941 -0.5154 -0.5782 -0.1043
    1OL     C12 5553   0.400   2.964   6.707  0.7624  1.5308  0.4340
    1OL     H2R 5554   0.455   2.874   6.679  0.3346  1.0861  0.9934
    1OL     H2S 5555   0.441   3.048   6.651 -0.5426  0.2357 -2.5233
    1OL     C13 5556   0.250   2.963   6.678  0.2348 -0.4770  0.3938
    1OL     H3R 5557   0.195   3.025   6.749  0.3102  0.5374 -0.4287
    1OL     H3S 5558   0.211   2.861   6.684 -4.4937  1.1744  0.0688
    1OL     C14 5559   0.220   2.994   6.530  0.0161 -0.1587  0.3644
    1OL     H4R 5560   0.126   2.945   6.505  0.1167  0.2076 -0.7473
    1OL     H4S 5561   0.295   2.958   6.460 -0.0207 -0.6523  0.5754
    1OL     C15 5562   0.210   3.146   6.504 -0.5285  0.0592  0.3535
    1OL     H5R 5563   0.309   3.189   6.520 -0.6761  0.0807  1.2042
    1OL     H5S 5564   0.154   3.191   6.586 -1.1925 -2.6314  1.4161
    1OL     C16 5565   0.149   3.182   6.365 -0.1429 -0.3794 -0.1723
    1OL     H6R 5566   0.049   3.137   6.362  0.0875 -0.8027 -2.2329
    1OL     H6S 5567   0.201   3.137   6.280 -0.8943 -1.9737  0.1748
    1OL     C17 5568   0.133   3.341   6.351 -0.4622 -0.4993  1.1873
    1OL     H7R 5569   0.236   3.375   6.340 -0.9956  0.3275 -1.7596
    1OL     H7S 5570   0.088   3.384   6.440  1.3380  2.5962  0.6775
    1OL     C18 5571   0.070   3.385   6.218 -0.3428 -0.8181  0.2398
    1OL     H8R 5572   0.115   3.317   6.145 -0.9557 -0.8544 -0.1009
    1OL     H8S 5573   0.115   3.482   6.195  0.8248 -1.5049 -0.4066
    1OL     C19 5574  -0.079   3.382   6.209 -0.3389 -0.6140 -0.5897
    1OL     H9R 5575  -0.143   3.377   6.297  0.4210 -0.9957 -0.0599
    1OL    C110 5576  -0.145   3.379   6.094 -0.1728  0.1761  0.7458
    1OL    H10R 5577  -0.253   3.377   6.099 -0.2299 -0.4993 -0.5062
    1OL    C111 5578  -0.080   3.384   5.957 -0.1352  0.1288  0.8229
    1OL    H11R 5579   0.026   3.409   5.962  0.4604 -1.7980 -1.4841
    1OL    H11S 5580  -0.130   3.464   5.902 -0.5736 -1.7830 -1.6387
    1OL    C112 5581  -0.080   3.259   5.863  0.5672  0.0925 -0.0050
    1OL    H12R 5582  -0.183   3.236   5.836 -0.5005  3.3761  1.0153
    1OL    H12S 5583  -0.034   3.177   5.917 -2.6468 -1.2800  0.7162
    1OL    C113 5584   0.007   3.303   5.746  0.0801 -0.5062 -0.1306
    1OL    H13R 5585   0.106   3.331   5.783  0.9324 -0.0820 -2.6704
    1OL    H13S 5586  -0.048   3.380   5.692  0.8201 -1.3728 -2.1441
    1OL    C114 5587   0.046   3.190   5.646  0.3279  0.0200 -0.8391
    1OL    H14R 5588  -0.043   3.135   5.616 -0.2799  0.0615  0.8297
    1OL    H14S 5589   0.109   3.116   5.696 -1.6513  0.6439  2.7641
    1OL    C115 5590   0.111   3.258   5.526  0.4993  0.1430 -0.2363
    1OL    H15R 5591   0.203   3.308   5.559 -0.2226  1.5176 -0.2788
    1OL    H15S 5592   0.054   3.345   5.493 -1.9486 -1.4343 -0.2963
    1OL    C116 5593   0.143   3.169   5.407 -0.4537  0.3012  0.1302
    1OL    H16R 5594   0.059   3.105   5.380  0.4006 -1.1488  0.8028
    1OL    H16S 5595   0.218   3.105   5.455  1.0511  2.4460  0.7671
    1OL    C117 5596   0.202   3.234   5.284 -0.1127  0.4883  0.5464
    1OL    H17R 5597   0.286   3.300   5.304  2.5542 -2.7732  0.4395
    1OL    H17S 5598   0.128   3.302   5.240  2.0055  2.5556  0.0971
    1OL    C118 5599   0.241   3.126   5.175 -0.4561 -0.1976 -0.4170
    1OL    H18R 5600   0.170   3.042   5.171 -0.1732 -0.5402  1.3800
    1OL    H18S 5601   0.248   3.178   5.080  1.2048  1.0471  0.3652
    1OL    H18T 5602   0.340   3.091   5.202 -0.7347 -1.4518 -0.9478
    1PA    C116 5603   1.055   0.089   5.791 -0.0811  0.7208  0.1040
    1PA    H16R 5604   0.957   0.131   5.815  0.0957  0.7369  0.8047
    1PA    H16S 5605   1.117   0.165   5.744  2.0263 -1.2191 -0.3549
    1PA    H16T 5606   1.111   0.058   5.879  3.3555  2.4654 -1.4060
    1PA    C115 5607   1.023  -0.027   5.693  0.2329  0.4097  0.0153
    1PA    H15R 5608   0.919  -0.057   5.705 -0.4207  2.3165 -0.6061
    1PA    H15S 5609   1.043   0.013   5.593 -0.4623  1.2406  0.1942
    1PA    C114 5610   1.102  -0.160   5.702  0.0490  1.0235 -0.0771
    1PA    H14R 5611   1.054  -0.232   5.635 -1.1270  0.2358  1.5772
    1PA    H14S 5612   1.207  -0.152   5.676 -0.1234 -0.8616 -1.5164
    1PA    C113 5613   1.107  -0.239   5.838 -0.6868  0.0356  1.2161
    1PA    H13R 5614   1.146  -0.337   5.810 -0.8776  0.2586  0.1178
    1PA    H13S 5615   1.175  -0.189   5.907 -1.1293 -0.1683  1.7994
    1PA    C112 5616   0.969  -0.243   5.907  0.1558 -0.2123 -0.0937
    1PA    H12R 5617   0.933  -0.142   5.923 -0.8075 -0.4325 -0.8128
    1PA    H12S 5618   0.906  -0.285   5.828 -1.9323 -1.6712  2.2656
    1PA    C111 5619   0.981  -0.329   6.039 -0.1217  0.4350  0.4440
    1PA    H11R 5620   1.060  -0.295   6.106  0.4881  0.5438 -0.3197
    1PA    H11S 5621   0.892  -0.321   6.102  0.2474  1.2714  0.8599
    1PA    C110 5622   1.021  -0.480   6.012 -0.6273 -0.0897  0.1162
    1PA    H10R 5623   0.950  -0.513   5.935 -2.9583 -1.7554  2.8972
    1PA    H10S 5624   1.119  -0.489   5.965 -0.7020 -3.2308  0.4880
    1PA     C19 5625   1.013  -0.578   6.129 -0.1226  0.0011 -0.0184
    1PA     H9R 5626   0.910  -0.589   6.164  0.2436 -1.1687  0.7345
    1PA     H9S 5627   1.053  -0.671   6.088 -0.3407  0.2101 -0.7098
    1PA     C18 5628   1.105  -0.539   6.245  0.3990 -0.2347 -0.5953
    1PA     H8R 5629   1.056  -0.453   6.291  0.1086  0.0267 -1.3786
    1PA     H8S 5630   1.108  -0.626   6.310  0.4793  0.1364 -0.0955
    1PA     C17 5631   1.251  -0.500   6.215  0.3951 -0.3052 -0.7707
    1PA     H7R 5632   1.302  -0.593   6.190 -0.1375 -0.4898 -1.1910
    1PA     H7S 5633   1.260  -0.425   6.136  1.9456  0.8448  0.4660
    1PA     C16 5634   1.313  -0.442   6.340  0.1036  0.8566 -0.2223
    1PA     H6R 5635   1.241  -0.363   6.360 -0.6861  0.0568  0.1717
    1PA     H6S 5636   1.309  -0.523   6.414 -0.6574 -0.0651 -1.2688
    1PA     C15 5637   1.448  -0.380   6.324  0.1026 -0.2387 -0.2174
    1PA     H5R 5638   1.497  -0.455   6.261  2.1645  1.8129 -1.1131
    1PA     H5S 5639   1.438  -0.281   6.279 -1.3351 -0.8055 -1.2232
    1PA     C14 5640   1.517  -0.370   6.465 -0.5634 -0.5400 -0.6175
    1PA     H4R 5641   1.459  -0.317   6.540  0.7789  1.7626 -1.1572
    1PA     H4S 5642   1.533  -0.471   6.505  1.6821 -0.2768 -0.7474
    1PA     C13 5643   1.646  -0.303   6.452  0.7856 -0.2737  0.6097
    1PA     H3R 5644   1.702  -0.361   6.379 -0.1094  0.3938 -0.6422
    1PA     H3S 5645   1.639  -0.200   6.415  0.3499 -0.4141  0.2850
    1PA     C12 5646   1.718  -0.298   6.586 -0.1254 -0.0128 -0.4471
    1PA     H2R 5647   1.711  -0.402   6.619 -2.0285  0.6998  1.5395
    1PA     H2S 5648   1.819  -0.262   6.571 -0.2213 -0.6857 -3.0119
    1PC     C11 5649   1.657  -0.208   6.688  0.2613  0.0188  0.2620
    1PC     O12 5650   1.624  -0.094   6.659 -0.5380 -0.1045 -0.3761
    1PC     O11 5651   1.648  -0.261   6.806  0.0626 -0.3292 -1.0438
    1PC      C1 5652   1.604  -0.182   6.914 -0.4414  0.0885 -0.9894
    1PC      HR 5653   1.644  -0.206   7.013 -0.9256 -1.9982 -1.2799
    1PC      HS 5654   1.617  -0.076   6.892 -0.7893  0.1547 -0.8790
    1PC      C2 5655   1.455  -0.202   6.940  0.0260  0.6400 -0.7581
    1PC      HX 5656   1.429  -0.133   7.022  0.7554 -0.0805  0.0936
    1PC      C3 5657   1.411  -0.356   6.967  0.0883 -0.0618  0.3280
    1PC      HA 5658   1.454  -0.420   6.890 -2.2810 -0.9452 -0.2965
    1PC      HB 5659   1.452  -0.400   7.058  1.8618  0.2002 -0.3264
    1PC     O31 5660   1.262  -0.377   6.961  0.2854 -0.5006  0.1982
    1PC     P31 5661   1.167  -0.335   7.070  0.1009 -0.1034 -0.0212
    1PC     O32 5662   1.160  -0.462   7.162 -0.1509  0.3598  0.6562
    1PC     C31 5663   1.111  -0.594   7.122 -0.6003 -0.0601  0.5248
    1PC     H1A 5664   1.127  -0.609   7.015  1.3592  2.9151  0.3368
    1PC     H1B 5665   1.165  -0.676   7.168  2.1026  1.9842  1.1203
    1PC     C32 5666   0.961  -0.591   7.173 -0.1340  0.5444 -0.2439
    1PC     H2A 5667   0.921  -0.498   7.132 -0.3992  0.7440  0.4471
    1PC     H2B 5668   0.901  -0.664   7.120  1.2691 -0.5206 -0.3722
    1PC     N31 5669   0.928  -0.599   7.326  0.5791  0.7246  0.1230
    1PC     C33 5670   0.961  -0.729   7.387  0.2711  0.3698  0.6499
    1PC     H3A 5671   0.924  -0.739   7.489 -3.3542  1.7444 -0.4797
    1PC     H3B 5672   0.911  -0.813   7.338  1.4998  0.8338 -1.4622
    1PC     H3C 5673   1.070  -0.731   7.377  0.3344  0.1586  1.3295
    1PC     C34 5674   0.999  -0.495   7.413  0.3773  0.2021  0.0562
    1PC     H4A 5675   1.103  -0.496   7.380  1.0205  1.9042  1.9377
    1PC     H4B 5676   0.941  -0.403   7.410 -1.2689 -0.7306  1.8158
    1PC     H4C 5677   0.992  -0.538   7.513 -0.8842  1.6569  0.6122
    1PC     C35 5678   0.778  -0.595   7.321  0.4922  0.4080  0.3572
    1PC     H5A 5679   0.727  -0.606   7.416  1.2655 -0.9719  0.6264
    1PC     H5B 5680   0.734  -0.666   7.250  1.3164 -0.7709  1.0017
    1PC     H5C 5681   0.753  -0.494   7.288 -1.7066 -1.0477 -2.7745
    1PC     O33 5682   1.230  -0.223   7.145 -0.3546 -0.3099  0.4187
    1PC     O34 5683   1.037  -0.315   7.004 -0.2800  0.1626  0.6218
    1PC     O21 5684   1.381  -0.163   6.822  0.3707  0.1957 -0.2553
    1PC     C21 5685   1.358  -0.026   6.806  0.2080  0.2255 -0.7832
    1PC     O22 5686   1.387   0.060   6.887  0.2868 -0.0961 -0.0786
    1OL     C12 5687   1.304  -0.008   6.664 -0.0285  0.6816 -0.3196
    1OL     H2R 5688   1.389  -0.031   6.599  2.7216  3.7253  2.0599
    1OL     H2S 5689   1.287   0.097   6.641 -0.3597  0.3602 -1.5976
    1OL     C13 5690   1.180  -0.091   6.620  0.0588 -0.5330  0.3369
    1OL     H3R 5691   1.095  -0.084   6.688  0.7822 -1.2844  1.3389
    1OL     H3S 5692   1.215  -0.194   6.620  2.0939  0.1431  0.7066
    1OL     C14 5693   1.138  -0.051   6.474  0.1252  0.0350 -0.0838
    1OL     H4R 5694   1.093   0.048   6.477  0.9087  0.4338 -1.2761
    1OL     H4S 5695   1.061  -0.120   6.438 -0.4463 -0.0849  1.3305
    1OL     C15 5696   1.245  -0.047   6.377  0.3212 -0.0771 -0.2980
    1OL     H5R 5697   1.287  -0.148   6.368  0.7573  0.1142 -0.4230
    1OL     H5S 5698   1.325   0.019   6.410 -0.3304 -1.3952  4.1799
    1OL     C16 5699   1.191   0.004   6.244 -0.0156  0.4104  0.0752
    1OL     H6R 5700   1.141   0.101   6.254  2.8589  1.9652 -0.0742
    1OL     H6S 5701   1.118  -0.071   6.212  0.5559 -0.0674 -0.1178
    1OL     C17 5702   1.296   0.013   6.139  0.2106 -0.4440 -0.0473
    1OL     H7R 5703   1.261   0.009   6.035 -0.1211 -4.1991  0.1563
    1OL     H7S 5704   1.370  -0.065   6.159  1.3509  0.7432  0.4455
    1OL     C18 5705   1.372   0.146   6.139  0.0712  0.3142 -0.0330
    1OL     H8R 5706   1.462   0.132   6.078  0.9887  0.4742  1.2722
    1OL     H8S 5707   1.408   0.157   6.242  0.6835  0.0988 -0.2201
    1OL     C19 5708   1.289   0.258   6.087  0.0614  0.6749 -0.1775
    1OL     H9R 5709   1.189   0.268   6.128 -0.4211 -0.7389 -0.9956
    1OL    C110 5710   1.322   0.335   5.985 -0.1614 -0.2265  0.3318
    1OL    H10R 5711   1.250   0.414   5.965 -0.5806 -1.2884 -2.5591
    1OL    C111 5712   1.449   0.332   5.903  0.5473  0.2236  0.0336
    1OL    H11R 5713   1.531   0.281   5.954  0.2497 -0.9443 -0.6513
    1OL    H11S 5714   1.476   0.437   5.887 -2.3092  1.0616  0.3484
    1OL    C112 5715   1.428   0.278   5.757  0.0879 -0.4579  0.4841
    1OL    H12R 5716   1.406   0.171   5.750  0.5001 -0.6129  1.4448
    1OL    H12S 5717   1.518   0.285   5.696  0.5277 -0.8112  1.0867
    1OL    C113 5718   1.327   0.356   5.666 -0.6561  0.1386  0.1997
    1OL    H13R 5719   1.350   0.460   5.688 -2.0557  0.6445 -0.6742
    1OL    H13S 5720   1.221   0.346   5.693 -0.4803 -1.0872  0.4553
    1OL    C114 5721   1.347   0.339   5.513  0.5649  0.2663  0.0058
    1OL    H14R 5722   1.451   0.345   5.478  0.3458  2.4850 -0.3398
    1OL    H14S 5723   1.288   0.414   5.461  0.6677  0.3091 -0.0485
    1OL    C115 5724   1.299   0.198   5.477 -0.9679 -0.6439  0.4140
    1OL    H15R 5725   1.196   0.177   5.508 -1.5486 -0.7920 -1.5450
    1OL    H15S 5726   1.366   0.123   5.518  0.7410  0.3888 -0.4274
    1OL    C116 5727   1.292   0.180   5.322 -0.1453  0.1491  0.4229
    1OL    H16R 5728   1.397   0.176   5.290 -0.1799 -0.7097  0.3942
    1OL    H16S 5729   1.231   0.261   5.281 -2.7482 -0.2049  3.4081
    1OL    C117 5730   1.229   0.046   5.277  0.0128  1.2735  0.4148
    1OL    H17R 5731   1.125   0.036   5.310  0.3885 -1.6074  0.8287
    1OL    H17S 5732   1.288  -0.028   5.330  0.3660  0.4590 -1.0729
    1OL    C118 5733   1.234   0.036   5.121  0.2026  0.5996  0.4401
    1OL    H18R 5734   1.205  -0.065   5.089 -1.4395  1.1914 -0.0378
    1OL    H18S 5735   1.334   0.053   5.081 -1.4925  0.9810 -3.9249
    1OL    H18T 5736   1.170   0.114   5.077  1.2803  1.0734 -0.3117
    1PA    C116 5737   0.071   5.425   5.463 -0.3804 -0.0252  0.4491
    1PA    H16R 5738  -0.012   5.355   5.482  0.1320 -1.2198 -1.5880
    1PA    H16S 5739   0.156   5.389   5.405 -1.4390  2.5466 -2.8296
    1PA    H16T 5740   0.018   5.493   5.396  0.6870 -1.2081 -1.6641
    1PA    C115 5741   0.114   5.492   5.593 -0.4100  0.2691 -0.0248
    1PA    H15R 5742   0.157   5.414   5.656 -1.2002 -1.3111 -1.3986
    1PA    H15S 5743   0.202   5.557   5.582 -0.3358  0.5580  2.1987
    1PA    C114 5744  -0.005   5.554   5.673  1.0844  0.3715 -0.0785
    1PA    H14R 5745  -0.065   5.617   5.606 -2.4324 -1.6702  0.9957
    1PA    H14S 5746  -0.064   5.470   5.711  0.8383 -0.2189 -1.7115
    1PA    C113 5747   0.043   5.669   5.768 -0.0855 -0.1413 -0.6246
    1PA    H13R 5748   0.089   5.749   5.709 -0.7442  0.1718 -0.7209
    1PA    H13S 5749  -0.053   5.709   5.801  0.6669  1.1910  0.0349
    1PA    C112 5750   0.135   5.624   5.882  0.1948  0.7219 -0.2225
    1PA    H12R 5751   0.186   5.538   5.838  1.0354  1.5186 -0.8299
    1PA    H12S 5752   0.221   5.689   5.900  2.0936 -1.7082 -0.2364
    1PA    C111 5753   0.064   5.595   6.014  0.1009  0.6989 -0.0573
    1PA    H11R 5754   0.074   5.688   6.070 -1.5784  0.4151  0.7445
    1PA    H11S 5755  -0.043   5.579   6.005  0.0553  0.4270  0.8846
    1PA    C110 5756   0.131   5.478   6.093  0.3059 -0.7148 -0.3226
    1PA    H10R 5757   0.239   5.495   6.103 -0.0202  0.5879  1.2855
    1PA    H10S 5758   0.085   5.475   6.192 -1.4250  2.5180 -0.9348
    1PA     C19 5759   0.093   5.348   6.025 -0.0701 -0.2682  0.8828
    1PA     H9R 5760  -0.015   5.333   6.029  0.0214 -2.9117 -3.5546
    1PA     H9S 5761   0.123   5.349   5.920  0.1114  1.6886  0.9475
    1PA     C18 5762   0.141   5.222   6.103  0.1725  0.1386 -0.6835
    1PA     H8R 5763   0.116   5.224   6.209  2.8343  1.9992 -0.0258
    1PA     H8S 5764   0.092   5.138   6.055 -0.7934  0.3653 -0.1050
    1PA     C17 5765   0.293   5.211   6.101 -0.4125  0.1063  0.5494
    1PA     H7R 5766   0.339   5.207   6.002  1.2818  0.5170  1.2914
    1PA     H7S 5767   0.343   5.300   6.140  0.0746 -0.0434  0.2774
    1PA     C16 5768   0.335   5.087   6.179  0.1512  0.0751  0.5612
    1PA     H6R 5769   0.288   5.089   6.277  0.0285  3.2611  0.4855
    1PA     H6S 5770   0.304   4.994   6.129  0.7649  0.6647 -0.9664
    1PA     C15 5771   0.487   5.070   6.194 -0.1433 -0.4220  0.7286
    1PA     H5R 5772   0.530   5.062   6.094  0.9324  0.5627  1.0987
    1PA     H5S 5773   0.531   5.160   6.238 -1.4493  0.7625 -0.3492
    1PA     C14 5774   0.535   4.951   6.277  0.2054 -0.2288  0.9275
    1PA     H4R 5775   0.643   4.963   6.288  0.3950 -1.6140  0.7784
    1PA     H4S 5776   0.502   4.960   6.380  1.1533 -0.7879  1.2938
    1PA     C13 5777   0.500   4.815   6.225  0.1253 -0.6739  0.8056
    1PA     H3R 5778   0.402   4.792   6.268  0.1532 -1.3409  0.5180
    1PA     H3S 5779   0.495   4.827   6.117 -0.0911 -2.2618  0.6272
    1PA     C12 5780   0.600   4.699   6.238 -0.0932 -0.7449  0.1673
    1PA     H2R 5781   0.560   4.612   6.186 -0.8138 -0.9923  1.1308
    1PA     H2S 5782   0.688   4.732   6.181 -0.3916  0.8324  0.5861
    1PC     C11 5783   0.642   4.675   6.373 -0.1100 -0.1601  0.2185
    1PC     O12 5784   0.749   4.714   6.417 -0.0466 -0.1068  0.6921
    1PC     O11 5785   0.563   4.588   6.433  0.4107  0.8550  0.0656
    1PC      C1 5786   0.604   4.528   6.551  0.0765 -0.1788 -0.4067
    1PC      HR 5787   0.556   4.430   6.550  1.3659 -0.8224 -2.9773
    1PC      HS 5788   0.713   4.522   6.545  0.0317 -2.3682  0.3710
    1PC      C2 5789   0.565   4.612   6.670  0.8478  0.7112 -0.1762
    1PC      HX 5790   0.613   4.710   6.673 -1.3929  1.8242 -0.2503
    1PC      C3 5791   0.620   4.547   6.805  0.2272  0.5758  0.6248
    1PC      HA 5792   0.575   4.588   6.896 -1.9311 -2.6907  1.1274
    1PC      HB 5793   0.599   4.440   6.800  3.0248 -0.0185  1.1865
    1PC     O31 5794   0.770   4.558   6.808 -0.0355 -0.4755  0.3348
    1PC     P31 5795   0.845   4.629   6.941  0.3768  0.0192 -0.0104
    1PC     O32 5796   0.911   4.765   6.880 -0.0008  1.2882  0.0806
    1PC     C31 5797   0.825   4.873   6.840 -0.1784  0.2388  0.1948
    1PC     H1A 5798   0.768   4.843   6.752  1.3613 -0.1126 -0.7184
    1PC     H1B 5799   0.756   4.897   6.920 -1.0046 -0.0478 -0.4211
    1PC     C32 5800   0.916   4.998   6.810 -0.3153  0.1980 -0.0036
    1PC     H2A 5801   0.843   5.073   6.781 -0.2705  0.3051  0.1625
    1PC     H2B 5802   0.967   5.024   6.902 -1.4046 -0.1346  0.7003
    1PC     N31 5803   1.024   4.983   6.703 -0.7331 -0.5368 -0.1253
    1PC     C33 5804   1.140   4.910   6.749  0.5184 -0.0114 -0.0014
    1PC     H3A 5805   1.208   4.887   6.667  1.5698 -2.6379  1.5568
    1PC     H3B 5806   1.191   4.965   6.829  0.6504 -1.7610  1.1418
    1PC     H3C 5807   1.110   4.817   6.798 -1.8068  2.1630  2.9061
    1PC     C34 5808   0.979   4.919   6.577  0.0904 -0.2380  0.4046
    1PC     H4A 5809   0.950   4.817   6.604  0.9039 -0.7691 -0.7002
    1PC     H4B 5810   0.906   4.976   6.519  0.0619 -2.0440 -1.3658
    1PC     H4C 5811   1.069   4.894   6.522 -0.5681  1.2431 -1.3963
    1PC     C35 5812   1.075   5.119   6.680 -0.6401  0.2655 -0.3069
    1PC     H5A 5813   1.176   5.105   6.640 -1.2030 -0.2397 -1.5741
    1PC     H5B 5814   1.080   5.156   6.783  1.7333 -2.2679  0.5635
    1PC     H5C 5815   1.005   5.175   6.618 -1.1286  0.5080  0.4489
    1PC     O33 5816   0.747   4.668   7.038 -0.3593 -0.5475 -0.5623
    1PC     O34 5817   0.954   4.538   6.983 -0.2226 -0.0806  0.2881
    1PC     O21 5818   0.418   4.615   6.681  0.4466 -0.5424 -0.7942
    1PC     C21 5819   0.360   4.720   6.628  0.4587 -0.4163  0.2386
    1PC     O22 5820   0.413   4.808   6.562  0.0648  0.2399 -0.7207
    1OL     C12 5821   0.208   4.728   6.663 -0.7408 -0.2354  0.0723
    1OL     H2R 5822   0.210   4.777   6.761  1.0901 -1.7200  0.8159
    1OL     H2S 5823   0.165   4.629   6.683 -2.1605  0.5357  0.9511
    1OL     C13 5824   0.129   4.793   6.552  0.3537 -0.4537 -0.1519
    1OL     H3R 5825   0.165   4.895   6.536  0.5923 -0.7087 -1.2387
    1OL     H3S 5826   0.030   4.794   6.597  0.0977 -0.5817 -0.7072
    1OL     C14 5827   0.108   4.704   6.428 -0.8849 -0.3500 -0.6190
    1OL     H4R 5828   0.079   4.603   6.458 -0.2887  0.3216  2.4502
    1OL     H4S 5829   0.202   4.684   6.376 -0.3719 -1.8370  0.8323
    1OL     C15 5830   0.002   4.752   6.321 -0.4756  0.1785 -0.1133
    1OL     H5R 5831   0.031   4.851   6.288 -0.5511  1.0681  2.3649
    1OL     H5S 5832  -0.097   4.757   6.368 -0.5386 -3.2455  0.2956
    1OL     C16 5833  -0.014   4.646   6.214 -0.4180  0.3408 -0.4384
    1OL     H6R 5834  -0.103   4.671   6.155 -0.7747  0.6354  0.2139
    1OL     H6S 5835  -0.024   4.557   6.277  0.4174  1.0294  0.6830
    1OL     C17 5836   0.116   4.614   6.125  0.1353 -0.1280 -0.5041
    1OL     H7R 5837   0.095   4.531   6.058 -1.5956 -0.0132 -0.1262
    1OL     H7S 5838   0.203   4.589   6.186 -0.7193  2.1969  1.7739
    1OL     C18 5839   0.168   4.731   6.035  0.1566 -0.5895  0.9494
    1OL     H8R 5840   0.184   4.814   6.103 -0.9247 -0.1652  0.7056
    1OL     H8S 5841   0.099   4.757   5.955  1.0531 -1.6813 -0.2002
    1OL     C19 5842   0.300   4.695   5.979 -0.0768  0.7607 -0.1222
    1OL     H9R 5843   0.367   4.661   6.057  1.2474 -0.0319 -1.5710
    1OL    C110 5844   0.337   4.684   5.851 -0.2236 -0.6001 -0.3034
    1OL    H10R 5845   0.441   4.662   5.827  0.3467  0.8772  0.7294
    1OL    C111 5846   0.249   4.722   5.736  0.2168 -0.3354  0.0128
    1OL    H11R 5847   0.145   4.689   5.742  0.1465 -0.4707 -1.7507
    1OL    H11S 5848   0.290   4.693   5.639 -3.0350  1.7622 -2.0619
    1OL    C112 5849   0.252   4.879   5.734  0.1678 -0.8285  0.2376
    1OL    H12R 5850   0.355   4.914   5.727  0.3763 -1.7480 -1.6180
    1OL    H12S 5851   0.199   4.921   5.820  0.3120 -2.3214  1.0690
    1OL    C113 5852   0.194   4.927   5.601  0.1549  0.1199 -0.2127
    1OL    H13R 5853   0.090   4.892   5.608 -0.1070  0.5031 -1.9480
    1OL    H13S 5854   0.238   4.877   5.514 -1.3361 -0.9125 -0.4024
    1OL    C114 5855   0.192   5.077   5.567  0.2029 -0.5349  0.4257
    1OL    H14R 5856   0.137   5.133   5.644  0.1816  0.3799 -0.2423
    1OL    H14S 5857   0.133   5.084   5.475 -0.2876 -1.8454  0.6332
    1OL    C115 5858   0.339   5.134   5.550 -0.1121 -0.6137  0.0362
    1OL    H15R 5859   0.400   5.129   5.640  1.5579  1.4598 -0.9273
    1OL    H15S 5860   0.327   5.239   5.520  0.7443 -0.5640 -0.1416
    1OL    C116 5861   0.427   5.067   5.445  0.2141 -0.3938 -0.9612
    1OL    H16R 5862   0.466   4.969   5.473 -0.5320 -0.6790 -0.9168
    1OL    H16S 5863   0.517   5.130   5.438  0.6371 -0.8566  0.1284
    1OL    C117 5864   0.385   5.066   5.301  0.1124 -0.0904  0.1002
    1OL    H17R 5865   0.350   5.167   5.280 -1.6649 -0.6189  0.4685
    1OL    H17S 5866   0.295   5.007   5.287  0.9253 -1.0385 -1.1858
    1OL    C118 5867   0.501   5.024   5.209 -0.1230 -0.5504 -0.2002
    1OL    H18R 5868   0.478   5.032   5.103 -0.2216 -0.2839 -0.1603
    1OL    H18S 5869   0.538   4.926   5.239 -1.0386 -1.0841 -0.7917
    1OL    H18T 5870   0.590   5.084   5.231  0.2210 -1.1195 -0.0232
    1PA    C116 5871   0.061   1.016   5.261 -1.0087 -0.1901  0.1790
    1PA    H16R 5872   0.012   0.946   5.193  2.8123 -2.4057 -0.4545
    1PA    H16S 5873   0.139   0.952   5.305 -0.1309 -0.5203 -1.7848
    1PA    H16T 5874   0.092   1.097   5.195  0.4275 -1.0969 -0.2865
    1PA    C115 5875  -0.035   1.059   5.375 -0.1374  0.0298  0.5806
    1PA    H15R 5876  -0.134   1.080   5.335 -0.7567 -0.1179  2.0316
    1PA    H15S 5877  -0.041   0.972   5.441  2.5019 -1.9644 -1.6850
    1PA    C114 5878  -0.006   1.189   5.453  0.3810  0.6752  0.4619
    1PA    H14R 5879   0.095   1.188   5.494  1.0251  2.1959 -1.0296
    1PA    H14S 5880  -0.023   1.268   5.379  3.0038  0.8517  0.0181
    1PA    C113 5881  -0.099   1.209   5.576 -0.4321  0.1312 -0.1357
    1PA    H13R 5882  -0.199   1.175   5.547 -0.2069 -3.7099  3.2258
    1PA    H13S 5883  -0.070   1.135   5.650 -0.6154  0.4098  0.2122
    1PA    C112 5884  -0.091   1.352   5.635 -0.3918  0.2816 -0.2038
    1PA    H12R 5885   0.009   1.385   5.666  0.1101 -0.3801 -1.0995
    1PA    H12S 5886  -0.110   1.422   5.553  2.6337  0.6220 -0.6912
    1PA    C111 5887  -0.195   1.396   5.742 -0.4340 -0.5335  0.5638
    1PA    H11R 5888  -0.176   1.502   5.757 -0.6206 -0.4761  0.3982
    1PA    H11S 5889  -0.299   1.386   5.711 -0.7310  1.0189  1.0321
    1PA    C110 5890  -0.169   1.318   5.871 -0.0617 -0.1002 -0.2795
    1PA    H10R 5891  -0.257   1.319   5.936  0.3089 -0.7970  0.2321
    1PA    H10S 5892  -0.169   1.211   5.850  0.5914  0.1896 -1.7825
    1PA     C19 5893  -0.048   1.358   5.955 -0.2280  0.1973  0.2421
    1PA     H9R 5894   0.044   1.324   5.907 -0.6625 -0.7107  0.0458
    1PA     H9S 5895  -0.047   1.466   5.970  2.4302 -0.0069  1.7762
    1PA     C18 5896  -0.073   1.293   6.095 -0.0491  0.3229 -0.0782
    1PA     H8R 5897  -0.174   1.311   6.132 -0.9327 -1.2559 -1.6288
    1PA     H8S 5898  -0.056   1.185   6.091  2.1276  0.5775  1.5799
    1PA     C17 5899   0.026   1.339   6.205 -0.0871 -0.5670 -0.8846
    1PA     H7R 5900   0.130   1.354   6.177  0.1968  0.7209  0.7702
    1PA     H7S 5901   0.001   1.441   6.236  1.4730 -0.5148  0.2741
    1PA     C16 5902   0.042   1.251   6.327  0.3583 -0.3253 -0.8464
    1PA     H6R 5903  -0.057   1.246   6.374  0.5519  0.8953 -0.2979
    1PA     H6S 5904   0.065   1.150   6.292  2.5813  0.0176 -0.4332
    1PA     C15 5905   0.146   1.295   6.432 -0.3821  0.2777  0.3626
    1PA     H5R 5906   0.240   1.313   6.380  1.2127 -2.4703  2.1537
    1PA     H5S 5907   0.120   1.390   6.480 -2.5448  0.0531 -0.3010
    1PA     C14 5908   0.147   1.198   6.553 -0.0187  0.2859  0.4727
    1PA     H4R 5909   0.189   1.099   6.533  0.5816  0.9763 -1.7544
    1PA     H4S 5910   0.217   1.237   6.628 -0.3946 -0.6319  1.3236
    1PA     C13 5911   0.024   1.194   6.634 -0.2157 -0.0961 -0.2809
    1PA     H3R 5912  -0.008   1.298   6.640  0.2762  0.0747 -0.6298
    1PA     H3S 5913  -0.059   1.144   6.584  0.9108 -1.2929 -0.9756
    1PA     C12 5914   0.035   1.146   6.778  0.1466  0.2542  0.2171
    1PA     H2R 5915   0.138   1.128   6.811 -0.0626  1.8038  1.7814
    1PA     H2S 5916  -0.000   1.227   6.842  0.4302  1.5010 -1.1563
    1PC     C11 5917  -0.054   1.025   6.811 -0.1798  0.3158  0.4784
    1PC     O12 5918  -0.171   1.019   6.771  0.0273 -0.1123  0.3231
    1PC     O11 5919   0.023   0.941   6.880 -0.2873 -0.1225 -0.4693
    1PC      C1 5920  -0.037   0.816   6.935 -0.1294 -0.5829  0.2774
    1PC      HR 5921  -0.027   0.812   7.044  2.3033 -1.3260  0.0471
    1PC      HS 5922  -0.145   0.807   6.916 -0.8230 -1.6166  4.2500
    1PC      C2 5923   0.033   0.690   6.888 -0.1092  0.7022 -0.6957
    1PC      HX 5924  -0.009   0.605   6.943  0.9126  1.0399  0.6288
    1PC      C3 5925   0.181   0.695   6.913 -0.0214 -0.2342 -0.1613
    1PC      HA 5926   0.218   0.595   6.887 -0.1195 -0.3545  0.1661
    1PC      HB 5927   0.227   0.770   6.847 -0.8784 -0.3143 -0.8567
    1PC     O31 5928   0.214   0.717   7.048  0.0310  0.0195 -0.6172
    1PC     P31 5929   0.190   0.605   7.165 -0.1042 -0.2424  0.1712
    1PC     O32 5930   0.315   0.631   7.263  0.0150  0.5293 -0.2607
    1PC     C31 5931   0.451   0.600   7.221 -0.2882  0.4043 -0.0795
    1PC     H1A 5932   0.443   0.518   7.149 -1.1949  0.2818  0.1545
    1PC     H1B 5933   0.481   0.692   7.171 -1.2771 -0.1422 -1.7077
    1PC     C32 5934   0.534   0.558   7.347 -0.0418 -0.8248 -0.2421
    1PC     H2A 5935   0.634   0.519   7.326  1.3132  2.0415  0.5117
    1PC     H2B 5936   0.567   0.647   7.400 -2.1763 -0.5515  0.6448
    1PC     N31 5937   0.474   0.475   7.456  0.2827  0.2652  0.4403
    1PC     C33 5938   0.573   0.425   7.556 -0.3254 -0.0711 -0.1962
    1PC     H3A 5939   0.523   0.388   7.646 -0.8096  0.8804 -0.0642
    1PC     H3B 5940   0.637   0.350   7.509 -3.8596 -2.3038 -1.6248
    1PC     H3C 5941   0.631   0.511   7.588 -0.2991  0.3468 -1.3573
    1PC     C34 5942   0.373   0.549   7.539 -0.1439  0.7643  0.2506
    1PC     H4A 5943   0.421   0.631   7.592 -2.2986  2.5530 -0.4727
    1PC     H4B 5944   0.301   0.593   7.470 -0.0852  0.8249  0.2272
    1PC     H4C 5945   0.332   0.474   7.605 -0.6400  2.5174  1.9819
    1PC     C35 5946   0.400   0.358   7.394 -0.2476  0.5685 -0.3037
    1PC     H5A 5947   0.314   0.387   7.334 -0.9506 -1.1759 -0.1860
    1PC     H5B 5948   0.358   0.297   7.474 -0.6901  1.6425  0.2942
    1PC     H5C 5949   0.476   0.300   7.342 -1.0160  0.4841 -1.3525
    1PC     O33 5950   0.068   0.631   7.236 -0.9074 -0.3063  0.3520
    1PC     O34 5951   0.203   0.468   7.102  0.1110  0.1480 -0.0069
    1PC     O21 5952  -0.000   0.668   6.747  0.2095 -0.0090 -0.1064
    1PC     C21 5953   0.031   0.556   6.677  0.0313  0.3851 -0.1103
    1PC     O22 5954   0.088   0.464   6.727 -0.4427  0.6357  0.2761
    1OL     C12 5955   0.002   0.563   6.523 -0.1483  0.0988 -0.6844
    1OL     H2R 5956  -0.101   0.586   6.496  0.8809  1.1916 -3.9069
    1OL     H2S 5957   0.018   0.460   6.491  0.6665  0.2518 -0.7775
    1OL     C13 5958   0.103   0.658   6.458 -0.1301  0.7064 -0.1024
    1OL     H3R 5959   0.194   0.600   6.445  0.8901  2.1962  0.1900
    1OL     H3S 5960   0.128   0.738   6.528  0.1990  0.7188 -0.2321
    1OL     C14 5961   0.061   0.719   6.328  0.6087 -0.2063 -0.1210
    1OL     H4R 5962  -0.046   0.740   6.318  0.3630 -0.5756  1.5171
    1OL     H4S 5963   0.084   0.645   6.251 -1.2088  0.1698 -1.0493
    1OL     C15 5964   0.136   0.847   6.293  0.2153  0.2862  0.4664
    1OL     H5R 5965   0.136   0.913   6.380 -0.2794 -1.4812  1.8169
    1OL     H5S 5966   0.085   0.897   6.210 -2.3517 -2.6381  0.1999
    1OL     C16 5967   0.284   0.827   6.266  0.1481 -0.3012  0.8816
    1OL     H6R 5968   0.297   0.744   6.195 -2.9062  0.1677 -0.2904
    1OL     H6S 5969   0.329   0.811   6.364 -0.5047  0.9555  1.4008
    1OL     C17 5970   0.354   0.954   6.215  0.8010 -0.2677 -0.0184
    1OL     H7R 5971   0.324   1.042   6.272  2.4870  1.6152 -1.9040
    1OL     H7S 5972   0.318   0.973   6.114 -0.2269  0.6248  0.5059
    1OL     C18 5973   0.507   0.944   6.198 -0.6463 -0.0098 -0.8406
    1OL     H8R 5974   0.530   0.879   6.113 -0.0151 -0.2113 -0.5249
    1OL     H8S 5975   0.551   0.888   6.281 -1.7211 -0.3934 -0.5233
    1OL     C19 5976   0.573   1.080   6.194  0.0916 -0.5273  0.0058
    1OL     H9R 5977   0.536   1.157   6.261 -1.6537 -1.9145  0.6881
    1OL    C110 5978   0.682   1.117   6.125  0.1059 -0.3978  0.0803
    1OL    H10R 5979   0.717   1.219   6.141 -1.1958  0.1286 -0.3749
    1OL    C111 5980   0.775   1.033   6.039  0.0167  0.7323 -0.7108
    1OL    H11R 5981   0.726   0.936   6.027  0.4345  0.0408  2.6277
    1OL    H11S 5982   0.866   1.026   6.099  0.1926 -2.1842 -1.2316
    1OL    C112 5983   0.806   1.100   5.906 -0.0905 -0.0998  1.1601
    1OL    H12R 5984   0.706   1.123   5.869 -0.1706 -1.4473  0.5358
    1OL    H12S 5985   0.868   1.031   5.849 -0.6168  0.0481  0.4162
    1OL    C113 5986   0.895   1.222   5.914 -0.0496 -0.3483  0.1948
    1OL    H13R 5987   0.999   1.192   5.926 -0.2210 -0.0491  2.9035
    1OL    H13S 5988   0.871   1.267   6.011 -0.1651 -3.3376  1.6161
    1OL    C114 5989   0.873   1.327   5.810 -0.5511  0.0104  0.2154
    1OL    H14R 5990   0.924   1.422   5.827 -1.1580  0.5806 -1.0448
    1OL    H14S 5991   0.765   1.344   5.811 -0.8012 -1.6099  0.5308
    1OL    C115 5992   0.915   1.291   5.667 -0.4089  0.6300 -0.4036
    1OL    H15R 5993   1.022   1.270   5.663 -0.7789 -1.6529  0.7864
    1OL    H15S 5994   0.892   1.383   5.614 -2.0436  0.7205  0.4445
    1OL    C116 5995   0.822   1.189   5.592 -0.2573 -0.4908 -0.3883
    1OL    H16R 5996   0.716   1.215   5.604  0.3433  1.6259  0.4946
    1OL    H16S 5997   0.834   1.094   5.644  0.9529  0.8967  1.9164
    1OL    C117 5998   0.865   1.167   5.445  0.6075 -0.5886 -0.0531
    1OL    H17R 5999   0.794   1.094   5.405  0.5981  0.0363 -1.1996
    1OL    H17S 6000   0.967   1.127   5.440  0.3846 -1.1301 -0.3694
    1OL    C118 6001   0.863   1.292   5.354 -0.2952  0.2201 -0.0099
    1OL    H18R 6002   0.957   1.346   5.366  1.1315 -2.2451  0.3761
    1OL    H18S 6003   0.789   1.364   5.388  1.3374  1.2481  1.4357
    1OL    H18T 6004   0.834   1.273   5.251  1.7891  2.8075 -1.1201
    1PA    C116 6005   0.138   0.290   5.309  0.2546  0.3296 -0.0746
    1PA    H16R 6006   0.052   0.229   5.283  0.1794  1.2191 -1.9334
    1PA    H16S 6007   0.228   0.233   5.285  0.3928 -0.7700  2.7661
    1PA    H16T 6008   0.125   0.370   5.236 -0.5964  1.6680  1.4992
    1PA    C115 6009   0.151   0.330   5.455 -0.0409 -0.1325 -0.4152
    1PA    H15R 6010   0.050   0.361   5.487 -0.3494 -0.4869 -1.0565
    1PA    H15S 6011   0.168   0.237   5.510 -2.9046  0.2821  1.3166
    1PA    C114 6012   0.260   0.437   5.479 -0.0752 -0.3281 -0.6615
    1PA    H14R 6013   0.358   0.402   5.444 -0.0516 -0.0750 -0.8453
    1PA    H14S 6014   0.238   0.523   5.416 -2.1799  0.5762  1.2305
    1PA    C113 6015   0.273   0.469   5.630  0.7249  0.1483  0.4342
    1PA    H13R 6016   0.168   0.490   5.654 -0.2995 -1.2625 -2.5754
    1PA    H13S 6017   0.296   0.374   5.678 -3.2134 -0.9088  0.4044
    1PA    C112 6018   0.368   0.587   5.665 -0.7188  0.3030 -1.1115
    1PA    H12R 6019   0.467   0.568   5.624 -1.1456  0.8452 -2.4199
    1PA    H12S 6020   0.325   0.682   5.631 -0.4852  0.1829 -1.7451
    1PA    C111 6021   0.387   0.595   5.818 -0.1235 -0.1361  0.3232
    1PA    H11R 6022   0.448   0.684   5.832  0.2315 -0.5307  1.3493
    1PA    H11S 6023   0.292   0.615   5.869  0.2551 -0.3643  1.1323
    1PA    C110 6024   0.454   0.480   5.888 -0.0751 -0.1251  0.1390
    1PA    H10R 6025   0.390   0.392   5.878  1.0705 -0.8454 -0.9756
    1PA    H10S 6026   0.541   0.435   5.840 -1.5193 -1.7155 -1.0349
    1PA     C19 6027   0.477   0.500   6.043 -0.0032 -0.4516  0.0152
    1PA     H9R 6028   0.577   0.467   6.074  1.0054  1.7920 -0.7463
    1PA     H9S 6029   0.463   0.606   6.064  1.7042  0.2118 -2.0038
    1PA     C18 6030   0.380   0.419   6.132 -0.2571 -0.0968  0.1978
    1PA     H8R 6031   0.279   0.455   6.110  0.5787  2.5100  0.4003
    1PA     H8S 6032   0.403   0.318   6.099  1.0326  0.2700 -0.0636
    1PA     C17 6033   0.412   0.438   6.281  0.2014 -0.9293 -0.0692
    1PA     H7R 6034   0.521   0.424   6.284 -0.0546 -3.7407 -1.6279
    1PA     H7S 6035   0.379   0.538   6.309  2.3756 -0.4294  0.8921
    1PA     C16 6036   0.344   0.329   6.359  0.0752 -0.1394 -0.2424
    1PA     H6R 6037   0.237   0.350   6.352  0.2383  1.5666  1.7247
    1PA     H6S 6038   0.366   0.232   6.313  0.2140 -0.3470  0.2620
    1PA     C15 6039   0.382   0.323   6.503 -0.3995  0.0969 -0.3288
    1PA     H5R 6040   0.488   0.341   6.519  0.1809 -1.5909 -2.0897
    1PA     H5S 6041   0.337   0.399   6.568  0.7857  0.4340  0.1161
    1PA     C14 6042   0.357   0.183   6.560  0.4627  0.0651 -0.1890
    1PA     H4R 6043   0.439   0.123   6.519  2.1171  1.2953  1.2395
    1PA     H4S 6044   0.376   0.172   6.667 -1.1503 -4.1839 -0.2322
    1PA     C13 6045   0.215   0.123   6.540  0.0755  0.5141  0.4099
    1PA     H3R 6046   0.149   0.193   6.591 -0.3390  0.3841  0.0627
    1PA     H3S 6047   0.188   0.119   6.434  1.0453  0.7569  0.1421
    1PA     C12 6048   0.204  -0.020   6.592 -0.2515  0.4632  0.3169
    1PA     H2R 6049   0.215  -0.031   6.700 -0.5163 -1.5856  0.1683
    1PA     H2S 6050   0.105  -0.054   6.559  0.1874 -0.0497 -0.4858
    1PC     C11 6051   0.286  -0.132   6.529  0.6412 -0.4590 -0.4763
    1PC     O12 6052   0.357  -0.129   6.429  0.1360  0.2999 -0.1975
    1PC     O11 6053   0.266  -0.240   6.598  0.0603 -0.0998 -0.1908
    1PC      C1 6054   0.341  -0.360   6.568  0.2969 -0.1871 -0.4015
    1PC      HR 6055   0.280  -0.448   6.589 -0.1490  0.3437  0.5575
    1PC      HS 6056   0.362  -0.360   6.461  0.8246 -0.6377 -0.3000
    1PC      C2 6057   0.470  -0.388   6.642 -0.0674  0.1113 -0.1756
    1PC      HX 6058   0.516  -0.477   6.598  0.0683  0.7334 -1.2844
    1PC      C3 6059   0.443  -0.419   6.792 -0.2326 -0.6012 -0.1091
    1PC      HA 6060   0.375  -0.341   6.828 -0.5496 -0.1289 -1.7021
    1PC      HB 6061   0.392  -0.515   6.805  1.9983 -1.9235 -0.8366
    1PC     O31 6062   0.561  -0.418   6.873 -0.1928 -0.2076  0.2580
    1PC     P31 6063   0.555  -0.416   7.037  0.4130  0.4835  0.0685
    1PC     O32 6064   0.491  -0.276   7.069  0.0033 -0.1574  0.1769
    1PC     C31 6065   0.565  -0.151   7.054  0.5358  0.6611 -0.3574
    1PC     H1A 6066   0.643  -0.155   7.130  0.5864 -0.9292 -0.4814
    1PC     H1B 6067   0.603  -0.154   6.952  0.5223  0.1300 -0.3474
    1PC     C32 6068   0.464  -0.036   7.074 -0.6799 -0.2694 -0.0170
    1PC     H2A 6069   0.510   0.060   7.052  1.5461 -1.2201  0.3106
    1PC     H2B 6070   0.385  -0.056   7.002 -0.5038  0.1248 -0.3204
    1PC     N31 6071   0.390  -0.025   7.202  0.4277  0.3038 -0.3306
    1PC     C33 6072   0.318   0.100   7.211  0.3635  0.5855 -0.4832
    1PC     H3A 6073   0.270   0.101   7.309  2.5071  0.2430  0.5948
    1PC     H3B 6074   0.391   0.182   7.210  1.3686 -0.2952 -0.2701
    1PC     H3C 6075   0.247   0.117   7.129 -0.6873  1.5525  0.6159
    1PC     C34 6076   0.286  -0.131   7.216 -0.6876  0.1352 -0.1068
    1PC     H4A 6077   0.347  -0.221   7.206 -1.1486 -0.4872  2.2643
    1PC     H4B 6078   0.240  -0.140   7.315  0.3750 -0.8416  0.3155
    1PC     H4C 6079   0.207  -0.118   7.143  0.0924 -1.1709 -1.2089
    1PC     C35 6080   0.492  -0.039   7.313 -0.2384 -0.4256  0.1068
    1PC     H5A 6081   0.465  -0.020   7.416 -1.6141 -1.2480 -0.0925
    1PC     H5B 6082   0.575   0.022   7.276  0.6022 -1.3706  0.4070
    1PC     H5C 6083   0.523  -0.144   7.321  1.0686 -0.3861 -3.3313
    1PC     O33 6084   0.455  -0.519   7.084 -0.0027 -0.7296  0.3591
    1PC     O34 6085   0.690  -0.415   7.094 -0.2597 -0.2308 -0.2566
    1PC     O21 6086   0.560  -0.273   6.637 -0.1022 -0.0435 -0.4118
    1PC     C21 6087   0.678  -0.297   6.575 -0.5130 -1.1347  0.4017
    1PC     O22 6088   0.739  -0.399   6.551 -0.5570  0.0734  0.1957
    1OL     C12 6089   0.740  -0.158   6.534  0.0267 -0.3246 -0.1823
    1OL     H2R 6090   0.843  -0.163   6.570  0.1436  1.1917 -0.2656
    1OL     H2S 6091   0.687  -0.077   6.586  0.1972 -1.9478  2.5961
    1OL     C13 6092   0.729  -0.137   6.386 -0.1461 -0.3344 -0.5858
    1OL     H3R 6093   0.629  -0.156   6.347  0.5849 -1.6206 -1.9181
    1OL     H3S 6094   0.793  -0.207   6.331  1.0593 -0.1508  0.5566
    1OL     C14 6095   0.773   0.008   6.356 -0.2907  0.8766  0.4976
    1OL     H4R 6096   0.868   0.024   6.407  1.3854 -1.5390 -1.7658
    1OL     H4S 6097   0.694   0.074   6.394 -0.1314  2.1156 -1.2633
    1OL     C15 6098   0.781   0.035   6.208  0.7634 -0.4640  0.1102
    1OL     H5R 6099   0.862  -0.018   6.158  1.2607  1.3013 -1.0243
    1OL     H5S 6100   0.804   0.141   6.195 -0.9579 -0.3520 -2.4274
    1OL     C16 6101   0.644   0.031   6.127 -0.2168 -0.5242  0.1893
    1OL     H6R 6102   0.559   0.080   6.177 -0.9011 -1.5578  0.0430
    1OL     H6S 6103   0.600  -0.068   6.117 -1.9594  0.2729 -0.2830
    1OL     C17 6104   0.664   0.098   5.986  0.0745  0.0942  0.1906
    1OL     H7R 6105   0.753   0.055   5.938  0.6471  1.3425  0.1241
    1OL     H7S 6106   0.678   0.205   6.000  0.5960  0.0088  0.3504
    1OL     C18 6107   0.544   0.089   5.894  0.4384  0.1381  0.1350
    1OL     H8R 6108   0.555   0.153   5.806 -0.9427 -3.1558 -2.5334
    1OL     H8S 6109   0.463   0.140   5.948  1.6017 -1.1991  3.2328
    1OL     C19 6110   0.491  -0.048   5.849  0.4793 -0.0655 -0.5339
    1OL     H9R 6111   0.408  -0.094   5.904  0.3157 -0.9778 -1.5236
    1OL    C110 6112   0.536  -0.116   5.750 -0.0701  0.4543 -0.2594
    1OL    H10R 6113   0.484  -0.204   5.714  1.1691 -1.2387  1.9876
    1OL    C111 6114   0.647  -0.073   5.664 -0.2497 -0.2507 -0.1189
    1OL    H11R 6115   0.730  -0.143   5.679 -0.1583  0.2520  1.8055
    1OL    H11S 6116   0.689   0.024   5.688  1.7932 -1.1733  0.1312
    1OL    C112 6117   0.609  -0.074   5.511 -0.6303 -0.1057 -0.2118
    1OL    H12R 6118   0.541   0.005   5.480 -0.5482 -0.7468 -2.0493
    1OL    H12S 6119   0.562  -0.171   5.491  0.4951 -1.0816  1.6462
    1OL    C113 6120   0.730  -0.085   5.413  0.2781 -0.3443  0.4499
    1OL    H13R 6121   0.812  -0.023   5.449  0.5321 -2.5260  3.8429
    1OL    H13S 6122   0.704  -0.054   5.312 -2.2351  2.3316  1.8522
    1OL    C114 6123   0.779  -0.231   5.393  0.4429 -0.0908 -0.1863
    1OL    H14R 6124   0.702  -0.288   5.340  1.0835 -2.2801  1.1586
    1OL    H14S 6125   0.794  -0.284   5.487  0.7573 -1.6433 -1.0802
    1OL    C115 6126   0.914  -0.251   5.324  0.9438 -0.4549  0.0708
    1OL    H15R 6127   0.995  -0.185   5.356  0.1999  1.2260 -1.4591
    1OL    H15S 6128   0.899  -0.217   5.222  0.9322  0.6684  0.4363
    1OL    C116 6129   0.956  -0.398   5.349  0.7465  0.2526 -0.3729
    1OL    H16R 6130   0.877  -0.449   5.294 -1.3578  1.4081  1.4574
    1OL    H16S 6131   0.951  -0.423   5.455 -0.6052  0.1771 -0.4473
    1OL    C117 6132   1.087  -0.426   5.271 -0.6103  0.5950  0.0705
    1OL    H17R 6133   1.062  -0.408   5.166 -1.1297 -1.0074 -0.1041
    1OL    H17S 6134   1.114  -0.530   5.293 -0.3316  0.3602 -1.3539
    1OL    C118 6135   1.201  -0.338   5.325 -0.4436 -0.1969 -0.7489
    1OL    H18R 6136   1.300  -0.373   5.294 -0.3437  0.3015 -0.9958
    1OL    H18S 6137   1.200  -0.341   5.434 -1.1270 -1.0485 -0.7707
    1OL    H18T 6138   1.197  -0.235   5.290 -0.4296  1.0870  2.8313
    1PA    C116 6139   3.711   1.895   4.520  0.0275  0.2626 -0.4825
    1PA    H16R 6140   3.802   1.955   4.517 -0.2794  1.0723  3.4181
    1PA    H16S 6141   3.690   1.849   4.423 -3.3988 -0.8970  0.7253
    1PA    H16T 6142   3.717   1.819   4.598  1.3136 -0.3203 -1.1411
    1PA    C115 6143   3.594   1.990   4.560  0.3694 -0.3034 -0.0647
    1PA    H15R 6144   3.630   2.040   4.650 -1.5220 -1.9156  1.6342
    1PA    H15S 6145   3.584   2.066   4.482 -0.6571 -0.9428 -0.5739
    1PA    C114 6146   3.456   1.920   4.580 -0.8751  0.0107  0.3551
    1PA    H14R 6147   3.458   1.843   4.657  0.3662  1.0255  1.3457
    1PA    H14S 6148   3.391   2.001   4.613 -0.9926  0.2762 -0.5123
    1PA    C113 6149   3.407   1.842   4.457 -0.4184  0.2057  0.1450
    1PA    H13R 6150   3.430   1.879   4.357 -0.1649 -2.7825 -0.9719
    1PA    H13S 6151   3.464   1.749   4.462 -0.5543  0.0234 -1.6105
    1PA    C112 6152   3.259   1.810   4.463  0.8357  0.3482 -0.3554
    1PA    H12R 6153   3.243   1.762   4.559  0.0476 -1.2415 -1.2610
    1PA    H12S 6154   3.201   1.903   4.458  0.0687 -0.2241 -4.0201
    1PA    C111 6155   3.209   1.726   4.341 -0.2169  0.2775 -0.0044
    1PA    H11R 6156   3.221   1.787   4.252  0.8061  1.5959  1.0237
    1PA    H11S 6157   3.267   1.634   4.331 -0.0564  0.2865  0.7517
    1PA    C110 6158   3.064   1.685   4.355 -0.1271  0.1729 -0.2564
    1PA    H10R 6159   3.049   1.629   4.448  0.1269 -1.8187 -1.4015
    1PA    H10S 6160   2.997   1.772   4.351 -1.9074 -1.1995 -1.2808
    1PA     C19 6161   3.008   1.591   4.248  0.4411  1.2692  0.5204
    1PA     H9R 6162   3.072   1.503   4.231  0.3622  1.4655 -0.8245
    1PA     H9S 6163   2.909   1.559   4.280 -0.7696  1.7918 -2.5644
    1PA     C18 6164   2.984   1.663   4.107 -0.4936 -0.3951  0.0487
    1PA     H8R 6165   2.916   1.746   4.125  0.8559  0.4523  1.2917
    1PA     H8S 6166   3.078   1.691   4.059 -0.1445 -1.7012 -0.0680
    1PA     C17 6167   2.892   1.578   4.019  0.5270  0.5770  0.0436
    1PA     H7R 6168   2.846   1.500   4.079  0.1198  1.3541  0.7548
    1PA     H7S 6169   2.804   1.641   4.000  1.2029  1.2399 -0.9556
    1PA     C16 6170   2.945   1.519   3.888 -0.1169  0.6273 -0.0128
    1PA     H6R 6171   2.974   1.597   3.818 -0.4510 -0.5533 -1.5000
    1PA     H6S 6172   3.036   1.464   3.911  0.1253  0.4767 -1.3135
    1PA     C15 6173   2.848   1.417   3.817 -0.3083 -0.3984  0.8927
    1PA     H5R 6174   2.909   1.375   3.736  2.0029  0.8492  1.9430
    1PA     H5S 6175   2.829   1.334   3.885 -0.4160 -2.4038 -1.4926
    1PA     C14 6176   2.726   1.473   3.748  0.5526  0.3916 -0.3277
    1PA     H4R 6177   2.668   1.518   3.829 -0.2441  0.7059 -1.0719
    1PA     H4S 6178   2.745   1.559   3.683 -1.1586  0.4020 -0.8174
    1PA     C13 6179   2.638   1.368   3.680 -0.1476 -0.0907  0.1112
    1PA     H3R 6180   2.696   1.314   3.605  0.7135 -0.0660  0.7576
    1PA     H3S 6181   2.612   1.295   3.757  1.4414 -0.2698  0.5020
    1PA     C12 6182   2.509   1.409   3.618 -1.0491  0.2337 -0.7169
    1PA     H2R 6183   2.469   1.322   3.566 -0.6409 -0.4146  0.0557
    1PA     H2S 6184   2.439   1.454   3.689 -1.0615  1.3222 -1.4028
    1PC     C11 6185   2.535   1.515   3.512  0.7786  0.0907  0.3939
    1PC     O12 6186   2.601   1.499   3.415 -0.1767  0.3734 -0.3438
    1PC     O11 6187   2.500   1.635   3.549 -0.2568  0.6218 -0.3912
    1PC      C1 6188   2.543   1.742   3.470  0.0469 -0.3463 -0.0273
    1PC      HR 6189   2.651   1.739   3.453  0.4518  0.0203  2.2754
    1PC      HS 6190   2.486   1.733   3.377  0.3153 -2.2246 -0.0231
    1PC      C2 6191   2.517   1.883   3.541 -0.3785  0.0829 -0.5946
    1PC      HX 6192   2.411   1.871   3.563  0.0666  0.4386  1.8607
    1PC      C3 6193   2.541   2.007   3.451  0.0516  0.0348 -0.0489
    1PC      HA 6194   2.461   2.005   3.376 -1.0399  0.5323  1.0645
    1PC      HB 6195   2.529   2.098   3.510  1.1389 -0.5989  1.1762
    1PC     O31 6196   2.674   1.986   3.394 -0.0110  0.4636  0.3068
    1PC     P31 6197   2.700   2.002   3.231  0.0518  0.2927 -0.3934
    1PC     O32 6198   2.702   2.158   3.202 -0.2574  0.4918 -0.3699
    1PC     C31 6199   2.820   2.237   3.247  0.1398 -0.2407  0.3175
    1PC     H1A 6200   2.911   2.180   3.266  1.8885  2.0193 -1.1431
    1PC     H1B 6201   2.838   2.300   3.160 -1.0842 -1.8816 -1.1775
    1PC     C32 6202   2.791   2.317   3.375 -0.5726 -0.4046 -0.1171
    1PC     H2A 6203   2.709   2.272   3.432 -0.5447  0.8722  0.9632
    1PC     H2B 6204   2.879   2.321   3.439 -1.5119 -1.8184  1.3029
    1PC     N31 6205   2.744   2.457   3.346  0.2820  0.3573  0.3505
    1PC     C33 6206   2.600   2.465   3.291  0.5323  0.3891 -0.2930
    1PC     H3A 6207   2.534   2.414   3.360  2.0470 -0.7408  0.3416
    1PC     H3B 6208   2.574   2.571   3.277 -1.9054 -0.1889 -0.4008
    1PC     H3C 6209   2.595   2.419   3.192 -2.2103  0.2626 -0.1186
    1PC     C34 6210   2.739   2.523   3.480  0.2280  0.1280 -0.4769
    1PC     H4A 6211   2.691   2.621   3.478 -2.0571 -0.8820  1.3314
    1PC     H4B 6212   2.678   2.457   3.542  0.1308 -0.3332 -1.0596
    1PC     H4C 6213   2.841   2.529   3.518 -0.8511  1.7063  2.3567
    1PC     C35 6214   2.837   2.526   3.253  0.7379 -0.2359 -0.6950
    1PC     H5A 6215   2.939   2.510   3.290  1.1450 -0.5208 -1.9168
    1PC     H5B 6216   2.817   2.632   3.241  0.6771 -0.2152 -0.4230
    1PC     H5C 6217   2.828   2.486   3.152 -1.5339 -0.3445 -0.4770
    1PC     O33 6218   2.828   1.939   3.191 -0.8922 -0.6045 -0.1439
    1PC     O34 6219   2.584   1.959   3.157 -0.8410  0.0557  0.1165
    1PC     O21 6220   2.604   1.882   3.660  0.2634 -0.2178  0.0536
    1PC     C21 6221   2.562   1.968   3.756  0.2782 -0.1974  0.5837
    1PC     O22 6222   2.471   2.053   3.738  0.3374 -0.6764 -0.3119
    1OL     C12 6223   2.642   1.949   3.881 -0.1875 -0.2504 -0.7013
    1OL     H2R 6224   2.747   1.950   3.850  0.5221 -2.6843  1.4343
    1OL     H2S 6225   2.628   1.848   3.922 -0.8198 -0.0852 -0.5039
    1OL     C13 6226   2.621   2.059   3.985 -0.3968 -0.0344 -0.4103
    1OL     H3R 6227   2.517   2.057   4.016  0.2567  1.2249  1.9780
    1OL     H3S 6228   2.633   2.159   3.942 -0.9311  0.5956  0.8971
    1OL     C14 6229   2.721   2.045   4.105 -0.1850 -0.0779  0.4283
    1OL     H4R 6230   2.709   1.941   4.137 -1.4265 -0.1881 -0.3718
    1OL     H4S 6231   2.680   2.090   4.195 -3.7075 -1.4688 -0.4140
    1OL     C15 6232   2.869   2.098   4.077 -0.2689 -0.5260 -0.1215
    1OL     H5R 6233   2.857   2.205   4.063  1.6551 -0.1762  0.8410
    1OL     H5S 6234   2.910   2.058   3.984  0.4497  1.5783 -0.7266
    1OL     C16 6235   2.955   2.073   4.206  0.0037  0.8641 -0.0380
    1OL     H6R 6236   3.058   2.076   4.171  0.1609  3.1870  0.5370
    1OL     H6S 6237   2.944   1.970   4.241  0.7161  0.4989 -0.8824
    1OL     C17 6238   2.948   2.170   4.320  0.2381 -0.4515 -0.3344
    1OL     H7R 6239   2.851   2.171   4.371  0.8824 -4.6636  1.1538
    1OL     H7S 6240   2.978   2.272   4.296  2.4850 -0.8866  0.4973
    1OL     C18 6241   3.039   2.130   4.437  0.7638  0.2177 -0.5073
    1OL     H8R 6242   3.142   2.122   4.401  1.1380  1.7108  0.1893
    1OL     H8S 6243   3.010   2.029   4.467 -1.4096  0.6145 -1.2564
    1OL     C19 6244   3.024   2.224   4.558  0.2357 -0.0057 -0.4946
    1OL     H9R 6245   3.010   2.328   4.529  1.4911  1.4031  3.6277
    1OL    C110 6246   3.019   2.192   4.688 -0.5326 -0.0200 -0.0608
    1OL    H10R 6247   2.999   2.260   4.770  0.3513 -1.7646  1.6731
    1OL    C111 6248   3.023   2.054   4.748 -0.2948 -0.8689  1.2478
    1OL    H11R 6249   3.122   2.034   4.791  0.7697  0.6805 -0.4286
    1OL    H11S 6250   3.000   1.980   4.671 -1.9351 -1.1529  1.9859
    1OL    C112 6251   2.908   2.041   4.850 -0.3568  0.0951  0.9070
    1OL    H12R 6252   2.814   2.087   4.820 -0.0878 -0.1760 -0.3881
    1OL    H12S 6253   2.931   2.078   4.950 -0.5565 -0.6631  1.2434
    1OL    C113 6254   2.879   1.890   4.862 -0.8438 -0.5368  0.0922
    1OL    H13R 6255   2.821   1.864   4.773 -0.6756  0.2563 -0.2581
    1OL    H13S 6256   2.816   1.879   4.950  1.2101 -2.0186  1.4090
    1OL    C114 6257   2.980   1.776   4.883  0.8661  0.1494 -0.7029
    1OL    H14R 6258   3.027   1.754   4.787 -1.1694 -1.3179 -1.4095
    1OL    H14S 6259   2.937   1.680   4.914 -0.5920  1.3686  1.1291
    1OL    C115 6260   3.077   1.801   5.000 -0.2284  0.0974 -0.4068
    1OL    H15R 6261   3.022   1.781   5.092  0.4470  2.3386  0.5236
    1OL    H15S 6262   3.118   1.902   4.998  0.3743 -0.0290  2.5953
    1OL    C116 6263   3.196   1.707   5.009 -0.5512 -0.6596  0.1378
    1OL    H16R 6264   3.267   1.728   4.929  0.3855 -0.2117  1.0779
    1OL    H16S 6265   3.164   1.603   5.009  1.5353 -1.3164  0.1851
    1OL    C117 6266   3.273   1.740   5.137 -0.0823 -0.0402  0.0625
    1OL    H17R 6267   3.230   1.692   5.226 -0.1014  1.1568  0.7172
    1OL    H17S 6268   3.288   1.848   5.146  0.2042 -0.1274  0.6798
    1OL    C118 6269   3.414   1.683   5.130  0.3938  0.0483 -0.5728
    1OL    H18R 6270   3.442   1.670   5.025 -1.3133  0.7151 -1.1149
    1OL    H18S 6271   3.421   1.582   5.172  0.1440  1.1365  2.1473
    1OL    H18T 6272   3.482   1.753   5.178  0.0572 -0.4843  0.7079
    1PA    C116 6273   3.473   2.972   5.196  0.1947 -0.1806  1.0136
    1PA    H16R 6274   3.492   3.079   5.199  1.5970 -0.3860 -0.0777
    1PA    H16S 6275   3.547   2.941   5.270  0.2342 -1.4209  0.4610
    1PA    H16T 6276   3.374   2.937   5.229  0.4919 -1.4867  0.5621
    1PA    C115 6277   3.521   2.896   5.066  0.4992  0.2656 -0.5385
    1PA    H15R 6278   3.629   2.897   5.054  0.5245  1.8452 -0.2427
    1PA    H15S 6279   3.482   2.794   5.071 -0.8598  0.8040  0.1659
    1PA    C114 6280   3.454   2.975   4.943  0.2835  0.2763  0.2273
    1PA    H14R 6281   3.346   2.980   4.960 -0.0638 -1.1932 -1.3817
    1PA    H14S 6282   3.495   3.075   4.929  1.1861 -0.0946  0.2116
    1PA    C113 6283   3.484   2.904   4.821  0.2289  0.2233 -0.3035
    1PA    H13R 6284   3.592   2.889   4.816 -0.1357 -2.7094 -0.0868
    1PA    H13S 6285   3.430   2.810   4.838 -1.9189  1.7234  1.4937
    1PA    C112 6286   3.432   2.961   4.686  0.2154 -0.1574 -0.3523
    1PA    H12R 6287   3.325   2.980   4.699  0.4415  2.3931 -1.7032
    1PA    H12S 6288   3.493   3.049   4.662  0.6978 -0.8154 -1.5860
    1PA    C111 6289   3.444   2.863   4.560 -0.0040  0.0261  0.6542
    1PA    H11R 6290   3.457   2.761   4.596  0.0364 -0.1714  0.0733
    1PA    H11S 6291   3.350   2.856   4.505 -0.4172 -0.3887  1.4119
    1PA    C110 6292   3.560   2.896   4.469  0.2665  0.0860 -0.4689
    1PA    H10R 6293   3.547   2.995   4.424  0.2809 -1.2869 -3.6145
    1PA    H10S 6294   3.640   2.902   4.543 -0.4934 -2.4550  0.6060
    1PA     C19 6295   3.575   2.784   4.362  0.8985 -0.3604  0.7987
    1PA     H9R 6296   3.678   2.776   4.328  0.9131 -0.2779  0.8240
    1PA     H9S 6297   3.544   2.689   4.408  2.5638 -0.3675  1.9495
    1PA     C18 6298   3.492   2.810   4.233  0.7774  0.1219  0.0509
    1PA     H8R 6299   3.385   2.827   4.248  0.7888 -0.7994  1.2049
    1PA     H8S 6300   3.537   2.887   4.170  0.4895  1.0374  0.9495
    1PA     C17 6301   3.491   2.677   4.158 -0.1359  0.1187  0.6507
    1PA     H7R 6302   3.595   2.647   4.140 -0.2972 -0.2656  0.3707
    1PA     H7S 6303   3.441   2.603   4.220 -0.1003 -0.9678 -0.6057
    1PA     C16 6304   3.415   2.686   4.028 -1.2591 -0.3404  0.3346
    1PA     H6R 6305   3.428   2.585   3.989  1.1884 -0.0480  0.3670
    1PA     H6S 6306   3.308   2.708   4.039 -0.7861  1.7472  0.9196
    1PA     C15 6307   3.487   2.790   3.943 -0.5661 -0.8563 -0.0871
    1PA     H5R 6308   3.487   2.893   3.979  3.1579 -0.9525  0.4188
    1PA     H5S 6309   3.593   2.764   3.940  0.3837  2.4626  1.9708
    1PA     C14 6310   3.443   2.799   3.794  0.4366 -0.0654  0.0332
    1PA     H4R 6311   3.457   2.703   3.744 -0.0018  0.1990 -0.5966
    1PA     H4S 6312   3.335   2.810   3.800 -0.0491 -3.6909 -1.3808
    1PA     C13 6313   3.513   2.911   3.716 -0.0412  0.2635 -0.1875
    1PA     H3R 6314   3.464   3.005   3.743 -0.0923  0.9744 -2.5867
    1PA     H3S 6315   3.618   2.918   3.748  0.8335 -1.0893 -2.6128
    1PA     C12 6316   3.511   2.883   3.567  0.6875 -0.0593  0.3192
    1PA     H2R 6317   3.570   2.961   3.519 -2.0938  2.6646  1.1928
    1PA     H2S 6318   3.553   2.792   3.523  2.6629  1.7752 -1.7772
    1PC     C11 6319   3.376   2.898   3.508  0.2008  0.6355  0.3445
    1PC     O12 6320   3.280   2.823   3.522 -0.0617 -0.3584  0.0875
    1PC     O11 6321   3.356   3.014   3.438  0.6549 -0.2786  0.5327
    1PC      C1 6322   3.228   3.053   3.370  0.0273  0.5154  0.1922
    1PC      HR 6323   3.229   2.997   3.276  0.8215 -1.1505  1.1641
    1PC      HS 6324   3.141   3.023   3.428  1.8180 -0.2800  2.5286
    1PC      C2 6325   3.210   3.209   3.355 -0.6255 -0.1539 -0.3639
    1PC      HX 6326   3.105   3.227   3.330 -1.4854 -2.6339  1.2275
    1PC      C3 6327   3.309   3.256   3.245  0.1439  0.2147  0.3617
    1PC      HA 6328   3.278   3.354   3.209 -1.4635  0.1724  1.5910
    1PC      HB 6329   3.407   3.276   3.291  0.3677 -1.4983  0.6690
    1PC     O31 6330   3.314   3.168   3.133 -0.3119 -0.2771  0.7054
    1PC     P31 6331   3.399   3.205   3.005  0.2860 -0.0516  0.0109
    1PC     O32 6332   3.547   3.220   3.053 -0.6215  0.2830 -0.2390
    1PC     C31 6333   3.622   3.108   3.100 -0.0615  0.5733 -0.0603
    1PC     H1A 6334   3.567   3.078   3.189 -1.6026  2.0707 -0.4811
    1PC     H1B 6335   3.623   3.028   3.026  0.9516  1.3704 -0.9290
    1PC     C32 6336   3.764   3.154   3.125 -0.7156 -0.5004 -0.4475
    1PC     H2A 6337   3.772   3.261   3.144  0.0749 -0.9056  1.5898
    1PC     H2B 6338   3.813   3.102   3.208 -0.7729  0.6051  0.2802
    1PC     N31 6339   3.863   3.134   3.014  0.6947 -0.3860 -0.0570
    1PC     C33 6340   3.844   3.225   2.901 -0.3176  0.3785 -1.0721
    1PC     H3A 6341   3.876   3.183   2.806  2.6447  1.6557 -0.7116
    1PC     H3B 6342   3.737   3.246   2.903 -0.8463 -2.2639  1.5633
    1PC     H3C 6343   3.898   3.317   2.924 -1.0719  1.0014 -1.7612
    1PC     C34 6344   4.000   3.156   3.073 -0.4311 -0.1475 -0.4387
    1PC     H4A 6345   4.016   3.255   3.114  2.2143  0.4420 -2.7578
    1PC     H4B 6346   4.008   3.081   3.152 -1.1165  2.4554  2.1861
    1PC     H4C 6347   4.075   3.153   2.994 -2.4673  2.8014 -2.5777
    1PC     C35 6348   3.851   2.995   2.951 -0.1402  0.5568  0.0985
    1PC     H5A 6349   3.775   2.986   2.873  0.7038  0.5265 -0.7303
    1PC     H5B 6350   3.837   2.925   3.035  1.5862 -0.2730 -0.2961
    1PC     H5C 6351   3.945   2.961   2.910  0.2702  1.1745  0.5226
    1PC     O33 6352   3.396   3.082   2.922  0.0403 -0.4435  0.1695
    1PC     O34 6353   3.350   3.334   2.964  0.7816  0.1917 -0.2282
    1PC     O21 6354   3.262   3.285   3.474  0.8807 -0.3266 -0.5318
    1PC     C21 6355   3.201   3.264   3.599  0.4997 -1.1925 -0.5348
    1PC     O22 6356   3.114   3.183   3.613  0.1249 -0.0467 -0.2529
    1OL     C12 6357   3.239   3.363   3.709 -0.2783  0.0706 -0.0156
    1OL     H2R 6358   3.150   3.409   3.751 -1.4539 -0.7628 -1.5079
    1OL     H2S 6359   3.307   3.439   3.669 -0.1305 -0.1005 -0.0942
    1OL     C13 6360   3.318   3.295   3.828  0.0139  0.3188 -0.3051
    1OL     H3R 6361   3.403   3.252   3.776  0.3298  0.7172 -0.1186
    1OL     H3S 6362   3.266   3.212   3.877  1.3135  0.8956  2.0978
    1OL     C14 6363   3.361   3.414   3.918  0.1701 -0.0027 -0.2032
    1OL     H4R 6364   3.418   3.489   3.863  0.3980 -0.7468 -0.9886
    1OL     H4S 6365   3.431   3.368   3.987 -1.3309 -0.7110  0.8830
    1OL     C15 6366   3.255   3.494   4.005 -0.1570  0.3487  0.4152
    1OL     H5R 6367   3.158   3.521   3.963 -1.5612 -1.5411  2.3430
    1OL     H5S 6368   3.302   3.589   4.031  0.3597  0.6328 -1.4877
    1OL     C16 6369   3.233   3.421   4.140  0.0147 -0.2282  0.4432
    1OL     H6R 6370   3.197   3.501   4.205  1.2652 -0.0321  0.9155
    1OL     H6S 6371   3.332   3.406   4.184  0.0094  1.2733  1.0284
    1OL     C17 6372   3.125   3.308   4.128 -0.0161  0.1492 -0.4210
    1OL     H7R 6373   3.168   3.216   4.088  0.0497  0.2662 -0.6233
    1OL     H7S 6374   3.052   3.340   4.053  0.2767  0.3604 -0.6223
    1OL     C18 6375   3.050   3.280   4.260 -0.4976  0.3704 -0.4381
    1OL     H8R 6376   2.953   3.235   4.235 -1.6404  2.4532  0.1415
    1OL     H8S 6377   3.034   3.371   4.317  2.0568  0.4510  0.1887
    1OL     C19 6378   3.119   3.169   4.343 -0.9035 -0.6905  0.4751
    1OL     H9R 6379   3.111   3.069   4.302 -0.3204 -0.3532 -0.4821
    1OL    C110 6380   3.176   3.197   4.456 -0.0691 -0.0924 -0.0566
    1OL    H10R 6381   3.224   3.117   4.511 -0.1501 -0.3485 -0.3597
    1OL    C111 6382   3.190   3.334   4.522  0.0586 -0.4583 -0.6724
    1OL    H11R 6383   3.099   3.392   4.507  0.2529 -0.4552 -1.8345
    1OL    H11S 6384   3.273   3.385   4.472  0.4098  1.0568  1.3427
    1OL    C112 6385   3.243   3.317   4.668 -0.7428 -0.2610 -0.1434
    1OL    H12R 6386   3.267   3.415   4.709 -0.2607 -1.2579  2.0264
    1OL    H12S 6387   3.339   3.265   4.663  0.7134  2.4349 -1.2420
    1OL    C113 6388   3.146   3.258   4.768  0.1727 -0.2472 -0.6309
    1OL    H13R 6389   3.129   3.155   4.736 -3.8475  0.0515  0.3045
    1OL    H13S 6390   3.055   3.318   4.756  0.9803  1.0605 -0.3299
    1OL    C114 6391   3.193   3.256   4.912 -0.1756 -0.4425  0.3937
    1OL    H14R 6392   3.256   3.343   4.930  0.1250 -0.3979 -0.8663
    1OL    H14S 6393   3.242   3.162   4.938 -0.6089 -1.1964 -1.4652
    1OL    C115 6394   3.068   3.268   5.001 -0.1104 -0.5383 -0.0032
    1OL    H15R 6395   3.014   3.173   4.993  0.1590 -0.6953  0.0573
    1OL    H15S 6396   3.001   3.344   4.960  1.1871  1.8471  2.1836
    1OL    C116 6397   3.099   3.301   5.150 -0.0244 -0.1142 -0.1329
    1OL    H16R 6398   3.002   3.305   5.201 -0.7132 -1.5482 -1.3123
    1OL    H16S 6399   3.151   3.397   5.159 -3.3643  1.8203 -0.4892
    1OL    C117 6400   3.175   3.188   5.223  0.4009 -0.2827  0.6734
    1OL    H17R 6401   3.269   3.161   5.174 -0.1050 -1.6793  0.4375
    1OL    H17S 6402   3.110   3.100   5.220  1.0858 -0.7600 -0.3667
    1OL    C118 6403   3.208   3.225   5.367 -0.4759 -0.3712  0.1007
    1OL    H18R 6404   3.257   3.322   5.375 -0.3357 -0.5336  1.3110
    1OL    H18S 6405   3.264   3.149   5.422 -0.6372  0.9648  2.1905
    1OL    H18T 6406   3.108   3.234   5.410 -0.6529  0.3677 -0.4572
    1PA    C116 6407   3.971   1.608   4.629  0.2944  0.0918  0.3335
    1PA    H16R 6408   4.073   1.620   4.668 -0.6892  0.3461  2.9719
    1PA    H16S 6409   3.922   1.702   4.654  2.5932  1.5945 -0.5854
    1PA    H16T 6410   3.976   1.589   4.522 -0.3098  1.2071  0.0964
    1PA    C115 6411   3.888   1.500   4.699 -0.1493  0.0424  0.4026
    1PA    H15R 6412   3.934   1.402   4.690  1.0022  0.4438  1.6958
    1PA    H15S 6413   3.879   1.526   4.805 -1.2938  0.1013  0.3014
    1PA    C114 6414   3.749   1.484   4.629  0.2417  0.3779  0.8542
    1PA    H14R 6415   3.694   1.577   4.620  0.3222  0.3904  0.4847
    1PA    H14S 6416   3.773   1.456   4.526 -0.7773 -2.7079  1.3956
    1PA    C113 6417   3.661   1.379   4.703 -0.6247 -0.3632 -0.0707
    1PA    H13R 6418   3.712   1.285   4.723 -1.9838 -0.6522  2.1504
    1PA    H13S 6419   3.628   1.416   4.800  1.2827  0.5214  0.2632
    1PA    C112 6420   3.537   1.355   4.620 -0.2641  0.4632  0.2773
    1PA    H12R 6421   3.468   1.305   4.688  0.2623 -1.4768 -0.6104
    1PA    H12S 6422   3.500   1.456   4.600 -0.8288  0.2157  0.0736
    1PA    C111 6423   3.548   1.290   4.482 -0.3200  0.8479  0.4638
    1PA    H11R 6424   3.574   1.370   4.413  0.3026  1.7292  1.6967
    1PA    H11S 6425   3.625   1.213   4.481 -0.9851  0.1834 -0.4058
    1PA    C110 6426   3.412   1.232   4.440 -0.3723 -0.3264 -0.0891
    1PA    H10R 6427   3.398   1.144   4.504 -2.2971  0.3115  0.3728
    1PA    H10S 6428   3.336   1.305   4.465 -2.3614 -2.3323 -0.1475
    1PA     C19 6429   3.414   1.198   4.292  0.1648  0.4585 -0.1209
    1PA     H9R 6430   3.423   1.286   4.228 -0.7931 -0.0514 -0.9897
    1PA     H9S 6431   3.505   1.140   4.275 -0.1886  0.4555 -2.1285
    1PA     C18 6432   3.297   1.112   4.226 -0.2580  0.2766 -0.0078
    1PA     H8R 6433   3.309   1.128   4.119  0.8419  2.0415  0.3644
    1PA     H8S 6434   3.308   1.008   4.258  2.6045 -0.3284 -2.7597
    1PA     C17 6435   3.157   1.167   4.269 -0.9377  0.0789  0.2081
    1PA     H7R 6436   3.125   1.106   4.354  0.1741 -2.7501 -1.3269
    1PA     H7S 6437   3.170   1.272   4.295  0.6003 -0.4046  1.4393
    1PA     C16 6438   3.054   1.169   4.153  0.7373  0.2844 -0.2570
    1PA     H6R 6439   2.965   1.220   4.188  0.8474  0.0764  0.3280
    1PA     H6S 6440   3.084   1.225   4.064  0.5904 -0.1418 -0.5753
    1PA     C15 6441   3.009   1.024   4.120 -0.1346  0.0502  0.1752
    1PA     H5R 6442   3.003   0.966   4.212  4.0755  0.5402  0.8462
    1PA     H5S 6443   2.909   1.027   4.075  0.3622 -0.5473 -1.0224
    1PA     C14 6444   3.089   0.933   4.024  0.1900  0.6325  0.6981
    1PA     H4R 6445   3.194   0.945   4.052  0.2507 -0.8947  1.1716
    1PA     H4S 6446   3.059   0.831   4.048  0.1234 -0.1647 -2.6397
    1PA     C13 6447   3.075   0.964   3.873  0.0931  1.2876 -0.6282
    1PA     H3R 6448   2.967   0.969   3.856  0.2918  1.9118 -1.7630
    1PA     H3S 6449   3.116   1.060   3.839  2.3078  0.5434 -0.1291
    1PA     C12 6450   3.140   0.853   3.787  0.1653 -0.4685 -0.4314
    1PA     H2R 6451   3.247   0.838   3.803  0.5198  0.3382 -1.9591
    1PA     H2S 6452   3.092   0.755   3.798 -1.1177  0.0632 -1.1592
    1PC     C11 6453   3.118   0.884   3.643  0.0880  0.0259 -0.0403
    1PC     O12 6454   3.014   0.859   3.589  0.1060  0.1509 -0.2738
    1PC     O11 6455   3.226   0.941   3.585  0.0218  0.0220 -0.4293
    1PC      C1 6456   3.216   0.991   3.450  0.3377 -0.0636  0.2534
    1PC      HR 6457   3.219   0.915   3.371  1.8423 -0.4241  0.6525
    1PC      HS 6458   3.131   1.061   3.447  1.0647  0.7768 -2.3145
    1PC      C2 6459   3.339   1.076   3.412 -0.4082 -0.0991 -0.1166
    1PC      HX 6460   3.323   1.123   3.314 -1.2279 -3.1396 -1.5074
    1PC      C3 6461   3.471   0.990   3.406  0.7156  0.2141 -0.2423
    1PC      HA 6462   3.508   0.992   3.509 -0.8556  1.2245  0.3180
    1PC      HB 6463   3.451   0.888   3.372  3.4067 -0.9310  1.4451
    1PC     O31 6464   3.572   1.052   3.319 -0.5290 -0.6239 -0.0169
    1PC     P31 6465   3.560   1.050   3.161 -0.2077  0.2663  0.2558
    1PC     O32 6466   3.675   0.956   3.117 -0.0388  0.4169  0.6320
    1PC     C31 6467   3.673   0.814   3.148 -0.4287 -0.4941 -0.1237
    1PC     H1A 6468   3.775   0.786   3.122  0.1806  0.5711  1.0468
    1PC     H1B 6469   3.651   0.810   3.255 -0.8212  2.7010 -0.0158
    1PC     C32 6470   3.568   0.735   3.070 -0.1228  0.5720 -0.0095
    1PC     H2A 6471   3.561   0.636   3.116  0.9804  0.0414 -0.9599
    1PC     H2B 6472   3.471   0.782   3.086  0.0405  1.1259 -0.6123
    1PC     N31 6473   3.580   0.728   2.922 -0.3988  0.1284 -0.6290
    1PC     C33 6474   3.698   0.655   2.887  0.1922  0.5322 -0.0143
    1PC     H3A 6475   3.676   0.636   2.782 -0.3465 -1.0755  0.3649
    1PC     H3B 6476   3.787   0.717   2.896  0.2582  0.5652 -0.8522
    1PC     H3C 6477   3.710   0.567   2.951  0.8088  0.4939 -0.1800
    1PC     C34 6478   3.461   0.660   2.879  0.1487  0.2936 -0.5559
    1PC     H4A 6479   3.455   0.660   2.770 -1.0799  1.3837 -0.5019
    1PC     H4B 6480   3.482   0.559   2.913 -0.1024  1.0515  1.9275
    1PC     H4C 6481   3.373   0.707   2.923  1.8321  0.9709  2.1415
    1PC     C35 6482   3.582   0.862   2.855  0.0306 -0.0913 -0.1801
    1PC     H5A 6483   3.557   0.858   2.749  0.8548 -1.2273 -0.3314
    1PC     H5B 6484   3.674   0.916   2.879 -1.3038  1.0594  2.5876
    1PC     H5C 6485   3.503   0.923   2.901 -2.1059 -1.6934 -1.6600
    1PC     O33 6486   3.435   0.984   3.116 -0.0302 -0.0671 -0.0431
    1PC     O34 6487   3.591   1.181   3.098  0.1307 -0.3025 -0.2312
    1PC     O21 6488   3.352   1.180   3.516  0.3646  0.2666  0.1943
    1PC     C21 6489   3.359   1.312   3.470  0.2110 -0.4214 -1.4090
    1PC     O22 6490   3.348   1.349   3.354 -0.0126 -0.4220  0.0987
    1OL     C12 6491   3.395   1.411   3.576 -0.7302  0.5228 -0.1206
    1OL     H2R 6492   3.394   1.517   3.549 -0.0773  1.1008  2.0483
    1OL     H2S 6493   3.492   1.385   3.618  0.5839  2.3490 -1.9199
    1OL     C13 6494   3.303   1.403   3.700 -0.2906 -0.4914 -0.1092
    1OL     H3R 6495   3.302   1.300   3.736 -3.7245 -0.6074 -0.3904
    1OL     H3S 6496   3.201   1.422   3.666 -1.3623 -2.4171  1.9023
    1OL     C14 6497   3.335   1.493   3.821  0.1367 -0.5530 -0.0838
    1OL     H4R 6498   3.264   1.477   3.903  0.1889 -2.4273 -0.3823
    1OL     H4S 6499   3.317   1.597   3.796 -0.2567 -0.4761  0.5211
    1OL     C15 6500   3.472   1.477   3.885  0.2287  0.5533 -0.0253
    1OL     H5R 6501   3.551   1.496   3.813 -0.3993 -2.6592 -1.6445
    1OL     H5S 6502   3.477   1.370   3.907  0.6864  1.0984  2.7716
    1OL     C16 6503   3.472   1.558   4.019  0.3503 -0.4321  0.9938
    1OL     H6R 6504   3.404   1.498   4.079 -0.8387  0.4458  0.5359
    1OL     H6S 6505   3.423   1.655   4.012  0.6014 -0.3145  0.8254
    1OL     C17 6506   3.611   1.567   4.088  0.0343  0.0140 -0.4619
    1OL     H7R 6507   3.682   1.596   4.009  1.9291 -0.4430  1.0461
    1OL     H7S 6508   3.652   1.467   4.101  2.1479  0.9406  0.2159
    1OL     C18 6509   3.631   1.648   4.218  0.2434  0.1909  0.2429
    1OL     H8R 6510   3.613   1.584   4.304  0.1047 -0.0798  0.0115
    1OL     H8S 6511   3.563   1.734   4.219 -0.4172 -0.3345  0.6387
    1OL     C19 6512   3.776   1.673   4.246  0.2320  0.2239  0.1372
    1OL     H9R 6513   3.813   1.609   4.326 -1.0075 -0.1201  0.4462
    1OL    C110 6514   3.852   1.772   4.208  0.3806  0.2475  0.7400
    1OL    H10R 6515   3.951   1.790   4.249  0.7655 -0.5957  0.1972
    1OL    C111 6516   3.804   1.881   4.113  0.2534  0.2481  0.4837
    1OL    H11R 6517   3.803   1.982   4.153 -0.4247  1.3171 -2.1357
    1OL    H11S 6518   3.700   1.856   4.088  0.0435 -0.6031  2.1670
    1OL    C112 6519   3.880   1.887   3.981  0.4101 -0.1896  0.0716
    1OL    H12R 6520   3.859   1.791   3.933 -1.4982  0.0488  0.3994
    1OL    H12S 6521   3.986   1.896   4.006 -0.3815  1.3880  3.0623
    1OL    C113 6522   3.854   2.001   3.879 -0.0022 -0.0210 -0.0818
    1OL    H13R 6523   3.934   1.994   3.806 -0.7476  2.6072 -1.1971
    1OL    H13S 6524   3.866   2.094   3.935  0.4537 -0.8188  1.1626
    1OL    C114 6525   3.712   1.997   3.816  0.0266  0.1654  0.0978
    1OL    H14R 6526   3.679   2.097   3.788 -1.3656 -0.0660  0.8848
    1OL    H14S 6527   3.644   1.951   3.888 -0.2717  1.5300  0.6892
    1OL    C115 6528   3.711   1.902   3.687 -0.3333  0.1464 -0.4853
    1OL    H15R 6529   3.782   1.821   3.705  0.2472  0.2234 -2.2886
    1OL    H15S 6530   3.743   1.953   3.595 -0.9426 -0.5783 -1.1080
    1OL    C116 6531   3.568   1.843   3.665  0.0549  0.3430 -0.2996
    1OL    H16R 6532   3.504   1.928   3.640 -2.1369 -1.9182 -2.6295
    1OL    H16S 6533   3.537   1.807   3.763 -1.0312  1.0056 -0.3966
    1OL    C117 6534   3.544   1.740   3.553  0.1813  0.2935  0.3766
    1OL    H17R 6535   3.567   1.792   3.459  0.8122 -1.2050 -0.3148
    1OL    H17S 6536   3.439   1.712   3.560  0.3700 -0.3201  0.7805
    1OL    C118 6537   3.642   1.624   3.549  0.4670  0.0636 -0.3051
    1OL    H18R 6538   3.600   1.548   3.482  1.3710 -0.6688 -0.0503
    1OL    H18S 6539   3.644   1.576   3.647 -1.7056 -0.5159 -0.5137
    1OL    H18T 6540   3.735   1.656   3.501 -0.3759  2.0812 -0.6750
    1PA    C116 6541   3.574   2.369   4.867 -0.4227 -0.2743 -0.0047
    1PA    H16R 6542   3.481   2.380   4.924 -0.5451 -0.8805 -0.0802
    1PA    H16S 6543   3.622   2.467   4.868 -0.9122 -0.0357  0.9391
    1PA    H16T 6544   3.629   2.288   4.916 -0.6000 -0.8637 -0.7579
    1PA    C115 6545   3.527   2.330   4.727  0.7711 -0.0123 -0.1205
    1PA    H15R 6546   3.618   2.316   4.669  1.4852  1.0293  0.7226
    1PA    H15S 6547   3.478   2.233   4.726 -0.5045  0.6110  0.6073
    1PA    C114 6548   3.446   2.439   4.662  0.1585  0.0675 -0.4669
    1PA    H14R 6549   3.370   2.477   4.731  0.3466  1.9746 -1.2875
    1PA    H14S 6550   3.516   2.520   4.643  1.5343 -0.1976  3.1580
    1PA    C113 6551   3.382   2.387   4.539 -0.1266  0.1879  0.6797
    1PA    H13R 6552   3.327   2.293   4.550 -0.0080  0.2835  2.1865
    1PA    H13S 6553   3.303   2.458   4.514  1.1085  1.0582 -0.8148
    1PA    C112 6554   3.486   2.374   4.426 -0.6779  0.3892 -0.0791
    1PA    H12R 6555   3.538   2.470   4.415  0.2975 -0.2071 -0.7122
    1PA    H12S 6556   3.565   2.302   4.447  1.3230  1.8189 -2.4593
    1PA    C111 6557   3.432   2.323   4.287 -1.2696 -0.2065  0.2784
    1PA    H11R 6558   3.340   2.372   4.255 -0.3436  1.6151  0.3544
    1PA    H11S 6559   3.509   2.348   4.213 -0.9500 -1.1331  0.2842
    1PA    C110 6560   3.421   2.169   4.285 -0.6873 -0.0289  0.4061
    1PA    H10R 6561   3.520   2.122   4.280 -0.7601  0.0510 -2.6004
    1PA    H10S 6562   3.373   2.136   4.378 -1.8449 -0.1396 -0.2228
    1PA     C19 6563   3.340   2.120   4.163 -0.0971 -0.4079 -0.6910
    1PA     H9R 6564   3.328   2.011   4.167  0.3063 -0.4123  0.7281
    1PA     H9S 6565   3.236   2.151   4.175  0.7106  1.8427  0.8031
    1PA     C18 6566   3.397   2.157   4.026  0.1104 -0.3346 -0.3146
    1PA     H8R 6567   3.400   2.266   4.017 -1.3606 -0.0906  1.7538
    1PA     H8S 6568   3.501   2.125   4.025  0.4092  0.5197  1.2743
    1PA     C17 6569   3.321   2.105   3.909 -0.1446 -0.1759 -0.1502
    1PA     H7R 6570   3.223   2.154   3.904  0.0532  0.2420  0.0503
    1PA     H7S 6571   3.373   2.144   3.821 -0.1747 -1.3581 -0.6993
    1PA     C16 6572   3.297   1.955   3.906  0.0229 -0.7451  0.2800
    1PA     H6R 6573   3.392   1.902   3.903 -0.2755 -1.2131 -1.2013
    1PA     H6S 6574   3.233   1.923   3.989  0.6131 -0.1085  0.9926
    1PA     C15 6575   3.228   1.903   3.779 -0.6429 -0.2022 -0.1625
    1PA     H5R 6576   3.280   1.930   3.687 -0.6126 -1.5563 -0.5595
    1PA     H5S 6577   3.224   1.794   3.780 -0.3272 -0.2025  0.9473
    1PA     C14 6578   3.081   1.945   3.758  0.2098 -0.5987  0.2729
    1PA     H4R 6579   3.033   1.910   3.850 -3.7232  1.8884 -0.7285
    1PA     H4S 6580   3.072   2.052   3.741 -0.8106 -1.0249 -1.9957
    1PA     C13 6581   2.994   1.879   3.649  0.0379  0.5959  0.5081
    1PA     H3R 6582   2.958   1.779   3.678 -0.0400  0.6703  0.6684
    1PA     H3S 6583   2.903   1.939   3.651 -1.6512 -1.8955  1.2426
    1PA     C12 6584   3.060   1.893   3.513 -0.2527 -0.1473 -0.3713
    1PA     H2R 6585   3.156   1.842   3.516 -0.0049  0.2150 -1.6323
    1PA     H2S 6586   2.998   1.839   3.441  0.8786 -1.6454 -0.2417
    1PC     C11 6587   3.066   2.041   3.475  0.7115  0.2080 -0.0652
    1PC     O12 6588   2.975   2.121   3.498  0.0528  0.2332  0.1435
    1PC     O11 6589   3.186   2.083   3.435 -0.5735 -0.3047  0.0287
    1PC      C1 6590   3.207   2.221   3.398 -0.1501  0.3441 -0.2542
    1PC      HR 6591   3.280   2.219   3.317  0.1887  0.3440  0.0502
    1PC      HS 6592   3.116   2.254   3.348 -0.4488  0.4188  0.3370
    1PC      C2 6593   3.253   2.313   3.514  0.1234 -0.5914  0.8329
    1PC      HX 6594   3.247   2.412   3.468  0.3246 -0.6020  0.7863
    1PC      C3 6595   3.404   2.294   3.554 -0.5921  0.0223 -0.4898
    1PC      HA 6596   3.392   2.309   3.662  0.9838  1.7334 -0.5343
    1PC      HB 6597   3.443   2.193   3.541 -0.2057 -0.1291  1.5574
    1PC     O31 6598   3.489   2.400   3.506 -0.0871 -0.0671  0.8571
    1PC     P31 6599   3.550   2.413   3.359 -0.1743  0.1195 -0.4065
    1PC     O32 6600   3.708   2.406   3.386  0.2805 -0.0669  0.2050
    1PC     C31 6601   3.777   2.282   3.403  0.0254 -0.4266 -0.9081
    1PC     H1A 6602   3.871   2.313   3.449 -0.5003 -0.3278  0.1151
    1PC     H1B 6603   3.713   2.209   3.453  0.4558  0.7889  1.4864
    1PC     C32 6604   3.826   2.217   3.271 -0.1445  0.2565 -0.0692
    1PC     H2A 6605   3.905   2.145   3.290 -0.6627 -0.6483 -1.2940
    1PC     H2B 6606   3.748   2.164   3.215  2.1496 -0.2247 -2.9250
    1PC     N31 6607   3.881   2.306   3.158 -0.5180 -0.0040 -0.2142
    1PC     C33 6608   3.955   2.228   3.056  0.7068 -0.3804 -0.0471
    1PC     H3A 6609   4.043   2.284   3.025  0.3144 -0.1391 -0.7356
    1PC     H3B 6610   3.993   2.137   3.104  0.0813 -1.2356 -1.1469
    1PC     H3C 6611   3.894   2.217   2.966 -1.2320  3.3946  0.7242
    1PC     C34 6612   3.775   2.388   3.099  0.3677  0.0464 -0.2945
    1PC     H4A 6613   3.741   2.458   3.175  0.7790 -0.7193  0.6034
    1PC     H4B 6614   3.818   2.437   3.011 -0.5123  0.1596 -0.6725
    1PC     H4C 6615   3.693   2.324   3.066 -0.6878  0.1764  1.9857
    1PC     C35 6616   3.982   2.405   3.204  0.3532  0.3848  0.3098
    1PC     H5A 6617   4.056   2.344   3.256 -1.3920 -2.5972 -0.5685
    1PC     H5B 6618   3.949   2.482   3.274 -2.0753  0.7088 -1.1570
    1PC     H5C 6619   4.037   2.450   3.120 -0.3032  0.0721 -0.2902
    1PC     O33 6620   3.515   2.298   3.274  0.5281  0.3776  0.0069
    1PC     O34 6621   3.520   2.547   3.298  0.2600 -0.1324 -0.1525
    1PC     O21 6622   3.174   2.297   3.643  0.2771 -0.0183  0.8897
    1PC     C21 6623   3.073   2.382   3.653 -0.9018 -0.4409  0.1428
    1PC     O22 6624   3.037   2.461   3.566 -0.4285 -0.4442 -0.0817
    1OL     C12 6625   3.004   2.374   3.790  0.1682  0.2973 -0.0771
    1OL     H2R 6626   3.027   2.276   3.832 -2.1753 -0.0227  0.5276
    1OL     H2S 6627   2.897   2.385   3.772  0.1562  0.1090 -0.1219
    1OL     C13 6628   3.052   2.483   3.886 -0.1746 -0.0169 -0.4351
    1OL     H3R 6629   3.033   2.580   3.839 -1.8752  0.0310  0.3003
    1OL     H3S 6630   3.157   2.462   3.907 -0.4073  0.1507  0.9514
    1OL     C14 6631   2.976   2.486   4.024 -0.6634 -0.3814  0.1654
    1OL     H4R 6632   2.980   2.381   4.055 -0.9805 -0.7288 -0.9698
    1OL     H4S 6633   2.871   2.514   4.023 -1.1770 -1.7319  4.5324
    1OL     C15 6634   3.063   2.580   4.117  0.3815  0.3449 -0.6789
    1OL     H5R 6635   3.069   2.685   4.088  0.4326  1.0556  1.8208
    1OL     H5S 6636   3.167   2.546   4.122  0.2093 -0.3388 -1.6010
    1OL     C16 6637   3.012   2.581   4.260  1.0697  0.5099 -0.8955
    1OL     H6R 6638   3.028   2.482   4.303 -0.1013  1.0458  0.8504
    1OL     H6S 6639   2.905   2.604   4.258  0.6192 -1.3796 -0.1933
    1OL     C17 6640   3.083   2.694   4.341  0.3948  0.0917 -0.0345
    1OL     H7R 6641   3.054   2.781   4.281 -1.4520  0.0432  0.7520
    1OL     H7S 6642   3.191   2.680   4.337  0.5438 -1.4400  5.3327
    1OL     C18 6643   3.029   2.714   4.486 -0.0831  0.0293 -0.1764
    1OL     H8R 6644   3.042   2.624   4.546 -1.8674  0.1739  0.4675
    1OL     H8S 6645   2.921   2.710   4.470 -0.4055  0.8671  1.7152
    1OL     C19 6646   3.068   2.841   4.557 -0.9838  0.4589  0.0834
    1OL     H9R 6647   3.049   2.936   4.508  0.7960  0.6019 -0.3513
    1OL    C110 6648   3.117   2.842   4.682  0.0856  0.5613 -0.3861
    1OL    H10R 6649   3.141   2.937   4.730 -0.1176  1.0304 -1.2074
    1OL    C111 6650   3.145   2.720   4.771 -0.6215 -0.3455  0.4698
    1OL    H11R 6651   3.251   2.728   4.798 -0.3960  0.1959 -0.5304
    1OL    H11S 6652   3.130   2.623   4.725 -1.8621 -0.4025  0.9705
    1OL    C112 6653   3.066   2.719   4.899  0.4258 -0.1062  0.0498
    1OL    H12R 6654   2.964   2.718   4.861  0.6312  0.5652 -0.5372
    1OL    H12S 6655   3.072   2.812   4.956 -1.0459 -0.8663  1.4727
    1OL    C113 6656   3.088   2.612   5.007 -0.3020  0.3535 -0.7463
    1OL    H13R 6657   3.029   2.637   5.095  3.3207  3.0369  1.0399
    1OL    H13S 6658   3.189   2.616   5.047 -0.1212  1.7683 -1.3283
    1OL    C114 6659   3.062   2.466   4.941 -0.0739 -0.0611  0.2547
    1OL    H14R 6660   3.130   2.440   4.861  0.1366 -1.1595  0.7774
    1OL    H14S 6661   2.960   2.474   4.904  0.4751  2.8967 -0.7783
    1OL    C115 6662   3.066   2.355   5.042 -0.0043 -0.0477  0.5767
    1OL    H15R 6663   3.008   2.270   5.006 -1.3955  0.8311  0.7197
    1OL    H15S 6664   3.018   2.383   5.136 -0.3404 -0.9311  0.6730
    1OL    C116 6665   3.205   2.306   5.072  0.0513  0.4922 -0.0554
    1OL    H16R 6666   3.238   2.370   5.154  0.9329  0.7113 -0.5800
    1OL    H16S 6667   3.265   2.314   4.982 -2.5005 -0.1882 -1.8843
    1OL    C117 6668   3.201   2.156   5.121  0.1019  0.2736 -0.3259
    1OL    H17R 6669   3.306   2.130   5.139 -0.1685 -0.0830  0.7416
    1OL    H17S 6670   3.155   2.098   5.040 -2.9605 -0.6616  1.9956
    1OL    C118 6671   3.113   2.143   5.247  0.0100 -0.3042  0.1466
    1OL    H18R 6672   3.122   2.043   5.290  1.8938 -0.2862 -0.1411
    1OL    H18S 6673   3.007   2.156   5.225 -0.0742 -0.6175  0.3561
    1OL    H18T 6674   3.145   2.220   5.318 -0.8031  0.5994 -0.4620
    1PA    C116 6675   2.647   3.124   5.223 -0.0502 -0.6304  0.6820
    1PA    H16R 6676   2.703   3.216   5.206 -0.7794 -0.4373 -0.7293
    1PA    H16S 6677   2.657   3.106   5.330  1.1292 -1.6482  0.4208
    1PA    H16T 6678   2.541   3.137   5.204  0.6979  1.0252 -2.7364
    1PA    C115 6679   2.699   3.005   5.141 -0.3426  0.3927  0.7446
    1PA    H15R 6680   2.806   2.987   5.155 -0.2158 -0.2044 -0.9442
    1PA    H15S 6681   2.641   2.914   5.160 -0.3204  0.2206 -0.0173
    1PA    C114 6682   2.684   3.033   4.991  0.2831 -0.2427 -0.7456
    1PA    H14R 6683   2.579   3.003   4.979  0.7940 -1.1193 -3.3323
    1PA    H14S 6684   2.692   3.139   4.970  0.3375  0.5654  2.9969
    1PA    C113 6685   2.785   2.943   4.921  0.1258 -0.1659 -1.0733
    1PA    H13R 6686   2.882   2.993   4.921 -0.4585  0.9900 -1.1772
    1PA    H13S 6687   2.789   2.851   4.979  1.1348  0.0526 -0.7964
    1PA    C112 6688   2.740   2.918   4.777 -0.4161  0.0094  0.1934
    1PA    H12R 6689   2.795   2.829   4.744 -0.4371  0.4339 -1.0477
    1PA    H12S 6690   2.637   2.883   4.774 -0.3195 -0.3665  1.1000
    1PA    C111 6691   2.764   3.040   4.682 -0.6675 -0.0304  0.5532
    1PA    H11R 6692   2.724   3.137   4.712 -1.5200 -0.1279 -0.2370
    1PA    H11S 6693   2.870   3.060   4.668 -0.9471  0.0517 -1.6035
    1PA    C110 6694   2.701   3.007   4.548  0.0236  0.4371  0.0194
    1PA    H10R 6695   2.719   2.905   4.516 -0.1159  0.0258  1.2267
    1PA    H10S 6696   2.596   3.018   4.575 -0.0984  2.3160 -1.1067
    1PA     C19 6697   2.755   3.110   4.449 -0.2773  0.2772  0.2455
    1PA     H9R 6698   2.759   3.205   4.503  0.6666 -0.3821  1.3606
    1PA     H9S 6699   2.859   3.088   4.424  0.6426  2.4910  1.9973
    1PA     C18 6700   2.678   3.131   4.315  0.0803  0.8157 -0.3149
    1PA     H8R 6701   2.576   3.163   4.338 -0.6546 -0.7301 -1.3430
    1PA     H8S 6702   2.727   3.206   4.251 -1.7953  2.4198  0.0748
    1PA     C17 6703   2.665   2.998   4.231 -0.3978  0.0558 -0.6602
    1PA     H7R 6704   2.631   2.918   4.297  1.5986  0.3311  0.7375
    1PA     H7S 6705   2.581   3.008   4.161  0.2136  1.4331 -1.2399
    1PA     C16 6706   2.797   2.959   4.163  0.0970  0.4271 -0.0660
    1PA     H6R 6707   2.841   3.053   4.128 -0.7659  0.7545 -0.2927
    1PA     H6S 6708   2.860   2.921   4.243 -0.5354 -1.2085 -0.3318
    1PA     C15 6709   2.786   2.859   4.044  0.3254  0.1987 -0.6752
    1PA     H5R 6710   2.860   2.780   4.061  1.2798  1.5776  1.8366
    1PA     H5S 6711   2.684   2.819   4.044  0.8274 -1.1430  0.1529
    1PA     C14 6712   2.809   2.919   3.902  0.1934  0.1135 -0.8734
    1PA     H4R 6713   2.741   3.003   3.889  0.8933  0.8902  0.3821
    1PA     H4S 6714   2.914   2.951   3.899  0.0579  0.7145  0.3255
    1PA     C13 6715   2.787   2.812   3.793  0.0950 -0.0573  0.0406
    1PA     H3R 6716   2.834   2.716   3.815  0.1130 -0.0595 -0.0072
    1PA     H3S 6717   2.682   2.783   3.788  0.8889 -2.7469 -1.6476
    1PA     C12 6718   2.829   2.857   3.651  0.6179  0.2781 -0.1011
    1PA     H2R 6719   2.921   2.916   3.656  0.7572  0.1039 -0.5772
    1PA     H2S 6720   2.848   2.763   3.598 -1.0510  0.0477 -0.3077
    1PC     C11 6721   2.746   2.950   3.573 -0.1215 -0.6481 -0.1974
    1PC     O12 6722   2.723   3.065   3.606  0.2708  0.0614 -0.2023
    1PC     O11 6723   2.686   2.879   3.475 -0.4127 -0.8128 -0.7126
    1PC      C1 6724   2.611   2.948   3.377  0.5075 -0.0202  0.5556
    1PC      HR 6725   2.627   3.056   3.371 -1.6166  0.2211 -1.3838
    1PC      HS 6726   2.659   2.915   3.284  0.2075  1.9159 -0.3264
    1PC      C2 6727   2.463   2.907   3.377  0.3105 -0.7915  0.5025
    1PC      HX 6728   2.464   2.798   3.378  0.2128 -0.8628 -2.7271
    1PC      C3 6729   2.385   2.942   3.250 -0.0409  0.1718  0.6400
    1PC      HA 6730   2.357   2.862   3.181  1.6301 -0.7303  0.9804
    1PC      HB 6731   2.289   2.988   3.275  0.9782  2.3225  0.7831
    1PC     O31 6732   2.460   3.033   3.173  0.0175  0.5038  0.0930
    1PC     P31 6733   2.395   3.114   3.049 -0.0121  0.1396 -0.1931
    1PC     O32 6734   2.338   3.248   3.118  0.1001  0.3505  0.9569
    1PC     C31 6735   2.206   3.269   3.170 -0.5134 -0.7520  0.7295
    1PC     H1A 6736   2.152   3.343   3.111  0.1962 -0.3056  0.6346
    1PC     H1B 6737   2.150   3.175   3.169  0.2638 -1.2197 -0.0645
    1PC     C32 6738   2.220   3.299   3.319 -0.8692 -0.1455 -1.0825
    1PC     H2A 6739   2.302   3.242   3.363  0.2022  0.4219 -2.3202
    1PC     H2B 6740   2.240   3.406   3.325 -1.7600 -0.0519  0.5659
    1PC     N31 6741   2.094   3.270   3.402  0.2300  0.1078  0.2649
    1PC     C33 6742   1.968   3.346   3.358  0.0327  0.4696  0.8886
    1PC     H3A 6743   1.947   3.342   3.251  1.3840 -1.6546  0.6704
    1PC     H3B 6744   1.878   3.305   3.403 -0.5535 -0.1609 -0.7859
    1PC     H3C 6745   1.982   3.452   3.380  2.2643  1.1311 -3.1521
    1PC     C34 6746   2.065   3.124   3.411  0.3036  0.0490  0.2915
    1PC     H4A 6747   1.968   3.116   3.461  0.6555 -0.5741  0.8817
    1PC     H4B 6748   2.067   3.074   3.315  0.6568  0.3061  0.1634
    1PC     H4C 6749   2.145   3.075   3.466 -0.5629 -0.7558  0.8490
    1PC     C35 6750   2.119   3.313   3.545 -0.0825  0.0814  0.1463
    1PC     H5A 6751   2.030   3.284   3.601  0.0589 -0.1140  0.2713
    1PC     H5B 6752   2.138   3.420   3.548  0.2308  0.0155  0.5902
    1PC     H5C 6753   2.202   3.259   3.590 -1.2613  0.1789  2.5422
    1PC     O33 6754   2.500   3.148   2.952 -0.2412  0.0734  0.1706
    1PC     O34 6755   2.271   3.036   3.010  0.5882  0.3701 -0.1498
    1PC     O21 6756   2.390   2.972   3.494  0.3776 -0.0666  0.4462
    1PC     C21 6757   2.373   2.900   3.609  0.0108 -0.9733 -0.0361
    1PC     O22 6758   2.404   2.784   3.632  0.1433  0.2947  0.1292
    1OL     C12 6759   2.283   2.983   3.704 -1.0864  0.3520 -0.6142
    1OL     H2R 6760   2.179   2.970   3.673 -1.2833 -0.1435  0.2439
    1OL     H2S 6761   2.307   3.090   3.710  0.3592  0.0290 -0.3418
    1OL     C13 6762   2.273   2.936   3.853  0.2959  0.1262  0.5128
    1OL     H3R 6763   2.366   2.895   3.895 -0.0410 -2.7941 -1.4618
    1OL     H3S 6764   2.203   2.852   3.852  0.5691 -0.0897 -1.0193
    1OL     C14 6765   2.226   3.031   3.959 -0.2675  0.2337  0.9112
    1OL     H4R 6766   2.311   3.099   3.962  0.7364 -0.9258 -0.3410
    1OL     H4S 6767   2.209   2.974   4.050 -1.0732 -1.0373 -0.0266
    1OL     C15 6768   2.096   3.109   3.924  0.0530  1.2052  0.4962
    1OL     H5R 6769   2.094   3.135   3.818 -3.2363  0.6464  0.3546
    1OL     H5S 6770   2.092   3.206   3.974  2.3668  0.6669  1.7835
    1OL     C16 6771   1.965   3.032   3.948 -0.8642  0.2704 -0.1873
    1OL     H6R 6772   1.966   2.988   4.047  1.9070  1.3920  0.3360
    1OL     H6S 6773   1.951   2.956   3.871 -0.6998 -1.0299  1.0435
    1OL     C17 6774   1.843   3.118   3.916 -0.2329 -0.1527 -0.0484
    1OL     H7R 6775   1.827   3.103   3.809 -1.3800 -1.9651  0.3608
    1OL     H7S 6776   1.869   3.224   3.925  0.2909 -0.0784 -2.2360
    1OL     C18 6777   1.717   3.082   3.999  0.6709 -0.5872 -0.0663
    1OL     H8R 6778   1.713   2.973   4.003 -0.5558 -0.5196  0.5279
    1OL     H8S 6779   1.634   3.131   3.948 -0.5608 -3.1954 -0.6263
    1OL     C19 6780   1.719   3.133   4.144  0.5659  0.2338  0.5258
    1OL     H9R 6781   1.688   3.236   4.154 -1.6743 -0.3497 -0.1467
    1OL    C110 6782   1.743   3.074   4.256  0.4638 -0.4024  0.5126
    1OL    H10R 6783   1.751   3.140   4.342  0.8791  0.0367  0.1457
    1OL    C111 6784   1.781   2.936   4.280  0.1450  0.3875  0.5847
    1OL    H11R 6785   1.890   2.932   4.290  0.1260 -1.8411  0.2035
    1OL    H11S 6786   1.737   2.867   4.207  0.2693  0.9269 -0.0018
    1OL    C112 6787   1.721   2.892   4.417  0.1628 -0.4035  0.5026
    1OL    H12R 6788   1.612   2.892   4.406  0.3099 -3.3145 -1.2075
    1OL    H12S 6789   1.752   2.970   4.487 -1.0652 -0.2255  0.8679
    1OL    C113 6790   1.763   2.756   4.472  0.0450 -0.2139 -0.2383
    1OL    H13R 6791   1.868   2.733   4.450 -0.2379 -3.0572  1.2422
    1OL    H13S 6792   1.703   2.677   4.427 -1.2626 -0.1266  1.3383
    1OL    C114 6793   1.764   2.753   4.627 -0.2773 -0.3395  0.8248
    1OL    H14R 6794   1.658   2.755   4.653  0.4016  0.8346  3.7139
    1OL    H14S 6795   1.812   2.839   4.674 -1.0068  0.2167  0.5631
    1OL    C115 6796   1.829   2.627   4.673 -0.6513 -0.8856 -0.2114
    1OL    H15R 6797   1.936   2.624   4.653 -0.7286  0.8981 -0.9115
    1OL    H15S 6798   1.780   2.545   4.619 -4.0074  2.4527 -2.5166
    1OL    C116 6799   1.806   2.613   4.822  0.3160  0.2172 -0.2085
    1OL    H16R 6800   1.701   2.622   4.849  0.8976  1.6394  1.7000
    1OL    H16S 6801   1.860   2.688   4.879  0.1405  2.1105 -2.4444
    1OL    C117 6802   1.861   2.480   4.874  0.0026  1.0061  0.1316
    1OL    H17R 6803   1.825   2.398   4.811  1.6807 -0.0598  0.5033
    1OL    H17S 6804   1.816   2.463   4.972 -1.5106 -0.8783 -0.8638
    1OL    C118 6805   2.015   2.466   4.878 -0.5029  0.3707 -0.5184
    1OL    H18R 6806   2.054   2.452   4.777 -0.1573  2.8445 -0.7537
    1OL    H18S 6807   2.045   2.384   4.944  1.8317  1.4863 -0.1440
    1OL    H18T 6808   2.067   2.557   4.908 -0.9936  0.3380  0.4864
    1PA    C116 6809   2.458   1.737   4.954 -0.1336 -0.7399 -0.1478
    1PA    H16R 6810   2.490   1.836   4.923 -0.8515 -0.4232  0.1169
    1PA    H16S 6811   2.514   1.724   5.047  0.3147 -0.1441 -0.3352
    1PA    H16T 6812   2.351   1.745   4.975 -0.2017 -0.2300 -0.6844
    1PA    C115 6813   2.475   1.634   4.834 -0.4404 -0.6226  0.1020
    1PA    H15R 6814   2.387   1.569   4.842 -1.4164  0.6374 -0.2778
    1PA    H15S 6815   2.479   1.694   4.743  0.2492 -1.7042 -0.5985
    1PA    C114 6816   2.611   1.571   4.876 -0.3351  0.5423 -0.5056
    1PA    H14R 6817   2.674   1.655   4.908  0.7481 -0.1741 -0.7324
    1PA    H14S 6818   2.604   1.500   4.958  2.3716 -1.3837 -1.8629
    1PA    C113 6819   2.686   1.509   4.759 -0.9287 -0.4073 -0.5408
    1PA    H13R 6820   2.714   1.573   4.675 -0.1360 -0.7934 -0.5752
    1PA    H13S 6821   2.783   1.485   4.804 -1.7018  1.1841  2.0913
    1PA    C112 6822   2.623   1.385   4.708  0.4043 -0.7735 -0.0566
    1PA    H12R 6823   2.587   1.326   4.792  1.1875 -1.8466 -0.4719
    1PA    H12S 6824   2.534   1.422   4.656  1.3127  1.1504 -0.3208
    1PA    C111 6825   2.713   1.302   4.617  0.2742 -0.2720 -0.5577
    1PA    H11R 6826   2.778   1.363   4.553  0.9110  0.2741  0.5960
    1PA    H11S 6827   2.791   1.249   4.671 -0.1181 -1.1805 -0.8698
    1PA    C110 6828   2.631   1.211   4.520  0.8907  0.0012 -0.0325
    1PA    H10R 6829   2.580   1.138   4.584  1.0432  0.6099  0.7939
    1PA    H10S 6830   2.551   1.268   4.472 -1.7706 -0.5216  3.5149
    1PA     C19 6831   2.725   1.132   4.429 -0.6286 -0.5094 -0.2099
    1PA     H9R 6832   2.799   1.203   4.390 -0.4368  0.1460  1.2825
    1PA     H9S 6833   2.792   1.063   4.482 -0.1493  1.3723  1.7002
    1PA     C18 6834   2.646   1.048   4.327  0.6709 -0.5060  0.1422
    1PA     H8R 6835   2.729   0.990   4.287  1.5751  0.7365  0.2016
    1PA     H8S 6836   2.576   0.980   4.376 -0.5158 -0.7191 -1.7771
    1PA     C17 6837   2.561   1.126   4.221 -0.1192  0.5260  0.1081
    1PA     H7R 6838   2.476   1.164   4.278  0.0514  0.6381  0.2903
    1PA     H7S 6839   2.626   1.206   4.184 -1.7817  2.0142  0.3682
    1PA     C16 6840   2.510   1.039   4.104  0.1790 -0.2853 -1.1314
    1PA     H6R 6841   2.589   0.982   4.055  1.3083 -0.6438  1.0146
    1PA     H6S 6842   2.438   0.971   4.150  0.5514 -0.8692 -1.4037
    1PA     C15 6843   2.439   1.121   3.997  0.2650  0.1139  0.3788
    1PA     H5R 6844   2.378   1.204   4.032 -0.2152  0.1528 -0.5288
    1PA     H5S 6845   2.519   1.165   3.938 -0.6634 -0.5073 -1.3783
    1PA     C14 6846   2.352   1.037   3.898 -0.0201  0.7977 -0.1485
    1PA     H4R 6847   2.400   0.945   3.861 -2.3094  0.2838 -2.0323
    1PA     H4S 6848   2.260   1.001   3.943  1.5606  0.6282  3.0781
    1PA     C13 6849   2.315   1.103   3.763 -0.9700 -0.2179 -0.0033
    1PA     H3R 6850   2.244   1.183   3.785 -0.9673 -0.4580  0.8631
    1PA     H3S 6851   2.407   1.139   3.717 -0.9579 -1.0738 -0.6689
    1PA     C12 6852   2.249   1.006   3.655  0.7916 -0.3935  0.7555
    1PA     H2R 6853   2.327   0.965   3.591 -0.4394  0.4717 -1.3218
    1PA     H2S 6854   2.191   0.930   3.707  1.6296 -1.4496  0.1542
    1PC     C11 6855   2.156   1.084   3.565 -0.7430 -0.9064  0.9260
    1PC     O12 6856   2.039   1.077   3.585  0.6536  0.2106 -0.5557
    1PC     O11 6857   2.216   1.158   3.474  0.0845  0.1192 -0.2004
    1PC      C1 6858   2.142   1.264   3.408  0.5934  0.1968  0.4989
    1PC      HR 6859   2.079   1.317   3.480  1.0624 -0.6598  1.5369
    1PC      HS 6860   2.205   1.330   3.347 -0.9322 -0.2840 -1.6875
    1PC      C2 6861   2.045   1.208   3.291 -0.0199  0.3147 -0.2317
    1PC      HX 6862   1.961   1.148   3.328  0.2040  0.1590  0.0258
    1PC      C3 6863   2.115   1.134   3.179 -0.3228  0.1542 -0.3066
    1PC      HA 6864   2.209   1.190   3.174  0.7280 -1.6315 -1.0997
    1PC      HB 6865   2.124   1.029   3.210 -1.8155 -0.2776 -1.2628
    1PC     O31 6866   2.037   1.141   3.061  0.2884 -0.3330  0.3186
    1PC     P31 6867   2.102   1.106   2.915 -0.6702  0.1115 -0.1460
    1PC     O32 6868   2.217   1.211   2.900  0.2129 -0.4217  0.1275
    1PC     C31 6869   2.200   1.350   2.868  0.1450 -0.3823 -0.1595
    1PC     H1A 6870   2.127   1.393   2.937  0.9006  0.0563  0.3757
    1PC     H1B 6871   2.300   1.389   2.891 -0.8000  0.4496  2.8100
    1PC     C32 6872   2.177   1.367   2.723  0.1092 -0.1118 -0.2010
    1PC     H2A 6873   2.091   1.304   2.699  0.2167  0.0089 -0.9366
    1PC     H2B 6874   2.151   1.472   2.710  2.4087  0.6729  1.2977
    1PC     N31 6875   2.276   1.343   2.621  0.0575  0.2227 -0.2708
    1PC     C33 6876   2.218   1.360   2.488  0.1223  0.3577  0.2779
    1PC     H3A 6877   2.173   1.459   2.483 -1.1688 -0.2483 -0.3611
    1PC     H3B 6878   2.294   1.356   2.410  2.2705  2.3902  2.1744
    1PC     H3C 6879   2.142   1.282   2.482  2.9415 -2.7154  2.5552
    1PC     C34 6880   2.380   1.448   2.632  0.1041 -0.0403  0.2702
    1PC     H4A 6881   2.325   1.541   2.617  4.2608  2.5176 -0.1507
    1PC     H4B 6882   2.410   1.462   2.736 -0.9932 -3.3068  1.0806
    1PC     H4C 6883   2.463   1.441   2.561  1.9549  1.4776  2.2192
    1PC     C35 6884   2.342   1.209   2.627 -0.2572 -0.4663  0.1846
    1PC     H5A 6885   2.268   1.136   2.590 -0.4220  0.0488 -0.5148
    1PC     H5B 6886   2.381   1.194   2.727  0.4009 -2.6828 -0.3731
    1PC     H5C 6887   2.427   1.189   2.561 -1.1779 -0.5897 -1.0013
    1PC     O33 6888   2.149   0.966   2.910  0.0539 -0.1577  0.0349
    1PC     O34 6889   2.002   1.141   2.813  0.1384  0.1119  0.3687
    1PC     O21 6890   1.994   1.335   3.227 -0.9568 -0.4855 -0.1770
    1PC     C21 6891   1.876   1.382   3.276 -0.7486  0.2717  0.0801
    1PC     O22 6892   1.815   1.330   3.370  0.1727 -0.0955  0.3543
    1OL     C12 6893   1.826   1.502   3.200  0.8190  0.2886  0.2614
    1OL     H2R 6894   1.722   1.527   3.222  0.9792  0.3031  1.0120
    1OL     H2S 6895   1.840   1.482   3.093  0.4494 -0.6733  0.3844
    1OL     C13 6896   1.910   1.627   3.241  0.3155 -0.2374 -0.6962
    1OL     H3R 6897   1.904   1.718   3.181  1.3180  1.3102  1.4948
    1OL     H3S 6898   2.017   1.607   3.238 -0.0604 -2.3234 -1.2464
    1OL     C14 6899   1.877   1.671   3.387 -0.0584 -1.0605  0.0205
    1OL     H4R 6900   1.882   1.591   3.461 -1.3943  0.7225  2.0946
    1OL     H4S 6901   1.772   1.693   3.368  0.1928 -0.2140 -0.3944
    1OL     C15 6902   1.951   1.792   3.445 -0.2819  0.5083  0.3920
    1OL     H5R 6903   1.900   1.820   3.538 -2.2996 -0.2598 -0.4534
    1OL     H5S 6904   1.946   1.878   3.378  1.9708 -0.8613 -1.6108
    1OL     C16 6905   2.098   1.775   3.471  1.1410 -0.1637 -0.2053
    1OL     H6R 6906   2.150   1.867   3.497  1.8708 -0.5525 -0.2810
    1OL     H6S 6907   2.146   1.754   3.375 -2.3066  2.1667 -2.5836
    1OL     C17 6908   2.132   1.659   3.569 -0.0337  0.2681  0.2288
    1OL     H7R 6909   2.239   1.639   3.568 -0.0933 -0.0580 -1.0118
    1OL     H7S 6910   2.088   1.566   3.532 -0.8821 -0.2132  2.3449
    1OL     C18 6911   2.086   1.682   3.713  0.4159  0.1821 -0.1497
    1OL     H8R 6912   2.105   1.591   3.770 -0.8841 -0.4633 -0.7257
    1OL     H8S 6913   1.979   1.703   3.707  0.6725  1.7256  0.5937
    1OL     C19 6914   2.151   1.803   3.777 -0.2099 -0.1465 -0.3752
    1OL     H9R 6915   2.098   1.896   3.762 -0.7985 -0.2287  1.1523
    1OL    C110 6916   2.265   1.803   3.849  1.0842  0.7242 -0.3764
    1OL    H10R 6917   2.296   1.903   3.877 -0.0819  1.7011 -2.4365
    1OL    C111 6918   2.354   1.701   3.879 -0.3322  0.9578 -0.2655
    1OL    H11R 6919   2.445   1.723   3.822 -1.2281  0.8614 -1.7428
    1OL    H11S 6920   2.326   1.604   3.839 -0.0091  0.4194  0.7807
    1OL    C112 6921   2.392   1.701   4.026  0.9721 -0.1260  0.1338
    1OL    H12R 6922   2.300   1.694   4.084 -0.4523  2.0430 -1.7842
    1OL    H12S 6923   2.432   1.801   4.045 -1.1215  0.8165 -0.3071
    1OL    C113 6924   2.505   1.591   4.045 -0.6106  0.0933 -0.0955
    1OL    H13R 6925   2.595   1.629   3.997  0.4075  1.1222  2.5299
    1OL    H13S 6926   2.483   1.496   3.996 -0.7977 -0.8737  1.8432
    1OL    C114 6927   2.538   1.565   4.191 -0.7326 -0.2418 -0.5543
    1OL    H14R 6928   2.606   1.484   4.215 -0.5055  0.7363  2.2445
    1OL    H14S 6929   2.446   1.536   4.242 -2.0341 -0.1475 -2.7718
    1OL    C115 6930   2.588   1.693   4.267  0.0087 -0.1936 -0.1746
    1OL    H15R 6931   2.513   1.770   4.245 -0.2079 -0.2400  0.3987
    1OL    H15S 6932   2.682   1.725   4.221 -0.3651 -0.6122 -1.2517
    1OL    C116 6933   2.591   1.673   4.416  0.3768  0.5311 -0.5646
    1OL    H16R 6934   2.646   1.582   4.440 -2.7784 -1.0566  0.9899
    1OL    H16S 6935   2.488   1.664   4.453 -0.4113 -0.0294 -2.8364
    1OL    C117 6936   2.653   1.789   4.495  0.0113  0.2046  0.1489
    1OL    H17R 6937   2.750   1.802   4.446 -2.1176 -0.2840 -4.4498
    1OL    H17S 6938   2.666   1.758   4.599  2.2000 -0.6692 -0.3441
    1OL    C118 6939   2.572   1.920   4.479 -0.0061  0.0701 -0.2837
    1OL    H18R 6940   2.467   1.910   4.506 -0.0666 -1.3906 -1.0277
    1OL    H18S 6941   2.578   1.955   4.376 -1.2141  0.8665 -0.0846
    1OL    H18T 6942   2.612   1.997   4.545 -0.3067  0.4939 -0.5910
    1PA    C116 6943   2.716   2.352   4.733  0.1196  0.4259  0.9483
    1PA    H16R 6944   2.803   2.301   4.775  2.2654  3.5995  0.5530
    1PA    H16S 6945   2.630   2.284   4.727  0.2762  0.3667 -0.7159
    1PA    H16T 6946   2.698   2.427   4.810  2.1540  2.4222 -0.4844
    1PA    C115 6947   2.742   2.412   4.594  0.2298 -0.3348  0.5787
    1PA    H15R 6948   2.814   2.492   4.607  0.7122 -0.6054 -0.4097
    1PA    H15S 6949   2.778   2.332   4.530 -3.3945 -0.3198 -1.6083
    1PA    C114 6950   2.619   2.473   4.525 -0.9021 -0.3122  0.8500
    1PA    H14R 6951   2.547   2.392   4.510  0.7655 -1.4685 -1.1492
    1PA    H14S 6952   2.572   2.552   4.585 -1.1591  0.8570 -0.8662
    1PA    C113 6953   2.658   2.536   4.381 -0.6096 -0.2162 -0.1913
    1PA    H13R 6954   2.722   2.624   4.384 -2.0658  0.9660 -2.5861
    1PA    H13S 6955   2.712   2.462   4.320  0.3616  1.5017 -1.4714
    1PA    C112 6956   2.530   2.568   4.304  0.1567 -0.3054  0.5517
    1PA    H12R 6957   2.457   2.490   4.324  0.7457 -1.0335 -0.1573
    1PA    H12S 6958   2.494   2.661   4.350 -1.4855 -1.2266  1.1664
    1PA    C111 6959   2.546   2.587   4.153  0.3543 -0.3620 -0.2310
    1PA    H11R 6960   2.650   2.613   4.131  0.3766 -1.9007 -2.1548
    1PA    H11S 6961   2.536   2.494   4.097 -0.6996  0.9080 -2.1925
    1PA    C110 6962   2.449   2.689   4.090 -0.1607 -0.1527 -0.2869
    1PA    H10R 6963   2.456   2.784   4.144  3.8354 -0.0625 -0.7735
    1PA    H10S 6964   2.479   2.700   3.986  0.3236 -1.5629 -0.3028
    1PA     C19 6965   2.297   2.645   4.091 -0.6708 -0.1652 -0.4861
    1PA     H9R 6966   2.246   2.686   4.003  0.7630  0.1465 -1.1926
    1PA     H9S 6967   2.288   2.537   4.086  1.7245 -0.4247  0.1049
    1PA     C18 6968   2.217   2.699   4.214  0.0930  0.3649 -0.7450
    1PA     H8R 6969   2.272   2.686   4.308 -0.3496  3.7326  0.0704
    1PA     H8S 6970   2.207   2.808   4.204 -1.9803  0.2598 -0.0476
    1PA     C17 6971   2.080   2.638   4.232 -0.4777  0.5584  0.3503
    1PA     H7R 6972   2.081   2.547   4.292 -2.0535 -0.1652 -0.6768
    1PA     H7S 6973   2.031   2.700   4.307 -2.2209 -0.0948 -0.2091
    1PA     C16 6974   1.982   2.634   4.109 -0.4327 -0.3177  0.4903
    1PA     H6R 6975   1.940   2.735   4.104 -1.7645 -0.8342  0.9558
    1PA     H6S 6976   2.034   2.615   4.015  0.0258  3.3148 -0.0536
    1PA     C15 6977   1.874   2.528   4.121  0.7812  0.3019  0.4274
    1PA     H5R 6978   1.909   2.425   4.125  0.3514  0.1619  0.6268
    1PA     H5S 6979   1.811   2.547   4.208  1.6488  0.1250  1.1027
    1PA     C14 6980   1.779   2.534   4.000 -0.1301 -0.3267  0.3584
    1PA     H4R 6981   1.835   2.535   3.906  2.0754  1.2012  1.6377
    1PA     H4S 6982   1.720   2.442   4.004 -0.7435 -0.0248 -1.3257
    1PA     C13 6983   1.675   2.645   3.993 -0.4208 -0.5391  0.2624
    1PA     H3R 6984   1.596   2.621   4.064 -0.2046 -2.5774 -0.1396
    1PA     H3S 6985   1.720   2.742   4.014 -0.7288 -0.6361  1.3686
    1PA     C12 6986   1.603   2.635   3.850 -0.0204 -0.7979  0.1725
    1PA     H2R 6987   1.588   2.529   3.831 -2.3752 -0.8023  1.8138
    1PA     H2S 6988   1.505   2.684   3.852  0.5841  0.4220  0.0787
    1PC     C11 6989   1.682   2.704   3.732  0.3605  0.3833  0.5619
    1PC     O12 6990   1.762   2.795   3.739  0.3985  0.2127 -0.0043
    1PC     O11 6991   1.662   2.643   3.613 -0.2912  0.3060  0.2016
    1PC      C1 6992   1.737   2.706   3.499  0.5575 -0.0177  0.5707
    1PC      HR 6993   1.699   2.807   3.481  0.9962 -0.1042 -0.9773
    1PC      HS 6994   1.846   2.708   3.507  1.1589 -1.9539 -4.9584
    1PC      C2 6995   1.708   2.625   3.367  0.3526 -0.3522 -0.6448
    1PC      HX 6996   1.786   2.634   3.290  0.7511  0.5909 -0.1373
    1PC      C3 6997   1.586   2.682   3.308  0.3468  0.7330 -0.0501
    1PC      HA 6998   1.505   2.654   3.375 -0.1951  1.3513 -0.4360
    1PC      HB 6999   1.590   2.790   3.288 -0.9457  0.1907 -3.7991
    1PC     O31 7000   1.560   2.628   3.175  0.3091 -0.4520 -0.1084
    1PC     P31 7001   1.626   2.674   3.044 -0.1798  0.3923  0.1157
    1PC     O32 7002   1.758   2.583   3.044 -0.6356 -0.0046  0.1841
    1PC     C31 7003   1.767   2.468   2.955 -0.2849 -0.7597 -0.5926
    1PC     H1A 7004   1.692   2.392   2.979 -1.2806  0.0797 -1.0307
    1PC     H1B 7005   1.760   2.502   2.851  0.6154 -0.2089 -0.4776
    1PC     C32 7006   1.906   2.388   2.979 -0.3874  0.0915 -0.2411
    1PC     H2A 7007   1.907   2.329   3.070 -0.4299  1.1814  0.4724
    1PC     H2B 7008   1.916   2.313   2.900 -0.2284 -1.4248  1.1869
    1PC     N31 7009   2.032   2.463   2.973  0.0675 -0.1847  0.1283
    1PC     C33 7010   2.057   2.517   2.838  0.2178  0.2936 -0.2781
    1PC     H3A 7011   2.022   2.620   2.834 -3.9354 -0.9488  1.6672
    1PC     H3B 7012   2.165   2.531   2.840 -0.0412  2.2117  2.8466
    1PC     H3C 7013   2.012   2.461   2.756  0.0535  0.0757 -0.0396
    1PC     C34 7014   2.037   2.571   3.079  0.7802 -0.1285  0.2074
    1PC     H4A 7015   1.981   2.663   3.064 -1.5831 -1.1506  2.4545
    1PC     H4B 7016   1.991   2.526   3.166 -2.2380 -0.6501 -1.5900
    1PC     H4C 7017   2.144   2.591   3.091  0.6012  0.9501 -0.0273
    1PC     C35 7018   2.150   2.367   3.009 -0.4414 -0.1841  0.6149
    1PC     H5A 7019   2.157   2.290   2.933 -1.7427 -2.1779  2.4657
    1PC     H5B 7020   2.137   2.326   3.109 -0.3788  0.6282  0.9649
    1PC     H5C 7021   2.244   2.422   2.999  0.6166 -1.2678  3.8180
    1PC     O33 7022   1.541   2.637   2.925  0.0908  0.1320  0.6028
    1PC     O34 7023   1.669   2.812   3.056  0.1394  0.6300 -0.2496
    1PC     O21 7024   1.699   2.491   3.410  0.2117 -0.0615  0.5030
    1PC     C21 7025   1.804   2.409   3.404  0.3110  0.1424 -0.6396
    1PC     O22 7026   1.918   2.434   3.361 -0.0163 -0.3203  0.0062
    1OL     C12 7027   1.763   2.272   3.453 -0.5561 -0.6214 -0.7230
    1OL     H2R 7028   1.813   2.194   3.396  2.4115  0.9214 -0.3599
    1OL     H2S 7029   1.660   2.262   3.418 -0.8356 -0.2472 -0.0201
    1OL     C13 7030   1.757   2.253   3.597 -0.5517 -0.5602 -0.4345
    1OL     H3R 7031   1.711   2.159   3.628  0.3352 -0.3095  1.7753
    1OL     H3S 7032   1.684   2.323   3.638 -0.5827 -1.3686  0.9332
    1OL     C14 7033   1.890   2.255   3.662  0.3658  0.3341 -0.2840
    1OL     H4R 7034   1.934   2.355   3.656  0.1358  0.4329 -0.3221
    1OL     H4S 7035   1.943   2.190   3.593  0.3267 -1.8026  1.6411
    1OL     C15 7036   1.909   2.197   3.811  0.1275 -0.0870  0.8341
    1OL     H5R 7037   1.883   2.092   3.827  1.3558 -0.6531 -0.6555
    1OL     H5S 7038   1.848   2.254   3.881  2.5235  1.4593  1.7313
    1OL     C16 7039   2.057   2.213   3.860  0.2801  0.3886  0.1927
    1OL     H6R 7040   2.080   2.318   3.876 -1.4386  0.5980  1.5193
    1OL     H6S 7041   2.118   2.168   3.783  1.7426  0.1384  1.4776
    1OL     C17 7042   2.082   2.139   3.992  0.4483 -0.9262  0.3775
    1OL     H7R 7043   2.054   2.036   3.973  0.0020 -0.8572  0.6442
    1OL     H7S 7044   2.012   2.188   4.060 -0.2527 -2.3809  0.7026
    1OL     C18 7045   2.229   2.168   4.030 -0.0546 -0.0771 -0.6935
    1OL     H8R 7046   2.236   2.271   4.065 -1.9259  0.5345 -2.0410
    1OL     H8S 7047   2.296   2.158   3.944 -0.4324  1.5585 -1.1890
    1OL     C19 7048   2.283   2.061   4.125 -0.2733  0.1312 -0.4976
    1OL     H9R 7049   2.292   1.959   4.091  3.2195  0.3978 -0.5364
    1OL    C110 7050   2.324   2.086   4.250  0.6212  0.0301  0.2480
    1OL    H10R 7051   2.353   1.998   4.307 -0.0392 -0.8960 -0.8211
    1OL    C111 7052   2.320   2.215   4.329  0.1738  0.0253  0.6155
    1OL    H11R 7053   2.259   2.295   4.287 -0.9487 -0.1753  1.8283
    1OL    H11S 7054   2.421   2.255   4.328  0.1679  0.0371  0.4719
    1OL    C112 7055   2.285   2.199   4.475 -0.5512  0.1863 -0.2132
    1OL    H12R 7056   2.262   2.294   4.525  0.3484  0.7763 -0.8977
    1OL    H12S 7057   2.379   2.161   4.517  0.2121  1.6434 -0.5437
    1OL    C113 7058   2.173   2.107   4.517  0.5890 -0.3720  0.0364
    1OL    H13R 7059   2.173   2.096   4.626  0.2851  0.1185  0.0860
    1OL    H13S 7060   2.195   2.012   4.468 -2.0251  0.1328 -2.1989
    1OL    C114 7061   2.042   2.163   4.472 -0.0788 -0.3629 -0.2287
    1OL    H14R 7062   2.059   2.194   4.369  0.8181  0.2239  0.0919
    1OL    H14S 7063   2.020   2.244   4.541 -0.8119 -1.7031  1.1539
    1OL    C115 7064   1.928   2.063   4.472  0.6152 -0.9935 -0.7662
    1OL    H15R 7065   1.839   2.110   4.429 -0.1063 -0.8437  0.8432
    1OL    H15S 7066   1.909   2.031   4.575  2.6332  1.1062  0.2849
    1OL    C116 7067   1.951   1.936   4.388 -0.1291 -0.1334  0.3136
    1OL    H16R 7068   2.036   1.888   4.436  1.5898  1.0486 -1.4901
    1OL    H16S 7069   1.995   1.956   4.291  0.3773 -0.4329  0.4830
    1OL    C117 7070   1.824   1.844   4.389 -0.0846  0.0721 -0.2433
    1OL    H17R 7071   1.739   1.911   4.372 -0.4896  0.0331  1.5511
    1OL    H17S 7072   1.816   1.797   4.487 -0.6974  0.5045 -0.0808
    1OL    C118 7073   1.847   1.749   4.272  0.9219 -0.2548  0.0868
    1OL    H18R 7074   1.753   1.704   4.240  0.8851 -0.0943 -0.0334
    1OL    H18S 7075   1.903   1.657   4.292 -1.1036 -1.3050  1.0335
    1OL    H18T 7076   1.886   1.798   4.182  0.8855 -0.1896  0.1069
    1PA    C116 7077   3.186   3.807   5.252  0.5843  0.0422 -0.1785
    1PA    H16R 7078   3.077   3.805   5.264  0.4687 -0.9335 -1.2892
    1PA    H16S 7079   3.211   3.910   5.227 -0.9383  0.1825 -1.1556
    1PA    H16T 7080   3.226   3.796   5.353 -1.7818 -0.9201  0.6987
    1PA    C115 7081   3.234   3.708   5.149 -0.2827 -0.4227 -0.0812
    1PA    H15R 7082   3.343   3.701   5.155 -0.2688 -0.2379 -0.1369
    1PA    H15S 7083   3.203   3.612   5.191 -1.6733  0.6539  1.4200
    1PA    C114 7084   3.182   3.732   4.998  1.0093  0.2745  0.4797
    1PA    H14R 7085   3.168   3.838   4.976 -0.6965 -0.2389 -1.0797
    1PA    H14S 7086   3.244   3.689   4.919 -1.1413 -0.4026 -0.8946
    1PA    C113 7087   3.044   3.670   4.981  0.6198 -0.0376 -0.3076
    1PA    H13R 7088   3.036   3.566   5.014  0.6956  0.2618  0.6474
    1PA    H13S 7089   2.985   3.727   5.053  2.7580  0.4096  1.1235
    1PA    C112 7090   2.990   3.689   4.834 -0.4768 -0.6734  0.1287
    1PA    H12R 7091   2.988   3.796   4.816  1.7470 -0.6311 -0.0686
    1PA    H12S 7092   3.059   3.648   4.759 -1.8549 -3.3039  0.2332
    1PA    C111 7093   2.851   3.634   4.808  0.0087 -0.1056  0.0068
    1PA    H11R 7094   2.859   3.525   4.816  0.0507 -0.2011 -1.2948
    1PA    H11S 7095   2.784   3.665   4.889  1.4245  0.9718  0.7965
    1PA    C110 7096   2.791   3.675   4.661  0.0522  0.9511  0.7604
    1PA    H10R 7097   2.683   3.671   4.669 -0.0762 -1.4488 -1.6434
    1PA    H10S 7098   2.820   3.777   4.635  0.1510  0.9154  0.7263
    1PA     C19 7099   2.825   3.571   4.558  0.2254  0.5559 -0.0156
    1PA     H9R 7100   2.933   3.558   4.544  0.3748  1.6374  0.1570
    1PA     H9S 7101   2.773   3.477   4.577 -2.3606  1.5308 -1.9446
    1PA     C18 7102   2.772   3.633   4.421  0.5046  0.4307  1.1064
    1PA     H8R 7103   2.681   3.694   4.433  0.0488 -0.0623  0.2015
    1PA     H8S 7104   2.834   3.718   4.393  0.8957  0.2521  1.4259
    1PA     C17 7105   2.736   3.522   4.316 -0.6282 -0.0018  0.1008
    1PA     H7R 7106   2.832   3.491   4.275  0.1523  0.4128  1.5719
    1PA     H7S 7107   2.681   3.439   4.361  0.3156 -1.6742 -1.7617
    1PA     C16 7108   2.647   3.567   4.197  0.8733  0.4622 -0.4898
    1PA     H6R 7109   2.545   3.588   4.227  1.0582  1.2754 -0.4259
    1PA     H6S 7110   2.689   3.659   4.156 -1.2048  0.8478 -1.7968
    1PA     C15 7111   2.645   3.460   4.082 -0.6568  0.6147 -0.4259
    1PA     H5R 7112   2.639   3.360   4.127  2.0689  0.3568 -0.5624
    1PA     H5S 7113   2.554   3.475   4.024 -0.3600  0.5186 -0.9166
    1PA     C14 7114   2.757   3.453   3.988  0.4919  0.0291  0.1452
    1PA     H4R 7115   2.747   3.540   3.922  1.2666 -1.5260 -2.0871
    1PA     H4S 7116   2.849   3.451   4.047  0.4238 -1.2652  0.2276
    1PA     C13 7117   2.759   3.329   3.898 -0.1417  0.5373 -0.5048
    1PA     H3R 7118   2.792   3.241   3.954  1.6207  1.3907 -0.1430
    1PA     H3S 7119   2.656   3.318   3.863  0.2301 -0.2624 -1.3869
    1PA     C12 7120   2.872   3.351   3.791 -0.1104 -0.4091  0.0660
    1PA     H2R 7121   2.963   3.373   3.848 -0.2184  1.0553 -0.2982
    1PA     H2S 7122   2.894   3.263   3.731  0.4498 -0.3804  0.2291
    1PC     C11 7123   2.842   3.470   3.704  0.0331  0.0303 -0.7395
    1PC     O12 7124   2.736   3.476   3.646  0.4121  0.0072  0.6360
    1PC     O11 7125   2.947   3.553   3.689 -0.9193  0.3080  0.2525
    1PC      C1 7126   2.933   3.668   3.605  0.7274  0.5877  0.2420
    1PC      HR 7127   2.908   3.632   3.505  0.4866  2.4064 -0.3817
    1PC      HS 7128   2.860   3.736   3.650 -1.4081 -0.6771 -1.2108
    1PC      C2 7129   3.067   3.735   3.584  0.4157  0.5132  0.7908
    1PC      HX 7130   3.041   3.827   3.531 -2.1236 -0.9579 -0.6187
    1PC      C3 7131   3.165   3.642   3.503 -0.0919  0.1212  0.4367
    1PC      HA 7132   3.253   3.634   3.567  0.9063  0.9749 -0.8168
    1PC      HB 7133   3.123   3.542   3.490  0.8136 -0.0978 -0.7496
    1PC     O31 7134   3.186   3.689   3.366  0.3871  0.3477  0.8936
    1PC     P31 7135   3.071   3.683   3.252  0.2239 -0.3152  0.1061
    1PC     O32 7136   2.985   3.545   3.273  0.1164  0.1575  0.6084
    1PC     C31 7137   2.963   3.448   3.164  0.2520 -0.4911 -0.5445
    1PC     H1A 7138   3.043   3.439   3.090 -1.0888 -0.6879 -2.0136
    1PC     H1B 7139   2.956   3.348   3.207  1.0781  0.6676  2.3558
    1PC     C32 7140   2.826   3.480   3.090  0.5321  0.9938 -0.5963
    1PC     H2A 7141   2.813   3.588   3.080 -2.2997  1.0135  2.4591
    1PC     H2B 7142   2.825   3.433   2.991 -1.5056 -0.0159 -0.1178
    1PC     N31 7143   2.704   3.439   3.163  0.5924 -0.5998  0.7437
    1PC     C33 7144   2.586   3.487   3.080  0.1542  0.2855 -0.9216
    1PC     H3A 7145   2.612   3.558   3.002  0.7035  1.3724  0.2397
    1PC     H3B 7146   2.539   3.393   3.049 -0.3263  0.7469 -1.6183
    1PC     H3C 7147   2.522   3.540   3.149  0.8769  1.7826 -1.3748
    1PC     C34 7148   2.699   3.293   3.182 -0.0571  0.5328  0.0573
    1PC     H4A 7149   2.603   3.277   3.229  0.1980 -0.1836  0.3314
    1PC     H4B 7150   2.701   3.259   3.078  2.8220  1.1155 -0.1235
    1PC     H4C 7151   2.782   3.260   3.245  0.3265  1.8936  0.2886
    1PC     C35 7152   2.689   3.494   3.302  0.0175  0.3174 -0.3669
    1PC     H5A 7153   2.588   3.468   3.332 -0.6118  1.2466 -1.6110
    1PC     H5B 7154   2.682   3.603   3.296  0.8807  0.2708 -3.4058
    1PC     H5C 7155   2.765   3.458   3.371 -1.6038  1.6633  2.2123
    1PC     O33 7156   2.972   3.793   3.285  0.1714 -0.2467 -0.1516
    1PC     O34 7157   3.139   3.679   3.117  0.4451 -0.0326  0.1173
    1PC     O21 7158   3.127   3.752   3.712  0.2743  0.3313  0.3000
    1PC     C21 7159   3.113   3.870   3.775 -0.0900 -0.8243  0.6014
    1PC     O22 7160   3.072   3.968   3.712  0.3583 -0.0967 -0.4872
    1OL     C12 7161   3.147   3.861   3.927 -0.0156 -0.0807  0.2168
    1OL     H2R 7162   3.240   3.806   3.921 -0.1993 -0.2521 -1.1928
    1OL     H2S 7163   3.074   3.795   3.974 -0.5163  0.3914  0.1191
    1OL     C13 7164   3.167   3.995   3.996 -0.2739 -0.0994  0.9303
    1OL     H3R 7165   3.073   4.050   3.984  2.3296  4.8917  2.1668
    1OL     H3S 7166   3.247   4.055   3.953  1.1963 -1.6514  1.4437
    1OL     C14 7167   3.206   3.971   4.142  0.6398  0.2311  0.1520
    1OL     H4R 7168   3.233   4.066   4.189  1.3487  0.7500 -1.2872
    1OL     H4S 7169   3.297   3.911   4.133  1.2424  1.0401  0.7984
    1OL     C15 7170   3.095   3.896   4.228  0.1707  0.0106 -0.0055
    1OL     H5R 7171   3.089   3.792   4.193 -0.1178  0.0526 -0.0883
    1OL     H5S 7172   3.002   3.952   4.213 -0.2704 -0.0462  2.3665
    1OL     C16 7173   3.126   3.896   4.376  0.1797  0.0917  0.3322
    1OL     H6R 7174   3.042   3.848   4.426  1.7242 -0.4015  2.4917
    1OL     H6S 7175   3.134   3.998   4.416 -0.1432  0.9196 -1.6161
    1OL     C17 7176   3.253   3.811   4.413 -0.1541  0.6618  0.2718
    1OL     H7R 7177   3.339   3.835   4.350 -0.4388  0.6041 -0.1417
    1OL     H7S 7178   3.239   3.706   4.390 -1.4395  1.1255 -1.1316
    1OL     C18 7179   3.277   3.824   4.564 -0.0867 -0.3152 -0.1340
    1OL     H8R 7180   3.185   3.808   4.620 -0.0132 -0.9934 -0.2067
    1OL     H8S 7181   3.305   3.927   4.587 -1.6176  0.2553 -0.7756
    1OL     C19 7182   3.381   3.726   4.613  1.1782  0.2322 -0.0114
    1OL     H9R 7183   3.374   3.631   4.559  0.8174  0.0586  0.3405
    1OL    C110 7184   3.483   3.746   4.694 -0.4320 -0.8423  0.3669
    1OL    H10R 7185   3.560   3.674   4.719 -1.1828 -0.5117  3.9632
    1OL    C111 7186   3.512   3.879   4.764 -0.3620  0.6147 -0.4014
    1OL    H11R 7187   3.452   3.887   4.854  0.2898 -3.4398  0.5101
    1OL    H11S 7188   3.497   3.961   4.693  0.3409  0.3918 -0.8235
    1OL    C112 7189   3.670   3.889   4.785 -0.1112 -0.1750 -0.5022
    1OL    H12R 7190   3.701   3.993   4.794  0.3634 -0.2841 -0.8639
    1OL    H12S 7191   3.711   3.855   4.690 -2.4154 -0.4716 -1.4116
    1OL    C113 7192   3.730   3.797   4.891  0.2121  0.0295 -0.1565
    1OL    H13R 7193   3.835   3.824   4.899  0.1157  0.4545 -0.3523
    1OL    H13S 7194   3.722   3.691   4.864  1.5704  0.1933 -1.2302
    1OL    C114 7195   3.658   3.810   5.030 -0.5103 -0.7926  0.1744
    1OL    H14R 7196   3.712   3.738   5.091 -1.1321 -0.8091  0.7047
    1OL    H14S 7197   3.557   3.770   5.028 -1.1585  0.8197 -0.5683
    1OL    C115 7198   3.641   3.949   5.097  0.7325  0.3358  0.4072
    1OL    H15R 7199   3.562   4.006   5.048  0.2737  0.1673  0.9480
    1OL    H15S 7200   3.733   4.009   5.089 -0.1369  1.9354  1.9355
    1OL    C116 7201   3.607   3.949   5.249 -0.3671  0.3563  0.2275
    1OL    H16R 7202   3.681   3.905   5.315 -0.2626  0.2496  0.0409
    1OL    H16S 7203   3.510   3.901   5.247 -0.0910 -0.2087  0.3416
    1OL    C117 7204   3.585   4.091   5.302 -0.1231  0.0925 -0.4466
    1OL    H17R 7205   3.521   4.154   5.241  1.1610  0.7084 -1.1630
    1OL    H17S 7206   3.679   4.145   5.311 -1.2764  1.8509  1.5794
    1OL    C118 7207   3.528   4.083   5.440  0.1241  0.8271  0.6408
    1OL    H18R 7208   3.605   4.035   5.501 -1.2603 -1.8975  0.3434
    1OL    H18S 7209   3.434   4.026   5.446 -0.9002  2.4840  0.6662
    1OL    H18T 7210   3.506   4.179   5.487  0.1269  2.2871 -2.2754
    1PA    C116 7211   4.004   1.859   4.976 -0.6110 -0.9658 -0.0777
    1PA    H16R 7212   3.915   1.819   5.025 -1.1060  0.1478 -0.0525
    1PA    H16S 7213   4.086   1.860   5.049 -1.8496 -2.1030  1.3754
    1PA    H16T 7214   4.032   1.791   4.895 -0.2970 -1.4551  0.4287
    1PA    C115 7215   3.973   1.993   4.915 -0.1375 -0.3604 -0.4248
    1PA    H15R 7216   3.885   1.993   4.850 -0.2054 -2.5797 -0.3619
    1PA    H15S 7217   3.937   2.054   4.998  1.4650  0.8256 -0.5713
    1PA    C114 7218   4.086   2.063   4.840  0.3451  0.0751 -0.5763
    1PA    H14R 7219   4.180   2.059   4.895 -0.0656  0.5350  0.1529
    1PA    H14S 7220   4.093   1.996   4.753  1.0084 -0.7401  0.1004
    1PA    C113 7221   4.063   2.204   4.781  0.0799  0.5601 -0.2571
    1PA    H13R 7222   3.977   2.192   4.715 -0.6340 -0.2664  0.8010
    1PA    H13S 7223   4.047   2.280   4.859 -3.1917 -0.0523 -0.2695
    1PA    C112 7224   4.179   2.255   4.703  0.0268 -0.3524  0.3130
    1PA    H12R 7225   4.192   2.180   4.624 -3.2108 -2.9259  2.1255
    1PA    H12S 7226   4.150   2.351   4.660  2.5031 -0.2495 -1.2858
    1PA    C111 7227   4.304   2.282   4.794 -0.0083  0.7056 -0.3572
    1PA    H11R 7228   4.288   2.372   4.853 -1.2020 -0.8765  1.8207
    1PA    H11S 7229   4.321   2.196   4.859 -0.2842  0.0655 -1.1142
    1PA    C110 7230   4.439   2.306   4.726  0.1925 -0.5174 -0.6628
    1PA    H10R 7231   4.500   2.362   4.797 -2.4292  0.2101  1.1107
    1PA    H10S 7232   4.477   2.207   4.703 -0.4555 -0.7344 -0.8182
    1PA     C19 7233   4.424   2.400   4.606  0.2183  0.1429 -0.4083
    1PA     H9R 7234   4.523   2.413   4.562  0.1939  0.3921 -0.3886
    1PA     H9S 7235   4.359   2.352   4.532 -0.1953 -1.1367  0.7621
    1PA     C18 7236   4.373   2.543   4.633  0.6856  1.0650 -0.0672
    1PA     H8R 7237   4.265   2.539   4.650  0.8557  3.5661  1.9900
    1PA     H8S 7238   4.413   2.582   4.727  0.4880  1.8824 -0.3185
    1PA     C17 7239   4.385   2.631   4.508 -0.6531  0.1244  0.0270
    1PA     H7R 7240   4.324   2.719   4.524 -0.2462  0.5074 -0.4899
    1PA     H7S 7241   4.490   2.662   4.510 -0.3748 -0.7534 -0.6822
    1PA     C16 7242   4.344   2.558   4.378 -0.3178 -0.3838  0.4131
    1PA     H6R 7243   4.426   2.496   4.342  1.6343  2.8789 -1.0119
    1PA     H6S 7244   4.256   2.495   4.388 -1.5363  1.1666 -0.3513
    1PA     C15 7245   4.312   2.668   4.271  0.3429  0.5316 -0.7191
    1PA     H5R 7246   4.257   2.755   4.307  0.5171  0.1458  0.4676
    1PA     H5S 7247   4.409   2.703   4.234  2.0973 -1.7571  1.5319
    1PA     C14 7248   4.249   2.625   4.138 -0.9314  0.6726  0.4262
    1PA     H4R 7249   4.307   2.538   4.106 -1.9265  0.0834  0.2221
    1PA     H4S 7250   4.143   2.611   4.159 -0.6737  0.6243  1.7344
    1PA     C13 7251   4.264   2.734   4.022 -0.3325  0.1679  0.9341
    1PA     H3R 7252   4.218   2.826   4.058 -0.7964  0.6315 -0.8144
    1PA     H3S 7253   4.367   2.768   4.009 -0.9758  2.0704  0.6796
    1PA     C12 7254   4.209   2.690   3.890 -0.5642 -0.0534  0.1810
    1PA     H2R 7255   4.245   2.589   3.868 -0.2330  0.5160 -2.0969
    1PA     H2S 7256   4.103   2.702   3.867 -0.1371  1.3458 -1.1625
    1PC     C11 7257   4.268   2.774   3.778  0.4175  0.3332  0.6721
    1PC     O12 7258   4.372   2.752   3.721 -0.0533  0.2506  0.0484
    1PC     O11 7259   4.194   2.889   3.752  0.9367  0.4887  0.6887
    1PC      C1 7260   4.211   2.951   3.618  0.2901 -0.4762 -0.1799
    1PC      HR 7261   4.154   3.043   3.628  2.1355  0.7530 -0.7899
    1PC      HS 7262   4.317   2.955   3.591  0.1264 -0.3512 -0.8236
    1PC      C2 7263   4.147   2.860   3.512  0.8453 -0.3767  0.5599
    1PC      HX 7264   4.210   2.775   3.486  0.0379 -0.0817 -2.5583
    1PC      C3 7265   4.139   2.940   3.377  0.1360 -0.1823  0.4288
    1PC      HA 7266   4.105   3.044   3.389 -0.8924 -0.3945 -0.5426
    1PC      HB 7267   4.236   2.946   3.327  0.3950 -0.3451  0.9086
    1PC     O31 7268   4.038   2.874   3.295  0.2613  0.2396 -0.0034
    1PC     P31 7269   4.071   2.785   3.163  0.0495 -0.3155 -0.1594
    1PC     O32 7270   4.116   2.896   3.056 -0.0623  0.0554 -0.2767
    1PC     C31 7271   4.254   2.946   3.046 -0.8791 -0.7309 -0.2278
    1PC     H1A 7272   4.246   3.041   2.993  2.1466 -0.4459 -0.2597
    1PC     H1B 7273   4.300   2.962   3.144 -0.5124  0.5495 -0.6027
    1PC     C32 7274   4.346   2.844   2.969 -0.4233  0.1536 -0.2139
    1PC     H2A 7275   4.446   2.885   2.981 -0.0120 -1.0865  0.6669
    1PC     H2B 7276   4.334   2.747   3.017  1.1656 -0.6059 -1.3147
    1PC     N31 7277   4.321   2.812   2.827  0.0662 -0.1451 -0.3586
    1PC     C33 7278   4.316   2.935   2.738  0.3105 -0.1855  0.0737
    1PC     H3A 7279   4.291   2.902   2.637 -2.2954 -1.6289  1.1223
    1PC     H3B 7280   4.231   2.993   2.777  0.8374  0.6004  0.0697
    1PC     H3C 7281   4.406   2.996   2.740 -0.7782  1.4614  1.9140
    1PC     C34 7282   4.428   2.723   2.775  0.1753  0.4866  0.0270
    1PC     H4A 7283   4.525   2.772   2.785  1.3415 -1.8735  0.7861
    1PC     H4B 7284   4.427   2.633   2.837  2.2954 -0.2109 -0.8826
    1PC     H4C 7285   4.392   2.696   2.676 -0.9285  0.7338  0.3478
    1PC     C35 7286   4.193   2.734   2.800  0.1980 -0.3470  0.4366
    1PC     H5A 7287   4.195   2.652   2.872  1.1657 -1.1172 -0.4530
    1PC     H5B 7288   4.173   2.700   2.698 -1.6064 -0.8142  0.9238
    1PC     H5C 7289   4.109   2.799   2.826 -0.0815 -0.2771 -0.6000
    1PC     O33 7290   4.186   2.693   3.198  0.4635 -0.2142  0.0671
    1PC     O34 7291   3.942   2.731   3.127  0.4903  0.5387 -0.0240
    1PC     O21 7292   4.013   2.828   3.553  0.1335 -0.7432 -0.3156
    1PC     C21 7293   3.977   2.698   3.551  0.1186 -0.2558 -0.7158
    1PC     O22 7294   4.055   2.599   3.538 -0.3049  0.3172  0.3201
    1OL     C12 7295   3.824   2.669   3.562 -0.7917 -0.2066  0.1828
    1OL     H2R 7296   3.780   2.643   3.465 -0.0503  0.5191 -0.3581
    1OL     H2S 7297   3.770   2.756   3.600 -0.1017  0.6298 -0.7229
    1OL     C13 7298   3.791   2.554   3.657 -1.2036  0.0051 -0.1135
    1OL     H3R 7299   3.846   2.465   3.626  0.7845  1.1414  0.0347
    1OL     H3S 7300   3.684   2.535   3.647 -1.2204  0.6002 -1.0897
    1OL     C14 7301   3.824   2.569   3.810  0.4174  0.5244 -0.0701
    1OL     H4R 7302   3.742   2.625   3.856 -1.1361  0.3598 -2.5321
    1OL     H4S 7303   3.915   2.628   3.823  0.2023  1.0077 -0.6990
    1OL     C15 7304   3.842   2.434   3.880 -0.1109 -0.1803 -0.0514
    1OL     H5R 7305   3.937   2.390   3.851 -0.2118 -1.2738  1.1989
    1OL     H5S 7306   3.763   2.366   3.847 -2.9733  2.1269  1.7938
    1OL     C16 7307   3.840   2.446   4.035  0.3270  0.0310 -0.1434
    1OL     H6R 7308   3.763   2.512   4.075 -0.4300  0.8557 -2.8766
    1OL     H6S 7309   3.939   2.465   4.076 -0.8629  1.8813  1.9484
    1OL     C17 7310   3.808   2.305   4.091  0.1992  0.7498 -0.4793
    1OL     H7R 7311   3.896   2.242   4.073  0.6290  0.7099  1.6651
    1OL     H7S 7312   3.716   2.277   4.040 -0.2076  0.0659  0.6304
    1OL     C18 7313   3.780   2.315   4.245 -0.0266  0.0176 -0.2049
    1OL     H8R 7314   3.746   2.215   4.272 -1.6709  0.5913 -0.0867
    1OL     H8S 7315   3.708   2.396   4.262 -0.3962 -1.0060  3.4908
    1OL     C19 7316   3.907   2.337   4.321  0.1123  0.2446  0.2509
    1OL     H9R 7317   3.972   2.252   4.336 -2.4286 -1.6586  0.9307
    1OL    C110 7318   3.940   2.451   4.384 -0.2194 -0.0564  0.1974
    1OL    H10R 7319   4.032   2.448   4.443  0.4523 -3.7126 -0.9105
    1OL    C111 7320   3.872   2.582   4.395 -0.0674  0.0420  0.0433
    1OL    H11R 7321   3.775   2.579   4.346  0.5804  0.6872 -1.3348
    1OL    H11S 7322   3.935   2.647   4.333 -0.7100  0.3624 -0.2812
    1OL    C112 7323   3.882   2.644   4.533 -0.6040 -0.7323  0.4304
    1OL    H12R 7324   3.799   2.599   4.589 -1.5869  0.4928 -0.0248
    1OL    H12S 7325   3.856   2.749   4.526  1.9154 -0.0200  1.2782
    1OL    C113 7326   4.013   2.634   4.603 -0.1156  0.8331 -0.2888
    1OL    H13R 7327   4.085   2.637   4.520  0.5798  1.0794  0.3175
    1OL    H13S 7328   4.022   2.529   4.632 -0.3017  0.5519 -1.2404
    1OL    C114 7329   4.050   2.739   4.703 -0.0799  1.2331 -0.1546
    1OL    H14R 7330   4.052   2.837   4.654  2.1091  1.1803 -0.2364
    1OL    H14S 7331   4.154   2.719   4.730  0.5574  1.5656 -2.2380
    1OL    C115 7332   3.957   2.748   4.828 -0.0769  0.1491 -0.0995
    1OL    H15R 7333   3.851   2.750   4.802 -0.6605 -2.5554  1.8870
    1OL    H15S 7334   3.990   2.830   4.892 -0.3522  0.6534 -0.6033
    1OL    C116 7335   3.955   2.630   4.918 -0.0886 -0.1074 -0.4715
    1OL    H16R 7336   3.923   2.545   4.858  0.6552 -1.4942  1.0538
    1OL    H16S 7337   3.882   2.654   4.995 -1.0971 -0.3124 -1.3573
    1OL    C117 7338   4.092   2.588   4.978  0.1425 -0.0085  0.1570
    1OL    H17R 7339   4.144   2.681   5.006 -3.0336  1.0189  2.9256
    1OL    H17S 7340   4.146   2.525   4.906 -3.3570 -1.6278 -1.1705
    1OL    C118 7341   4.086   2.505   5.106 -0.5583  0.4943 -0.2490
    1OL    H18R 7342   4.023   2.418   5.090  1.0853 -0.1042 -4.1879
    1OL    H18S 7343   4.046   2.571   5.183 -1.2774  0.8485 -0.9088
    1OL    H18T 7344   4.188   2.475   5.132  0.1915  3.0881 -0.0245
    1PA    C116 7345   3.828   3.054   4.838 -0.6532  0.2159  0.1553
    1PA    H16R 7346   3.922   3.015   4.878  0.6593  2.3854 -0.7178
    1PA    H16S 7347   3.794   2.981   4.765  1.6645 -0.7251 -0.0270
    1PA    H16T 7348   3.756   3.066   4.920 -0.9310 -0.9892  0.1070
    1PA    C115 7349   3.860   3.189   4.767 -0.3784  0.4570  0.4349
    1PA    H15R 7350   3.775   3.250   4.734  0.6268  0.6506 -1.8822
    1PA    H15S 7351   3.906   3.263   4.833  0.0125  0.0910  0.5739
    1PA    C114 7352   3.947   3.152   4.645  0.8018 -0.4003  0.7191
    1PA    H14R 7353   3.986   3.244   4.602 -2.9497  0.2193 -1.6043
    1PA    H14S 7354   4.034   3.092   4.671  0.5809 -0.6008  0.9910
    1PA    C113 7355   3.874   3.093   4.527 -0.5602  0.1034 -0.1218
    1PA    H13R 7356   3.823   3.002   4.560 -0.3635  0.1427  0.2914
    1PA    H13S 7357   3.789   3.158   4.505 -0.2676  0.2028 -0.9714
    1PA    C112 7358   3.969   3.061   4.411  0.1081 -0.1703 -0.0720
    1PA    H12R 7359   4.029   3.151   4.392 -0.7848  0.7403  1.2932
    1PA    H12S 7360   4.034   2.979   4.441 -1.4334 -1.3426  0.1372
    1PA    C111 7361   3.892   3.021   4.286  0.5704 -0.1474  0.2882
    1PA    H11R 7362   3.830   2.932   4.300  0.3081  0.2409  1.6505
    1PA    H11S 7363   3.829   3.104   4.255  1.1159  0.6386  1.2803
    1PA    C110 7364   3.996   3.003   4.170  0.7012 -0.1162 -0.3979
    1PA    H10R 7365   4.039   3.098   4.138 -0.0503 -0.4152 -2.3544
    1PA    H10S 7366   4.082   2.943   4.201  1.1172 -0.1775 -1.6255
    1PA     C19 7367   3.930   2.933   4.050  0.2824 -0.7610  0.4814
    1PA     H9R 7368   4.002   2.923   3.968  0.6028  0.0088  0.6576
    1PA     H9S 7369   3.908   2.830   4.080  1.5343 -1.1570  0.1042
    1PA     C18 7370   3.798   2.996   3.991  0.1441  0.2979  0.0806
    1PA     H8R 7371   3.779   2.930   3.906  2.1854 -0.2787  0.0283
    1PA     H8S 7372   3.720   2.994   4.067  0.5929 -0.8964  0.5199
    1PA     C17 7373   3.802   3.144   3.953  0.0859  0.1098 -0.2785
    1PA     H7R 7374   3.706   3.175   3.909 -0.0599 -2.1447 -1.6498
    1PA     H7S 7375   3.815   3.197   4.048  1.3077 -0.8346  0.0866
    1PA     C16 7376   3.902   3.167   3.847 -0.2422  0.5855  0.2473
    1PA     H6R 7377   3.998   3.142   3.893 -0.5417 -1.5895 -0.2384
    1PA     H6S 7378   3.871   3.090   3.776 -2.8435  0.5654  1.3537
    1PA     C15 7379   3.908   3.306   3.793  0.3532  0.0785 -0.8117
    1PA     H5R 7380   3.922   3.374   3.877 -0.6531 -2.3867  1.3976
    1PA     H5S 7381   3.989   3.324   3.722 -0.0335  0.8143 -1.0689
    1PA     C14 7382   3.772   3.347   3.721  0.4026  0.5815  0.3611
    1PA     H4R 7383   3.690   3.352   3.793  0.7103  2.9114  0.5749
    1PA     H4S 7384   3.783   3.450   3.688 -0.9794  0.4900 -0.4313
    1PA     C13 7385   3.727   3.265   3.597  0.3694 -0.1390  0.0556
    1PA     H3R 7386   3.812   3.263   3.528 -0.3405 -1.0111 -0.8015
    1PA     H3S 7387   3.721   3.164   3.638  1.7219  0.2907  1.3813
    1PA     C12 7388   3.593   3.288   3.524 -0.4615  0.6463 -0.3892
    1PA     H2R 7389   3.558   3.200   3.470  3.2220 -0.1658 -1.5900
    1PA     H2S 7390   3.524   3.306   3.607 -0.5388 -1.6652  0.1034
    1PC     C11 7391   3.601   3.416   3.448 -0.0638  0.1036  0.2694
    1PC     O12 7392   3.647   3.405   3.333  0.9672 -0.1592 -0.1486
    1PC     O11 7393   3.572   3.532   3.521 -0.1997  0.4225 -0.4561
    1PC      C1 7394   3.606   3.648   3.447  0.0385  0.7761  0.2057
    1PC      HR 7395   3.714   3.658   3.457  0.3951 -2.1403 -0.2469
    1PC      HS 7396   3.581   3.639   3.341 -0.6141 -0.9488  0.4984
    1PC      C2 7397   3.528   3.780   3.493  0.3933 -0.1635 -0.6488
    1PC      HX 7398   3.420   3.761   3.503  0.5147  0.0136  1.1077
    1PC      C3 7399   3.533   3.889   3.393 -0.2136 -0.2022  0.6796
    1PC      HA 7400   3.459   3.876   3.314 -0.3680 -0.0332  0.7935
    1PC      HB 7401   3.516   3.985   3.443 -0.2903  1.1052 -1.7953
    1PC     O31 7402   3.663   3.892   3.341 -0.1771 -0.0408 -0.1099
    1PC     P31 7403   3.720   3.981   3.225  0.3414  0.1931 -0.0879
    1PC     O32 7404   3.771   4.102   3.302  0.0668 -0.1772 -0.1002
    1PC     C31 7405   3.906   4.140   3.327 -0.0267  0.7313 -0.2205
    1PC     H1A 7406   3.918   4.203   3.415  1.2780  1.0173 -0.6025
    1PC     H1B 7407   3.968   4.050   3.338  0.0803  0.8629  0.2543
    1PC     C32 7408   3.969   4.216   3.212  0.2945  0.1353 -0.1457
    1PC     H2A 7409   3.949   4.161   3.120  2.1329 -0.0376 -0.4585
    1PC     H2B 7410   3.910   4.308   3.210  0.5809  0.3122 -4.8941
    1PC     N31 7411   4.120   4.225   3.222 -0.1626  0.2762  0.0896
    1PC     C33 7412   4.153   4.304   3.104 -0.4266 -0.0651 -0.4610
    1PC     H3A 7413   4.133   4.408   3.130  0.4682 -0.3640  1.5232
    1PC     H3B 7414   4.259   4.283   3.085 -0.4319 -1.1679  0.6486
    1PC     H3C 7415   4.087   4.271   3.024 -0.9784 -0.5496  0.1882
    1PC     C34 7416   4.168   4.288   3.348  0.7857  0.0103 -0.3572
    1PC     H4A 7417   4.140   4.220   3.428  1.9529  1.2816  1.1774
    1PC     H4B 7418   4.277   4.294   3.350  0.7254  1.1131  0.4208
    1PC     H4C 7419   4.131   4.387   3.374  1.0775  0.2793 -0.9387
    1PC     C35 7420   4.176   4.087   3.191 -0.3963  0.1754 -0.5451
    1PC     H5A 7421   4.145   4.049   3.094 -1.7519  0.7989 -0.3666
    1PC     H5B 7422   4.134   4.013   3.259 -1.1318 -0.4797 -1.6904
    1PC     H5C 7423   4.284   4.085   3.205 -0.3242  2.1720 -0.5970
    1PC     O33 7424   3.836   3.918   3.151 -0.4893  0.6848 -0.1193
    1PC     O34 7425   3.618   4.029   3.140 -0.2135  0.1372  0.3529
    1PC     O21 7426   3.582   3.824   3.616  0.4217 -0.5871  0.5240
    1PC     C21 7427   3.501   3.880   3.711  0.6627 -0.0951 -0.0856
    1PC     O22 7428   3.381   3.884   3.700  0.7512 -0.3756 -0.7619
    1OL     C12 7429   3.580   3.953   3.827 -0.4394 -0.0131  0.2039
    1OL     H2R 7430   3.523   4.039   3.865 -0.7184 -0.5580  1.0271
    1OL     H2S 7431   3.671   4.002   3.791 -0.5904  1.8547  2.1828
    1OL     C13 7432   3.619   3.858   3.943 -0.1787 -0.3335  0.7101
    1OL     H3R 7433   3.525   3.822   3.985 -0.8420 -2.4459 -2.4385
    1OL     H3S 7434   3.688   3.888   4.023  0.4091 -0.8167  0.3872
    1OL     C14 7435   3.690   3.731   3.884  0.2555  0.2739  0.4660
    1OL     H4R 7436   3.770   3.764   3.817 -0.4024  0.7896 -0.0711
    1OL     H4S 7437   3.615   3.674   3.828  0.5255 -0.8043  1.1965
    1OL     C15 7438   3.744   3.635   3.997  0.0649  0.0021 -0.0330
    1OL     H5R 7439   3.837   3.673   4.040 -0.1563  0.0047  0.4435
    1OL     H5S 7440   3.771   3.543   3.943 -0.0828 -0.0641  0.0061
    1OL     C16 7441   3.640   3.596   4.103  0.0283  0.0993 -0.3811
    1OL     H6R 7442   3.544   3.561   4.065 -0.7887  1.0550  0.7430
    1OL     H6S 7443   3.620   3.682   4.167 -2.2073 -0.4815 -0.2703
    1OL     C17 7444   3.694   3.489   4.201  0.5837  0.0555  0.4561
    1OL     H7R 7445   3.745   3.409   4.148  0.3635  0.1430  0.1102
    1OL     H7S 7446   3.603   3.439   4.234  2.3059 -4.2918 -1.1271
    1OL     C18 7447   3.775   3.539   4.323  0.0653  0.1210  0.0775
    1OL     H8R 7448   3.824   3.458   4.379  3.2950  1.9525  0.0043
    1OL     H8S 7449   3.703   3.582   4.393 -1.4028  0.2034 -1.4674
    1OL     C19 7450   3.892   3.628   4.293 -0.5170 -0.9200 -0.6397
    1OL     H9R 7451   3.861   3.732   4.285 -1.1199 -1.2591 -2.7430
    1OL    C110 7452   4.021   3.594   4.278  0.1337 -0.0993 -0.5048
    1OL    H10R 7453   4.084   3.674   4.238  1.9298 -0.3635  1.6559
    1OL    C111 7454   4.080   3.450   4.289  0.5703 -0.0707  0.1288
    1OL    H11R 7455   4.086   3.401   4.192 -2.2435  0.8227 -0.5382
    1OL    H11S 7456   4.026   3.378   4.350  0.1823  0.9635  1.0180
    1OL    C112 7457   4.227   3.449   4.339 -0.2579  0.2727 -0.0294
    1OL    H12R 7458   4.288   3.508   4.271 -0.9201  2.8277  1.5079
    1OL    H12S 7459   4.266   3.348   4.330  0.4838  0.6614 -1.3240
    1OL    C113 7460   4.251   3.489   4.477  0.0118 -1.0013 -0.9298
    1OL    H13R 7461   4.157   3.461   4.524 -0.1152 -0.0724 -0.6211
    1OL    H13S 7462   4.255   3.598   4.490  1.2236 -0.9262 -1.8180
    1OL    C114 7463   4.363   3.416   4.548 -0.2277 -0.1766  0.1927
    1OL    H14R 7464   4.454   3.451   4.498 -0.3945 -1.1879 -0.8591
    1OL    H14S 7465   4.364   3.310   4.522  3.0842 -0.3836  0.9881
    1OL    C115 7466   4.379   3.426   4.699 -0.0399  0.2493 -1.0191
    1OL    H15R 7467   4.450   3.353   4.736  2.2451  3.7622  1.8675
    1OL    H15S 7468   4.282   3.399   4.740  0.8758  1.6579  2.2312
    1OL    C116 7469   4.412   3.565   4.742  0.0373  0.0791 -0.0383
    1OL    H16R 7470   4.326   3.631   4.731  1.1411  2.0115  2.3187
    1OL    H16S 7471   4.487   3.616   4.681  1.4137  1.7741  2.9516
    1OL    C117 7472   4.452   3.556   4.892 -0.2326 -0.3733 -0.3276
    1OL    H17R 7473   4.552   3.514   4.903  1.1266  3.1163  1.4097
    1OL    H17S 7474   4.388   3.505   4.964  1.1295 -1.2635  0.2847
    1OL    C118 7475   4.455   3.702   4.942 -0.4313 -0.7196  0.0801
    1OL    H18R 7476   4.357   3.751   4.942  0.4882  1.2245 -1.9848
    1OL    H18S 7477   4.512   3.769   4.878 -1.6060 -0.4508 -0.7129
    1OL    H18T 7478   4.492   3.693   5.044  3.2447 -1.1207 -1.2233
    1PA    C116 7479   4.620   0.470   4.888  0.0456 -0.5769  0.2303
    1PA    H16R 7480   4.621   0.447   4.781  2.0571 -0.0406  0.1096
    1PA    H16S 7481   4.540   0.542   4.903 -0.1581 -0.8285  0.3421
    1PA    H16T 7482   4.592   0.374   4.931  0.4250 -0.9528 -0.3539
    1PA    C115 7483   4.754   0.523   4.926 -0.1525  0.5440  0.0104
    1PA    H15R 7484   4.743   0.546   5.032  0.6310  3.6895 -0.5517
    1PA    H15S 7485   4.827   0.441   4.925 -0.5620  0.1445  2.0432
    1PA    C114 7486   4.803   0.649   4.848  0.3983  0.2969  0.3929
    1PA    H14R 7487   4.909   0.668   4.866  0.5542 -0.0805 -0.1298
    1PA    H14S 7488   4.799   0.635   4.740 -0.5133  1.8813  0.2084
    1PA    C113 7489   4.718   0.770   4.880 -0.2099 -0.9631  0.0408
    1PA    H13R 7490   4.617   0.747   4.846 -1.2398  2.7927  0.3774
    1PA    H13S 7491   4.718   0.796   4.986 -3.1168  1.7660 -0.5671
    1PA    C112 7492   4.776   0.899   4.812 -0.0997 -0.2589 -0.8048
    1PA    H12R 7493   4.706   0.970   4.857 -0.1426  0.5451 -2.1317
    1PA    H12S 7494   4.876   0.914   4.853 -0.8145  1.8685  0.2399
    1PA    C111 7495   4.772   0.902   4.660  0.4727 -0.0228  0.3638
    1PA    H11R 7496   4.845   0.831   4.619  0.1993 -0.6687  0.9885
    1PA    H11S 7497   4.672   0.876   4.624  1.3088 -0.7872 -1.5160
    1PA    C110 7498   4.802   1.041   4.595 -0.1292 -0.9386  0.2892
    1PA    H10R 7499   4.739   1.121   4.635  0.7537  0.0389 -0.2435
    1PA    H10S 7500   4.904   1.078   4.611 -0.9701  0.9202  1.6785
    1PA     C19 7501   4.787   1.042   4.440 -0.1580  0.2136  0.1079
    1PA     H9R 7502   4.850   0.969   4.389 -0.5659 -1.7059  2.2614
    1PA     H9S 7503   4.683   1.011   4.424 -0.0727  1.2833 -2.8102
    1PA     C18 7504   4.814   1.181   4.378 -0.3862  0.0071  0.3788
    1PA     H8R 7505   4.749   1.250   4.431  0.6458 -0.6105  2.5037
    1PA     H8S 7506   4.913   1.216   4.410 -0.3454  0.5613 -0.3454
    1PA     C17 7507   4.813   1.190   4.226  0.5593  0.5697  0.1523
    1PA     H7R 7508   4.862   1.280   4.189  0.4817  0.1638 -0.9555
    1PA     H7S 7509   4.866   1.102   4.190 -1.9015 -0.5501 -0.8462
    1PA     C16 7510   4.665   1.196   4.173 -0.4322 -0.1635 -0.3172
    1PA     H6R 7511   4.598   1.131   4.230  1.7763 -2.4085 -0.1923
    1PA     H6S 7512   4.638   1.299   4.198 -1.2972 -0.5117  0.1964
    1PA     C15 7513   4.645   1.174   4.019  0.0922 -0.5802  0.7414
    1PA     H5R 7514   4.721   1.231   3.966  1.2131 -0.9516  1.9198
    1PA     H5S 7515   4.673   1.069   4.006  0.1780 -0.1846 -2.7180
    1PA     C14 7516   4.503   1.205   3.970 -0.5242  0.2738 -0.4916
    1PA     H4R 7517   4.433   1.125   3.991  0.1598 -0.0897  0.4196
    1PA     H4S 7518   4.461   1.297   4.011 -1.0459 -0.1319 -0.1254
    1PA     C13 7519   4.500   1.218   3.817  0.4088  0.2036  0.3941
    1PA     H3R 7520   4.589   1.276   3.791 -0.1314  0.2711 -1.3515
    1PA     H3S 7521   4.510   1.115   3.782  1.4652  0.6596 -0.6951
    1PA     C12 7522   4.371   1.257   3.754 -0.1670  0.1722  0.3650
    1PA     H2R 7523   4.294   1.184   3.780 -0.3271 -0.2889 -1.3726
    1PA     H2S 7524   4.335   1.352   3.794  2.2536  1.1925  0.2190
    1PC     C11 7525   4.372   1.278   3.601  0.3656 -0.1422 -0.5924
    1PC     O12 7526   4.339   1.385   3.551 -0.0581 -0.2770 -0.3885
    1PC     O11 7527   4.426   1.173   3.534  0.2595  0.7159 -0.0985
    1PC      C1 7528   4.418   1.173   3.387 -0.7208 -0.0915  0.3162
    1PC      HR 7529   4.424   1.275   3.347  1.8602 -0.2241  0.3090
    1PC      HS 7530   4.500   1.110   3.351  0.4013  0.8788  1.1677
    1PC      C2 7531   4.292   1.113   3.326  0.4346  0.5292  0.0983
    1PC      HX 7532   4.295   1.011   3.364 -2.7205  0.6633  0.8663
    1PC      C3 7533   4.290   1.131   3.172 -0.3995 -0.1771  0.9007
    1PC      HA 7534   4.295   1.042   3.109 -1.9410  0.9228 -0.8315
    1PC      HB 7535   4.197   1.186   3.156  0.5053  1.0750 -0.1230
    1PC     O31 7536   4.397   1.219   3.122  0.4466 -0.3836  0.0778
    1PC     P31 7537   4.419   1.238   2.969  0.2061  0.2669 -0.2032
    1PC     O32 7538   4.318   1.349   2.932 -0.5638 -0.4389  0.1775
    1PC     C31 7539   4.199   1.321   2.861  0.2524  0.6152 -0.2430
    1PC     H1A 7540   4.229   1.296   2.759 -3.0592  2.0420 -1.6333
    1PC     H1B 7541   4.148   1.241   2.917 -0.1812  3.0451  2.9539
    1PC     C32 7542   4.108   1.447   2.870 -0.5636  0.4306  0.6227
    1PC     H2A 7543   4.003   1.419   2.860 -0.0669 -0.8778 -1.1913
    1PC     H2B 7544   4.118   1.484   2.972  1.8518 -1.7805  1.2733
    1PC     N31 7545   4.113   1.551   2.758 -0.1206  0.3525 -0.0091
    1PC     C33 7546   4.052   1.499   2.633  0.0295 -0.2460  0.0651
    1PC     H3A 7547   4.061   1.569   2.550 -0.7408 -3.1036 -2.5025
    1PC     H3B 7548   4.113   1.416   2.599  0.1838 -0.0741 -0.0807
    1PC     H3C 7549   3.958   1.456   2.668  0.4800 -1.1495  0.1596
    1PC     C34 7550   4.033   1.670   2.798  0.3895 -0.9223 -0.5602
    1PC     H4A 7551   4.033   1.682   2.906  0.0574  0.4492 -0.7060
    1PC     H4B 7552   4.064   1.765   2.754  0.6625 -0.9259 -0.3829
    1PC     H4C 7553   3.930   1.654   2.768 -0.3400 -0.8702  1.8379
    1PC     C35 7554   4.256   1.583   2.724 -0.5510  0.3392  0.3252
    1PC     H5A 7555   4.256   1.645   2.634  0.4977 -0.7356 -0.4441
    1PC     H5B 7556   4.316   1.494   2.702 -2.0249 -0.9966  1.6360
    1PC     H5C 7557   4.302   1.635   2.807 -1.7002 -0.8512  1.7304
    1PC     O33 7558   4.550   1.314   2.960 -0.1366 -0.5298 -0.3383
    1PC     O34 7559   4.407   1.119   2.887 -0.2880 -0.8640 -0.0438
    1PC     O21 7560   4.170   1.169   3.391  0.4766  0.1283  0.3852
    1PC     C21 7561   4.065   1.087   3.403  0.0435  0.3218  0.8349
    1PC     O22 7562   4.066   0.969   3.383 -0.1156 -0.1854  0.0641
    1OL     C12 7563   3.940   1.161   3.463 -0.1742 -0.5364  0.1279
    1OL     H2R 7564   3.865   1.167   3.384 -0.2168 -2.7056 -0.0232
    1OL     H2S 7565   3.969   1.264   3.485  3.0009 -1.6109  1.2746
    1OL     C13 7566   3.880   1.088   3.586 -0.1193 -0.2048  0.1407
    1OL     H3R 7567   3.951   1.077   3.668  0.0591 -1.5719 -0.1766
    1OL     H3S 7568   3.856   0.986   3.553  2.2527 -1.0967  1.0775
    1OL     C14 7569   3.757   1.167   3.630 -0.0526 -0.0426 -0.0722
    1OL     H4R 7570   3.706   1.106   3.705  1.0381  1.8009  2.1964
    1OL     H4S 7571   3.683   1.176   3.549  0.5794 -0.7970 -0.7419
    1OL     C15 7572   3.794   1.303   3.695 -0.4161 -0.8729 -0.1684
    1OL     H5R 7573   3.696   1.341   3.725  0.7417  1.4314  0.8527
    1OL     H5S 7574   3.850   1.368   3.628 -0.2897 -0.3947  0.3934
    1OL     C16 7575   3.891   1.281   3.820  0.2642  0.3266 -0.1461
    1OL     H6R 7576   3.980   1.224   3.794 -0.2782 -0.4993 -0.2093
    1OL     H6S 7577   3.841   1.210   3.887  0.2841  1.4284  1.0591
    1OL     C17 7578   3.920   1.413   3.891 -0.1069  0.5024  0.1262
    1OL     H7R 7579   3.830   1.474   3.900 -1.5120 -1.7821  2.3279
    1OL     H7S 7580   3.991   1.460   3.823  0.0746  0.8746  0.5757
    1OL     C18 7581   3.981   1.407   4.033  0.0565  0.7557 -0.2096
    1OL     H8R 7582   3.906   1.360   4.096  0.1295 -0.2642 -0.8667
    1OL     H8S 7583   4.004   1.510   4.060  1.2706  0.7517 -1.1572
    1OL     C19 7584   4.107   1.330   4.049  0.0748  0.4122  0.1654
    1OL     H9R 7585   4.113   1.231   4.006  0.3151  1.2975 -1.8924
    1OL    C110 7586   4.221   1.366   4.111 -0.4478  0.7056 -0.0205
    1OL    H10R 7587   4.304   1.297   4.113 -0.5042  0.6222 -0.6360
    1OL    C111 7588   4.243   1.497   4.185 -0.5228  0.3450  0.0086
    1OL    H11R 7589   4.162   1.568   4.166 -2.6080 -1.9129  0.2558
    1OL    H11S 7590   4.336   1.540   4.148 -1.3249  0.7209 -1.6067
    1OL    C112 7591   4.237   1.477   4.335  0.8135  0.1095  0.1605
    1OL    H12R 7592   4.137   1.449   4.368  1.1850 -2.7189 -0.9291
    1OL    H12S 7593   4.261   1.572   4.382  1.3798  0.7246 -1.3451
    1OL    C113 7594   4.340   1.376   4.388  0.8396 -0.5350 -0.0237
    1OL    H13R 7595   4.438   1.424   4.388  0.3918  0.3725 -0.0391
    1OL    H13S 7596   4.359   1.298   4.313 -2.5008 -2.1991  0.7538
    1OL    C114 7597   4.312   1.299   4.518  0.3319  0.3164 -0.6549
    1OL    H14R 7598   4.226   1.232   4.508  0.8717 -0.6213  0.7820
    1OL    H14S 7599   4.301   1.370   4.599  2.9042  0.8265 -0.7080
    1OL    C115 7600   4.447   1.220   4.556  0.0288 -0.5906  0.2387
    1OL    H15R 7601   4.528   1.293   4.557 -1.5852  1.2982 -1.6908
    1OL    H15S 7602   4.475   1.154   4.473 -1.4000  0.2827 -0.9660
    1OL    C116 7603   4.447   1.139   4.684 -0.2835  0.6761  0.6956
    1OL    H16R 7604   4.482   1.200   4.768 -1.3412 -2.3082  3.4154
    1OL    H16S 7605   4.520   1.058   4.677 -0.7395  0.4921 -2.3374
    1OL    C117 7606   4.322   1.051   4.721 -0.1540  0.2223  0.7244
    1OL    H17R 7607   4.323   0.962   4.658 -2.5972  1.1064 -0.6673
    1OL    H17S 7608   4.233   1.114   4.710  0.2858  0.7921  0.3485
    1OL    C118 7609   4.330   0.996   4.864 -0.5615  0.2781 -0.0725
    1OL    H18R 7610   4.325   1.076   4.938  2.5549  1.2900 -0.8587
    1OL    H18S 7611   4.424   0.943   4.880 -0.6663  0.8536  2.7257
    1OL    H18T 7612   4.247   0.927   4.882 -1.8897  1.5683 -1.1409
    1PA    C116 7613   0.386   3.247   4.276  0.3649  0.5269 -0.2585
    1PA    H16R 7614   0.283   3.248   4.312  0.7573  1.6610  0.8986
    1PA    H16S 7615   0.408   3.349   4.243  0.4620  0.3738 -0.6677
    1PA    H16T 7616   0.453   3.222   4.359 -0.1689 -3.0591 -0.8620
    1PA    C115 7617   0.396   3.150   4.163  0.1058 -0.1825  0.5537
    1PA    H15R 7618   0.372   3.047   4.189  1.8627 -0.5526  0.7408
    1PA    H15S 7619   0.310   3.167   4.098  1.6391  2.0909 -0.9582
    1PA    C114 7620   0.537   3.144   4.083 -0.2515 -0.2546  0.1451
    1PA    H14R 7621   0.550   3.242   4.035  1.2851 -0.3253  0.4095
    1PA    H14S 7622   0.620   3.121   4.149 -0.8555  0.8876  1.3222
    1PA    C113 7623   0.552   3.030   3.973 -0.5038 -0.6213  0.2412
    1PA    H13R 7624   0.612   2.954   4.024  2.0721 -0.3354 -2.2138
    1PA    H13S 7625   0.456   2.990   3.939  0.4462 -1.1415 -1.9661
    1PA    C112 7626   0.633   3.081   3.850  0.1947 -0.6591  0.1505
    1PA    H12R 7627   0.636   3.000   3.777  2.0551  1.0611 -1.7173
    1PA    H12S 7628   0.578   3.162   3.802 -2.3084 -1.4729  1.4829
    1PA    C111 7629   0.769   3.126   3.898  0.1344 -0.2839  0.2566
    1PA    H11R 7630   0.754   3.211   3.966 -0.2891 -0.6709  0.6501
    1PA    H11S 7631   0.823   3.042   3.944  1.3074  1.4468  2.1585
    1PA    C110 7632   0.850   3.176   3.780 -0.3286  0.6336 -0.0919
    1PA    H10R 7633   0.889   3.087   3.731  2.8961  0.1074  3.2366
    1PA    H10S 7634   0.786   3.239   3.717 -1.5510 -0.6962 -0.2166
    1PA     C19 7635   0.971   3.263   3.817  0.7439 -0.3298 -0.2412
    1PA     H9R 7636   0.952   3.334   3.898 -0.8297  0.0361 -0.9112
    1PA     H9S 7637   1.055   3.199   3.843  1.4043  0.4370 -0.4316
    1PA     C18 7638   1.022   3.338   3.692 -0.1579  0.3105 -0.2905
    1PA     H8R 7639   1.059   3.262   3.622  0.7430  1.2325 -0.8355
    1PA     H8S 7640   0.939   3.397   3.653 -0.0415  1.0893  0.6347
    1PA     C17 7641   1.140   3.430   3.735  0.2871 -0.5081 -0.2634
    1PA     H7R 7642   1.178   3.469   3.640 -0.2005 -0.9962 -0.6619
    1PA     H7S 7643   1.113   3.520   3.790 -1.3486  0.8101 -3.1084
    1PA     C16 7644   1.256   3.356   3.810 -1.1920  0.4173 -0.0371
    1PA     H6R 7645   1.227   3.334   3.913 -1.5091 -1.4105 -0.4914
    1PA     H6S 7646   1.280   3.261   3.761  1.7714  0.5265  1.1069
    1PA     C15 7647   1.385   3.441   3.809 -0.1038  0.1671  0.5632
    1PA     H5R 7648   1.412   3.452   3.703 -2.9747 -1.2528 -0.3640
    1PA     H5S 7649   1.363   3.543   3.839 -0.7729  0.4668 -0.8697
    1PA     C14 7650   1.500   3.371   3.883  0.1537 -0.6517  0.3307
    1PA     H4R 7651   1.485   3.358   3.991  0.8809  2.2196  0.8312
    1PA     H4S 7652   1.499   3.272   3.836 -0.7108 -0.6845  0.4106
    1PA     C13 7653   1.640   3.427   3.852  0.6362 -0.4450  0.1001
    1PA     H3R 7654   1.645   3.528   3.891  1.7888  0.0874 -1.3567
    1PA     H3S 7655   1.723   3.382   3.908  0.0808  0.4893  1.7091
    1PA     C12 7656   1.690   3.435   3.709 -0.5673  0.2997 -0.0368
    1PA     H2R 7657   1.620   3.492   3.648  0.5231  1.2016 -0.4600
    1PA     H2S 7658   1.787   3.486   3.709 -0.7828  0.7884  2.4176
    1PC     C11 7659   1.701   3.296   3.653 -1.0970  0.0051 -0.2691
    1PC     O12 7660   1.815   3.247   3.643 -0.1819 -0.7367  0.1067
    1PC     O11 7661   1.585   3.245   3.607 -0.1246  0.1747  0.3802
    1PC      C1 7662   1.589   3.120   3.521 -0.1016 -0.3092 -0.0186
    1PC      HR 7663   1.647   3.145   3.432  1.5073  1.4199  1.4952
    1PC      HS 7664   1.646   3.041   3.571 -0.6442 -0.9843 -0.4470
    1PC      C2 7665   1.449   3.087   3.471  0.2510 -0.3408 -0.4454
    1PC      HX 7666   1.450   3.009   3.394  1.1434  1.0048 -1.8162
    1PC      C3 7667   1.387   3.204   3.389 -0.0125 -0.1345 -0.2883
    1PC      HA 7668   1.340   3.273   3.459  2.6587  1.0484  0.4220
    1PC      HB 7669   1.466   3.243   3.325 -1.3326 -1.9741 -3.1344
    1PC     O31 7670   1.287   3.165   3.302 -0.0174  0.0847  0.1646
    1PC     P31 7671   1.318   3.098   3.165 -0.6144 -0.0532  0.1368
    1PC     O32 7672   1.326   2.936   3.193  0.1790 -0.1928 -0.0679
    1PC     C31 7673   1.210   2.864   3.244 -1.3111  0.0169  0.1250
    1PC     H1A 7674   1.245   2.783   3.308 -1.9486  0.3974  0.9616
    1PC     H1B 7675   1.152   2.926   3.314 -0.0697 -0.3120  1.4636
    1PC     C32 7676   1.119   2.809   3.124  0.4689 -0.8158  0.0754
    1PC     H2A 7677   1.027   2.760   3.155  0.9434 -2.5209 -1.1070
    1PC     H2B 7678   1.103   2.903   3.071  4.0429 -0.1224  0.0656
    1PC     N31 7679   1.183   2.718   3.023 -0.3882  0.1581  0.0042
    1PC     C33 7680   1.074   2.648   2.942 -0.4111  0.4863 -1.3847
    1PC     H3A 7681   1.012   2.595   3.015  1.5623  1.9189  1.4301
    1PC     H3B 7682   1.018   2.725   2.888  0.3320  2.6823  0.8701
    1PC     H3C 7683   1.128   2.577   2.879  0.1844 -0.8438  0.5807
    1PC     C34 7684   1.271   2.786   2.926 -0.0518  0.8610  0.0873
    1PC     H4A 7685   1.292   2.718   2.843  2.1235 -1.1080  2.1946
    1PC     H4B 7686   1.223   2.880   2.897 -0.5348  0.5616 -0.0827
    1PC     H4C 7687   1.368   2.799   2.975 -0.1625 -1.7635  1.0849
    1PC     C35 7688   1.263   2.607   3.088 -0.2069 -0.2885 -0.3059
    1PC     H5A 7689   1.348   2.586   3.024 -0.3148 -0.7499 -0.2946
    1PC     H5B 7690   1.194   2.525   3.106 -1.1656  0.7219  0.7422
    1PC     H5C 7691   1.300   2.637   3.186 -0.7025 -1.3005  0.1987
    1PC     O33 7692   1.207   3.121   3.069  0.3187 -0.5048 -0.0474
    1PC     O34 7693   1.452   3.149   3.118  0.3036 -0.4587 -0.1059
    1PC     O21 7694   1.361   3.047   3.570  0.3647  0.1469 -0.4185
    1PC     C21 7695   1.342   2.917   3.606 -0.0340  0.2689  0.1875
    1PC     O22 7696   1.390   2.821   3.542 -0.4269 -0.2265 -0.4211
    1OL     C12 7697   1.249   2.903   3.721 -0.4096 -0.4742 -0.1420
    1OL     H2R 7698   1.229   3.004   3.758 -0.7755 -0.7119  0.3139
    1OL     H2S 7699   1.300   2.848   3.801  1.5323  0.5266 -0.6653
    1OL     C13 7700   1.110   2.843   3.689 -0.4816  0.8999  0.0070
    1OL     H3R 7701   1.134   2.764   3.618 -1.4537 -0.0327  0.7005
    1OL     H3S 7702   1.056   2.923   3.639  0.7870  2.2605  0.7659
    1OL     C14 7703   1.032   2.791   3.810 -0.0164 -0.2957  0.1573
    1OL     H4R 7704   1.007   2.884   3.861 -0.4607 -0.7063  0.6960
    1OL     H4S 7705   1.096   2.728   3.873  0.6680 -2.1744 -2.3336
    1OL     C15 7706   0.897   2.722   3.765 -0.2968  0.0983 -0.2385
    1OL     H5R 7707   0.930   2.621   3.738 -0.3768 -0.0610  0.2394
    1OL     H5S 7708   0.865   2.772   3.674  0.2506 -0.1117 -0.5507
    1OL     C16 7709   0.787   2.724   3.874  0.0819 -0.1837 -0.0258
    1OL     H6R 7710   0.690   2.689   3.838 -0.6482  0.6509  1.1077
    1OL     H6S 7711   0.764   2.829   3.894 -0.1705 -0.4915  1.3559
    1OL     C17 7712   0.819   2.660   4.012  0.4171 -0.8447  0.7592
    1OL     H7R 7713   0.730   2.676   4.074 -1.4900  2.5867 -2.6122
    1OL     H7S 7714   0.900   2.712   4.063  0.5950 -2.6766  2.3953
    1OL     C18 7715   0.837   2.508   4.006 -0.4594 -0.3274 -0.4087
    1OL     H8R 7716   0.924   2.475   3.949 -0.3043  0.4144 -0.6066
    1OL     H8S 7717   0.748   2.465   3.961 -2.0667  0.5339  1.8340
    1OL     C19 7718   0.844   2.451   4.148 -0.7370 -0.1181 -0.2990
    1OL     H9R 7719   0.755   2.427   4.206 -1.2962 -0.9761 -1.4984
    1OL    C110 7720   0.963   2.424   4.204  0.4291 -0.1069 -1.2480
    1OL    H10R 7721   0.961   2.388   4.307 -1.2638  0.3199 -1.1181
    1OL    C111 7722   1.102   2.438   4.149  0.3473 -0.4092  0.4191
    1OL    H11R 7723   1.104   2.458   4.041  0.8177 -1.7975  0.1555
    1OL    H11S 7724   1.160   2.347   4.168  2.5032  0.7479 -0.5144
    1OL    C112 7725   1.171   2.545   4.230 -0.3540  0.0692 -0.0646
    1OL    H12R 7726   1.180   2.508   4.333  0.2601 -0.5062 -0.3182
    1OL    H12S 7727   1.095   2.623   4.228 -0.9945 -0.5703 -2.3506
    1OL    C113 7728   1.313   2.592   4.192 -1.0102  0.1786  0.7892
    1OL    H13R 7729   1.300   2.650   4.101 -3.6818 -0.9262  0.4222
    1OL    H13S 7730   1.368   2.502   4.164 -0.2478  0.4637  1.3567
    1OL    C114 7731   1.382   2.670   4.307  0.1871  0.0794 -0.0673
    1OL    H14R 7732   1.481   2.701   4.271 -0.6795  0.8613 -1.8230
    1OL    H14S 7733   1.398   2.595   4.385 -0.3336 -3.3920 -3.1675
    1OL    C115 7734   1.317   2.798   4.369  0.2553 -0.5172 -0.1842
    1OL    H15R 7735   1.388   2.840   4.440  0.1402  1.7900 -1.3982
    1OL    H15S 7736   1.232   2.761   4.428 -1.5745  0.2123 -2.2760
    1OL    C116 7737   1.274   2.915   4.269  0.1879 -0.3679  0.7746
    1OL    H16R 7738   1.253   3.007   4.322  2.7577  0.6045  0.1725
    1OL    H16S 7739   1.183   2.880   4.220  0.7154  1.1272 -1.3870
    1OL    C117 7740   1.370   2.947   4.165 -0.1453  0.1329 -0.2595
    1OL    H17R 7741   1.387   2.867   4.092 -1.0085  1.8064 -2.3313
    1OL    H17S 7742   1.465   2.973   4.214  0.1711 -1.6497  0.1381
    1OL    C118 7743   1.334   3.065   4.069  0.9977  0.2538 -0.4340
    1OL    H18R 7744   1.243   3.038   4.015  0.0077  0.3122  1.1624
    1OL    H18S 7745   1.408   3.076   3.990  0.7907 -1.4757 -0.8857
    1OL    H18T 7746   1.300   3.156   4.119 -1.6787 -0.4112 -0.9442
    1PA    C116 7747   2.197   1.810   4.675  0.3583  0.5369  0.9709
    1PA    H16R 7748   2.303   1.799   4.650  0.2025  2.3191 -0.6326
    1PA    H16S 7749   2.191   1.911   4.717  1.5693  0.3855  1.5208
    1PA    H16T 7750   2.145   1.809   4.579 -5.0948 -0.5557  3.7558
    1PA    C115 7751   2.138   1.691   4.752 -0.0406  0.1783  0.4863
    1PA    H15R 7752   2.178   1.677   4.853 -0.6900  0.0138  0.7217
    1PA    H15S 7753   2.029   1.695   4.752 -0.0784 -0.7225  0.6135
    1PA    C114 7754   2.167   1.552   4.685  0.5801  0.1216 -0.4838
    1PA    H14R 7755   2.119   1.552   4.587 -1.3036  0.2643  0.4135
    1PA    H14S 7756   2.272   1.543   4.656 -0.5507 -1.1138 -4.5070
    1PA    C113 7757   2.122   1.423   4.756 -0.2534 -0.8931  0.2389
    1PA    H13R 7758   2.200   1.409   4.832  0.0083 -0.3682  0.0736
    1PA    H13S 7759   2.029   1.439   4.811  0.9642  3.6803  1.2239
    1PA    C112 7760   2.111   1.299   4.665 -0.4140 -0.3005  0.7924
    1PA    H12R 7761   2.079   1.219   4.731 -1.0076 -1.6072 -1.0576
    1PA    H12S 7762   2.043   1.320   4.583  1.1430  0.2172 -0.4094
    1PA    C111 7763   2.251   1.258   4.602  0.4333  0.0338 -0.6746
    1PA    H11R 7764   2.287   1.333   4.531 -0.7315 -0.5078 -1.8441
    1PA    H11S 7765   2.330   1.262   4.678 -0.7307  1.5638  0.4792
    1PA    C110 7766   2.233   1.123   4.532 -0.2289  0.3294  0.1369
    1PA    H10R 7767   2.336   1.097   4.507 -0.0763  0.9865  0.0691
    1PA    H10S 7768   2.210   1.036   4.595  0.7701  0.2627  0.4265
    1PA     C19 7769   2.138   1.116   4.411 -0.0577  0.6778 -0.5236
    1PA     H9R 7770   2.130   1.011   4.384 -0.2360  0.3236  0.8408
    1PA     H9S 7771   2.041   1.148   4.451  0.7242 -0.4866  2.4039
    1PA     C18 7772   2.177   1.202   4.296 -0.1165  0.0136 -1.0117
    1PA     H8R 7773   2.203   1.304   4.322 -0.1208 -0.2466  0.0360
    1PA     H8S 7774   2.264   1.154   4.249 -1.1704 -2.7177 -0.2753
    1PA     C17 7775   2.070   1.207   4.184 -0.1550 -0.0216  0.3516
    1PA     H7R 7776   2.112   1.234   4.087 -1.0098  0.7124  0.1712
    1PA     H7S 7777   2.034   1.104   4.180 -2.1003  0.6152  0.8469
    1PA     C16 7778   1.961   1.314   4.224 -0.2235  0.0806  0.0719
    1PA     H6R 7779   1.923   1.307   4.327 -0.2824  0.1893  0.0579
    1PA     H6S 7780   2.006   1.413   4.222 -0.8800  0.5643  4.0822
    1PA     C15 7781   1.831   1.308   4.143  0.6982 -0.2993  0.4476
    1PA     H5R 7782   1.789   1.207   4.150 -1.1189  0.3712 -0.5445
    1PA     H5S 7783   1.758   1.377   4.186  2.0904  1.8996 -0.6459
    1PA     C14 7784   1.852   1.327   3.987 -0.8882  0.0177  0.5749
    1PA     H4R 7785   1.932   1.399   3.969  1.3406 -2.6236 -0.4723
    1PA     H4S 7786   1.890   1.235   3.942 -4.1095 -1.3890  0.6243
    1PA     C13 7787   1.728   1.373   3.908  0.8236  0.2783  0.4646
    1PA     H3R 7788   1.693   1.464   3.957 -0.3147  0.1682 -0.1241
    1PA     H3S 7789   1.762   1.392   3.807 -0.0366  1.1877  0.3421
    1PA     C12 7790   1.612   1.268   3.899  0.4527  0.9146 -0.6463
    1PA     H2R 7791   1.656   1.188   3.839 -0.1870  0.3882 -0.4210
    1PA     H2S 7792   1.597   1.225   3.998  0.8061 -0.9830 -1.3832
    1PC     C11 7793   1.486   1.319   3.828 -0.4663 -0.5286  0.4579
    1PC     O12 7794   1.422   1.417   3.874 -0.0864  0.0604 -0.4068
    1PC     O11 7795   1.443   1.259   3.720  0.1426 -0.2701 -0.0099
    1PC      C1 7796   1.334   1.309   3.639 -0.3638 -0.1728  0.3050
    1PC      HR 7797   1.263   1.232   3.606  2.0087 -0.8039 -3.6989
    1PC      HS 7798   1.270   1.384   3.686 -0.1540  1.0694 -1.3363
    1PC      C2 7799   1.401   1.372   3.509  0.4756 -0.1145 -0.2609
    1PC      HX 7800   1.328   1.425   3.447  0.0307 -1.8483 -1.2541
    1PC      C3 7801   1.475   1.269   3.423 -0.1051  0.1076 -0.2218
    1PC      HA 7802   1.571   1.241   3.467 -1.2408 -1.0612  1.5249
    1PC      HB 7803   1.421   1.175   3.413  0.1199 -0.2099  1.4870
    1PC     O31 7804   1.507   1.338   3.296  0.6057  0.2447 -0.2860
    1PC     P31 7805   1.435   1.308   3.154  0.3638  0.1420 -0.1043
    1PC     O32 7806   1.301   1.379   3.181  0.2481  0.2825  0.3485
    1PC     C31 7807   1.277   1.511   3.132  1.0242 -0.0189  0.3460
    1PC     H1A 7808   1.299   1.508   3.025 -1.4881  1.1927 -0.2463
    1PC     H1B 7809   1.170   1.533   3.136  1.5553  2.5876  2.3681
    1PC     C32 7810   1.366   1.600   3.216  0.1543  0.1365 -0.8231
    1PC     H2A 7811   1.340   1.588   3.322 -0.5310  0.1088 -0.9905
    1PC     H2B 7812   1.469   1.567   3.203  0.0431 -0.6961  0.3297
    1PC     N31 7813   1.366   1.741   3.184  0.1152 -0.3686  0.4866
    1PC     C33 7814   1.402   1.762   3.044 -0.4652 -0.1718 -0.0591
    1PC     H3A 7815   1.498   1.713   3.032 -0.5549 -0.2719 -0.3625
    1PC     H3B 7816   1.324   1.728   2.976  0.2072  0.6887 -1.2722
    1PC     H3C 7817   1.420   1.867   3.022 -0.4395 -0.2620 -0.4783
    1PC     C34 7818   1.238   1.814   3.210  0.8839 -0.1315 -0.0349
    1PC     H4A 7819   1.169   1.772   3.136 -1.6572  2.8644  0.5396
    1PC     H4B 7820   1.211   1.815   3.316  0.3019 -1.5785 -0.1538
    1PC     H4C 7821   1.245   1.918   3.176  1.0019 -0.1642 -0.1115
    1PC     C35 7822   1.463   1.811   3.273 -0.8252  0.1773 -0.2442
    1PC     H5A 7823   1.455   1.919   3.256 -0.0698  0.5048  1.3484
    1PC     H5B 7824   1.566   1.777   3.265 -1.0770 -0.5757 -0.2948
    1PC     H5C 7825   1.430   1.803   3.377  1.0848 -3.3139  0.1811
    1PC     O33 7826   1.509   1.371   3.048 -0.4934 -0.5350  0.1072
    1PC     O34 7827   1.410   1.165   3.148  0.2725  0.0072 -0.2088
    1PC     O21 7828   1.496   1.466   3.555 -0.5441 -0.1118 -0.1432
    1PC     C21 7829   1.448   1.591   3.576  0.4614  0.2456  0.1200
    1PC     O22 7830   1.339   1.632   3.552  0.5632  0.2875 -0.4871
    1OL     C12 7831   1.557   1.672   3.647 -0.4691  0.1141 -0.0428
    1OL     H2R 7832   1.648   1.681   3.588 -0.3122 -1.3074 -0.0366
    1OL     H2S 7833   1.588   1.620   3.738 -2.3905  3.9385  2.9323
    1OL     C13 7834   1.521   1.810   3.705 -0.5657 -0.5279 -0.9808
    1OL     H3R 7835   1.435   1.799   3.771 -0.7180  0.0025 -1.0866
    1OL     H3S 7836   1.482   1.876   3.626 -0.1234  1.8559  0.7416
    1OL     C14 7837   1.639   1.879   3.781 -0.4589  0.1873  0.2249
    1OL     H4R 7838   1.617   1.984   3.802  2.3157  0.9516 -0.5085
    1OL     H4S 7839   1.721   1.881   3.709 -0.8654  0.5568 -0.2288
    1OL     C15 7840   1.680   1.814   3.908  0.5582  0.4684  0.4670
    1OL     H5R 7841   1.775   1.854   3.943  1.2282 -0.9469  0.2957
    1OL     H5S 7842   1.689   1.706   3.893  1.7280  0.5596  0.4832
    1OL     C16 7843   1.572   1.837   4.019 -0.1550  0.0279  0.4446
    1OL     H6R 7844   1.612   1.778   4.101 -2.3820 -0.6428  1.0853
    1OL     H6S 7845   1.483   1.787   3.981 -1.4618  2.2254  0.4914
    1OL     C17 7846   1.528   1.978   4.067 -0.5238 -0.2958  0.6654
    1OL     H7R 7847   1.446   1.961   4.137 -1.4855 -1.0454 -0.6478
    1OL     H7S 7848   1.489   2.021   3.975  0.8764 -0.1205  0.1290
    1OL     C18 7849   1.646   2.061   4.129 -0.9248 -0.0278 -0.1784
    1OL     H8R 7850   1.714   2.083   4.047  0.7949  1.4608  1.6231
    1OL     H8S 7851   1.697   1.999   4.203  0.2836 -0.0009 -0.9807
    1OL     C19 7852   1.600   2.200   4.176  0.4873 -0.4224 -0.6481
    1OL     H9R 7853   1.626   2.273   4.100 -0.0031 -0.2052 -0.6131
    1OL    C110 7854   1.537   2.223   4.292  0.1988 -0.3708  0.6877
    1OL    H10R 7855   1.514   2.326   4.319 -0.3511 -0.4374  0.4842
    1OL    C111 7856   1.488   2.119   4.393  0.1167  0.3181 -0.7995
    1OL    H11R 7857   1.553   2.031   4.389  0.4496  0.4701  0.9785
    1OL    H11S 7858   1.387   2.095   4.357 -0.2564  1.5984 -0.6193
    1OL    C112 7859   1.470   2.160   4.542  0.9191 -0.3247 -0.4306
    1OL    H12R 7860   1.402   2.093   4.596  1.1432 -1.6930 -1.8185
    1OL    H12S 7861   1.439   2.265   4.551  1.9840 -0.0602  0.2048
    1OL    C113 7862   1.607   2.142   4.615  0.6028 -0.1777 -0.2315
    1OL    H13R 7863   1.685   2.197   4.562 -1.3242  1.0171 -1.9370
    1OL    H13S 7864   1.624   2.035   4.611  2.0573 -0.0312  1.4654
    1OL    C114 7865   1.594   2.188   4.766 -0.0090  0.4585  0.2714
    1OL    H14R 7866   1.489   2.176   4.793 -0.0355 -0.3078 -0.1448
    1OL    H14S 7867   1.603   2.297   4.774 -0.0258  0.4974 -0.2111
    1OL    C115 7868   1.692   2.109   4.850  0.3404  0.2512 -0.2658
    1OL    H15R 7869   1.795   2.114   4.814  1.5744 -1.3198  2.8337
    1OL    H15S 7870   1.666   2.003   4.845 -2.0449  0.8611 -1.4785
    1OL    C116 7871   1.684   2.160   4.992 -0.1623  0.2505 -0.2833
    1OL    H16R 7872   1.591   2.114   5.025 -0.1009 -1.1169 -1.9322
    1OL    H16S 7873   1.672   2.268   5.001  0.0554  0.1822  0.7934
    1OL    C117 7874   1.807   2.122   5.088 -0.2342 -0.0448 -0.4488
    1OL    H17R 7875   1.795   2.152   5.193 -0.0221 -0.4913 -0.2936
    1OL    H17S 7876   1.900   2.170   5.058  2.1310 -4.3057 -0.3046
    1OL    C118 7877   1.819   1.968   5.092 -1.1488 -0.4090 -0.3629
    1OL    H18R 7878   1.896   1.926   5.157 -0.2657  0.2043 -1.0005
    1OL    H18S 7879   1.847   1.933   4.992  1.9210  1.2480 -0.1515
    1OL    H18T 7880   1.723   1.925   5.118 -1.5721  0.8638  0.2395
    1PA    C116 7881   2.586   0.118   4.579 -0.2133 -0.2483 -0.1319
    1PA    H16R 7882   2.633   0.217   4.580  0.1478 -0.4240  0.1352
    1PA    H16S 7883   2.649   0.053   4.519  1.9462 -0.0801  1.8850
    1PA    H16T 7884   2.584   0.085   4.683  2.7889  0.9339  0.3352
    1PA    C115 7885   2.444   0.120   4.519 -0.5877 -0.2223  0.0099
    1PA    H15R 7886   2.389   0.026   4.529 -1.7898  0.4629  0.0388
    1PA    H15S 7887   2.383   0.196   4.569 -2.2094 -2.0830  0.9200
    1PA    C114 7888   2.464   0.164   4.370  0.0356 -0.0731  0.7346
    1PA    H14R 7889   2.552   0.116   4.327 -0.5913  0.7729 -1.5632
    1PA    H14S 7890   2.373   0.141   4.315  1.1320 -0.8701 -0.7829
    1PA    C113 7891   2.475   0.317   4.342  0.0804 -0.2043 -0.1990
    1PA    H13R 7892   2.387   0.374   4.373  0.5968  0.1411  0.6577
    1PA    H13S 7893   2.566   0.348   4.393  0.1064  1.0140 -0.9666
    1PA    C112 7894   2.485   0.341   4.188 -0.4794 -0.1774  0.3363
    1PA    H12R 7895   2.565   0.278   4.149 -1.9769 -1.7008 -0.3037
    1PA    H12S 7896   2.391   0.312   4.141 -0.2570  0.2013 -0.3665
    1PA    C111 7897   2.524   0.488   4.153  0.1249  0.3120 -0.4570
    1PA    H11R 7898   2.457   0.566   4.191 -0.7845  0.0584 -1.5179
    1PA    H11S 7899   2.623   0.497   4.198  0.5292  2.1802 -1.6951
    1PA    C110 7900   2.537   0.509   4.000  0.0568 -0.3752  0.1719
    1PA    H10R 7901   2.608   0.436   3.961 -0.5243 -0.4618 -0.7396
    1PA    H10S 7902   2.440   0.495   3.951  0.1088 -2.1122  0.5287
    1PA     C19 7903   2.597   0.644   3.983 -0.4436  0.0161 -0.7275
    1PA     H9R 7904   2.549   0.713   4.054 -3.9544 -2.6616 -0.3627
    1PA     H9S 7905   2.703   0.629   4.003 -0.5378  0.5786  0.2544
    1PA     C18 7906   2.596   0.701   3.837  0.6154  0.1752  0.6999
    1PA     H8R 7907   2.493   0.712   3.801  0.9493  0.4701 -0.1799
    1PA     H8S 7908   2.629   0.805   3.839  0.7964  0.1393 -0.2367
    1PA     C17 7909   2.670   0.617   3.740 -0.0931 -0.9037  0.1980
    1PA     H7R 7910   2.625   0.518   3.731  2.8077 -2.4665  2.3221
    1PA     H7S 7911   2.649   0.671   3.647 -0.8556  0.0000  0.8935
    1PA     C16 7912   2.826   0.608   3.754 -0.7377  0.2501  0.3289
    1PA     H6R 7913   2.870   0.705   3.776  1.2802 -0.2252 -1.4823
    1PA     H6S 7914   2.848   0.541   3.838  0.9485 -0.5471 -0.7268
    1PA     C15 7915   2.902   0.566   3.624  0.1767 -0.1015 -0.1300
    1PA     H5R 7916   2.888   0.652   3.558  1.9541  0.0487 -0.3322
    1PA     H5S 7917   3.009   0.568   3.647 -0.1374 -3.2631  1.8563
    1PA     C14 7918   2.859   0.444   3.534 -0.0089 -0.2440  0.0539
    1PA     H4R 7919   2.754   0.446   3.502 -0.4905 -0.3193  1.5868
    1PA     H4S 7920   2.925   0.458   3.448  0.0357 -3.7844 -0.5660
    1PA     C13 7921   2.895   0.312   3.600 -0.1272  0.2495  0.0466
    1PA     H3R 7922   3.000   0.325   3.630  0.5737  0.1912 -2.2607
    1PA     H3S 7923   2.845   0.304   3.696 -0.5620 -1.3915 -0.3124
    1PA     C12 7924   2.873   0.188   3.511  0.5199  0.7920 -0.2217
    1PA     H2R 7925   2.926   0.197   3.416  2.2461 -2.7268  0.3203
    1PA     H2S 7926   2.915   0.099   3.557 -3.9344  0.4430  3.5424
    1PC     C11 7927   2.727   0.156   3.496  0.3250  0.8939  0.0342
    1PC     O12 7928   2.648   0.136   3.593  0.0983  0.2547 -0.2603
    1PC     O11 7929   2.692   0.148   3.367 -0.2441 -0.1163 -0.4553
    1PC      C1 7930   2.547   0.124   3.342 -0.0116 -0.4418  0.0504
    1PC      HR 7931   2.549   0.066   3.250 -0.7356  2.9606 -2.1806
    1PC      HS 7932   2.507   0.064   3.424  1.6341 -0.9807  0.4950
    1PC      C2 7933   2.472   0.256   3.325 -0.7040  0.1356  0.1442
    1PC      HX 7934   2.372   0.228   3.290 -1.4387  1.4068  1.1812
    1PC      C3 7935   2.539   0.355   3.232  0.0003  0.6247 -0.4513
    1PC      HA 7936   2.645   0.358   3.258 -0.0499  2.7410 -0.3654
    1PC      HB 7937   2.516   0.305   3.138 -0.4786 -3.8329  1.8965
    1PC     O31 7938   2.481   0.484   3.247 -0.2328  0.0948 -0.0107
    1PC     P31 7939   2.481   0.591   3.132  0.2727  0.1314  0.2164
    1PC     O32 7940   2.617   0.658   3.162  0.0216 -0.0304 -0.3785
    1PC     C31 7941   2.650   0.715   3.293 -0.4762  0.3910 -0.3450
    1PC     H1A 7942   2.585   0.799   3.317 -3.0974 -1.0604 -2.0951
    1PC     H1B 7943   2.631   0.642   3.372 -1.6569  0.8067 -0.2429
    1PC     C32 7944   2.797   0.756   3.298  0.1129  0.1860 -0.2733
    1PC     H2A 7945   2.820   0.782   3.401 -0.5129 -2.7633  0.6668
    1PC     H2B 7946   2.856   0.668   3.271  0.6188  0.3175  0.3831
    1PC     N31 7947   2.830   0.875   3.214 -0.2160  0.7558  0.0634
    1PC     C33 7948   2.963   0.933   3.236 -0.5105  1.0136 -1.2311
    1PC     H3A 7949   3.027   0.848   3.211 -0.2168  1.0561 -0.6063
    1PC     H3B 7950   2.986   1.018   3.171  2.9380  0.4090 -0.8846
    1PC     H3C 7951   2.971   0.956   3.342 -0.8555 -2.4438 -0.3911
    1PC     C34 7952   2.812   0.839   3.072 -0.0435  0.6901  0.2434
    1PC     H4A 7953   2.841   0.734   3.078 -1.0656  0.2199 -2.2113
    1PC     H4B 7954   2.709   0.864   3.045 -1.2159 -2.1608  1.8495
    1PC     H4C 7955   2.881   0.902   3.015 -0.2444 -0.9457 -1.8850
    1PC     C35 7956   2.733   0.980   3.239  0.2600 -0.2169  0.0571
    1PC     H5A 7957   2.725   0.995   3.347 -1.0625  0.0688 -0.0690
    1PC     H5B 7958   2.637   0.947   3.198  0.9266 -3.6263  1.1267
    1PC     H5C 7959   2.767   1.071   3.189 -0.0176  0.0619  0.3703
    1PC     O33 7960   2.483   0.517   3.005 -0.0832 -0.1260 -0.3824
    1PC     O34 7961   2.374   0.697   3.152 -0.7573  0.0954  0.3769
    1PC     O21 7962   2.464   0.317   3.460 -0.2233 -0.3380 -0.2131
    1PC     C21 7963   2.379   0.262   3.551  0.2574  0.4778 -0.8152
    1PC     O22 7964   2.299   0.175   3.518  0.0839  0.0790 -0.5913
    1OL     C12 7965   2.381   0.342   3.680  0.4787  0.1498  0.4663
    1OL     H2R 7966   2.329   0.436   3.661  0.3847  0.2832  1.3903
    1OL     H2S 7967   2.489   0.355   3.692  1.0955  0.4053 -4.1756
    1OL     C13 7968   2.314   0.278   3.799  0.1202 -0.1980  0.3324
    1OL     H3R 7969   2.208   0.260   3.781  0.1104 -0.0859  0.2779
    1OL     H3S 7970   2.328   0.344   3.885 -2.0898  0.5406  0.1665
    1OL     C14 7971   2.368   0.136   3.841 -0.0824  0.0453  0.2578
    1OL     H4R 7972   2.341   0.072   3.756 -1.9624  2.8527 -1.3502
    1OL     H4S 7973   2.301   0.105   3.921  0.1695 -2.0318 -0.2903
    1OL     C15 7974   2.512   0.116   3.889  0.5032  0.1449  0.4286
    1OL     H5R 7975   2.536   0.207   3.945  0.0885  0.9973 -0.7497
    1OL     H5S 7976   2.585   0.112   3.807 -0.2053  0.1197 -0.2070
    1OL     C16 7977   2.529  -0.003   3.971 -0.4393  0.5724  0.3922
    1OL     H6R 7978   2.477  -0.084   3.920  1.0865 -0.1566 -0.0315
    1OL     H6S 7979   2.492   0.011   4.073 -1.5661  0.6203 -0.0138
    1OL     C17 7980   2.674  -0.044   3.992  0.6089  0.2212  0.0938
    1OL     H7R 7981   2.715  -0.074   3.895 -0.2998  1.5985 -0.7369
    1OL     H7S 7982   2.673  -0.124   4.065  1.9748  0.6520  0.6026
    1OL     C18 7983   2.771   0.057   4.061 -0.0987  0.1255  0.0879
    1OL     H8R 7984   2.738   0.084   4.161  3.0166 -0.4469  1.3213
    1OL     H8S 7985   2.777   0.141   3.991  0.5533 -0.2701 -0.3402
    1OL     C19 7986   2.906  -0.004   4.088 -0.3408 -0.6528  0.2425
    1OL     H9R 7987   2.909  -0.099   4.141 -2.3865  0.0020  1.6367
    1OL    C110 7988   3.022   0.060   4.066  0.1229  0.2436  0.6948
    1OL    H10R 7989   3.118   0.010   4.073  0.6475  0.7390 -2.4269
    1OL    C111 7990   3.022   0.196   4.008 -0.1794  0.5496  0.1943
    1OL    H11R 7991   2.945   0.256   4.056 -0.7903 -0.6558  0.7324
    1OL    H11S 7992   2.998   0.193   3.901  1.8514 -2.1896 -0.2398
    1OL    C112 7993   3.162   0.271   4.026 -0.2132 -0.2670 -0.2525
    1OL    H12R 7994   3.248   0.211   3.996  2.6524  2.0203  2.9855
    1OL    H12S 7995   3.169   0.275   4.135  1.4671  2.6750 -0.4190
    1OL    C113 7996   3.169   0.417   3.972  0.6056  0.8375  0.0689
    1OL    H13R 7997   3.093   0.471   4.029 -0.2088 -0.6395  0.4181
    1OL    H13S 7998   3.135   0.430   3.869 -1.0630 -0.9716  0.3475
    1OL    C114 7999   3.313   0.469   3.980  0.0769 -0.2019  0.2218
    1OL    H14R 8000   3.304   0.565   3.930  0.0622 -1.5607 -2.4600
    1OL    H14S 8001   3.379   0.406   3.921  0.3304  1.6053 -1.4393
    1OL    C115 8002   3.370   0.477   4.118 -0.4144  0.7328  0.0322
    1OL    H15R 8003   3.356   0.381   4.167 -1.7285  0.4824 -0.7975
    1OL    H15S 8004   3.309   0.546   4.177 -2.3809 -0.4925 -0.5145
    1OL    C116 8005   3.515   0.512   4.126  0.1829 -0.0650  0.2724
    1OL    H16R 8006   3.572   0.444   4.062  2.2683  0.6164  1.3399
    1OL    H16S 8007   3.556   0.491   4.225  1.0717  0.2932 -0.0100
    1OL    C117 8008   3.535   0.664   4.110 -0.7701 -0.6833  1.3361
    1OL    H17R 8009   3.492   0.713   4.197 -1.8662  2.6771 -0.9842
    1OL    H17S 8010   3.472   0.694   4.026 -2.1261 -4.1839  1.0293
    1OL    C118 8011   3.683   0.695   4.099 -0.0121 -0.7430  0.4715
    1OL    H18R 8012   3.735   0.646   4.182  0.6437 -0.1685  0.3999
    1OL    H18S 8013   3.694   0.803   4.104  2.3281 -1.0097  1.7999
    1OL    H18T 8014   3.725   0.646   4.012 -0.6784 -0.5659  0.0442
    1PA    C116 8015   2.334   2.821   4.862  0.2536  0.2579 -0.5136
    1PA    H16R 8016   2.243   2.762   4.849  2.4244 -3.0607 -1.2417
    1PA    H16S 8017   2.349   2.876   4.955  3.5580 -0.9103 -0.2897
    1PA    H16T 8018   2.420   2.758   4.839  0.2840  0.3322 -0.6026
    1PA    C115 8019   2.339   2.935   4.749  0.1740  0.1048 -0.2453
    1PA    H15R 8020   2.276   3.022   4.769 -2.1308 -1.5131 -0.3869
    1PA    H15S 8021   2.437   2.985   4.743  0.1860 -0.0829 -1.8333
    1PA    C114 8022   2.293   2.870   4.616 -0.4543  1.2463  0.1679
    1PA    H14R 8023   2.356   2.787   4.582 -0.9250  0.3793  1.3379
    1PA    H14S 8024   2.201   2.815   4.640  1.8959 -3.0177 -0.1117
    1PA    C113 8025   2.270   2.975   4.511  0.2231 -0.1359 -0.2224
    1PA    H13R 8026   2.359   3.032   4.483 -0.3750  0.9031 -0.0312
    1PA    H13S 8027   2.255   2.917   4.420 -2.9624  1.5535 -0.8514
    1PA    C112 8028   2.149   3.063   4.533  0.1946  0.1045 -0.0028
    1PA    H12R 8029   2.064   2.999   4.554  1.0342 -0.3409  2.2429
    1PA    H12S 8030   2.165   3.144   4.606  1.1491 -1.6594  1.7950
    1PA    C111 8031   2.110   3.133   4.405 -0.0977 -0.7669 -0.1141
    1PA    H11R 8032   2.119   3.062   4.323  1.8116  0.7456 -1.2716
    1PA    H11S 8033   2.010   3.177   4.408 -0.1289 -0.8021 -0.5263
    1PA    C110 8034   2.199   3.251   4.363  0.0830 -0.1241 -0.2613
    1PA    H10R 8035   2.212   3.319   4.447 -0.7776 -1.3098  0.8525
    1PA    H10S 8036   2.302   3.219   4.343 -0.4565 -1.4669 -0.9866
    1PA     C19 8037   2.129   3.329   4.249  0.2645  0.3478 -0.1070
    1PA     H9R 8038   2.100   3.256   4.174  2.5802  0.2151 -0.9189
    1PA     H9S 8039   2.044   3.379   4.297  1.5424 -0.1133  2.7867
    1PA     C18 8040   2.214   3.435   4.188  0.3957 -0.0875 -0.3857
    1PA     H8R 8041   2.255   3.501   4.265 -1.1033  1.3309 -0.7732
    1PA     H8S 8042   2.301   3.407   4.129  0.5732 -0.3562 -0.0005
    1PA     C17 8043   2.128   3.526   4.105 -0.9091  1.0527  0.0129
    1PA     H7R 8044   2.054   3.468   4.051  0.8541 -0.0008 -1.3002
    1PA     H7S 8045   2.070   3.590   4.172  0.3561  0.7511  1.4159
    1PA     C16 8046   2.197   3.631   4.013 -0.3469 -0.0577  0.2574
    1PA     H6R 8047   2.123   3.701   3.974 -0.2078 -0.0211  0.0548
    1PA     H6S 8048   2.272   3.689   4.067 -0.0331  1.1671 -1.4386
    1PA     C15 8049   2.266   3.553   3.901 -0.8218  0.3034  0.8243
    1PA     H5R 8050   2.354   3.495   3.931 -0.1838  1.4571  1.1969
    1PA     H5S 8051   2.193   3.498   3.841 -0.8700 -1.0807  2.1151
    1PA     C14 8052   2.316   3.658   3.801 -0.5302  0.1527  0.4523
    1PA     H4R 8053   2.231   3.714   3.760  0.0460 -0.7736 -2.0874
    1PA     H4S 8054   2.381   3.728   3.853 -2.1158  0.1166  2.5341
    1PA     C13 8055   2.388   3.593   3.682 -0.0674  0.1114 -1.2233
    1PA     H3R 8056   2.473   3.537   3.722  1.2927  2.6344 -0.5112
    1PA     H3S 8057   2.312   3.540   3.624 -1.6134  2.0623 -1.0325
    1PA     C12 8058   2.450   3.690   3.572  0.0205 -0.8908  0.4583
    1PA     H2R 8059   2.442   3.795   3.604 -0.0095  0.0164 -2.3836
    1PA     H2S 8060   2.556   3.684   3.546 -0.1528  2.9451 -1.5203
    1PC     C11 8061   2.377   3.680   3.441 -0.2508 -0.1418 -0.0096
    1PC     O12 8062   2.396   3.583   3.367 -0.3498 -0.5844 -0.2356
    1PC     O11 8063   2.300   3.789   3.417  0.2071  0.6541 -0.2448
    1PC      C1 8064   2.244   3.801   3.284 -0.8422  0.4665 -0.3352
    1PC      HR 8065   2.221   3.908   3.280  0.8648  0.9213  1.0581
    1PC      HS 8066   2.315   3.781   3.204 -1.1251  0.4615 -0.5873
    1PC      C2 8067   2.121   3.713   3.284 -0.6089 -0.2124 -0.3121
    1PC      HX 8068   2.141   3.610   3.316  1.9756  0.3615  0.0247
    1PC      C3 8069   2.060   3.695   3.145  0.2140  0.3460 -0.0647
    1PC      HA 8070   2.016   3.786   3.104  0.7313  0.7154  0.1949
    1PC      HB 8071   2.138   3.668   3.073  0.6473  1.6014 -0.0739
    1PC     O31 8072   1.963   3.595   3.158  0.1575  0.5257  0.3811
    1PC     P31 8073   1.815   3.603   3.095  0.5832 -0.2599  0.4137
    1PC     O32 8074   1.752   3.705   3.195 -0.1753 -0.9871 -0.2225
    1PC     C31 8075   1.709   3.837   3.161  0.1381 -0.1493 -0.1981
    1PC     H1A 8076   1.696   3.900   3.250 -1.4502 -0.1433 -0.4067
    1PC     H1B 8077   1.788   3.887   3.105 -0.3188  0.9885  0.1563
    1PC     C32 8078   1.584   3.842   3.076  0.0713 -1.3319 -0.5408
    1PC     H2A 8079   1.570   3.946   3.047  2.5582 -0.9614 -0.4803
    1PC     H2B 8080   1.601   3.789   2.982  0.8198 -3.1318  0.5793
    1PC     N31 8081   1.449   3.795   3.129 -0.3232 -0.9207  0.3225
    1PC     C33 8082   1.342   3.844   3.034 -0.3907  0.2062  0.0243
    1PC     H3A 8083   1.357   3.948   3.004  1.9965  0.1770  0.9853
    1PC     H3B 8084   1.332   3.783   2.944  2.7386 -1.6782  0.8586
    1PC     H3C 8085   1.248   3.830   3.088 -1.1392 -0.4696 -1.4130
    1PC     C34 8086   1.445   3.648   3.132 -0.6347 -0.7998  0.0163
    1PC     H4A 8087   1.345   3.620   3.164 -0.0511 -0.3567  2.3578
    1PC     H4B 8088   1.458   3.616   3.029 -1.1441 -1.9892  0.3145
    1PC     H4C 8089   1.525   3.604   3.193 -0.5725 -2.3550 -1.1565
    1PC     C35 8090   1.410   3.862   3.258  0.1380  0.0304 -0.0853
    1PC     H5A 8091   1.477   3.833   3.339  1.1161  0.7305 -0.6344
    1PC     H5B 8092   1.311   3.827   3.287  0.0203 -0.0745 -0.6151
    1PC     H5C 8093   1.408   3.971   3.258 -1.5044  0.0234 -2.1235
    1PC     O33 8094   1.823   3.665   2.957 -0.4815  0.4121 -0.5135
    1PC     O34 8095   1.740   3.480   3.111 -0.3520 -0.4479  0.3943
    1PC     O21 8096   2.018   3.771   3.371 -0.3248 -0.0742  0.5372
    1PC     C21 8097   2.009   3.719   3.491  0.4652  0.2606 -0.0775
    1PC     O22 8098   2.076   3.627   3.539 -0.1041 -0.0732 -0.0935
    1OL     C12 8099   1.906   3.787   3.573 -0.3124 -0.2071  0.4820
    1OL     H2R 8100   1.917   3.895   3.563 -2.0229 -0.0847 -0.1813
    1OL     H2S 8101   1.940   3.743   3.667  3.4455  0.7665 -0.3552
    1OL     C13 8102   1.769   3.750   3.522 -0.0217  0.3512 -0.0860
    1OL     H3R 8103   1.767   3.642   3.507 -0.1835  0.1446  1.3617
    1OL     H3S 8104   1.744   3.801   3.429  2.1095 -0.5316 -1.1816
    1OL     C14 8105   1.668   3.787   3.637  0.5854 -0.0502 -0.1238
    1OL     H4R 8106   1.663   3.715   3.719  2.4026 -1.4137 -1.1765
    1OL     H4S 8107   1.573   3.784   3.583  0.9425 -0.1363 -0.7501
    1OL     C15 8108   1.678   3.928   3.698  0.1218  0.5517  0.4085
    1OL     H5R 8109   1.679   3.991   3.609  1.2622  0.8944  0.6508
    1OL     H5S 8110   1.774   3.941   3.749  0.9189  1.3087 -1.2554
    1OL     C16 8111   1.563   3.963   3.796  1.1926 -0.1565  0.5511
    1OL     H6R 8112   1.580   4.066   3.827 -0.0832  0.5269 -0.9266
    1OL     H6S 8113   1.564   3.904   3.888 -0.7690 -1.6185 -0.3320
    1OL     C17 8114   1.420   3.943   3.747  0.0996 -0.1049 -1.1722
    1OL     H7R 8115   1.401   3.839   3.772  1.6496 -0.0335  0.4114
    1OL     H7S 8116   1.417   3.950   3.638 -0.8408 -0.6852 -1.1819
    1OL     C18 8117   1.319   4.032   3.824  0.2887  0.2803 -0.3895
    1OL     H8R 8118   1.327   4.006   3.929  1.2373 -0.9011 -0.7361
    1OL     H8S 8119   1.217   4.007   3.794  0.4423  0.7116 -1.3189
    1OL     C19 8120   1.342   4.182   3.801  0.5318 -0.1303 -0.1906
    1OL     H9R 8121   1.336   4.213   3.697 -1.3242  2.1834  0.5520
    1OL    C110 8122   1.363   4.280   3.893  0.4506  0.0306  0.0432
    1OL    H10R 8123   1.379   4.383   3.865  1.7099 -0.4595 -1.1206
    1OL    C111 8124   1.375   4.258   4.043  0.4063  0.3478 -0.1285
    1OL    H11R 8125   1.317   4.170   4.072 -0.9482  0.6167 -1.9568
    1OL    H11S 8126   1.336   4.342   4.100  1.8314  0.5249  0.6029
    1OL    C112 8127   1.528   4.236   4.088 -0.0862 -0.2313 -0.1735
    1OL    H12R 8128   1.594   4.301   4.031 -2.2155  1.0820 -1.2045
    1OL    H12S 8129   1.555   4.134   4.060 -0.6895 -0.8738  1.5070
    1OL    C113 8130   1.551   4.253   4.238 -0.0915  0.0227 -0.1239
    1OL    H13R 8131   1.532   4.357   4.265  0.3214 -0.6685  3.0726
    1OL    H13S 8132   1.654   4.222   4.258 -0.7171 -0.8307  1.9197
    1OL    C114 8133   1.458   4.167   4.323 -0.0505 -0.0141  0.3137
    1OL    H14R 8134   1.421   4.086   4.259  0.0891  0.3039 -0.1739
    1OL    H14S 8135   1.373   4.234   4.341 -2.7312 -2.8053 -1.3971
    1OL    C115 8136   1.504   4.101   4.450  0.4275  0.5436 -0.2173
    1OL    H15R 8137   1.595   4.041   4.438  0.4932 -0.0089  2.7051
    1OL    H15S 8138   1.434   4.020   4.467  0.7153  0.5343  0.9588
    1OL    C116 8139   1.542   4.190   4.572 -0.0319  0.3346  0.9485
    1OL    H16R 8140   1.640   4.239   4.567  1.0134 -1.8953 -1.2019
    1OL    H16S 8141   1.543   4.126   4.660 -2.8121 -0.2517  0.5934
    1OL    C117 8142   1.447   4.311   4.600 -0.7211 -0.4163 -0.3273
    1OL    H17R 8143   1.343   4.279   4.610 -0.5201 -0.9616  0.0199
    1OL    H17S 8144   1.456   4.373   4.511  0.9513 -1.0713 -0.6302
    1OL    C118 8145   1.497   4.392   4.727  0.6473  0.6760 -0.0612
    1OL    H18R 8146   1.473   4.354   4.827 -0.4313  0.5614 -0.3556
    1OL    H18S 8147   1.440   4.485   4.731 -1.8358 -0.8626  2.3522
    1OL    H18T 8148   1.604   4.411   4.721  0.7131 -0.3427 -2.9836
    1PA    C116 8149   4.841   1.242   4.954  0.0919 -0.3037 -1.1174
    1PA    H16R 8150   4.863   1.151   4.897 -2.0643 -1.7544  0.2945
    1PA    H16S 8151   4.764   1.213   5.025  0.6941 -0.2489 -0.4383
    1PA    H16T 8152   4.929   1.288   5.000  0.2697 -1.3476 -0.3876
    1PA    C115 8153   4.780   1.341   4.857  0.0363  0.1352  0.3018
    1PA    H15R 8154   4.687   1.304   4.813  0.8932  1.2495 -2.5337
    1PA    H15S 8155   4.746   1.431   4.909  0.3665  0.4709 -0.0535
    1PA    C114 8156   4.874   1.383   4.743 -0.8599 -0.5023 -0.0663
    1PA    H14R 8157   4.964   1.435   4.778 -0.3897 -0.3753 -1.4253
    1PA    H14S 8158   4.910   1.297   4.686  2.4182  2.4024 -2.6162
    1PA    C113 8159   4.801   1.470   4.643 -0.4604 -0.3833 -0.3905
    1PA    H13R 8160   4.725   1.412   4.590 -0.8437  0.7790 -1.1349
    1PA    H13S 8161   4.757   1.552   4.700  0.2512 -0.9473  0.9917
    1PA    C112 8162   4.898   1.525   4.537 -0.2599  0.4532  0.2853
    1PA    H12R 8163   4.979   1.574   4.591  1.2733 -3.8822  2.1605
    1PA    H12S 8164   4.942   1.441   4.484 -0.5223  0.2015  0.4635
    1PA    C111 8165   4.830   1.614   4.437  0.4818  0.2240  0.1294
    1PA    H11R 8166   4.772   1.690   4.489  0.1954  0.6574 -0.7976
    1PA    H11S 8167   4.916   1.658   4.385  0.1366  0.1017 -0.5470
    1PA    C110 8168   4.751   1.524   4.338  0.4095  0.4188 -0.1554
    1PA    H10R 8169   4.818   1.475   4.267  1.0073  1.6268 -0.4413
    1PA    H10S 8170   4.694   1.442   4.383  1.4537 -0.5834 -0.6484
    1PA     C19 8171   4.650   1.609   4.247 -0.8424 -0.2210 -0.1624
    1PA     H9R 8172   4.591   1.535   4.191 -1.7765 -1.0290  1.8255
    1PA     H9S 8173   4.579   1.662   4.311  0.3017  0.1177  0.8440
    1PA     C18 8174   4.722   1.707   4.157 -0.0158  0.0065 -0.0272
    1PA     H8R 8175   4.792   1.763   4.219  2.3817 -2.3681 -0.4906
    1PA     H8S 8176   4.779   1.648   4.085 -1.3779 -0.1687 -0.9876
    1PA     C17 8177   4.621   1.797   4.091 -0.3338 -0.8537 -0.2433
    1PA     H7R 8178   4.527   1.742   4.092  0.2271 -1.8063  0.6244
    1PA     H7S 8179   4.616   1.884   4.157  0.9203  0.0459 -1.3005
    1PA     C16 8180   4.667   1.850   3.953  0.4181  0.7413  0.0955
    1PA     H6R 8181   4.757   1.910   3.964  0.7592  0.5939 -1.7883
    1PA     H6S 8182   4.704   1.764   3.896 -0.3402 -0.8073  1.8671
    1PA     C15 8183   4.566   1.930   3.870 -0.3219 -0.0960 -0.3754
    1PA     H5R 8184   4.543   2.027   3.915 -1.6959 -2.1257  3.5225
    1PA     H5S 8185   4.605   1.954   3.771 -0.7433  2.0878 -0.0437
    1PA     C14 8186   4.443   1.858   3.848  0.1748 -0.6019 -0.3479
    1PA     H4R 8187   4.387   1.843   3.940  0.9909  0.9211  0.4255
    1PA     H4S 8188   4.376   1.919   3.787  1.1170  0.5012 -0.3179
    1PA     C13 8189   4.457   1.723   3.784  0.3881  0.0551  0.3284
    1PA     H3R 8190   4.521   1.738   3.697  1.2541  0.5602  1.0435
    1PA     H3S 8191   4.504   1.651   3.852 -1.2689 -0.9829  0.4022
    1PA     C12 8192   4.321   1.663   3.750  0.3295  0.4168 -0.3075
    1PA     H2R 8193   4.346   1.558   3.730 -1.5830  0.3685 -2.5460
    1PA     H2S 8194   4.243   1.667   3.826 -1.0694 -0.3266 -1.6712
    1PC     C11 8195   4.259   1.710   3.624  0.0046 -0.1370  0.1544
    1PC     O12 8196   4.307   1.706   3.512 -0.0888 -0.4523  0.0207
    1PC     O11 8197   4.152   1.784   3.658 -0.5236 -0.1851 -0.6270
    1PC      C1 8198   4.065   1.834   3.546  0.8054  0.4796  0.0157
    1PC      HR 8199   4.078   1.775   3.454 -1.1889  0.0767 -0.0394
    1PC      HS 8200   3.959   1.829   3.569  0.6692  0.5636 -0.5784
    1PC      C2 8201   4.093   1.977   3.496  0.1893  0.6438 -0.6087
    1PC      HX 8202   4.000   2.020   3.456 -0.2775 -0.8861 -1.1884
    1PC      C3 8203   4.187   1.987   3.375  0.5536 -0.0654  0.2212
    1PC      HA 8204   4.293   1.982   3.400  0.8836 -0.1215 -1.1571
    1PC      HB 8205   4.166   1.906   3.305 -1.2852  0.5995 -0.0464
    1PC     O31 8206   4.165   2.113   3.312 -0.2492 -0.2035 -0.4265
    1PC     P31 8207   4.289   2.199   3.260 -0.3822 -0.3990 -0.0574
    1PC     O32 8208   4.334   2.279   3.393  0.2401  0.8760  0.3175
    1PC     C31 8209   4.265   2.396   3.438  0.2911 -0.4408  0.9622
    1PC     H1A 8210   4.225   2.454   3.354 -0.1283 -0.8722  0.8624
    1PC     H1B 8211   4.183   2.363   3.502  0.0923  1.8121  1.9002
    1PC     C32 8212   4.373   2.477   3.527  0.1632 -0.1662 -0.0383
    1PC     H2A 8213   4.322   2.559   3.578 -0.8918 -0.6373 -0.3279
    1PC     H2B 8214   4.424   2.411   3.597  0.0038  1.7903  2.0235
    1PC     N31 8215   4.484   2.546   3.451 -0.2273 -0.1190 -0.2936
    1PC     C33 8216   4.557   2.453   3.363 -0.2420 -0.0153 -0.7678
    1PC     H3A 8217   4.645   2.504   3.322 -0.4329  1.3141  0.4450
    1PC     H3B 8218   4.577   2.363   3.422  0.4597  1.3986  1.1772
    1PC     H3C 8219   4.493   2.432   3.278 -1.7464 -0.1437  0.3739
    1PC     C34 8220   4.422   2.663   3.381  0.0634 -0.0103  0.4018
    1PC     H4A 8221   4.397   2.751   3.441 -0.4215 -0.8863  1.4820
    1PC     H4B 8222   4.490   2.698   3.303  0.2541  0.7611  0.9078
    1PC     H4C 8223   4.338   2.622   3.324 -0.1707 -0.0719  0.7877
    1PC     C35 8224   4.587   2.610   3.538 -0.5874 -0.1504 -0.3275
    1PC     H5A 8225   4.651   2.673   3.475  0.7236 -1.7034 -0.5738
    1PC     H5B 8226   4.647   2.534   3.588 -1.7735 -0.8108  0.1085
    1PC     H5C 8227   4.539   2.671   3.614 -1.2463  0.3253 -1.1183
    1PC     O33 8228   4.402   2.107   3.231  0.3772  0.0865  0.0673
    1PC     O34 8229   4.240   2.290   3.157  0.3156  0.0836 -0.3372
    1PC     O21 8230   4.159   2.059   3.593  0.7106  0.1670  0.0627
    1PC     C21 8231   4.088   2.155   3.651 -0.0601 -0.0845 -0.1640
    1PC     O22 8232   3.969   2.176   3.637 -0.3731  0.4729  0.2871
    1OL     C12 8233   4.178   2.253   3.729 -0.1373 -0.0410  0.5054
    1OL     H2R 8234   4.127   2.347   3.747  0.2043  0.4512 -1.0238
    1OL     H2S 8235   4.273   2.265   3.677  0.6623 -2.4489  1.3350
    1OL     C13 8236   4.207   2.192   3.868  0.3462 -0.5156  0.6869
    1OL     H3R 8237   4.259   2.097   3.850 -0.2261 -0.7075  0.0328
    1OL     H3S 8238   4.105   2.175   3.902  0.5803 -1.6951  0.8398
    1OL     C14 8239   4.285   2.268   3.972 -0.1460 -0.3155 -0.1986
    1OL     H4R 8240   4.267   2.375   3.960 -1.0082 -0.4041  0.2616
    1OL     H4S 8241   4.391   2.242   3.964 -0.3617 -2.1179  2.1089
    1OL     C15 8242   4.233   2.225   4.110  0.1719  0.0117  0.4000
    1OL     H5R 8243   4.131   2.261   4.119  0.4171  0.5604  1.0611
    1OL     H5S 8244   4.298   2.273   4.184  1.0038 -0.7510  0.1857
    1OL     C16 8245   4.238   2.072   4.135  0.2664 -0.8107 -0.6593
    1OL     H6R 8246   4.338   2.032   4.112  0.2451 -0.6034 -1.1130
    1OL     H6S 8247   4.164   2.026   4.069  1.6980  0.3011 -3.1062
    1OL     C17 8248   4.188   2.030   4.277 -0.2100  0.1692  0.2315
    1OL     H7R 8249   4.089   2.075   4.287 -1.5470 -2.1952 -1.9226
    1OL     H7S 8250   4.247   2.079   4.355  1.2296  0.1218 -0.8036
    1OL     C18 8251   4.192   1.873   4.297 -0.3698 -0.3838  0.1645
    1OL     H8R 8252   4.296   1.848   4.273  0.0712  1.3554  0.2028
    1OL     H8S 8253   4.135   1.826   4.217 -2.0261 -0.1693  1.2047
    1OL     C19 8254   4.138   1.834   4.436  0.2876  0.2639 -0.3140
    1OL     H9R 8255   4.039   1.790   4.433 -0.2231  1.5121 -3.2875
    1OL    C110 8256   4.193   1.850   4.558 -0.4005  0.2092 -0.1039
    1OL    H10R 8257   4.138   1.813   4.644  0.7931  2.2111  1.5651
    1OL    C111 8258   4.332   1.900   4.605  0.1174  0.5471 -0.2382
    1OL    H11R 8259   4.323   1.959   4.696 -1.7994 -0.0189 -0.0393
    1OL    H11S 8260   4.373   1.964   4.526  0.1943  0.5485 -0.1981
    1OL    C112 8261   4.428   1.781   4.637  0.3008 -0.8316  0.1753
    1OL    H12R 8262   4.527   1.823   4.659  0.2092  0.9431 -2.5343
    1OL    H12S 8263   4.441   1.716   4.550  0.1422  1.2232 -1.4090
    1OL    C113 8264   4.370   1.700   4.750 -0.0860  0.3300 -0.0517
    1OL    H13R 8265   4.274   1.661   4.717  0.2165  0.1714 -0.7667
    1OL    H13S 8266   4.358   1.772   4.831  1.9269  0.6771 -0.0178
    1OL    C114 8267   4.460   1.597   4.811  0.1988  0.1531 -0.2837
    1OL    H14R 8268   4.547   1.639   4.862  0.3461 -0.0951 -0.3328
    1OL    H14S 8269   4.498   1.531   4.733  0.1195  0.0523 -0.2364
    1OL    C115 8270   4.381   1.525   4.925 -0.0438  0.1569  0.7382
    1OL    H15R 8271   4.361   1.600   5.001 -1.1586 -0.4069  1.0089
    1OL    H15S 8272   4.447   1.460   4.982  0.8596 -0.1887 -0.6752
    1OL    C116 8273   4.256   1.443   4.892  0.6141 -0.2831  0.7729
    1OL    H16R 8274   4.290   1.354   4.839 -3.4147 -0.7572 -1.2431
    1OL    H16S 8275   4.188   1.497   4.826  1.9258  0.3466 -0.0608
    1OL    C117 8276   4.184   1.390   5.011  0.4177 -0.6224 -0.2082
    1OL    H17R 8277   4.242   1.328   5.080 -0.4115 -1.4066 -0.2067
    1OL    H17S 8278   4.101   1.326   4.981  0.8931 -1.1919 -0.3297
    1OL    C118 8279   4.124   1.509   5.085 -0.7285 -0.0095  0.4978
    1OL    H18R 8280   4.048   1.484   5.159 -1.6278  0.3970 -0.2747
    1OL    H18S 8281   4.067   1.576   5.020 -0.1907  0.9107  0.9676
    1OL    H18T 8282   4.205   1.567   5.131 -0.1394 -0.0512 -0.4783
    1PA    C116 8283   3.581   5.162   4.803  0.5226  0.3265  0.4451
    1PA    H16R 8284   3.617   5.066   4.765 -0.2831 -1.0201  2.9443
    1PA    H16S 8285   3.532   5.205   4.716 -2.5927 -3.6728  0.0703
    1PA    H16T 8286   3.517   5.149   4.890 -1.4650 -2.0934 -1.2985
    1PA    C115 8287   3.697   5.253   4.854  0.4726 -0.2763 -0.1698
    1PA    H15R 8288   3.657   5.350   4.883  0.2660 -0.4677  0.1930
    1PA    H15S 8289   3.748   5.212   4.941 -0.0678 -0.8233 -0.0994
    1PA    C114 8290   3.798   5.278   4.741 -0.3414 -0.1483  0.1466
    1PA    H14R 8291   3.877   5.346   4.773 -1.6283  1.5389 -0.1643
    1PA    H14S 8292   3.837   5.177   4.728  0.4498  0.1645  0.0535
    1PA    C113 8293   3.733   5.330   4.609 -0.3084 -0.0243 -0.3008
    1PA    H13R 8294   3.655   5.268   4.565 -0.7961  0.9051 -0.7685
    1PA    H13S 8295   3.677   5.420   4.637  0.3773  0.5560 -0.7718
    1PA    C112 8296   3.831   5.360   4.501  0.3693  0.1970 -0.1479
    1PA    H12R 8297   3.785   5.423   4.425 -0.5809  1.0055  1.0740
    1PA    H12S 8298   3.898   5.431   4.549  1.4075 -1.4522  0.8804
    1PA    C111 8299   3.895   5.239   4.443 -0.3069  0.0124 -0.2718
    1PA    H11R 8300   3.969   5.194   4.509 -1.2480 -0.9392  0.1581
    1PA    H11S 8301   3.820   5.163   4.420 -0.1607 -1.0329  2.5698
    1PA    C110 8302   3.968   5.281   4.313  0.1781  0.1524 -0.7230
    1PA    H10R 8303   4.024   5.375   4.321 -0.8998  0.9149 -1.9107
    1PA    H10S 8304   4.042   5.202   4.299  0.4470  0.4233 -0.8512
    1PA     C19 8305   3.886   5.284   4.177 -0.3634 -0.4756 -0.5072
    1PA     H9R 8306   3.963   5.277   4.100 -0.6744 -0.6048 -0.8030
    1PA     H9S 8307   3.821   5.197   4.168 -1.2395  0.0322  0.7611
    1PA     C18 8308   3.784   5.396   4.169 -0.6776  0.1784  0.1781
    1PA     H8R 8309   3.705   5.363   4.237 -0.8221 -1.8111 -0.9355
    1PA     H8S 8310   3.822   5.490   4.211  0.3956 -0.5190  0.7935
    1PA     C17 8311   3.722   5.415   4.033 -0.2682 -0.3765  0.4134
    1PA     H7R 8312   3.792   5.449   3.956  0.0342 -0.6745  0.5552
    1PA     H7S 8313   3.665   5.328   3.999  0.8892 -2.0191  2.5100
    1PA     C16 8314   3.608   5.519   4.047  0.6437  0.5023  0.4304
    1PA     H6R 8315   3.518   5.486   4.099  0.9452 -1.0392 -0.0021
    1PA     H6S 8316   3.644   5.615   4.085  1.1285  0.5174 -0.0578
    1PA     C15 8317   3.533   5.563   3.918 -0.0981  0.2935  0.4086
    1PA     H5R 8318   3.465   5.636   3.963 -0.4896  0.1044  0.1249
    1PA     H5S 8319   3.588   5.615   3.839 -3.1879  2.3525 -0.4720
    1PA     C14 8320   3.439   5.456   3.852  0.1573 -0.5508 -0.4527
    1PA     H4R 8321   3.498   5.368   3.825  2.0754  0.3696  0.5959
    1PA     H4S 8322   3.373   5.428   3.935 -0.6661 -1.7452 -1.4901
    1PA     C13 8323   3.369   5.502   3.722  0.2891 -0.5927  0.4192
    1PA     H3R 8324   3.444   5.504   3.643 -0.7359 -0.7401 -0.5757
    1PA     H3S 8325   3.297   5.428   3.684  0.7464 -0.5087 -0.6204
    1PA     C12 8326   3.291   5.638   3.737  0.4656  0.2999  0.9455
    1PA     H2R 8327   3.211   5.622   3.809  0.2481 -1.4181  0.3318
    1PA     H2S 8328   3.357   5.719   3.769  0.4867  0.5525  0.2702
    1PC     C11 8329   3.233   5.678   3.605  0.3641  0.3102 -0.1503
    1PC     O12 8330   3.174   5.601   3.532 -0.2353 -0.1780 -0.5730
    1PC     O11 8331   3.259   5.807   3.572  0.8129  0.7362 -0.3132
    1PC      C1 8332   3.249   5.837   3.430  0.2471 -0.1509  0.6268
    1PC      HR 8333   3.325   5.782   3.374 -2.0395 -1.3434 -1.3388
    1PC      HS 8334   3.156   5.800   3.387  1.5205 -0.3458 -2.0163
    1PC      C2 8335   3.265   5.994   3.408  0.3286  0.3358 -0.0573
    1PC      HX 8336   3.173   6.042   3.444  0.2645  0.7924 -0.8276
    1PC      C3 8337   3.259   6.026   3.257  0.3399  0.4570  0.4407
    1PC      HA 8338   3.164   5.989   3.218  1.0027 -1.8897  0.9884
    1PC      HB 8339   3.255   6.135   3.250  0.5200  0.4072 -0.4121
    1PC     O31 8340   3.373   5.978   3.173  0.0021 -0.6232 -0.3025
    1PC     P31 8341   3.347   5.857   3.075 -0.0046  0.4536 -0.3847
    1PC     O32 8342   3.370   5.720   3.156 -0.8513  0.4983  0.3857
    1PC     C31 8343   3.500   5.658   3.169 -0.1185 -0.2937  0.1283
    1PC     H1A 8344   3.574   5.736   3.189 -1.3377  1.0281 -0.4413
    1PC     H1B 8345   3.494   5.593   3.257 -1.7888 -0.5192 -0.1292
    1PC     C32 8346   3.532   5.582   3.047  0.1333 -0.3354  0.4645
    1PC     H2A 8347   3.515   5.640   2.957  0.2913 -0.1990  0.5241
    1PC     H2B 8348   3.638   5.554   3.043 -0.5365 -2.8441 -0.8188
    1PC     N31 8349   3.447   5.459   3.012  0.5566  0.1758 -0.4883
    1PC     C33 8350   3.463   5.360   3.127  0.0988 -0.6071  0.3211
    1PC     H3A 8351   3.570   5.354   3.149  0.1434  0.5387  0.4869
    1PC     H3B 8352   3.416   5.397   3.219  0.6794  1.0166 -0.0099
    1PC     H3C 8353   3.419   5.262   3.111 -2.3447  0.1474  2.0869
    1PC     C34 8354   3.303   5.496   2.995  0.1291  0.2051  0.7146
    1PC     H4A 8355   3.298   5.592   2.943 -2.1052 -0.6926 -0.8115
    1PC     H4B 8356   3.248   5.413   2.951 -0.1825  0.8408 -0.1062
    1PC     H4C 8357   3.270   5.519   3.096 -1.1010  0.2265  0.3205
    1PC     C35 8358   3.500   5.398   2.883  0.2449 -0.0400 -0.1697
    1PC     H5A 8359   3.500   5.474   2.804 -1.8176 -0.7252 -0.8663
    1PC     H5B 8360   3.446   5.311   2.845 -0.4355  1.1560 -2.0462
    1PC     H5C 8361   3.606   5.382   2.897  0.3410 -0.3446 -1.1584
    1PC     O33 8362   3.207   5.855   3.030 -0.2471 -0.4223  0.2256
    1PC     O34 8363   3.455   5.862   2.971  0.4312  0.3137 -0.3408
    1PC     O21 8364   3.380   6.041   3.475 -0.3841 -0.0830  0.5682
    1PC     C21 8365   3.371   6.095   3.596  0.3198  0.1333 -0.3310
    1PC     O22 8366   3.270   6.140   3.649  0.1080  0.5808  0.0838
    1OL     C12 8367   3.508   6.113   3.662 -0.4925  0.4108  0.1523
    1OL     H2R 8368   3.584   6.045   3.622  0.1624  1.9573 -1.3140
    1OL     H2S 8369   3.510   6.096   3.770 -1.4925 -1.1774 -0.0609
    1OL     C13 8370   3.558   6.253   3.633 -0.5258  0.7120 -0.8639
    1OL     H3R 8371   3.490   6.325   3.680  1.5676  1.9978  0.2548
    1OL     H3S 8372   3.552   6.283   3.528 -1.2680  0.2503 -0.9633
    1OL     C14 8373   3.703   6.270   3.682 -0.8962 -0.4671  0.7420
    1OL     H4R 8374   3.705   6.246   3.788 -0.7218  4.8130  2.0797
    1OL     H4S 8375   3.724   6.376   3.664 -1.1483 -0.4394  0.6029
    1OL     C15 8376   3.813   6.193   3.601  0.0355  0.2303  0.1634
    1OL     H5R 8377   3.819   6.233   3.500 -1.1166  2.2625  0.8625
    1OL     H5S 8378   3.797   6.085   3.594  1.5042  0.0182 -0.1011
    1OL     C16 8379   3.951   6.213   3.668 -0.0607  0.3201 -0.1044
    1OL     H6R 8380   3.960   6.174   3.769 -0.4150 -0.0533 -0.2138
    1OL     H6S 8381   3.976   6.319   3.661  2.8488 -0.3889 -1.2764
    1OL     C17 8382   4.058   6.148   3.582 -0.3009 -0.3764  0.0234
    1OL     H7R 8383   4.036   6.173   3.478  1.0466 -0.0242 -0.1848
    1OL     H7S 8384   4.064   6.040   3.595  0.5641 -0.3500 -0.1914
    1OL     C18 8385   4.200   6.195   3.615 -0.4811 -0.2884  0.0675
    1OL     H8R 8386   4.270   6.150   3.544 -1.1689 -0.3978 -0.5551
    1OL     H8S 8387   4.238   6.163   3.712  2.1244  0.8023 -0.5467
    1OL     C19 8388   4.223   6.344   3.587  0.0829  0.9906  0.2242
    1OL     H9R 8389   4.242   6.374   3.485 -0.3825  0.0653 -0.1414
    1OL    C110 8390   4.244   6.435   3.684 -0.7088  0.3018 -0.3485
    1OL    H10R 8391   4.253   6.540   3.658  1.0735  0.6048  1.3604
    1OL    C111 8392   4.249   6.409   3.827  0.1977  0.4721 -0.4802
    1OL    H11R 8393   4.344   6.454   3.856 -0.6134  4.7694 -3.8921
    1OL    H11S 8394   4.260   6.303   3.851  0.3290  0.9881  1.8194
    1OL    C112 8395   4.127   6.459   3.899 -0.3655 -0.4167 -0.3979
    1OL    H12R 8396   4.038   6.407   3.864  0.3079 -1.9066  0.0596
    1OL    H12S 8397   4.102   6.562   3.871 -1.8218 -0.1235  1.8216
    1OL    C113 8398   4.144   6.460   4.055  0.3816 -0.0828  0.5026
    1OL    H13R 8399   4.237   6.513   4.076  1.6668 -1.9847 -0.2964
    1OL    H13S 8400   4.149   6.355   4.086  0.6005 -0.4085 -0.6141
    1OL    C114 8401   4.023   6.521   4.136 -0.1629 -0.1333 -0.0629
    1OL    H14R 8402   3.937   6.454   4.144  0.1780 -0.7480 -1.4908
    1OL    H14S 8403   3.991   6.615   4.089  1.9751  1.0247  0.7588
    1OL    C115 8404   4.074   6.540   4.280 -0.6367  0.2025  0.4902
    1OL    H15R 8405   4.153   6.615   4.287 -2.1104  1.6779  1.6495
    1OL    H15S 8406   4.127   6.447   4.303  0.4996  0.5372 -0.6531
    1OL    C116 8407   3.950   6.567   4.376 -0.4794  0.1221  0.9136
    1OL    H16R 8408   3.859   6.573   4.316 -1.1315  0.3758  1.9148
    1OL    H16S 8409   3.957   6.667   4.420  0.8731  0.7846 -0.7651
    1OL    C117 8410   3.925   6.461   4.489  0.0420  0.7699  0.7111
    1OL    H17R 8411   3.840   6.493   4.549 -1.3522 -0.5756 -0.5040
    1OL    H17S 8412   4.014   6.451   4.552 -0.7768 -2.3265  1.4435
    1OL    C118 8413   3.904   6.312   4.444  0.0270 -0.2261 -0.9336
    1OL    H18R 8414   3.985   6.267   4.386  0.3758 -1.9906  0.9013
    1OL    H18S 8415   3.820   6.310   4.374  0.8523 -1.6004 -1.9131
    1OL    H18T 8416   3.887   6.247   4.530 -1.3887 -0.7249 -1.5729
    1PA    C116 8417   4.399   4.214   4.898  0.0935  0.4509  0.2677
    1PA    H16R 8418   4.478   4.256   4.960  1.3875  0.0001 -1.0446
    1PA    H16S 8419   4.329   4.176   4.973 -0.4180  0.0425 -0.4095
    1PA    H16T 8420   4.345   4.285   4.836 -0.9338  0.2598  0.9323
    1PA    C115 8421   4.455   4.091   4.823  0.7672 -0.4069  0.2584
    1PA    H15R 8422   4.546   4.108   4.766 -1.2834  0.7521 -2.8066
    1PA    H15S 8423   4.468   4.013   4.899 -0.1759  1.0751  1.9604
    1PA    C114 8424   4.348   4.028   4.724 -0.3130  0.3172  0.0338
    1PA    H14R 8425   4.378   3.930   4.686 -1.0797  0.7012 -1.6234
    1PA    H14S 8426   4.254   4.011   4.777  0.0050  1.0901  0.8443
    1PA    C113 8427   4.325   4.113   4.597 -0.3746 -0.0032 -0.7750
    1PA    H13R 8428   4.274   4.209   4.613  0.6537  0.4567 -0.2393
    1PA    H13S 8429   4.421   4.144   4.556  1.6509 -3.1885  1.3895
    1PA    C112 8430   4.238   4.048   4.489 -0.0990 -0.1905 -0.2298
    1PA    H12R 8431   4.166   3.978   4.532 -0.8683  2.2765  2.6910
    1PA    H12S 8432   4.175   4.129   4.450  0.8242  0.3786 -0.5635
    1PA    C111 8433   4.319   3.982   4.384 -0.1453 -0.0084  0.0391
    1PA    H11R 8434   4.392   4.051   4.342  0.1738 -0.1074  0.4319
    1PA    H11S 8435   4.368   3.895   4.429 -0.6064 -0.7685 -0.9081
    1PA    C110 8436   4.236   3.922   4.268  0.1846  0.6888  0.6474
    1PA    H10R 8437   4.158   3.855   4.307  1.1259  0.9775  3.1213
    1PA    H10S 8438   4.191   4.006   4.216  0.1660 -0.8203 -1.8346
    1PA     C19 8439   4.317   3.846   4.156  0.6092 -0.3290 -0.3026
    1PA     H9R 8440   4.392   3.915   4.116 -1.7979  1.1841 -2.3046
    1PA     H9S 8441   4.362   3.757   4.200  0.6807 -0.0892  0.1123
    1PA     C18 8442   4.230   3.796   4.042  0.1236 -0.3301  0.1289
    1PA     H8R 8443   4.156   3.731   4.090  0.5226 -1.1225 -0.3144
    1PA     H8S 8444   4.171   3.882   4.009  3.1556  2.6157  2.1690
    1PA     C17 8445   4.299   3.743   3.916  0.0653 -0.7739 -0.1810
    1PA     H7R 8446   4.347   3.825   3.861 -3.1889  1.4642  0.1071
    1PA     H7S 8447   4.379   3.678   3.950 -0.8673 -1.9944 -0.3029
    1PA     C16 8448   4.213   3.662   3.816  0.3536 -0.0534  0.2689
    1PA     H6R 8449   4.281   3.631   3.737  0.0091  0.7793 -0.3516
    1PA     H6S 8450   4.168   3.580   3.874  0.5863  0.1994  0.8164
    1PA     C15 8451   4.116   3.752   3.743 -0.3623  0.7562 -0.1565
    1PA     H5R 8452   4.044   3.797   3.812 -0.7996  0.4695 -0.4170
    1PA     H5S 8453   4.170   3.842   3.714  1.6917 -0.0524  1.0374
    1PA     C14 8454   4.026   3.685   3.635  0.2198  0.3456  0.4398
    1PA     H4R 8455   3.971   3.600   3.676 -0.9269  1.0340  0.3594
    1PA     H4S 8456   3.955   3.760   3.598 -0.0436  0.9866  2.2143
    1PA     C13 8457   4.103   3.640   3.509  0.3265 -0.2768 -0.5355
    1PA     H3R 8458   4.188   3.579   3.542  1.5689  1.1244 -1.0855
    1PA     H3S 8459   4.040   3.570   3.454  0.2456 -0.1610 -0.5873
    1PA     C12 8460   4.148   3.748   3.406  0.1806  0.5385 -0.0893
    1PA     H2R 8461   4.189   3.682   3.330 -0.3961 -1.4026  1.2520
    1PA     H2S 8462   4.060   3.794   3.360  0.5089 -0.0178 -1.2758
    1PC     C11 8463   4.246   3.854   3.453  0.2572 -0.3708 -0.4639
    1PC     O12 8464   4.219   3.972   3.477 -0.3833 -0.5801 -0.0745
    1PC     O11 8465   4.368   3.805   3.456 -0.6558 -0.0249 -0.2233
    1PC      C1 8466   4.473   3.899   3.482 -1.4718  0.3615  0.5026
    1PC      HR 8467   4.455   3.980   3.411 -1.8401 -1.0297 -1.0140
    1PC      HS 8468   4.454   3.931   3.585 -0.3186 -1.1963  1.2098
    1PC      C2 8469   4.613   3.840   3.461  0.4681 -0.2529 -0.2906
    1PC      HX 8470   4.685   3.922   3.458  0.5209 -0.3051 -0.4374
    1PC      C3 8471   4.621   3.758   3.326  0.0338 -0.0718  0.3780
    1PC      HA 8472   4.577   3.661   3.350  0.4554 -0.5855 -0.9113
    1PC      HB 8473   4.572   3.814   3.245  2.2185 -2.3618 -2.6236
    1PC     O31 8474   4.752   3.743   3.275  0.0170 -0.1910 -0.0986
    1PC     P31 8475   4.823   3.854   3.190 -0.1261  0.2956 -0.0613
    1PC     O32 8476   4.781   3.821   3.038 -0.2435  0.0271  0.0855
    1PC     C31 8477   4.853   3.723   2.957  0.3669  0.1332 -0.2111
    1PC     H1A 8478   4.961   3.736   2.961  0.6602 -1.6998 -1.5945
    1PC     H1B 8479   4.828   3.619   2.979  1.9805  0.1053  1.6739
    1PC     C32 8480   4.817   3.756   2.809  0.5730  0.1042  0.0574
    1PC     H2A 8481   4.858   3.853   2.782  2.4156 -0.4313  0.8971
    1PC     H2B 8482   4.860   3.679   2.744  0.1238  0.2140 -0.3777
    1PC     N31 8483   4.671   3.766   2.763 -0.3595  0.5360 -0.2103
    1PC     C33 8484   4.587   3.873   2.835 -0.2354 -0.5020  0.1530
    1PC     H3A 8485   4.580   3.857   2.942 -0.0248 -0.4714  0.1703
    1PC     H3B 8486   4.639   3.968   2.821 -1.6751  0.2467 -0.2194
    1PC     H3C 8487   4.487   3.874   2.791  0.8862 -1.0757 -2.5611
    1PC     C34 8488   4.666   3.805   2.611 -0.1885  0.2231  0.0658
    1PC     H4A 8489   4.744   3.751   2.557 -1.3101 -1.5311  0.1366
    1PC     H4B 8490   4.565   3.772   2.584 -0.5201  0.5869  0.8291
    1PC     H4C 8491   4.678   3.911   2.588  0.6418 -0.0161 -0.6146
    1PC     C35 8492   4.613   3.633   2.777 -0.2679  0.0046  0.2276
    1PC     H5A 8493   4.675   3.566   2.717 -2.2702 -1.8980  0.2172
    1PC     H5B 8494   4.512   3.634   2.736  0.0553 -0.6268 -0.6010
    1PC     H5C 8495   4.622   3.606   2.882 -0.6311  0.6466  0.4257
    1PC     O33 8496   4.757   3.979   3.216  0.1769  0.1210 -0.8357
    1PC     O34 8497   4.972   3.847   3.195  0.3712  0.3510  0.1975
    1PC     O21 8498   4.641   3.745   3.569  0.3312  0.4622 -0.2824
    1PC     C21 8499   4.698   3.797   3.676  0.0093  0.5633  0.2504
    1PC     O22 8500   4.723   3.919   3.691 -0.1319  0.5071 -0.0909
    1OL     C12 8501   4.741   3.686   3.772 -0.5081  0.1361 -0.8222
    1OL     H2R 8502   4.821   3.625   3.729 -0.8476 -0.1151 -1.0949
    1OL     H2S 8503   4.661   3.614   3.790  0.1671 -0.5803 -0.6050
    1OL     C13 8504   4.783   3.738   3.906 -0.7053 -0.1480  0.2383
    1OL     H3R 8505   4.846   3.828   3.903  0.6011 -1.0361  0.7156
    1OL     H3S 8506   4.844   3.655   3.944  0.3523 -0.0259 -1.1757
    1OL     C14 8507   4.666   3.764   4.002 -0.1887 -0.0300  0.1876
    1OL     H4R 8508   4.626   3.667   4.034  3.0485 -1.3551  0.4092
    1OL     H4S 8509   4.592   3.823   3.949 -1.3560 -1.5476  0.0802
    1OL     C15 8510   4.701   3.837   4.129 -0.0839 -0.7970 -0.1286
    1OL     H5R 8511   4.604   3.873   4.164 -0.2571 -0.8619 -0.5365
    1OL     H5S 8512   4.753   3.929   4.103 -1.9784  0.2008 -0.4820
    1OL     C16 8513   4.763   3.749   4.243  0.6040  0.2218  0.1452
    1OL     H6R 8514   4.852   3.703   4.200  0.5692 -0.4588  0.7930
    1OL     H6S 8515   4.698   3.664   4.261 -1.5799  1.7044 -0.6016
    1OL     C17 8516   4.803   3.813   4.376 -0.5265 -0.4008  0.2388
    1OL     H7R 8517   4.847   3.912   4.366 -2.0027  0.1661 -0.6397
    1OL     H7S 8518   4.882   3.750   4.419 -0.4251 -2.5032 -2.9043
    1OL     C18 8519   4.688   3.830   4.474  0.1718  0.1716  0.5447
    1OL     H8R 8520   4.628   3.739   4.480 -0.2629  0.4929  1.1138
    1OL     H8S 8521   4.613   3.899   4.434 -0.0233  0.1180  0.8162
    1OL     C19 8522   4.741   3.882   4.606 -0.3401  0.6576 -0.6428
    1OL     H9R 8523   4.759   3.989   4.616  1.7522  0.2291  0.5486
    1OL    C110 8524   4.777   3.804   4.706 -0.7706  0.2578 -0.0558
    1OL    H10R 8525   4.807   3.847   4.801  1.7849 -0.4940 -0.5041
    1OL    C111 8526   4.768   3.656   4.703  0.6065  0.3482  0.1616
    1OL    H11R 8527   4.778   3.610   4.604  0.2967  0.3462  0.1297
    1OL    H11S 8528   4.668   3.636   4.744  1.0505 -2.0042  0.1872
    1OL    C112 8529   4.881   3.620   4.801 -0.6553  0.2581 -0.7424
    1OL    H12R 8530   4.870   3.677   4.894  0.2719 -0.9345  0.1164
    1OL    H12S 8531   4.979   3.635   4.755  0.4003 -1.6728  0.7724
    1OL    C113 8532   4.879   3.471   4.839 -0.5021  0.5291  0.0908
    1OL    H13R 8533   4.901   3.414   4.748 -0.2283  0.2084  0.3574
    1OL    H13S 8534   4.777   3.442   4.867  0.3214 -2.5229  0.0804
    1OL    C114 8535   4.979   3.440   4.947 -0.6510 -0.9377 -0.0433
    1OL    H14R 8536   5.076   3.480   4.917 -0.7862 -1.1658 -0.8057
    1OL    H14S 8537   4.993   3.332   4.953  1.9237 -0.8247 -2.8299
    1OL    C115 8538   4.953   3.499   5.084  0.6275 -0.1168 -0.0742
    1OL    H15R 8539   4.940   3.608   5.076 -0.5105 -0.2960 -0.7456
    1OL    H15S 8540   5.034   3.485   5.156  1.1028 -0.3464 -0.6503
    1OL    C116 8541   4.825   3.447   5.141  0.5351 -0.7970 -0.2378
    1OL    H16R 8542   4.843   3.347   5.182  2.3257 -1.2495 -2.1010
    1OL    H16S 8543   4.753   3.424   5.062 -0.6445 -1.7278  1.0809
    1OL    C117 8544   4.756   3.529   5.244 -0.5405  0.0373 -0.8415
    1OL    H17R 8545   4.669   3.468   5.272  2.2437 -3.3408  0.7399
    1OL    H17S 8546   4.721   3.620   5.194  0.2719  0.4385 -0.6842
    1OL    C118 8547   4.845   3.566   5.370  0.2834  0.1733 -0.5307
    1OL    H18R 8548   4.918   3.640   5.335  0.7993 -2.0753 -4.5453
    1OL    H18S 8549   4.896   3.478   5.412  0.5980 -0.8020 -2.8651
    1OL    H18T 8550   4.775   3.603   5.445 -0.5626 -0.7171 -0.8627
    1PA    C116 8551   3.723   4.664   4.431  0.8990  0.4073 -0.4508
    1PA    H16R 8552   3.723   4.580   4.362 -0.9729  0.8798 -1.0678
    1PA    H16S 8553   3.762   4.627   4.526  0.2133 -0.6287 -0.5660
    1PA    H16T 8554   3.788   4.741   4.391  0.9179  1.2093  1.0823
    1PA    C115 8555   3.586   4.726   4.471  0.6668 -0.2977  1.1098
    1PA    H15R 8556   3.538   4.761   4.379 -0.1046 -0.3796  1.4770
    1PA    H15S 8557   3.520   4.647   4.507 -0.2443  0.0194  0.1555
    1PA    C114 8558   3.590   4.828   4.582 -0.1996  0.4223 -0.6340
    1PA    H14R 8559   3.658   4.786   4.656 -0.0080  1.5172 -0.1842
    1PA    H14S 8560   3.627   4.918   4.534  0.2909  0.5465 -0.0338
    1PA    C113 8561   3.451   4.845   4.652  0.1403  0.1073  0.2389
    1PA    H13R 8562   3.415   4.746   4.681 -1.7693  0.6210 -0.2910
    1PA    H13S 8563   3.463   4.907   4.742 -0.5544 -0.7429  0.9268
    1PA    C112 8564   3.345   4.908   4.561  0.3473  0.5040 -0.8034
    1PA    H12R 8565   3.337   4.831   4.484  1.6868  1.7784 -2.2518
    1PA    H12S 8566   3.249   4.916   4.612  0.1237  0.3044 -1.1938
    1PA    C111 8567   3.372   5.048   4.504  0.5755 -0.6795 -0.3184
    1PA    H11R 8568   3.334   5.121   4.576  0.6025 -0.3133 -0.6733
    1PA    H11S 8569   3.478   5.069   4.488  0.3967  0.8555  0.3664
    1PA    C110 8570   3.281   5.075   4.382 -0.2687  0.0244 -0.6244
    1PA    H10R 8571   3.186   5.022   4.397  0.0454 -0.3501  0.0495
    1PA    H10S 8572   3.260   5.180   4.360  0.5554 -0.2524 -2.8794
    1PA     C19 8573   3.343   5.019   4.257  0.2230 -0.1169 -0.1583
    1PA     H9R 8574   3.337   4.910   4.257 -2.0460 -0.0201  0.7686
    1PA     H9S 8575   3.279   5.057   4.176 -2.2377 -2.4580  0.5906
    1PA     C18 8576   3.486   5.073   4.212 -0.0046 -0.3037 -0.0291
    1PA     H8R 8577   3.476   5.181   4.197  0.8634 -0.3965 -1.3825
    1PA     H8S 8578   3.553   5.057   4.296  0.9760 -1.7347 -1.0574
    1PA     C17 8579   3.557   5.014   4.094 -0.1935 -0.5824  0.6242
    1PA     H7R 8580   3.665   5.028   4.090 -0.3355  0.2530 -0.5684
    1PA     H7S 8581   3.542   4.907   4.109 -3.9312  0.0025  1.5376
    1PA     C16 8582   3.506   5.075   3.963 -0.6806  0.2161 -0.1069
    1PA     H6R 8583   3.397   5.069   3.969 -0.8445  1.6936 -1.4042
    1PA     H6S 8584   3.533   5.180   3.958 -1.0234  0.3343  0.4680
    1PA     C15 8585   3.571   5.002   3.851  0.3574  0.5199  0.3639
    1PA     H5R 8586   3.676   4.986   3.877  0.3723 -0.3099 -0.1864
    1PA     H5S 8587   3.528   4.902   3.839 -3.1151  2.2059 -1.9733
    1PA     C14 8588   3.562   5.079   3.714  0.3052 -0.1273 -0.4998
    1PA     H4R 8589   3.461   5.120   3.716  1.3696  2.5268  0.0113
    1PA     H4S 8590   3.633   5.161   3.723  0.6697 -0.5103  0.1909
    1PA     C13 8591   3.600   4.997   3.588  0.4667  0.4032 -0.0426
    1PA     H3R 8592   3.598   5.067   3.504  2.0953  1.0496  0.4276
    1PA     H3S 8593   3.706   4.972   3.595  0.7092  1.8858  1.6336
    1PA     C12 8594   3.524   4.876   3.551 -0.0931  0.0331 -0.0267
    1PA     H2R 8595   3.529   4.799   3.629  0.8046  0.0822 -0.0290
    1PA     H2S 8596   3.418   4.898   3.541 -0.8799 -2.1644  2.7502
    1PC     C11 8597   3.564   4.820   3.416 -0.2534  0.2600  0.2106
    1PC     O12 8598   3.638   4.880   3.339 -0.7795  0.1974 -0.0120
    1PC     O11 8599   3.504   4.701   3.395  0.8884 -0.4527 -0.0408
    1PC      C1 8600   3.515   4.646   3.260 -0.3671  0.1741  0.3486
    1PC      HR 8601   3.497   4.726   3.188 -2.8619  0.5780  1.3948
    1PC      HS 8602   3.621   4.623   3.241  0.6555  4.1255  0.8027
    1PC      C2 8603   3.425   4.520   3.247  0.4169  0.7923  0.3347
    1PC      HX 8604   3.461   4.468   3.158 -1.0864  2.0923 -1.0517
    1PC      C3 8605   3.274   4.559   3.233 -0.8686  0.4383 -0.0723
    1PC      HA 8606   3.240   4.585   3.334  2.2771 -0.0359  1.1630
    1PC      HB 8607   3.261   4.650   3.175  2.1654  1.1231  0.2264
    1PC     O31 8608   3.201   4.452   3.167 -0.0300 -0.2392  0.2969
    1PC     P31 8609   3.064   4.458   3.088  0.2889  0.3986  0.3771
    1PC     O32 8610   2.969   4.370   3.183 -0.2767  0.0390  0.3039
    1PC     C31 8611   2.934   4.229   3.165  0.0927 -0.3648  0.6086
    1PC     H1A 8612   2.836   4.216   3.212  0.1887 -0.4186  0.7951
    1PC     H1B 8613   2.916   4.206   3.060  0.1777 -1.4468  0.8193
    1PC     C32 8614   3.045   4.141   3.223  1.1777  0.7801 -0.2918
    1PC     H2A 8615   3.048   4.039   3.184  0.4788  0.4601  0.4926
    1PC     H2B 8616   3.135   4.190   3.184  1.3706  0.1904 -0.5869
    1PC     N31 8617   3.050   4.139   3.373  0.3217 -0.0900  0.1338
    1PC     C33 8618   2.926   4.097   3.443  0.5740 -0.1057  0.3110
    1PC     H3A 8619   2.953   4.069   3.545  0.4201  1.3520  0.7589
    1PC     H3B 8620   2.859   4.182   3.451  1.0065  0.2569  0.0903
    1PC     H3C 8621   2.891   4.010   3.387  0.9982 -0.2856  0.3209
    1PC     C34 8622   3.157   4.033   3.404 -0.6111  0.2774  0.1342
    1PC     H4A 8623   3.165   4.023   3.513 -0.1130  0.3431  0.1031
    1PC     H4B 8624   3.118   3.937   3.372  1.0162 -0.2142 -0.4100
    1PC     H4C 8625   3.244   4.070   3.350  0.7895 -2.2732  0.5896
    1PC     C35 8626   3.096   4.269   3.428  0.0488  0.4495  0.0242
    1PC     H5A 8627   3.017   4.334   3.391  0.7774  2.2120  1.5013
    1PC     H5B 8628   3.184   4.297   3.371  0.0822  0.9917  0.3402
    1PC     H5C 8629   3.104   4.273   3.537 -2.3039  0.6784  0.2108
    1PC     O33 8630   3.012   4.595   3.090  0.1498 -0.1665  0.1602
    1PC     O34 8631   3.078   4.380   2.963 -0.4776  0.5380 -0.2995
    1PC     O21 8632   3.436   4.434   3.368  0.0649 -0.2536  0.0341
    1PC     C21 8633   3.560   4.381   3.380 -0.2760 -0.2987  0.2863
    1PC     O22 8634   3.663   4.408   3.311 -0.4858 -0.1486  0.6409
    1OL     C12 8635   3.574   4.299   3.507 -0.0321 -0.3673 -0.3571
    1OL     H2R 8636   3.678   4.267   3.514 -0.0252 -0.4796 -0.9199
    1OL     H2S 8637   3.503   4.217   3.497  0.6066 -1.2123  1.8936
    1OL     C13 8638   3.545   4.378   3.630  0.6695 -0.1448  0.1000
    1OL     H3R 8639   3.560   4.308   3.713 -0.1981  0.4288  0.7460
    1OL     H3S 8640   3.444   4.419   3.632  0.7499  0.0347  0.5553
    1OL     C14 8641   3.635   4.505   3.677  0.3960 -0.2223  0.2800
    1OL     H4R 8642   3.627   4.573   3.592 -1.0077 -0.0121  0.5752
    1OL     H4S 8643   3.741   4.479   3.681 -0.2879 -3.0385  1.3533
    1OL     C15 8644   3.588   4.563   3.815  0.0916 -0.0583 -0.0856
    1OL     H5R 8645   3.480   4.571   3.827  0.1488 -1.4198  1.5861
    1OL     H5S 8646   3.620   4.668   3.822  1.5605 -0.4719 -0.5111
    1OL     C16 8647   3.646   4.487   3.932 -0.2421 -0.0512  0.4216
    1OL     H6R 8648   3.750   4.461   3.913  0.0558  1.5933 -0.2636
    1OL     H6S 8649   3.589   4.394   3.927 -1.3084  0.5581  1.0911
    1OL     C17 8650   3.634   4.541   4.079 -0.3966 -0.4327 -0.5080
    1OL     H7R 8651   3.700   4.626   4.094 -0.9169 -0.3761  1.5883
    1OL     H7S 8652   3.686   4.464   4.136  1.0741 -1.2889 -2.9254
    1OL     C18 8653   3.496   4.587   4.123 -0.3449  0.3185  0.1177
    1OL     H8R 8654   3.453   4.668   4.064  0.0441 -0.1054 -0.7485
    1OL     H8S 8655   3.496   4.625   4.226  0.1339 -0.1727  0.2991
    1OL     C19 8656   3.405   4.466   4.104 -0.0122  0.7634  0.0982
    1OL     H9R 8657   3.354   4.464   4.008  2.3647  3.2443 -1.3070
    1OL    C110 8658   3.391   4.365   4.195  0.7635  0.2649  0.0849
    1OL    H10R 8659   3.326   4.281   4.171  1.6500 -0.0655 -1.2129
    1OL    C111 8660   3.472   4.354   4.319  0.4248  0.2236  0.1824
    1OL    H11R 8661   3.408   4.368   4.407  0.5607 -1.1085  0.5108
    1OL    H11S 8662   3.550   4.429   4.320 -1.6120  2.4000 -0.6993
    1OL    C112 8663   3.546   4.217   4.335  0.2515  0.1206  0.5630
    1OL    H12R 8664   3.641   4.221   4.281 -0.8021 -1.9877 -1.4827
    1OL    H12S 8665   3.484   4.133   4.305  1.5100 -1.8750  3.2405
    1OL    C113 8666   3.594   4.188   4.479 -0.5040 -1.0306 -0.8906
    1OL    H13R 8667   3.654   4.097   4.483 -1.4436 -1.5624  1.7222
    1OL    H13S 8668   3.515   4.187   4.554 -0.6697 -0.3830 -1.0519
    1OL    C114 8669   3.682   4.305   4.520 -0.2970  0.5358  0.1395
    1OL    H14R 8670   3.617   4.385   4.554  0.0530  0.3280  1.3457
    1OL    H14S 8671   3.733   4.335   4.429 -1.6752 -1.0381 -1.1842
    1OL    C115 8672   3.782   4.262   4.628 -0.4614  0.3078  0.9094
    1OL    H15R 8673   3.834   4.170   4.600  1.3409  0.8220  2.3891
    1OL    H15S 8674   3.720   4.225   4.711 -1.0738  2.5066  1.4636
    1OL    C116 8675   3.879   4.381   4.653 -0.4798 -0.2893 -0.0456
    1OL    H16R 8676   3.821   4.468   4.684 -0.6378  0.5840 -2.6753
    1OL    H16S 8677   3.925   4.412   4.559  2.2676 -3.2980  0.2131
    1OL    C117 8678   3.993   4.343   4.754 -0.4174 -0.2185 -0.0031
    1OL    H17R 8679   4.056   4.429   4.772 -3.3186  1.4411  2.9546
    1OL    H17S 8680   4.055   4.259   4.724 -1.7050 -0.7707 -1.1626
    1OL    C118 8681   3.942   4.311   4.899  0.1911 -0.2872 -0.2262
    1OL    H18R 8682   3.877   4.223   4.897  0.5448 -0.5478 -0.3566
    1OL    H18S 8683   3.876   4.392   4.930  1.3491  0.9449 -0.9306
    1OL    H18T 8684   4.019   4.286   4.973  1.5221 -0.4038 -1.6284
    1PA    C116 8685   0.376   2.287   4.259  0.1126 -0.2786 -1.1236
    1PA    H16R 8686   0.348   2.283   4.364 -0.9414  0.0258 -1.3808
    1PA    H16S 8687   0.286   2.312   4.201 -0.1619  1.7222  0.1105
    1PA    H16T 8688   0.455   2.362   4.248  0.4697 -0.1835  1.7857
    1PA    C115 8689   0.412   2.142   4.221 -0.1448 -0.7300  0.0138
    1PA    H15R 8690   0.325   2.076   4.218 -0.8924  0.2839 -2.2503
    1PA    H15S 8691   0.448   2.151   4.119 -0.4054 -0.2865 -0.0407
    1PA    C114 8692   0.524   2.075   4.304 -0.7095  0.3717  0.3315
    1PA    H14R 8693   0.509   2.074   4.412  1.2272 -1.2223  0.6100
    1PA    H14S 8694   0.527   1.973   4.266 -0.6025  0.3643  0.3594
    1PA    C113 8695   0.670   2.120   4.266 -0.4934  0.3131  0.1866
    1PA    H13R 8696   0.666   2.148   4.160  0.5664  2.2345  0.6280
    1PA    H13S 8697   0.691   2.211   4.323 -0.7979  2.0978 -2.4038
    1PA    C112 8698   0.790   2.024   4.294  0.5058 -0.3160 -0.0626
    1PA    H12R 8699   0.802   1.995   4.399 -2.1443 -1.3414 -0.0224
    1PA    H12S 8700   0.768   1.932   4.241  1.1123 -0.2827 -0.3824
    1PA    C111 8701   0.936   2.070   4.259  0.1858 -0.0614 -0.3921
    1PA    H11R 8702   0.955   2.172   4.292  2.1521 -0.0505 -1.4867
    1PA    H11S 8703   1.002   2.012   4.324 -1.9315 -0.4150  1.5135
    1PA    C110 8704   0.970   2.067   4.108  0.1999  0.0878  0.4416
    1PA    H10R 8705   0.896   2.120   4.048 -0.3479 -1.8508 -0.6439
    1PA    H10S 8706   1.066   2.118   4.100  0.6220 -0.2411  3.1147
    1PA     C19 8707   0.974   1.929   4.052  0.1746  0.0323 -0.1326
    1PA     H9R 8708   1.038   1.876   4.122 -0.5347  1.4478  1.6569
    1PA     H9S 8709   0.872   1.892   4.038 -0.7238  2.5868 -0.6763
    1PA     C18 8710   1.030   1.929   3.909  0.6918  0.4870  0.4024
    1PA     H8R 8711   1.043   1.829   3.869 -0.6780  0.5189 -0.1343
    1PA     H8S 8712   0.948   1.955   3.842 -0.0956 -2.5643  0.1173
    1PA     C17 8713   1.144   2.020   3.886  0.4442 -0.0206 -0.2347
    1PA     H7R 8714   1.109   2.123   3.899  2.8688  0.6165  1.5890
    1PA     H7S 8715   1.226   2.003   3.956 -0.2573 -0.8893  0.3782
    1PA     C16 8716   1.197   2.007   3.740 -0.4353  0.0219 -0.2700
    1PA     H6R 8717   1.232   1.905   3.723  0.3475  0.5327 -1.7890
    1PA     H6S 8718   1.117   2.023   3.668  0.2597 -2.5692 -1.6814
    1PA     C15 8719   1.319   2.103   3.717 -1.3100  0.7028 -0.3582
    1PA     H5R 8720   1.395   2.088   3.794 -0.1930  1.2899 -1.3217
    1PA     H5S 8721   1.380   2.072   3.631 -2.1636  0.4231 -0.8634
    1PA     C14 8722   1.277   2.250   3.700 -0.6752 -0.0755  0.5628
    1PA     H4R 8723   1.200   2.256   3.624 -0.6263  0.9346  0.5869
    1PA     H4S 8724   1.240   2.285   3.797  0.4286  1.3105  0.5078
    1PA     C13 8725   1.396   2.338   3.648 -0.6986 -0.8312 -0.0998
    1PA     H3R 8726   1.468   2.335   3.730  0.7819  1.7722 -1.2525
    1PA     H3S 8727   1.447   2.296   3.562  1.7410  1.1652  0.3344
    1PA     C12 8728   1.353   2.485   3.622  0.6126 -0.2647 -0.8052
    1PA     H2R 8729   1.309   2.529   3.712 -1.1482 -1.5119 -1.0346
    1PA     H2S 8730   1.441   2.545   3.596  0.2567  0.4363 -0.4167
    1PC     C11 8731   1.266   2.499   3.505  0.2472  0.5588 -0.0712
    1PC     O12 8732   1.301   2.487   3.394 -0.8404  0.4954  0.2644
    1PC     O11 8733   1.140   2.527   3.548  0.5127 -0.5866 -0.0793
    1PC      C1 8734   1.028   2.539   3.455 -0.8610 -0.0378 -0.4038
    1PC      HR 8735   0.953   2.600   3.505 -1.0287  0.5794 -1.4018
    1PC      HS 8736   1.069   2.590   3.368  2.8127 -3.7039 -0.9992
    1PC      C2 8737   0.964   2.401   3.425 -0.4820 -0.0067 -0.6561
    1PC      HX 8738   1.048   2.335   3.402  2.0647  2.3452  1.4345
    1PC      C3 8739   0.863   2.418   3.307 -0.5153 -0.7451  1.0487
    1PC      HA 8740   0.791   2.337   3.296 -0.8197 -0.7925  3.3413
    1PC      HB 8741   0.803   2.508   3.326  1.1811  1.3750 -2.8394
    1PC     O31 8742   0.932   2.437   3.183 -0.0494 -0.2849 -0.3723
    1PC     P31 8743   0.974   2.311   3.094 -0.1719  0.1271 -0.2703
    1PC     O32 8744   0.835   2.228   3.096 -0.2837  0.3962  0.1042
    1PC     C31 8745   0.721   2.285   3.023  0.1076  0.8479  1.0935
    1PC     H1A 8746   0.626   2.261   3.072 -0.1483  1.3811  0.8655
    1PC     H1B 8747   0.730   2.394   3.028  1.2400  0.7389  1.6075
    1PC     C32 8748   0.708   2.219   2.880  0.4572 -0.4325  0.4470
    1PC     H2A 8749   0.626   2.263   2.824 -0.5664 -2.0817  0.6083
    1PC     H2B 8750   0.806   2.235   2.835  0.0763 -0.1835 -0.3063
    1PC     N31 8751   0.665   2.078   2.881  0.6607  0.0135 -0.4618
    1PC     C33 8752   0.753   1.994   2.957  0.1034 -0.6500  0.2076
    1PC     H3A 8753   0.765   1.899   2.905  0.9471 -0.4082 -0.0485
    1PC     H3B 8754   0.851   2.042   2.955  0.5194 -1.1959  3.6889
    1PC     H3C 8755   0.730   1.990   3.064 -1.5845  0.2088 -0.1021
    1PC     C34 8756   0.527   2.063   2.934  0.2510  0.6910 -0.2994
    1PC     H4A 8757   0.463   2.125   2.871  1.2502  1.5663 -0.4790
    1PC     H4B 8758   0.503   1.957   2.930  0.2945  0.5939  1.5435
    1PC     H4C 8759   0.529   2.092   3.040  0.2151  1.6355 -0.5490
    1PC     C35 8760   0.670   2.048   2.732  0.2559  0.7184 -1.0662
    1PC     H5A 8761   0.769   2.073   2.693  0.5250 -0.4395 -1.1490
    1PC     H5B 8762   0.592   2.108   2.685  1.3800  1.0526 -2.5384
    1PC     H5C 8763   0.661   1.940   2.719  2.1658  0.2960  0.8600
    1PC     O33 8764   1.007   2.359   2.958 -0.0144 -0.2214 -0.4875
    1PC     O34 8765   1.069   2.227   3.167 -0.0106 -0.0016 -0.0054
    1PC     O21 8766   0.884   2.364   3.541  0.6091 -0.4094  0.8485
    1PC     C21 8767   0.868   2.232   3.579  0.4362 -0.4454  0.7997
    1PC     O22 8768   0.909   2.136   3.523 -0.1969 -0.1644 -0.1494
    1OL     C12 8769   0.775   2.222   3.700  0.4024  0.0975 -0.7459
    1OL     H2R 8770   0.719   2.315   3.704 -2.0514 -1.3438 -0.7286
    1OL     H2S 8771   0.834   2.216   3.793 -2.2607  2.2712  1.1681
    1OL     C13 8772   0.683   2.094   3.691  0.4759  0.2817 -0.5468
    1OL     H3R 8773   0.759   2.016   3.689 -0.8975 -1.0981  0.3500
    1OL     H3S 8774   0.622   2.093   3.601  1.6094 -0.3996 -1.3260
    1OL     C14 8775   0.596   2.063   3.810  0.5836  0.4112 -0.2628
    1OL     H4R 8776   0.547   2.158   3.834 -2.2565 -0.9802 -0.2552
    1OL     H4S 8777   0.664   2.036   3.891  0.9246  1.0370 -0.3337
    1OL     C15 8778   0.495   1.950   3.796  0.1855  1.3098  0.4940
    1OL     H5R 8779   0.538   1.854   3.768  2.5555  2.5112 -0.1037
    1OL     H5S 8780   0.425   1.980   3.718 -0.7348 -0.6110  0.5745
    1OL     C16 8781   0.425   1.924   3.933 -0.5865 -0.2319  1.2790
    1OL     H6R 8782   0.329   1.877   3.913 -1.4523  2.4774 -1.3897
    1OL     H6S 8783   0.424   2.017   3.991  2.0224  0.5053  0.2308
    1OL     C17 8784   0.516   1.825   4.013  0.5064 -0.4370 -0.5650
    1OL     H7R 8785   0.606   1.862   4.062 -0.5031  0.6873  0.5078
    1OL     H7S 8786   0.548   1.743   3.949  1.7780 -0.7951  0.5146
    1OL     C18 8787   0.437   1.751   4.119 -0.3922  0.1798  0.7587
    1OL     H8R 8788   0.381   1.669   4.073 -1.4731  1.3652 -0.0446
    1OL     H8S 8789   0.373   1.823   4.171 -0.9753  0.2157  0.0013
    1OL     C19 8790   0.534   1.703   4.222  0.1428  0.0264 -0.0352
    1OL     H9R 8791   0.613   1.774   4.246  0.2566 -0.1380  0.0788
    1OL    C110 8792   0.512   1.593   4.293  0.3058 -0.0547 -0.1396
    1OL    H10R 8793   0.581   1.567   4.374  1.4192 -0.5373 -1.2254
    1OL    C111 8794   0.398   1.490   4.272  0.2037  0.4751 -0.0670
    1OL    H11R 8795   0.433   1.390   4.247  2.6273  1.4588 -0.7393
    1OL    H11S 8796   0.330   1.525   4.194  0.6614  0.7930 -0.3270
    1OL    C112 8797   0.314   1.476   4.400 -0.6193  0.1682  0.3387
    1OL    H12R 8798   0.296   1.572   4.449 -0.4996 -1.0991  2.9631
    1OL    H12S 8799   0.369   1.419   4.475 -1.6178 -2.5972 -0.9527
    1OL    C113 8800   0.172   1.422   4.371  0.4296  0.2335  0.4567
    1OL    H13R 8801   0.181   1.319   4.334  0.9577  0.6501 -0.6084
    1OL    H13S 8802   0.123   1.479   4.292 -0.9506 -0.8319  0.5118
    1OL    C114 8803   0.074   1.421   4.496  0.5734 -0.2275 -0.3187
    1OL    H14R 8804   0.058   1.524   4.527 -0.2277 -0.3338 -0.3567
    1OL    H14S 8805   0.113   1.352   4.571 -1.6567  1.5492  2.5491
    1OL    C115 8806  -0.067   1.371   4.454 -0.9369  0.2204 -0.1832
    1OL    H15R 8807  -0.063   1.293   4.377  1.6818  0.4385 -0.2926
    1OL    H15S 8808  -0.113   1.455   4.403  0.0586  1.5164  1.0286
    1OL    C116 8809  -0.151   1.326   4.571 -0.0008 -0.0968  0.1775
    1OL    H16R 8810  -0.109   1.237   4.618 -2.7148 -1.7579 -0.4329
    1OL    H16S 8811  -0.249   1.299   4.534 -0.0123 -0.0475  0.1708
    1OL    C117 8812  -0.160   1.426   4.686 -0.2304 -0.0818 -0.1852
    1OL    H17R 8813  -0.185   1.522   4.640  0.9547  0.0409 -0.6031
    1OL    H17S 8814  -0.065   1.433   4.740 -0.5307 -1.3292  0.5124
    1OL    C118 8815  -0.274   1.387   4.781  0.2540 -0.4353  0.8050
    1OL    H18R 8816  -0.304   1.465   4.851  1.0765  0.8792 -0.2970
    1OL    H18S 8817  -0.248   1.293   4.832 -0.6069 -1.6572 -0.9757
    1OL    H18T 8818  -0.360   1.355   4.722 -0.0591  0.8273  0.5775
    1PA    C116 8819   4.593   2.988   5.399 -0.2012  0.2297  0.8419
    1PA    H16R 8820   4.678   2.980   5.467  0.1870  3.1387  0.7504
    1PA    H16S 8821   4.510   2.925   5.433  0.1766 -0.3407  0.7224
    1PA    H16T 8822   4.548   3.087   5.408  1.3669  1.0744 -0.2264
    1PA    C115 8823   4.634   2.967   5.245 -0.3376  0.3464  0.1368
    1PA    H15R 8824   4.720   3.028   5.217 -0.4542  0.7491  0.6684
    1PA    H15S 8825   4.658   2.863   5.222 -2.5350 -0.4115  1.1868
    1PA    C114 8826   4.527   2.996   5.141  0.1433 -0.2600  0.1626
    1PA    H14R 8827   4.432   2.950   5.165 -0.8710  2.7165  2.1473
    1PA    H14S 8828   4.501   3.102   5.144 -1.2301 -0.5537 -1.0028
    1PA    C113 8829   4.567   2.940   5.001  0.0775 -0.8176  0.4722
    1PA    H13R 8830   4.671   2.967   4.979  0.1596  0.1263  1.9552
    1PA    H13S 8831   4.555   2.832   5.007 -2.0935 -0.6429 -0.3477
    1PA    C112 8832   4.487   2.986   4.883 -0.1911 -0.3117  0.0368
    1PA    H12R 8833   4.383   2.961   4.907 -0.3684 -0.3902 -0.8036
    1PA    H12S 8834   4.480   3.095   4.883 -1.0031 -0.3636 -0.8665
    1PA    C111 8835   4.533   2.931   4.751 -0.3395  0.3072  0.2509
    1PA    H11R 8836   4.640   2.950   4.743 -0.0328 -1.0631  0.7760
    1PA    H11S 8837   4.505   2.825   4.751 -0.0121  0.1917  2.2996
    1PA    C110 8838   4.467   3.015   4.647 -0.3456  0.4055  0.5872
    1PA    H10R 8839   4.368   2.975   4.624  0.4952 -0.0506 -2.5998
    1PA    H10S 8840   4.450   3.117   4.680 -0.0833  1.2505 -1.8221
    1PA     C19 8841   4.541   3.007   4.508 -0.1220  0.5035  0.2500
    1PA     H9R 8842   4.649   3.016   4.522 -0.1299  0.2997  0.4484
    1PA     H9S 8843   4.533   2.906   4.467  2.2295  0.5750 -0.4569
    1PA     C18 8844   4.502   3.101   4.397 -0.4473  0.4247  0.0376
    1PA     H8R 8845   4.393   3.106   4.388 -0.3264  2.1172 -0.8174
    1PA     H8S 8846   4.531   3.204   4.421 -0.5499  1.1736 -2.8024
    1PA     C17 8847   4.560   3.063   4.261 -0.7123  0.0831 -0.2589
    1PA     H7R 8848   4.666   3.040   4.275 -0.2496  0.3557 -2.9027
    1PA     H7S 8849   4.503   2.976   4.227 -0.4272  0.4746 -1.7813
    1PA     C16 8850   4.535   3.175   4.157 -0.2923 -0.3620  0.9719
    1PA     H6R 8851   4.566   3.270   4.200  0.5765 -0.5001  0.6655
    1PA     H6S 8852   4.598   3.161   4.070  3.8680  2.4066  3.3699
    1PA     C15 8853   4.388   3.171   4.117  0.3076 -0.6144 -0.2796
    1PA     H5R 8854   4.367   3.075   4.070 -0.6921 -0.4577 -0.1590
    1PA     H5S 8855   4.333   3.188   4.210  0.0032 -1.5293 -0.2940
    1PA     C14 8856   4.368   3.293   4.024  0.4282 -0.0588  0.2970
    1PA     H4R 8857   4.261   3.296   4.007  0.5994 -0.8419 -0.9784
    1PA     H4S 8858   4.397   3.386   4.074  2.4858 -1.6837  2.2244
    1PA     C13 8859   4.434   3.277   3.886  0.7150 -0.3548 -0.2820
    1PA     H3R 8860   4.538   3.244   3.898  0.2708 -2.1666 -1.1996
    1PA     H3S 8861   4.389   3.188   3.842 -2.0570  0.6321  0.4708
    1PA     C12 8862   4.421   3.385   3.781 -0.1613 -0.6937 -0.4476
    1PA     H2R 8863   4.314   3.404   3.770 -0.2310  0.9689  2.4782
    1PA     H2S 8864   4.454   3.482   3.820 -0.6746 -0.1718 -1.3122
    1PC     C11 8865   4.483   3.328   3.650  0.0538  0.7577 -0.0015
    1PC     O12 8866   4.440   3.225   3.593 -0.2514 -0.1253  0.2714
    1PC     O11 8867   4.591   3.395   3.610 -0.0826 -0.1653 -0.4286
    1PC      C1 8868   4.663   3.337   3.500 -0.5614  0.4212  0.3953
    1PC      HR 8869   4.648   3.229   3.499 -0.9469  0.4582  1.4928
    1PC      HS 8870   4.620   3.377   3.408 -0.4671 -0.4465 -0.0211
    1PC      C2 8871   4.807   3.375   3.516 -0.5864 -0.4667 -0.0027
    1PC      HX 8872   4.820   3.481   3.541  0.0507 -0.3892 -0.6535
    1PC      C3 8873   4.881   3.348   3.384 -0.0395 -0.3496  0.0430
    1PC      HA 8874   4.857   3.429   3.314  0.4355 -0.0610  0.2085
    1PC      HB 8875   4.989   3.343   3.401 -0.5288 -2.0049  2.8574
    1PC     O31 8876   4.833   3.225   3.327 -0.2413 -0.3904 -0.2175
    1PC     P31 8877   4.844   3.192   3.170 -0.1845 -0.0123 -0.0567
    1PC     O32 8878   4.999   3.160   3.153 -0.2794 -0.2572  0.1189
    1PC     C31 8879   5.054   3.029   3.166 -0.0244  0.1432 -0.1810
    1PC     H1A 8880   5.162   3.043   3.165  0.0577 -0.3404  0.8592
    1PC     H1B 8881   5.026   2.973   3.256  0.9450 -0.9325 -0.5416
    1PC     C32 8882   5.015   2.943   3.042 -0.0937 -0.0208 -0.3891
    1PC     H2A 8883   5.007   2.835   3.054 -0.0177  0.2198  2.1285
    1PC     H2B 8884   4.914   2.978   3.018 -0.4962 -0.8982  0.0149
    1PC     N31 8885   5.104   2.961   2.923  0.6479 -0.5288 -0.3897
    1PC     C33 8886   5.238   2.901   2.947  0.2120  0.1101  0.1937
    1PC     H3A 8887   5.238   2.795   2.974  0.3440 -0.1971 -0.9978
    1PC     H3B 8888   5.303   2.917   2.861  1.3833  0.3598  1.1131
    1PC     H3C 8889   5.275   2.951   3.037 -0.9352  0.2424  0.5958
    1PC     C34 8890   5.038   2.898   2.811  0.1693  0.2212 -0.7499
    1PC     H4A 8891   5.115   2.866   2.740  1.7921 -0.0188  1.0896
    1PC     H4B 8892   4.996   2.807   2.855  1.0606 -0.0755 -0.5040
    1PC     H4C 8893   4.954   2.955   2.771 -0.3377 -0.9379 -1.3754
    1PC     C35 8894   5.123   3.100   2.894  0.1294 -0.2874 -0.4991
    1PC     H5A 8895   5.183   3.157   2.966 -1.4688  1.2533 -0.3644
    1PC     H5B 8896   5.022   3.137   2.878  0.4860  0.1011 -1.9353
    1PC     H5C 8897   5.170   3.106   2.796  1.4503  1.6002  0.2209
    1PC     O33 8898   4.764   3.074   3.130  0.3492  0.2587 -0.4274
    1PC     O34 8899   4.816   3.318   3.100  0.1308  0.5276 -0.2853
    1PC     O21 8900   4.864   3.298   3.621  0.5917 -0.3586 -0.3605
    1PC     C21 8901   4.954   3.347   3.703 -0.1445  0.5689  0.2169
    1PC     O22 8902   5.018   3.450   3.680 -0.3550  0.3667  0.5229
    1OL     C12 8903   4.972   3.260   3.820 -0.2925 -0.0378 -0.0493
    1OL     H2R 8904   5.080   3.263   3.838 -0.1076  1.0737 -1.2738
    1OL     H2S 8905   4.949   3.156   3.794 -0.8907  0.0616  0.0824
    1OL     C13 8906   4.903   3.316   3.936 -0.1680  0.5885 -0.0968
    1OL     H3R 8907   4.796   3.321   3.912 -0.0842 -0.8837 -0.8436
    1OL     H3S 8908   4.921   3.422   3.955 -1.0141  0.1172  3.7218
    1OL     C14 8909   4.934   3.247   4.068 -0.1957  0.6157 -0.1843
    1OL     H4R 8910   5.039   3.216   4.068 -0.4624 -0.3247 -0.5218
    1OL     H4S 8911   4.879   3.153   4.059  0.5059  0.3161 -1.6375
    1OL     C15 8912   4.895   3.327   4.194  0.6353 -0.0241  0.0582
    1OL     H5R 8913   4.787   3.340   4.195  0.6209 -0.1537  0.8649
    1OL     H5S 8914   4.945   3.424   4.194  1.3990 -0.3405 -4.1992
    1OL     C16 8915   4.931   3.233   4.310 -0.6990 -0.0637 -0.5086
    1OL     H6R 8916   5.037   3.247   4.332 -0.9258 -0.8668  1.1479
    1OL     H6S 8917   4.917   3.129   4.278  0.5515  0.2964 -2.3013
    1OL     C17 8918   4.853   3.248   4.441 -0.2218 -0.8528 -0.2665
    1OL     H7R 8919   4.746   3.227   4.439 -0.1418 -1.4123  0.9423
    1OL     H7S 8920   4.873   3.348   4.481 -0.1267 -0.3824 -1.4710
    1OL     C18 8921   4.899   3.159   4.550  0.0749 -0.8338  0.1249
    1OL     H8R 8922   5.007   3.172   4.558 -0.2219  1.8945  0.1346
    1OL     H8S 8923   4.885   3.052   4.533  3.8949 -1.4946  0.7415
    1OL     C19 8924   4.837   3.189   4.681  0.0336 -0.3540 -1.0339
    1OL     H9R 8925   4.746   3.248   4.688  0.7073  0.6303 -0.4127
    1OL    C110 8926   4.898   3.143   4.789 -0.0529  0.1867 -0.6343
    1OL    H10R 8927   4.859   3.167   4.887  2.3395 -1.9890  0.9178
    1OL    C111 8928   5.024   3.056   4.787  0.9125  0.9737 -0.7027
    1OL    H11R 8929   5.082   3.109   4.864  2.8348 -0.7056 -0.9634
    1OL    H11S 8930   5.082   3.054   4.695  2.9921  0.8382  0.5600
    1OL    C112 8931   5.009   2.919   4.831  0.7119 -0.0261 -0.0012
    1OL    H12R 8932   4.960   2.855   4.757  1.7615 -2.8929  1.6925
    1OL    H12S 8933   4.952   2.918   4.924 -0.4763 -2.6973 -0.7156
    1OL    C113 8934   5.148   2.857   4.857 -0.6085  0.0207 -0.7940
    1OL    H13R 8935   5.198   2.895   4.946 -0.0293  0.4643 -1.3092
    1OL    H13S 8936   5.221   2.877   4.779 -0.3597  0.8451 -0.3482
    1OL    C114 8937   5.139   2.707   4.881  0.5081  0.7297 -0.1263
    1OL    H14R 8938   5.240   2.678   4.909 -0.1276 -1.7724 -0.2822
    1OL    H14S 8939   5.103   2.667   4.786 -2.4524 -2.6843  2.2802
    1OL    C115 8940   5.043   2.652   4.988  0.0420 -0.4100  0.3083
    1OL    H15R 8941   5.053   2.544   4.984 -1.1547 -0.5519  0.8509
    1OL    H15S 8942   4.942   2.687   4.965  0.6874  2.0861  1.0798
    1OL    C116 8943   5.075   2.703   5.129 -1.1285 -0.1757  0.5544
    1OL    H16R 8944   5.079   2.812   5.134 -0.4107 -0.1961  0.4107
    1OL    H16S 8945   5.177   2.669   5.146 -0.4994 -0.0493 -2.7124
    1OL    C117 8946   4.982   2.650   5.240 -0.4041  0.3012  0.2990
    1OL    H17R 8947   4.881   2.686   5.216  0.6697  1.9429 -2.0084
    1OL    H17S 8948   5.014   2.692   5.335  2.5957  0.1309 -0.5825
    1OL    C118 8949   4.995   2.502   5.251  0.3588 -0.1702 -0.4175
    1OL    H18R 8950   5.097   2.463   5.248  0.9512  1.1857  1.6167
    1OL    H18S 8951   4.933   2.470   5.166 -0.9844  0.2517  0.3882
    1OL    H18T 8952   4.954   2.465   5.345 -4.2873  3.1656 -0.9221
    1PA    C116 8953   2.725   4.047   4.606 -0.1063 -0.3434 -0.4949
    1PA    H16R 8954   2.825   4.090   4.599 -0.1231  0.4295  3.2303
    1PA    H16S 8955   2.709   4.017   4.502  0.9861 -0.7695 -0.5533
    1PA    H16T 8956   2.717   3.975   4.688  1.2528 -1.0494 -0.9651
    1PA    C115 8957   2.640   4.167   4.633  0.0724  0.6352 -0.0760
    1PA    H15R 8958   2.537   4.132   4.647  0.0315 -0.1463 -2.1912
    1PA    H15S 8959   2.671   4.210   4.728  1.0141  0.6127 -0.3715
    1PA    C114 8960   2.637   4.271   4.514 -0.3736  0.0118 -0.0568
    1PA    H14R 8961   2.740   4.306   4.500 -0.3186  0.5452  1.5847
    1PA    H14S 8962   2.598   4.228   4.422 -0.1337 -0.9342  0.2739
    1PA    C113 8963   2.546   4.386   4.564 -0.8083 -0.0861 -0.5380
    1PA    H13R 8964   2.460   4.350   4.621 -0.4871  2.0936  1.4011
    1PA    H13S 8965   2.608   4.446   4.632 -2.1676  0.1355  0.5220
    1PA    C112 8966   2.502   4.473   4.452 -0.3109 -0.3839 -0.3421
    1PA    H12R 8967   2.592   4.512   4.404  0.3523  1.1016  2.0219
    1PA    H12S 8968   2.444   4.413   4.382  0.2854 -2.4579  0.9173
    1PA    C111 8969   2.419   4.594   4.494  0.5756 -0.3151  0.1063
    1PA    H11R 8970   2.316   4.563   4.512  0.4541 -1.0168 -1.6934
    1PA    H11S 8971   2.456   4.629   4.590 -0.2330  1.2201 -0.1305
    1PA    C110 8972   2.412   4.700   4.378  0.5116  0.2066 -0.1804
    1PA    H10R 8973   2.344   4.779   4.409 -1.0273 -1.2221  0.1412
    1PA    H10S 8974   2.504   4.754   4.354  0.6308  0.3444  0.5542
    1PA     C19 8975   2.362   4.629   4.250 -0.4378 -1.0184  0.3032
    1PA     H9R 8976   2.436   4.561   4.208 -0.6259  0.5650 -2.7878
    1PA     H9S 8977   2.272   4.569   4.268  0.9061 -2.9972  0.6085
    1PA     C18 8978   2.339   4.743   4.150  0.0998 -0.1606  0.6881
    1PA     H8R 8979   2.252   4.805   4.170 -0.2796  0.6173 -2.9453
    1PA     H8S 8980   2.424   4.810   4.158 -0.4175  0.2084  3.4488
    1PA     C17 8981   2.326   4.677   4.006  0.2604 -0.4854  0.4102
    1PA     H7R 8982   2.248   4.600   4.009 -0.8169  0.3842 -3.1728
    1PA     H7S 8983   2.419   4.627   3.979 -1.2829 -1.4368 -3.3380
    1PA     C16 8984   2.290   4.777   3.899  0.0460  0.2540  0.1707
    1PA     H6R 8985   2.205   4.843   3.921  0.2772 -0.2173  2.6497
    1PA     H6S 8986   2.378   4.837   3.878  0.7225 -0.2927  1.4009
    1PA     C15 8987   2.249   4.690   3.769 -0.3176 -0.3377 -0.8022
    1PA     H5R 8988   2.322   4.609   3.765  0.0898  0.0718 -1.7317
    1PA     H5S 8989   2.148   4.656   3.790 -0.0225 -0.6906  0.0774
    1PA     C14 8990   2.244   4.777   3.642 -0.3641  0.2111  0.1280
    1PA     H4R 8991   2.183   4.866   3.658 -0.8315 -0.0497 -0.1992
    1PA     H4S 8992   2.340   4.820   3.613 -1.1638  1.6527 -0.4606
    1PA     C13 8993   2.188   4.701   3.520 -0.1549  1.4309 -0.0414
    1PA     H3R 8994   2.084   4.677   3.542  0.4014  0.6146  1.7652
    1PA     H3S 8995   2.194   4.758   3.427 -0.0302  0.6873 -0.4956
    1PA     C12 8996   2.272   4.568   3.499 -0.1801  0.2374 -0.1952
    1PA     H2R 8997   2.377   4.588   3.476  0.0703 -0.4979  0.3137
    1PA     H2S 8998   2.291   4.513   3.591 -0.3879  1.3271  0.5078
    1PC     C11 8999   2.210   4.483   3.395 -0.6525 -0.3836  0.0390
    1PC     O12 9000   2.218   4.491   3.273 -0.9495 -0.7055 -0.6748
    1PC     O11 9001   2.133   4.394   3.448 -0.1873 -0.0217 -0.0965
    1PC      C1 9002   2.023   4.319   3.376 -0.3300 -0.0123 -0.1179
    1PC      HR 9003   1.954   4.284   3.453  0.4728  0.2366  0.7225
    1PC      HS 9004   1.967   4.386   3.311 -2.7752 -0.6701  1.2575
    1PC      C2 9005   2.078   4.189   3.317  0.1159  0.3770  0.1449
    1PC      HX 9006   2.145   4.214   3.235 -0.0749 -2.2512 -0.8630
    1PC      C3 9007   1.986   4.080   3.253 -0.4563 -0.8369 -0.7873
    1PC      HA 9008   2.030   4.035   3.164  1.7036 -1.8632  0.7737
    1PC      HB 9009   1.960   4.008   3.331  1.8486  2.0968  2.8500
    1PC     O31 9010   1.860   4.148   3.199 -0.1445 -0.3771  0.1531
    1PC     P31 9011   1.858   4.199   3.044  0.1434  0.2201 -0.1445
    1PC     O32 9012   1.977   4.308   3.026 -0.1388 -0.1969 -0.9044
    1PC     C31 9013   1.959   4.448   3.040  0.5308 -0.5777  0.3185
    1PC     H1A 9014   1.853   4.473   3.038  0.7861  0.4487 -0.3089
    1PC     H1B 9015   2.000   4.484   3.134 -1.3897  1.8675  0.2780
    1PC     C32 9016   2.035   4.510   2.923  0.2871  0.0057  0.5007
    1PC     H2A 9017   2.065   4.606   2.964 -0.5460 -0.1982  1.6188
    1PC     H2B 9018   2.126   4.460   2.890  0.2479 -1.2669  2.2186
    1PC     N31 9019   1.956   4.529   2.797 -0.8712  0.6755 -0.5713
    1PC     C33 9020   1.855   4.643   2.805 -0.4271 -0.0882 -0.9520
    1PC     H3A 9021   1.904   4.732   2.843 -0.7034  0.1290 -1.1021
    1PC     H3B 9022   1.817   4.655   2.703 -0.6334 -1.9091 -1.1162
    1PC     H3C 9023   1.775   4.620   2.877  2.6089 -0.5431  2.4163
    1PC     C34 9024   2.050   4.564   2.685 -0.3744  0.2166 -0.1444
    1PC     H4A 9025   2.100   4.475   2.648 -0.5597  0.0959 -0.1044
    1PC     H4B 9026   1.984   4.610   2.612 -1.3635 -0.3560  0.3855
    1PC     H4C 9027   2.124   4.639   2.717 -0.8456  0.9523 -0.7687
    1PC     C35 9028   1.878   4.414   2.765  0.0869  0.6865 -0.1119
    1PC     H5A 9029   1.823   4.429   2.672  0.0705  0.0128 -0.2133
    1PC     H5B 9030   1.804   4.403   2.845  0.3462 -0.1947  0.0217
    1PC     H5C 9031   1.940   4.324   2.759  0.1859  0.7654 -0.2796
    1PC     O33 9032   1.889   4.088   2.956  0.1736 -0.5652  0.2142
    1PC     O34 9033   1.730   4.261   3.020  0.3886  0.1921 -0.4558
    1PC     O21 9034   2.146   4.116   3.426  0.0271 -0.2475  0.3038
    1PC     C21 9035   2.272   4.131   3.451  0.0796 -0.2506 -0.0517
    1PC     O22 9036   2.346   4.186   3.375  0.1985  0.2556 -0.6156
    1OL     C12 9037   2.313   4.069   3.586 -0.4615  0.1190 -0.6607
    1OL     H2R 9038   2.405   4.010   3.577 -0.5390  0.1382 -1.6802
    1OL     H2S 9039   2.233   4.010   3.631  0.2123  0.0426  0.4590
    1OL     C13 9040   2.353   4.178   3.683  0.1621 -0.1917  0.9582
    1OL     H3R 9041   2.332   4.147   3.786  0.3455 -1.9775  0.4837
    1OL     H3S 9042   2.293   4.265   3.656  0.9654  0.5369  1.4798
    1OL     C14 9043   2.496   4.240   3.669 -0.3561 -0.0934 -0.0924
    1OL     H4R 9044   2.519   4.309   3.750 -2.7964  0.9721 -0.2735
    1OL     H4S 9045   2.494   4.292   3.573  0.1747  2.4134  1.2274
    1OL     C15 9046   2.615   4.146   3.668  0.3527  0.1012 -0.1654
    1OL     H5R 9047   2.712   4.196   3.673  0.1129  0.4600  1.0387
    1OL     H5S 9048   2.607   4.090   3.575  1.1567 -1.0641  0.4575
    1OL     C16 9049   2.607   4.053   3.785  0.3590 -1.0175 -0.2723
    1OL     H6R 9050   2.515   3.995   3.779 -0.6034  0.0049  3.4337
    1OL     H6S 9051   2.622   4.119   3.870  2.0587 -2.4858  0.6195
    1OL     C17 9052   2.722   3.951   3.783 -0.0488  0.2485  0.4214
    1OL     H7R 9053   2.817   4.001   3.759 -0.0087  0.3961  0.8735
    1OL     H7S 9054   2.695   3.883   3.703 -2.1454  0.1228  1.2192
    1OL     C18 9055   2.741   3.859   3.900  1.1547  0.3634  0.3849
    1OL     H8R 9056   2.837   3.808   3.895  2.1503  2.3264 -1.5754
    1OL     H8S 9057   2.663   3.783   3.897 -1.7532  3.0989  2.6852
    1OL     C19 9058   2.734   3.943   4.024 -0.3452  0.1445  0.0841
    1OL     H9R 9059   2.825   3.998   4.047 -1.9195  1.9752  2.1448
    1OL    C110 9060   2.624   3.949   4.106 -0.5998 -0.5386  0.7885
    1OL    H10R 9061   2.636   4.023   4.185  0.2836  0.1918 -0.0164
    1OL    C111 9062   2.490   3.880   4.097  0.3450  0.0157  1.4244
    1OL    H11R 9063   2.476   3.831   4.194 -1.2819 -1.0330  0.6809
    1OL    H11S 9064   2.500   3.805   4.019 -0.5472  1.3550 -0.0067
    1OL    C112 9065   2.367   3.975   4.079  0.6232 -0.4226  0.1909
    1OL    H12R 9066   2.280   3.919   4.046  0.3332 -0.5337  1.1276
    1OL    H12S 9067   2.384   4.040   3.992 -2.3811 -1.2254 -1.0501
    1OL    C113 9068   2.334   4.073   4.196 -0.3017  0.0665 -0.0301
    1OL    H13R 9069   2.265   4.149   4.159  2.5141  0.7691 -4.1130
    1OL    H13S 9070   2.435   4.113   4.211 -0.4894  0.4504  0.2317
    1OL    C114 9071   2.285   4.005   4.328  0.7367 -0.3021 -0.0899
    1OL    H14R 9072   2.355   3.928   4.359 -0.4145 -0.7074  1.5968
    1OL    H14S 9073   2.192   3.948   4.316 -0.4411  1.2654  1.2831
    1OL    C115 9074   2.251   4.110   4.441 -0.2983  0.4822 -0.3796
    1OL    H15R 9075   2.165   4.171   4.416  0.9305  2.0064 -0.9658
    1OL    H15S 9076   2.335   4.180   4.448  1.0805 -1.0746 -1.0106
    1OL    C116 9077   2.218   4.058   4.587  0.0218 -0.7256 -0.1287
    1OL    H16R 9078   2.316   4.025   4.621 -0.7060 -0.6704  2.0791
    1OL    H16S 9079   2.140   3.982   4.590 -0.1842 -0.5206 -0.1948
    1OL    C117 9080   2.176   4.182   4.674 -0.9680  0.2680 -0.2775
    1OL    H17R 9081   2.104   4.245   4.623 -0.6562 -0.8219 -2.1247
    1OL    H17S 9082   2.271   4.234   4.689  0.2579 -1.0821 -2.8953
    1OL    C118 9083   2.121   4.133   4.811 -0.2577 -0.5170  0.6353
    1OL    H18R 9084   2.119   4.219   4.878 -0.5619 -0.6617  0.8154
    1OL    H18S 9085   2.183   4.058   4.859 -0.4989 -0.9613  0.2571
    1OL    H18T 9086   2.020   4.098   4.787 -0.8214  1.3807  0.1406
    1PA    C116 9087   1.577   0.295   5.013  0.3175 -0.1719  0.2120
    1PA    H16R 9088   1.576   0.236   4.921 -1.2669  0.2806 -0.0747
    1PA    H16S 9089   1.479   0.321   5.053 -0.4466 -1.2776 -0.9025
    1PA    H16T 9090   1.631   0.234   5.085  0.3879  0.1055  0.3923
    1PA    C115 9091   1.669   0.420   4.997 -0.1178  0.0678 -0.5167
    1PA    H15R 9092   1.687   0.464   5.095 -1.9760  0.0217 -0.1304
    1PA    H15S 9093   1.763   0.384   4.955  0.8231  1.7228  0.1293
    1PA    C114 9094   1.613   0.530   4.900 -0.8338  0.0931 -0.2195
    1PA    H14R 9095   1.537   0.579   4.960  1.2846  1.9771  1.0195
    1PA    H14S 9096   1.688   0.609   4.894  0.1160 -0.7530  0.3363
    1PA    C113 9097   1.557   0.472   4.766  0.6861  0.4239 -0.1613
    1PA    H13R 9098   1.478   0.398   4.781  0.4372  0.5214 -0.9431
    1PA    H13S 9099   1.511   0.563   4.727  1.2189  2.0423  2.8557
    1PA    C112 9100   1.654   0.410   4.660 -0.3567 -0.4367  0.0446
    1PA    H12R 9101   1.712   0.336   4.716  0.9356  0.5705  0.0602
    1PA    H12S 9102   1.594   0.370   4.579  0.2316 -1.1727 -0.0342
    1PA    C111 9103   1.757   0.510   4.607 -0.1328  0.1264  0.0277
    1PA    H11R 9104   1.708   0.579   4.538 -1.0745 -2.1639 -1.6741
    1PA    H11S 9105   1.808   0.562   4.688 -1.0951 -1.5773  1.7836
    1PA    C110 9106   1.870   0.440   4.524 -0.0942 -0.6157 -0.4928
    1PA    H10R 9107   1.912   0.362   4.589  0.8976 -0.2612 -0.6956
    1PA    H10S 9108   1.832   0.395   4.432  2.2843  3.0925 -3.4384
    1PA     C19 9109   1.985   0.524   4.478 -0.1375 -0.2257  0.0714
    1PA     H9R 9110   1.942   0.597   4.410 -1.0946  0.4510  1.3743
    1PA     H9S 9111   2.026   0.581   4.562  0.2213 -0.3095 -0.0472
    1PA     C18 9112   2.092   0.433   4.407  0.0253 -0.4116 -0.2055
    1PA     H8R 9113   2.183   0.490   4.430 -0.3523  0.8173 -1.7095
    1PA     H8S 9114   2.097   0.339   4.462 -0.2242 -0.9890 -1.1735
    1PA     C17 9115   2.079   0.399   4.262  0.1891 -0.2487 -0.4799
    1PA     H7R 9116   2.165   0.335   4.236  0.2455 -0.5170  0.3334
    1PA     H7S 9117   1.989   0.338   4.255  1.0298 -1.5025 -0.6269
    1PA     C16 9118   2.058   0.503   4.157 -0.3384  0.6219 -0.0080
    1PA     H6R 9119   1.979   0.573   4.183 -2.5764 -2.0580  0.6739
    1PA     H6S 9120   2.140   0.574   4.147  0.4638 -0.1923  0.6683
    1PA     C15 9121   2.027   0.442   4.020  0.2964  0.1121 -0.2978
    1PA     H5R 9122   2.072   0.346   3.996  3.3222  0.9965  1.5930
    1PA     H5S 9123   1.919   0.422   4.019  0.4852 -0.8794 -0.7594
    1PA     C14 9124   2.049   0.545   3.905 -0.4766  0.0719 -0.3564
    1PA     H4R 9125   1.996   0.637   3.929 -0.7293 -0.5094  1.4115
    1PA     H4S 9126   2.157   0.554   3.897 -0.5323  0.3294 -0.8375
    1PA     C13 9127   2.006   0.485   3.765 -0.2413 -0.3537 -0.2982
    1PA     H3R 9128   2.036   0.545   3.679  1.1257  2.6172  2.1895
    1PA     H3S 9129   2.057   0.391   3.744  0.3839  0.3857 -2.2581
    1PA     C12 9130   1.853   0.470   3.744  0.2021  0.1361 -0.1867
    1PA     H2R 9131   1.801   0.441   3.836  3.3568  0.1398  1.6485
    1PA     H2S 9132   1.810   0.569   3.732 -1.4857 -0.1331  3.1622
    1PC     C11 9133   1.813   0.384   3.623 -0.4357 -0.5884 -0.7846
    1PC     O12 9134   1.896   0.334   3.547 -0.4463 -0.1333  0.2555
    1PC     O11 9135   1.680   0.392   3.592  0.8381 -0.7756  0.1416
    1PC      C1 9136   1.638   0.299   3.493 -0.2787 -0.3030  0.3391
    1PC      HR 9137   1.688   0.326   3.400  0.4518  0.3767  0.9183
    1PC      HS 9138   1.668   0.198   3.523 -0.8848  0.0380  2.1609
    1PC      C2 9139   1.486   0.302   3.481  0.6341 -0.4563  0.3380
    1PC      HX 9140   1.454   0.230   3.406 -1.3200  1.1693 -0.4191
    1PC      C3 9141   1.428   0.441   3.439  0.5231  0.9107 -0.1495
    1PC      HA 9142   1.325   0.444   3.477  1.6960  0.5332  3.1872
    1PC      HB 9143   1.482   0.521   3.490  2.1674 -0.7341  0.7294
    1PC     O31 9144   1.426   0.448   3.295 -0.3374  0.0201 -0.1529
    1PC     P31 9145   1.538   0.528   3.218  0.0423  0.5463 -0.2167
    1PC     O32 9146   1.488   0.684   3.214  0.1352 -0.0686 -0.0814
    1PC     C31 9147   1.538   0.779   3.320 -1.1432 -0.8860 -0.5719
    1PC     H1A 9148   1.459   0.819   3.385 -0.6443  1.6690 -1.4561
    1PC     H1B 9149   1.613   0.738   3.388 -0.5454 -0.7425 -1.1502
    1PC     C32 9150   1.595   0.906   3.243 -0.2483 -0.0765 -0.4146
    1PC     H2A 9151   1.504   0.954   3.206 -0.5446 -0.1296  0.2285
    1PC     H2B 9152   1.639   0.972   3.318  1.3262 -3.1767  1.4856
    1PC     N31 9153   1.695   0.890   3.128  0.4613  0.1974  0.5123
    1PC     C33 9154   1.652   0.820   3.003 -0.1309 -0.3298 -0.1508
    1PC     H3A 9155   1.625   0.717   3.029 -1.0236 -0.5160 -1.7298
    1PC     H3B 9156   1.569   0.868   2.951 -0.7332  0.0652  1.1535
    1PC     H3C 9157   1.744   0.808   2.946  0.5829 -0.6920  1.0522
    1PC     C34 9158   1.731   1.021   3.073  0.2543 -0.0254  0.3184
    1PC     H4A 9159   1.761   1.091   3.152  3.0240  0.5359 -1.1402
    1PC     H4B 9160   1.813   1.000   3.004  1.0900  1.0433  0.9643
    1PC     H4C 9161   1.651   1.073   3.020 -0.9531 -2.0731  0.0803
    1PC     C35 9162   1.816   0.808   3.185 -0.3030 -0.3545 -0.1842
    1PC     H5A 9163   1.891   0.820   3.108  0.9442  0.3089  1.1058
    1PC     H5B 9164   1.798   0.701   3.186  0.1506 -0.4264  0.5017
    1PC     H5C 9165   1.843   0.854   3.281 -0.9474 -0.8304  0.2290
    1PC     O33 9166   1.667   0.525   3.282  0.2436 -0.3103 -0.1963
    1PC     O34 9167   1.521   0.484   3.078  0.2075  0.7306 -0.4244
    1PC     O21 9168   1.434   0.263   3.613  0.1208 -0.1835  0.3112
    1PC     C21 9169   1.313   0.202   3.625  0.5174  0.3888  0.0138
    1PC     O22 9170   1.249   0.170   3.525 -0.0805 -0.1488  0.4318
    1OL     C12 9171   1.270   0.187   3.768  0.0010  0.0992  0.0475
    1OL     H2R 9172   1.331   0.252   3.831  0.8050 -0.7732  0.1804
    1OL     H2S 9173   1.292   0.084   3.796  3.9167  1.0271  0.6713
    1OL     C13 9174   1.124   0.218   3.806 -0.0198  0.6237  0.5278
    1OL     H3R 9175   1.112   0.194   3.912  0.6455  0.8900  0.6694
    1OL     H3S 9176   1.057   0.156   3.746 -0.8843 -0.1939  2.2784
    1OL     C14 9177   1.085   0.362   3.796  0.8037 -0.5836  0.3113
    1OL     H4R 9178   1.008   0.392   3.868 -1.0502 -1.1788 -1.3887
    1OL     H4S 9179   1.044   0.385   3.698  2.7103  0.2203 -0.3240
    1OL     C15 9180   1.199   0.475   3.803  0.2793 -0.0299 -0.6872
    1OL     H5R 9181   1.270   0.466   3.721  0.0352  2.4767 -1.2137
    1OL     H5S 9182   1.261   0.460   3.892 -2.0880 -0.6091  0.9247
    1OL     C16 9183   1.138   0.620   3.817  0.0435  0.4678 -0.1793
    1OL     H6R 9184   1.067   0.616   3.899  0.2858 -0.7035 -0.0178
    1OL     H6S 9185   1.088   0.639   3.722 -1.8832 -0.8792  0.5411
    1OL     C17 9186   1.247   0.728   3.842  0.8961 -0.0235 -0.3598
    1OL     H7R 9187   1.299   0.714   3.936 -0.4954  1.0646  0.5916
    1OL     H7S 9188   1.200   0.825   3.859 -0.3697 -0.7004  0.0857
    1OL     C18 9189   1.355   0.734   3.738  0.1054  0.1906 -0.2242
    1OL     H8R 9190   1.311   0.687   3.650 -0.4611  1.2813 -0.5345
    1OL     H8S 9191   1.434   0.668   3.773 -0.0109  0.2062  0.0698
    1OL     C19 9192   1.390   0.876   3.706 -0.4079 -0.1569 -0.6239
    1OL     H9R 9193   1.309   0.948   3.705 -0.3075 -0.0435 -2.3062
    1OL    C110 9194   1.518   0.919   3.677  0.0454  0.6884  0.0985
    1OL    H10R 9195   1.531   1.026   3.662  0.5380  0.5864 -0.2283
    1OL    C111 9196   1.644   0.831   3.675  0.8206  0.4273 -0.7428
    1OL    H11R 9197   1.695   0.841   3.579  0.8121 -0.8225 -0.8927
    1OL    H11S 9198   1.617   0.726   3.689 -1.2796  1.0222 -0.2349
    1OL    C112 9199   1.750   0.883   3.781  0.2026 -0.7726  1.0072
    1OL    H12R 9200   1.768   0.990   3.767 -0.8892 -0.8730 -1.3026
    1OL    H12S 9201   1.848   0.839   3.764  0.8909  0.9785  0.3054
    1OL    C113 9202   1.709   0.861   3.923 -0.2021  0.3491  0.0440
    1OL    H13R 9203   1.684   0.755   3.931  0.5506  0.0665 -1.0815
    1OL    H13S 9204   1.620   0.919   3.948 -0.1287 -0.2595  1.7427
    1OL    C114 9205   1.819   0.879   4.031 -0.2295 -0.1465  0.3170
    1OL    H14R 9206   1.819   0.983   4.065 -1.1818 -0.4170  1.1710
    1OL    H14S 9207   1.915   0.850   3.989 -0.6736 -1.3290  0.0962
    1OL    C115 9208   1.818   0.797   4.158 -0.3358 -0.1631 -0.5553
    1OL    H15R 9209   1.913   0.806   4.211 -0.2566  0.3093 -0.7763
    1OL    H15S 9210   1.812   0.692   4.130 -1.8960 -0.2600  0.0620
    1OL    C116 9211   1.703   0.819   4.256  0.4671  0.0268  0.0329
    1OL    H16R 9212   1.690   0.722   4.303  2.4841  0.0199  0.6206
    1OL    H16S 9213   1.613   0.846   4.201  0.3376  1.4100  0.8912
    1OL    C117 9214   1.738   0.930   4.354 -0.1537 -0.6964  0.2983
    1OL    H17R 9215   1.652   0.957   4.416  0.3569 -0.8624  1.0791
    1OL    H17S 9216   1.762   1.021   4.299 -1.5576 -0.1614  0.5591
    1OL    C118 9217   1.849   0.890   4.450 -0.8784  0.1254 -0.1084
    1OL    H18R 9218   1.943   0.867   4.398 -1.2329 -2.5356  0.3895
    1OL    H18S 9219   1.829   0.813   4.524  2.5210 -1.8793 -1.1543
    1OL    H18T 9220   1.867   0.976   4.515 -0.0112 -0.2187  0.1181
    1PA    C116 9221   3.430   4.840   5.113  0.8293 -0.7054 -0.2729
    1PA    H16R 9222   3.442   4.949   5.109 -0.9403 -0.5240 -1.6856
    1PA    H16S 9223   3.429   4.815   5.219 -2.4066 -1.7441 -0.4810
    1PA    H16T 9224   3.330   4.818   5.075  0.1097  0.1772  1.0612
    1PA    C115 9225   3.543   4.757   5.045 -0.1063  0.1122  0.4530
    1PA    H15R 9226   3.518   4.651   5.043 -1.4487  0.3789  1.6837
    1PA    H15S 9227   3.550   4.772   4.937 -0.3715 -1.9523  0.1396
    1PA    C114 9228   3.682   4.749   5.106  0.4781  0.1817 -0.6082
    1PA    H14R 9229   3.657   4.733   5.211  0.2885 -1.2248 -0.8553
    1PA    H14S 9230   3.744   4.671   5.060  1.7427 -0.0818  1.4774
    1PA    C113 9231   3.756   4.884   5.103  0.3844  0.1374 -0.0212
    1PA    H13R 9232   3.697   4.960   5.155 -1.0597 -0.5893 -0.5706
    1PA    H13S 9233   3.852   4.873   5.155 -0.4141  1.3334  1.7473
    1PA    C112 9234   3.802   4.928   4.964 -0.3128  0.4000 -0.9310
    1PA    H12R 9235   3.712   4.938   4.903  0.7307 -0.1590 -2.6007
    1PA    H12S 9236   3.856   5.023   4.965  1.1974 -0.4189  1.9326
    1PA    C111 9237   3.908   4.833   4.897 -0.6348  0.0856 -0.4818
    1PA    H11R 9238   3.989   4.815   4.968 -0.3185  0.7242 -0.6736
    1PA    H11S 9239   3.877   4.731   4.877  0.5039 -0.3053 -0.2645
    1PA    C110 9240   3.960   4.885   4.764 -0.4291  0.5642  0.1580
    1PA    H10R 9241   3.885   4.902   4.688 -2.7112 -0.7794  2.0384
    1PA    H10S 9242   4.016   4.978   4.780  1.0402 -0.6335  2.3567
    1PA     C19 9243   4.055   4.789   4.690 -0.1292  0.7428 -0.4401
    1PA     H9R 9244   4.120   4.742   4.764 -1.0838  0.6026  0.3313
    1PA     H9S 9245   3.998   4.706   4.648 -1.3417  1.0624  0.5155
    1PA     C18 9246   4.132   4.855   4.577 -0.4243 -0.5936  0.4708
    1PA     H8R 9247   4.179   4.947   4.612 -0.2073 -0.5112 -0.0287
    1PA     H8S 9248   4.218   4.789   4.559  1.4054  2.0150 -0.7476
    1PA     C17 9249   4.054   4.870   4.448  0.1910  0.1788  0.4985
    1PA     H7R 9250   3.997   4.778   4.432 -0.4507  0.7284 -0.4771
    1PA     H7S 9251   3.978   4.948   4.461  0.5917  0.9060 -1.2760
    1PA     C16 9252   4.139   4.920   4.324 -0.2825 -0.0546 -0.0204
    1PA     H6R 9253   4.171   5.021   4.350 -1.9437  0.7861 -1.1296
    1PA     H6S 9254   4.228   4.857   4.328 -0.5356 -0.3690  0.6712
    1PA     C15 9255   4.062   4.921   4.185 -0.0506  0.2122  0.0913
    1PA     H5R 9256   3.957   4.942   4.205  0.4493  5.3361 -2.0217
    1PA     H5S 9257   4.100   5.010   4.135  0.0468  0.6928  1.0043
    1PA     C14 9258   4.071   4.783   4.113  0.3551  0.2902 -0.3064
    1PA     H4R 9259   4.175   4.768   4.083  0.9330  1.7790  0.8546
    1PA     H4S 9260   4.049   4.715   4.195  0.3587 -1.0713 -1.4189
    1PA     C13 9261   3.968   4.762   3.999  0.1946  0.9549 -0.1508
    1PA     H3R 9262   3.963   4.655   3.977  0.0264  0.7909  0.6888
    1PA     H3S 9263   3.868   4.788   4.035 -0.4404  0.3684 -1.4585
    1PA     C12 9264   4.005   4.837   3.874  0.0306  0.9375  0.2183
    1PA     H2R 9265   3.967   4.939   3.876  0.0560  0.9797 -1.1490
    1PA     H2S 9266   4.113   4.844   3.863 -0.0139  1.5689  0.1624
    1PC     C11 9267   3.956   4.768   3.752 -0.2235 -0.5490 -0.3077
    1PC     O12 9268   3.920   4.650   3.746 -0.1112 -0.3063 -0.1660
    1PC     O11 9269   3.967   4.849   3.641  0.3804 -0.5640 -0.5927
    1PC      C1 9270   3.942   4.796   3.509 -0.1170  0.1007  0.4748
    1PC      HR 9271   3.859   4.726   3.505  0.5232 -0.6250 -0.4740
    1PC      HS 9272   3.910   4.880   3.447 -2.9660 -1.6148 -0.4678
    1PC      C2 9273   4.071   4.711   3.451  0.4098 -0.0370  1.2020
    1PC      HX 9274   4.158   4.775   3.435 -1.3220  1.4280 -2.9937
    1PC      C3 9275   4.051   4.664   3.301 -0.1772  0.5030  0.0283
    1PC      HA 9276   3.965   4.597   3.294 -2.1819  3.0569 -0.6433
    1PC      HB 9277   4.028   4.751   3.238 -3.0222 -0.5669 -0.4649
    1PC     O31 9278   4.169   4.594   3.250 -0.2232 -0.4116  0.3722
    1PC     P31 9279   4.288   4.660   3.177 -0.4490 -0.1395 -0.3418
    1PC     O32 9280   4.361   4.746   3.289 -0.5497  0.0386 -0.0918
    1PC     C31 9281   4.457   4.694   3.374 -0.4186 -0.6959 -0.3236
    1PC     H1A 9282   4.462   4.757   3.463 -1.9596 -2.4205  1.0381
    1PC     H1B 9283   4.436   4.591   3.405  0.0328 -0.5910  0.3520
    1PC     C32 9284   4.586   4.710   3.290 -0.0604  0.6581 -0.2153
    1PC     H2A 9285   4.673   4.667   3.340  1.4429  2.0664 -1.5363
    1PC     H2B 9286   4.570   4.665   3.192  2.5583 -3.6652  1.2272
    1PC     N31 9287   4.630   4.853   3.262  0.2290 -0.1669  0.2128
    1PC     C33 9288   4.604   4.944   3.376 -0.4229 -0.2657 -0.1619
    1PC     H3A 9289   4.498   4.967   3.366  0.1466  1.9207 -1.5359
    1PC     H3B 9290   4.618   4.899   3.474  1.5711  0.3842 -0.1174
    1PC     H3C 9291   4.662   5.035   3.363 -0.3178 -0.5016 -1.5099
    1PC     C34 9292   4.772   4.860   3.225  0.1624  0.0092  0.1096
    1PC     H4A 9293   4.790   4.959   3.183  1.5267 -0.3856 -0.2620
    1PC     H4B 9294   4.829   4.845   3.317 -0.7509 -1.1361  0.5064
    1PC     H4C 9295   4.795   4.787   3.147  0.0892  0.4184 -0.2938
    1PC     C35 9296   4.553   4.905   3.142  0.5603  0.6230  0.4999
    1PC     H5A 9297   4.559   5.014   3.150  0.2183  0.7459 -0.8877
    1PC     H5B 9298   4.449   4.873   3.143  0.8257 -0.3292 -1.4466
    1PC     H5C 9299   4.609   4.878   3.053  1.5614  3.8504  0.0694
    1PC     O33 9300   4.379   4.552   3.128 -0.3651  0.9318 -0.1060
    1PC     O34 9301   4.234   4.752   3.074 -0.3777  0.3908  0.0777
    1PC     O21 9302   4.100   4.597   3.531  0.3655 -0.3872 -0.2991
    1PC     C21 9303   4.201   4.592   3.617 -0.0164  0.1047 -0.2724
    1PC     O22 9304   4.272   4.686   3.645 -0.4375  0.3102  0.2377
    1OL     C12 9305   4.220   4.448   3.666 -0.5308 -0.2535  0.8034
    1OL     H2R 9306   4.242   4.390   3.576  2.7785 -0.1870  1.5091
    1OL     H2S 9307   4.124   4.416   3.709 -0.2946  0.6097  2.0040
    1OL     C13 9308   4.330   4.423   3.770 -0.5922 -0.0009  0.3603
    1OL     H3R 9309   4.306   4.481   3.859 -0.3830 -0.3868  0.6741
    1OL     H3S 9310   4.422   4.461   3.726  1.6451 -1.9651  3.1591
    1OL     C14 9311   4.330   4.276   3.804 -0.3328  0.1365  0.0510
    1OL     H4R 9312   4.360   4.222   3.714 -1.5085 -1.6327  0.7065
    1OL     H4S 9313   4.230   4.246   3.835 -1.3885  0.7503 -2.6304
    1OL     C15 9314   4.441   4.232   3.905 -0.0483 -0.3285 -0.4147
    1OL     H5R 9315   4.539   4.261   3.865 -0.3229  1.7275  0.3442
    1OL     H5S 9316   4.441   4.123   3.914  2.1815 -0.1730  2.0365
    1OL     C16 9317   4.424   4.305   4.035  0.9664  0.1549 -0.4286
    1OL     H6R 9318   4.364   4.241   4.100  2.0707 -0.4199  0.0575
    1OL     H6S 9319   4.373   4.400   4.018  0.9040 -0.1489 -1.9781
    1OL     C17 9320   4.551   4.346   4.109 -0.6756 -0.2111 -0.8087
    1OL     H7R 9321   4.622   4.411   4.058 -2.3995  1.8766 -0.6477
    1OL     H7S 9322   4.604   4.252   4.127  0.2111  0.0824 -1.8398
    1OL     C18 9323   4.535   4.407   4.251  0.2693 -0.2369 -0.0810
    1OL     H8R 9324   4.636   4.400   4.294 -0.8572 -0.9722  2.5345
    1OL     H8S 9325   4.471   4.335   4.302 -2.0563  2.2953  0.6903
    1OL     C19 9326   4.484   4.545   4.244 -0.3420 -0.3253 -0.1866
    1OL     H9R 9327   4.510   4.607   4.159  0.1361 -0.3286 -0.0435
    1OL    C110 9328   4.394   4.600   4.324 -0.8221 -0.0003 -0.1238
    1OL    H10R 9329   4.366   4.704   4.308 -0.8042 -0.0880 -0.7735
    1OL    C111 9330   4.336   4.526   4.446  0.4812  0.5922 -0.3362
    1OL    H11R 9331   4.337   4.594   4.531 -1.1279 -0.8163  0.8377
    1OL    H11S 9332   4.390   4.434   4.470  0.0307  0.3545 -0.2181
    1OL    C112 9333   4.190   4.497   4.439 -0.0270  0.0947 -0.4981
    1OL    H12R 9334   4.143   4.591   4.408 -2.1418 -0.9120 -0.4327
    1OL    H12S 9335   4.155   4.479   4.541 -0.9183  3.6973 -0.0850
    1OL    C113 9336   4.150   4.379   4.345 -1.1226 -0.3031  0.8101
    1OL    H13R 9337   4.060   4.333   4.386 -0.3160 -2.1200  0.5871
    1OL    H13S 9338   4.237   4.314   4.334 -0.7381  0.3627 -0.1901
    1OL    C114 9339   4.119   4.435   4.201 -0.1341  0.5247 -0.8918
    1OL    H14R 9340   4.199   4.498   4.160  0.9420 -0.1482  0.1267
    1OL    H14S 9341   4.033   4.499   4.220  0.2764  1.2809 -1.5333
    1OL    C115 9342   4.078   4.339   4.087  0.5241  0.8234  0.3547
    1OL    H15R 9343   4.164   4.278   4.059  0.0329  0.9388 -1.4583
    1OL    H15S 9344   4.051   4.399   4.000  0.4491  0.4198  0.1025
    1OL    C116 9345   3.951   4.273   4.139 -0.0037 -0.3553 -0.0857
    1OL    H16R 9346   3.877   4.350   4.163  0.9244  0.7787 -0.8123
    1OL    H16S 9347   3.978   4.215   4.228  3.7375 -2.6878 -2.5976
    1OL    C117 9348   3.892   4.185   4.030 -0.1966 -0.0721  0.4078
    1OL    H17R 9349   3.889   4.227   3.929 -1.4404 -1.7780 -0.3026
    1OL    H17S 9350   3.788   4.162   4.055 -0.5046  0.8882  0.0169
    1OL    C118 9351   3.979   4.051   4.017 -0.1700  0.3749  0.9488
    1OL    H18R 9352   3.922   3.983   3.953  1.5368 -1.2456  1.1185
    1OL    H18S 9353   4.002   4.003   4.112 -3.2976  0.4874  1.8129
    1OL    H18T 9354   4.066   4.081   3.958 -0.7907 -0.0452 -0.1898
    1PA    C116 9355   5.437   2.106   3.855  0.1324 -0.3687  0.0276
    1PA    H16R 9356   5.423   2.008   3.900  0.2502 -1.1546 -1.5954
    1PA    H16S 9357   5.492   2.101   3.761  1.4607  1.1553  0.6912
    1PA    H16T 9358   5.343   2.145   3.817 -0.6554 -0.1490  2.1739
    1PA    C115 9359   5.498   2.211   3.948 -0.5587 -0.4792 -0.4885
    1PA    H15R 9360   5.529   2.297   3.888 -1.7710  0.6833  0.5107
    1PA    H15S 9361   5.410   2.243   4.005 -0.0903  0.0441 -0.0557
    1PA    C114 9362   5.610   2.170   4.051  0.2583 -0.6585 -0.3447
    1PA    H14R 9363   5.691   2.138   3.986 -0.0631 -2.5753  0.1527
    1PA    H14S 9364   5.646   2.249   4.117  0.3998 -1.5030  0.6152
    1PA    C113 9365   5.576   2.044   4.136  0.1746  0.2280 -0.0053
    1PA    H13R 9366   5.631   2.056   4.230 -1.5195 -1.2055  1.1814
    1PA    H13S 9367   5.471   2.051   4.165 -0.6023  0.2941 -2.6757
    1PA    C112 9368   5.617   1.901   4.089  0.2381 -0.3966  0.2154
    1PA    H12R 9369   5.591   1.892   3.983 -2.2782 -0.6280  0.8163
    1PA    H12S 9370   5.724   1.882   4.096  0.2630  0.0475  1.1331
    1PA    C111 9371   5.528   1.800   4.167  0.6581 -0.0252 -0.5206
    1PA    H11R 9372   5.573   1.793   4.266 -1.4153  2.6062  0.6778
    1PA    H11S 9373   5.424   1.835   4.169  1.6067  3.1168 -2.6938
    1PA    C110 9374   5.536   1.654   4.112  0.3045  0.6408  0.4323
    1PA    H10R 9375   5.633   1.617   4.146 -0.3794 -0.7833  0.8855
    1PA    H10S 9376   5.465   1.579   4.149  0.3671  1.1524  1.6257
    1PA     C19 9377   5.536   1.631   3.960 -0.1302 -0.3293  0.2582
    1PA     H9R 9378   5.615   1.678   3.901 -1.5332  0.9552 -0.6073
    1PA     H9S 9379   5.551   1.526   3.932 -1.2427 -0.6706  0.9319
    1PA     C18 9380   5.404   1.681   3.903 -0.1177  0.3210 -0.4089
    1PA     H8R 9381   5.319   1.633   3.950  0.7150  0.7031  1.5218
    1PA     H8S 9382   5.395   1.786   3.932 -0.7916 -0.7935  3.6601
    1PA     C17 9383   5.387   1.657   3.751 -0.3367  0.7060  0.3986
    1PA     H7R 9384   5.477   1.684   3.695  1.1366 -1.5525  1.6226
    1PA     H7S 9385   5.380   1.549   3.735 -0.9569  0.5453  1.7379
    1PA     C16 9386   5.264   1.727   3.686 -0.0340 -0.4165  0.1747
    1PA     H6R 9387   5.290   1.833   3.701 -0.9365  0.2478 -2.8011
    1PA     H6S 9388   5.260   1.713   3.578  2.2841  0.7951 -0.1078
    1PA     C15 9389   5.119   1.713   3.735 -0.3040  0.3647 -0.1306
    1PA     H5R 9390   5.114   1.745   3.839  1.2873 -2.3204  0.8336
    1PA     H5S 9391   5.058   1.780   3.674  1.5463  1.2371 -1.0753
    1PA     C14 9392   5.081   1.558   3.744  0.0497  0.0059  0.5989
    1PA     H4R 9393   5.094   1.507   3.648  1.0231 -1.3435  1.4289
    1PA     H4S 9394   5.147   1.502   3.810 -0.9349 -2.0248 -0.1139
    1PA     C13 9395   4.934   1.530   3.795 -0.9044  1.0811 -0.5025
    1PA     H3R 9396   4.923   1.423   3.817  3.3201  0.9724  1.4834
    1PA     H3S 9397   4.918   1.584   3.888 -0.5534  0.4459 -0.0624
    1PA     C12 9398   4.829   1.568   3.691 -0.7329  0.3388  0.2669
    1PA     H2R 9399   4.727   1.580   3.728 -1.6480 -0.1140 -1.9922
    1PA     H2S 9400   4.854   1.665   3.646 -0.6894 -0.1273 -0.7278
    1PC     C11 9401   4.825   1.461   3.587  0.5410  0.6597  0.6865
    1PC     O12 9402   4.890   1.453   3.487 -0.0546  0.3538 -0.0324
    1PC     O11 9403   4.741   1.364   3.626  0.1005  0.1524  0.1915
    1PC      C1 9404   4.736   1.242   3.549 -0.1188 -0.3264  0.2083
    1PC      HR 9405   4.655   1.180   3.588  0.4128  0.3740  2.4896
    1PC      HS 9406   4.716   1.276   3.447  0.5894 -1.1962 -0.2249
    1PC      C2 9407   4.865   1.157   3.553  0.5762  0.4617  0.2285
    1PC      HX 9408   4.938   1.215   3.496 -0.3683  0.7771 -0.6778
    1PC      C3 9409   4.843   1.022   3.496  0.4123  1.1078 -0.2769
    1PC      HA 9410   4.933   0.961   3.510 -1.2761 -0.9688  2.1223
    1PC      HB 9411   4.758   0.979   3.549  0.9062  0.2303 -0.1804
    1PC     O31 9412   4.816   1.040   3.354  0.1736  0.1079 -0.0077
    1PC     P31 9413   4.925   1.092   3.247 -0.0241 -0.5060  0.0009
    1PC     O32 9414   4.909   1.249   3.264 -0.7818  0.4966  1.0244
    1PC     C31 9415   4.791   1.312   3.214 -0.5009 -0.1971  0.0854
    1PC     H1A 9416   4.713   1.235   3.207  1.2230 -1.8581 -1.1211
    1PC     H1B 9417   4.770   1.398   3.279 -3.2766  0.2666 -1.3266
    1PC     C32 9418   4.826   1.348   3.068  0.1586 -0.5462 -0.1050
    1PC     H2A 9419   4.843   1.252   3.018 -0.4257 -0.9257  0.4213
    1PC     H2B 9420   4.737   1.404   3.040  0.2492 -0.4384 -0.1790
    1PC     N31 9421   4.930   1.443   3.040  0.7008 -0.2795  0.1898
    1PC     C33 9422   4.907   1.574   3.100 -0.3371  0.2317  0.0587
    1PC     H3A 9423   4.825   1.629   3.053  0.0547 -0.8709 -1.9625
    1PC     H3B 9424   4.886   1.573   3.207 -0.1291  0.1723  0.0980
    1PC     H3C 9425   4.999   1.629   3.080 -1.5882  1.0078 -4.1418
    1PC     C34 9426   5.062   1.398   3.077 -0.6296  0.1525  0.3942
    1PC     H4A 9427   5.067   1.406   3.186  2.0205  2.7913  0.1249
    1PC     H4B 9428   5.079   1.295   3.045 -0.2211 -0.0644  1.2943
    1PC     H4C 9429   5.141   1.458   3.033 -1.4479  1.8593  1.1892
    1PC     C35 9430   4.935   1.467   2.894 -0.2014 -0.2028 -0.0192
    1PC     H5A 9431   4.961   1.372   2.847 -2.3120 -1.0770  0.5010
    1PC     H5B 9432   5.001   1.551   2.875 -0.9921  0.3624 -0.3107
    1PC     H5C 9433   4.841   1.514   2.863  1.6044  2.9731 -0.9065
    1PC     O33 9434   5.067   1.062   3.293  0.3153  0.0566 -0.6921
    1PC     O34 9435   4.891   1.054   3.108 -0.5438  0.2884  1.0684
    1PC     O21 9436   4.908   1.146   3.685  0.9034  0.2657  0.3560
    1PC     C21 9437   5.044   1.133   3.703  0.1778 -0.0445 -0.2841
    1PC     O22 9438   5.128   1.142   3.618  0.2220 -0.5757  0.2358
    1OL     C12 9439   5.065   1.126   3.850 -0.1439  0.6172  0.0273
    1OL     H2R 9440   5.057   1.022   3.880 -0.3798  0.6508  0.0815
    1OL     H2S 9441   4.980   1.180   3.892  0.6316  1.0061  1.1219
    1OL     C13 9442   5.206   1.177   3.895  0.3991 -0.2327  0.8153
    1OL     H3R 9443   5.222   1.275   3.849 -1.5969 -1.0539 -1.7403
    1OL     H3S 9444   5.282   1.114   3.849  1.7878  0.7113  1.7655
    1OL     C14 9445   5.232   1.188   4.046  0.2144  0.6464  0.4372
    1OL     H4R 9446   5.334   1.221   4.064  0.7279 -1.0465  0.7201
    1OL     H4S 9447   5.232   1.091   4.095 -0.1441 -0.3251 -1.4380
    1OL     C15 9448   5.136   1.292   4.113  0.1616 -0.0851 -0.6980
    1OL     H5R 9449   5.103   1.261   4.212 -0.3455  1.6295 -0.3099
    1OL     H5S 9450   5.041   1.286   4.060  0.0135 -1.4189 -0.2980
    1OL     C16 9451   5.188   1.435   4.108  0.1557 -0.3572 -0.1084
    1OL     H6R 9452   5.209   1.452   4.003  1.6957 -0.1652  0.2131
    1OL     H6S 9453   5.287   1.448   4.154 -0.1438 -2.1664  1.1201
    1OL     C17 9454   5.084   1.529   4.161 -0.6136 -0.1748 -0.4141
    1OL     H7R 9455   5.049   1.489   4.256  1.2020 -2.5704 -0.7009
    1OL     H7S 9456   4.998   1.519   4.094 -0.3538  1.1376 -0.9837
    1OL     C18 9457   5.127   1.669   4.191 -0.3728 -0.0138 -0.9037
    1OL     H8R 9458   5.039   1.732   4.205  0.1522  0.1784  1.6640
    1OL     H8S 9459   5.188   1.713   4.112 -0.0354  0.4965 -0.3622
    1OL     C19 9460   5.218   1.673   4.317  0.5997 -0.1192  0.2265
    1OL     H9R 9461   5.310   1.615   4.307  1.4555  1.5049 -1.6257
    1OL    C110 9462   5.206   1.752   4.422 -0.6046 -0.8752 -0.4316
    1OL    H10R 9463   5.274   1.738   4.506 -1.4892 -1.4852  0.1953
    1OL    C111 9464   5.099   1.856   4.455  0.6990 -0.1052 -0.1363
    1OL    H11R 9465   5.059   1.821   4.551 -1.0847  1.3013 -0.3222
    1OL    H11S 9466   5.019   1.853   4.380  0.9606 -0.0943 -0.4149
    1OL    C112 9467   5.153   2.000   4.460 -0.0274  0.1948  0.2792
    1OL    H12R 9468   5.244   2.007   4.520  0.3606  1.7155 -0.4654
    1OL    H12S 9469   5.079   2.068   4.504  1.8159  0.8947  2.3646
    1OL    C113 9470   5.191   2.053   4.317  0.2199  0.0866  0.5961
    1OL    H13R 9471   5.263   1.982   4.276  0.1747  0.8187 -0.7467
    1OL    H13S 9472   5.238   2.151   4.327 -1.1139  0.8600 -0.5177
    1OL    C114 9473   5.076   2.074   4.215  0.1873  0.5616 -0.5714
    1OL    H14R 9474   5.008   2.154   4.245 -1.1668  0.3194 -2.8891
    1OL    H14S 9475   5.015   1.983   4.217  1.2773 -0.1926 -1.2176
    1OL    C115 9476   5.119   2.093   4.073  0.5494  0.2517 -0.2722
    1OL    H15R 9477   5.192   2.020   4.038 -1.5470 -1.1498 -1.8390
    1OL    H15S 9478   5.165   2.192   4.069 -2.2190  1.5022 -2.6308
    1OL    C116 9479   5.002   2.080   3.969  0.4514  0.6543  0.2094
    1OL    H16R 9480   4.926   2.154   3.996  0.7602  1.2447 -0.5383
    1OL    H16S 9481   4.950   1.986   3.985  0.1828  0.8333  0.4019
    1OL    C117 9482   5.043   2.081   3.820 -0.4646 -0.0725 -0.5216
    1OL    H17R 9483   5.118   2.006   3.794  0.0366  0.3968 -0.4406
    1OL    H17S 9484   5.084   2.177   3.788 -2.4389  1.5416  1.6099
    1OL    C118 9485   4.918   2.062   3.730 -0.3884  0.4051 -0.6778
    1OL    H18R 9486   4.946   2.083   3.627  1.5366  0.3762 -0.1828
    1OL    H18S 9487   4.839   2.133   3.755 -0.0912  1.3398 -2.3460
    1OL    H18T 9488   4.874   1.962   3.728  1.7359 -0.5439 -0.8864
    1PA    C116 9489   5.194   1.152   5.094 -0.0866 -0.0648  0.1324
    1PA    H16R 9490   5.122   1.233   5.084  0.9654  0.9487  0.7218
    1PA    H16S 9491   5.251   1.141   5.001  0.6766  0.2198  0.5601
    1PA    H16T 9492   5.267   1.180   5.170  1.2786  0.3316 -1.2967
    1PA    C115 9493   5.122   1.022   5.123 -0.6553 -0.1528 -0.2416
    1PA    H15R 9494   5.069   1.027   5.219 -2.8846  0.8289 -1.4720
    1PA    H15S 9495   5.052   1.007   5.041  1.4543 -1.5252 -1.8319
    1PA    C114 9496   5.204   0.897   5.121 -0.0822  0.0309 -0.0441
    1PA    H14R 9497   5.269   0.913   5.207  0.7053 -2.4492 -0.1168
    1PA    H14S 9498   5.139   0.811   5.138  0.8526 -0.7785 -0.4766
    1PA    C113 9499   5.295   0.856   4.996 -0.2075  0.1301 -0.3047
    1PA    H13R 9500   5.354   0.942   4.964  0.4422 -0.3963 -0.5458
    1PA    H13S 9501   5.357   0.770   5.022 -0.7567  0.2262  1.3278
    1PA    C112 9502   5.211   0.822   4.870 -0.2222  0.1539  0.3110
    1PA    H12R 9503   5.143   0.741   4.897  0.8819 -1.1478 -0.7449
    1PA    H12S 9504   5.151   0.908   4.840 -0.5228 -0.3157 -0.4361
    1PA    C111 9505   5.291   0.772   4.742  0.2815 -1.0530 -0.2157
    1PA    H11R 9506   5.325   0.862   4.691  1.5691 -0.4508  1.6549
    1PA    H11S 9507   5.383   0.729   4.783  1.6511  1.1781 -0.8815
    1PA    C110 9508   5.212   0.685   4.640  0.0366  0.0512  0.6344
    1PA    H10R 9509   5.180   0.593   4.688  1.1817 -0.0880  1.1437
    1PA    H10S 9510   5.126   0.742   4.604 -2.4821 -3.6290  0.6549
    1PA     C19 9511   5.297   0.658   4.516  0.5235  0.0690  0.4047
    1PA     H9R 9512   5.319   0.755   4.471  0.9111 -0.2468 -0.0934
    1PA     H9S 9513   5.400   0.633   4.542  0.1050 -0.1212  1.9055
    1PA     C18 9514   5.243   0.556   4.412 -0.1130 -0.3003 -0.3002
    1PA     H8R 9515   5.310   0.551   4.326  2.1908 -0.8870  1.4800
    1PA     H8S 9516   5.253   0.456   4.454 -0.7459  0.5695  2.0571
    1PA     C17 9517   5.103   0.570   4.362  0.7612 -0.2315 -0.6218
    1PA     H7R 9518   5.075   0.478   4.308  1.0003 -0.7228  0.0871
    1PA     H7S 9519   5.031   0.582   4.443  1.8190 -1.4823  0.5273
    1PA     C16 9520   5.087   0.683   4.258 -0.0285 -0.8287  0.3604
    1PA     H6R 9521   5.123   0.772   4.310  1.5165 -0.4773 -1.2349
    1PA     H6S 9522   5.152   0.662   4.173 -1.3555  0.1762 -0.9216
    1PA     C15 9523   4.942   0.703   4.232  0.0898 -0.8588  0.9136
    1PA     H5R 9524   4.892   0.611   4.200 -0.0981 -0.3860 -0.1619
    1PA     H5S 9525   4.875   0.740   4.310  0.3497  0.0258  0.7184
    1PA     C14 9526   4.908   0.800   4.112 -0.2845 -0.8253  0.4907
    1PA     H4R 9527   4.805   0.836   4.116  0.2339  1.3832 -3.1742
    1PA     H4S 9528   4.969   0.891   4.119 -0.2475 -0.8273  0.2006
    1PA     C13 9529   4.932   0.720   3.978  0.0380 -0.2886 -0.0656
    1PA     H3R 9530   5.037   0.701   3.954  0.0435  0.0872 -0.3407
    1PA     H3S 9531   4.885   0.622   3.992 -0.4580  0.4140  3.7212
    1PA     C12 9532   4.865   0.793   3.854  0.2417  0.7876 -0.4139
    1PA     H2R 9533   4.756   0.787   3.862  0.1921  1.5656 -0.4993
    1PA     H2S 9534   4.887   0.900   3.856  2.8894  0.2740 -0.4689
    1PC     C11 9535   4.904   0.737   3.720  0.3643  0.4887  0.0738
    1PC     O12 9536   5.004   0.753   3.657  0.0445 -0.4630  0.8072
    1PC     O11 9537   4.798   0.684   3.660  0.2840 -0.1309 -0.7094
    1PC      C1 9538   4.805   0.624   3.530 -0.8846 -1.0840  0.5309
    1PC      HR 9539   4.882   0.667   3.466  0.6365 -1.1084  2.3003
    1PC      HS 9540   4.840   0.522   3.549  1.2015 -0.4583  0.1453
    1PC      C2 9541   4.668   0.630   3.461  0.1862 -0.2514  0.0140
    1PC      HX 9542   4.676   0.587   3.361 -1.3087 -0.8111  0.1164
    1PC      C3 9543   4.610   0.770   3.459  0.2339 -0.0121 -0.3695
    1PC      HA 9544   4.596   0.790   3.566  0.1788 -2.3077  0.0764
    1PC      HB 9545   4.673   0.842   3.406  0.2257 -0.4896 -1.0323
    1PC     O31 9546   4.479   0.764   3.389  0.1117  0.2990 -0.2649
    1PC     P31 9547   4.468   0.758   3.230 -0.0968  0.2913 -0.3186
    1PC     O32 9548   4.505   0.904   3.193  0.1927 -1.0301  0.0344
    1PC     C31 9549   4.619   0.933   3.112 -0.5858  0.5632 -0.8628
    1PC     H1A 9550   4.636   1.040   3.099 -1.7881  0.9635  0.7072
    1PC     H1B 9551   4.708   0.885   3.153 -1.3847 -0.5232 -0.3704
    1PC     C32 9552   4.591   0.880   2.966  0.0949 -0.5959 -0.2911
    1PC     H2A 9553   4.561   0.775   2.964 -1.7085 -0.0877 -0.9815
    1PC     H2B 9554   4.510   0.941   2.926  1.0056  1.8228  1.4495
    1PC     N31 9555   4.702   0.893   2.861  0.1032  0.3694 -0.1539
    1PC     C33 9556   4.665   0.827   2.725  0.0751  0.3323 -0.5445
    1PC     H3A 9557   4.753   0.831   2.659  0.0304  1.4600 -0.5535
    1PC     H3B 9558   4.603   0.739   2.736  1.4636 -0.2478  3.3046
    1PC     H3C 9559   4.597   0.895   2.673  0.8675 -0.4972 -2.7567
    1PC     C34 9560   4.733   1.036   2.832  0.0446  0.3916  0.5191
    1PC     H4A 9561   4.752   1.097   2.921 -0.0884  2.8410 -1.0700
    1PC     H4B 9562   4.811   1.052   2.757  1.6164 -2.3220  1.5321
    1PC     H4C 9563   4.632   1.073   2.810 -0.7329 -2.7098 -1.3420
    1PC     C35 9564   4.822   0.825   2.908  0.3814  0.2734 -0.5625
    1PC     H5A 9565   4.801   0.720   2.932  0.9019  0.4065  0.5249
    1PC     H5B 9566   4.867   0.867   2.998 -0.0757  0.3891 -0.3864
    1PC     H5C 9567   4.901   0.822   2.832  0.5891 -1.1924 -0.3155
    1PC     O33 9568   4.576   0.671   3.176 -0.5610  0.1050 -0.5808
    1PC     O34 9569   4.330   0.750   3.182  0.0463  0.3255  0.0754
    1PC     O21 9570   4.580   0.552   3.533  0.9095  0.2109  0.1349
    1PC     C21 9571   4.556   0.427   3.492  0.2288  0.0570  0.3159
    1PC     O22 9572   4.615   0.374   3.401  0.1377  0.2315 -0.3670
    1OL     C12 9573   4.460   0.352   3.587  0.1252 -0.2172 -0.3255
    1OL     H2R 9574   4.401   0.284   3.525 -2.0354  2.4219 -1.2467
    1OL     H2S 9575   4.397   0.424   3.638  1.1080 -0.0393  0.6590
    1OL     C13 9576   4.545   0.270   3.685 -0.2673 -0.0489 -0.2138
    1OL     H3R 9577   4.612   0.337   3.738 -2.0016  1.2778  0.3610
    1OL     H3S 9578   4.609   0.209   3.620  0.2546 -0.5138  0.7344
    1OL     C14 9579   4.471   0.179   3.786  0.6514  0.0202 -0.2328
    1OL     H4R 9580   4.537   0.125   3.854 -0.4767  0.9402  1.6336
    1OL     H4S 9581   4.410   0.103   3.737  2.5468 -0.3032 -2.1708
    1OL     C15 9582   4.375   0.257   3.873  0.4164  0.5311 -0.5483
    1OL     H5R 9583   4.318   0.183   3.929  1.6426  0.6033  0.8387
    1OL     H5S 9584   4.295   0.304   3.814  0.6858  1.1020 -0.4589
    1OL     C16 9585   4.442   0.356   3.964 -0.3145  0.5393  0.6337
    1OL     H6R 9586   4.383   0.446   3.981  0.7940  1.3951  0.0635
    1OL     H6S 9587   4.527   0.401   3.912  0.3498  1.7699  2.6897
    1OL     C17 9588   4.509   0.291   4.085 -0.5166 -0.1185  0.3416
    1OL     H7R 9589   4.589   0.227   4.047 -0.0175 -0.7118  2.3037
    1OL     H7S 9590   4.442   0.217   4.129 -0.8425 -1.1170 -1.8041
    1OL     C18 9591   4.552   0.393   4.187  0.1506 -0.4270  0.2268
    1OL     H8R 9592   4.615   0.342   4.260 -2.2652 -3.1051  0.5194
    1OL     H8S 9593   4.472   0.436   4.247  0.8566  0.1925  0.7386
    1OL     C19 9594   4.629   0.514   4.137 -0.1014 -0.3060 -0.0279
    1OL     H9R 9595   4.736   0.498   4.121 -0.0014 -0.4439  0.7597
    1OL    C110 9596   4.584   0.637   4.111  0.5849 -0.6624  0.3285
    1OL    H10R 9597   4.660   0.703   4.071 -1.6526  0.3870 -2.3325
    1OL    C111 9598   4.442   0.699   4.138  0.3751 -0.6794 -0.7673
    1OL    H11R 9599   4.389   0.618   4.188  0.7665 -0.3258  0.2251
    1OL    H11S 9600   4.393   0.719   4.042  1.0285  1.2085 -0.7283
    1OL    C112 9601   4.449   0.820   4.224 -0.2799 -0.0867  0.4254
    1OL    H12R 9602   4.354   0.874   4.220 -0.0048  0.2438 -2.2552
    1OL    H12S 9603   4.528   0.883   4.184  0.1960 -1.0859 -0.2219
    1OL    C113 9604   4.470   0.774   4.370  0.3941  0.1750  0.3783
    1OL    H13R 9605   4.501   0.858   4.432  1.6644 -0.9687  1.3328
    1OL    H13S 9606   4.543   0.693   4.369 -1.0042 -1.1390 -2.6526
    1OL    C114 9607   4.335   0.727   4.426  0.3964  0.5320  0.5148
    1OL    H14R 9608   4.294   0.646   4.365  2.8259  1.5026 -2.5679
    1OL    H14S 9609   4.263   0.808   4.432  0.5227  0.7659 -0.7871
    1OL    C115 9610   4.348   0.674   4.572 -0.5436  0.4883 -0.2354
    1OL    H15R 9611   4.376   0.752   4.643 -0.7528  0.9722 -0.6832
    1OL    H15S 9612   4.424   0.596   4.587 -1.6206 -1.0906 -2.7043
    1OL    C116 9613   4.215   0.627   4.622 -0.0775 -0.4677  0.4295
    1OL    H16R 9614   4.170   0.549   4.561 -0.5868  1.1686 -1.3174
    1OL    H16S 9615   4.152   0.716   4.619 -0.4812 -0.8279 -2.5898
    1OL    C117 9616   4.234   0.572   4.761 -0.0317  0.5747 -0.1893
    1OL    H17R 9617   4.305   0.632   4.819 -0.0519  0.8597 -0.4554
    1OL    H17S 9618   4.280   0.473   4.766  1.0314  1.1294  2.1782
    1OL    C118 9619   4.105   0.581   4.834  0.6961 -0.2961  0.9149
    1OL    H18R 9620   4.023   0.519   4.797 -0.2143  1.1214  0.5416
    1OL    H18S 9621   4.065   0.682   4.837 -1.2881 -0.9207 -2.1305
    1OL    H18T 9622   4.110   0.557   4.940 -1.3895 -0.0028  1.0987
    1PA    C116 9623   0.774   2.832   4.744  0.2661  0.1904  0.4186
    1PA    H16R 9624   0.691   2.860   4.679  0.1329  1.1778  1.0024
    1PA    H16S 9625   0.727   2.804   4.838  0.0837  2.6387  1.0947
    1PA    H16T 9626   0.826   2.753   4.689  0.5106  0.3996  0.3444
    1PA    C115 9627   0.870   2.949   4.770  0.6775 -0.2562 -0.1130
    1PA    H15R 9628   0.825   3.019   4.840 -1.7529 -1.0063 -0.8442
    1PA    H15S 9629   0.966   2.908   4.803  0.6517 -0.2823 -0.0706
    1PA    C114 9630   0.893   3.021   4.636  1.2438 -0.2058 -0.7020
    1PA    H14R 9631   0.940   2.966   4.554  0.5826 -0.6066 -0.8152
    1PA    H14S 9632   0.796   3.055   4.598  0.8442 -1.0409 -0.4207
    1PA    C113 9633   0.987   3.144   4.664  0.1728 -0.1842 -0.4086
    1PA    H13R 9634   0.943   3.207   4.741 -0.8722  0.3016 -1.3867
    1PA    H13S 9635   1.081   3.111   4.710  0.6550  0.8847 -0.6128
    1PA    C112 9636   1.009   3.226   4.536 -0.0030  0.3706 -1.0756
    1PA    H12R 9637   1.062   3.167   4.461  0.0858  0.3968 -1.0333
    1PA    H12S 9638   0.909   3.244   4.495  0.3545  2.0144 -1.2833
    1PA    C111 9639   1.081   3.356   4.569 -0.2306 -0.5840 -0.0900
    1PA    H11R 9640   1.022   3.424   4.631 -1.6350 -0.2119 -1.7685
    1PA    H11S 9641   1.168   3.334   4.631  2.4784 -0.7175 -3.7997
    1PA    C110 9642   1.140   3.423   4.446  0.4811  0.0014 -0.8191
    1PA    H10R 9643   1.206   3.506   4.474 -1.4996  1.2632  0.1986
    1PA    H10S 9644   1.201   3.352   4.390 -0.6101  0.2454 -2.3603
    1PA     C19 9645   1.030   3.470   4.344 -0.2553  0.8341 -0.0602
    1PA     H9R 9646   0.965   3.387   4.315  1.1520  0.2024 -1.5111
    1PA     H9S 9647   0.970   3.548   4.390 -0.6877  1.5871 -1.8444
    1PA     C18 9648   1.100   3.528   4.222 -0.6337  0.1835  0.0546
    1PA     H8R 9649   1.167   3.602   4.266  1.1106 -1.9344  1.0620
    1PA     H8S 9650   1.162   3.458   4.166  1.5170  1.9779  0.1214
    1PA     C17 9651   1.013   3.603   4.114 -0.5421  0.4480 -0.0250
    1PA     H7R 9652   0.969   3.527   4.049 -0.6627  0.8956 -0.4713
    1PA     H7S 9653   0.925   3.656   4.153  1.3300  3.2511  0.5657
    1PA     C16 9654   1.093   3.704   4.028  0.1863  0.4756  0.0749
    1PA     H6R 9655   1.111   3.790   4.093  2.4994  0.2751 -0.2769
    1PA     H6S 9656   1.187   3.655   4.003 -0.4243 -0.6176 -0.1306
    1PA     C15 9657   1.020   3.760   3.910  0.4348  0.0098 -0.4899
    1PA     H5R 9658   1.101   3.810   3.857 -0.8592 -0.3280 -2.8555
    1PA     H5S 9659   0.979   3.682   3.845  1.5010 -2.0068  1.1999
    1PA     C14 9660   0.905   3.857   3.937  0.9140 -0.0226  0.5487
    1PA     H4R 9661   0.865   3.857   4.039 -2.7613  1.7607 -0.8186
    1PA     H4S 9662   0.936   3.959   3.917  2.1925 -0.4715  0.1554
    1PA     C13 9663   0.786   3.843   3.847 -0.5221  0.4725  0.1553
    1PA     H3R 9664   0.726   3.931   3.869 -0.5558  0.7224 -0.8936
    1PA     H3S 9665   0.828   3.852   3.746  2.2956 -1.0387  1.1650
    1PA     C12 9666   0.701   3.712   3.876 -0.4974 -0.1226 -0.4396
    1PA     H2R 9667   0.771   3.628   3.877 -0.9843 -0.5290  1.1939
    1PA     H2S 9668   0.653   3.710   3.974 -0.1614 -1.1774 -0.2814
    1PC     C11 9669   0.590   3.692   3.777 -0.1201 -0.4036  0.0486
    1PC     O12 9670   0.499   3.773   3.754  0.4326  0.0198 -0.3818
    1PC     O11 9671   0.606   3.573   3.722  0.6611 -0.9383  0.3010
    1PC      C1 9672   0.521   3.546   3.608 -0.2517  0.2112 -0.2075
    1PC      HR 9673   0.491   3.441   3.610 -1.9190  0.6559 -0.7273
    1PC      HS 9674   0.427   3.600   3.623 -0.0965  0.4953 -0.2605
    1PC      C2 9675   0.593   3.584   3.472  0.4525 -0.0463  0.3130
    1PC      HX 9676   0.521   3.579   3.390 -1.8856  3.7086  2.0231
    1PC      C3 9677   0.715   3.491   3.451  0.1975  0.9771 -0.7283
    1PC      HA 9678   0.767   3.484   3.547 -1.7518  2.3225  0.4635
    1PC      HB 9679   0.687   3.389   3.421 -0.4920  0.4984  1.4260
    1PC     O31 9680   0.823   3.552   3.369 -0.2284  0.8405 -0.1214
    1PC     P31 9681   0.860   3.505   3.222  0.1241  0.1712 -0.3557
    1PC     O32 9682   0.762   3.584   3.128 -0.0123 -0.3592  0.1038
    1PC     C31 9683   0.792   3.713   3.080 -0.3023 -0.2302 -0.2695
    1PC     H1A 9684   0.832   3.774   3.161 -0.1024 -0.2860 -0.3266
    1PC     H1B 9685   0.862   3.707   2.996 -0.4933 -0.8438 -0.3857
    1PC     C32 9686   0.671   3.796   3.029  0.7319  0.5271  0.7988
    1PC     H2A 9687   0.586   3.800   3.097 -0.2647 -0.8499 -0.3429
    1PC     H2B 9688   0.711   3.897   3.017  3.8644 -0.7594 -0.1361
    1PC     N31 9689   0.598   3.739   2.898 -0.1974 -0.3363 -0.2199
    1PC     C33 9690   0.517   3.624   2.943 -0.2199 -0.3513 -0.3719
    1PC     H3A 9691   0.480   3.575   2.852 -0.6901  1.4736 -1.1844
    1PC     H3B 9692   0.578   3.548   2.992 -0.5393  0.1826  0.8617
    1PC     H3C 9693   0.430   3.648   3.004 -0.1878 -1.8926  0.3107
    1PC     C34 9694   0.522   3.842   2.827  0.0986 -0.4673  1.0505
    1PC     H4A 9695   0.453   3.793   2.758  1.2859 -0.0247 -0.4997
    1PC     H4B 9696   0.465   3.889   2.907  0.0492  1.2142  0.0442
    1PC     H4C 9697   0.589   3.914   2.780  0.2728 -0.7171  0.9134
    1PC     C35 9698   0.695   3.687   2.801  0.3041 -0.4621  0.5312
    1PC     H5A 9699   0.634   3.646   2.720 -0.1771  1.0372  0.1114
    1PC     H5B 9700   0.747   3.601   2.843 -2.7993 -2.0877  1.2364
    1PC     H5C 9701   0.757   3.771   2.769 -0.0349 -0.4194 -0.0136
    1PC     O33 9702   0.997   3.552   3.191 -0.0302  0.1485  0.3680
    1PC     O34 9703   0.830   3.363   3.225  0.9412  0.2730 -0.5454
    1PC     O21 9704   0.646   3.719   3.486 -0.1567 -0.1959  0.0867
    1PC     C21 9705   0.613   3.818   3.399 -1.1821  0.4833  0.9503
    1PC     O22 9706   0.528   3.811   3.314  0.3191  0.3708  0.3194
    1OL     C12 9707   0.694   3.940   3.422  0.0127 -0.2329 -0.1033
    1OL     H2R 9708   0.746   3.979   3.335 -2.1152  2.9523 -0.0164
    1OL     H2S 9709   0.763   3.922   3.505 -0.4722 -1.0895  0.1245
    1OL     C13 9710   0.598   4.053   3.457 -0.1746 -0.5207  0.5049
    1OL     H3R 9711   0.555   4.105   3.371  0.5875 -1.3897 -0.4207
    1OL     H3S 9712   0.660   4.125   3.510  0.0774 -2.2944  2.7140
    1OL     C14 9713   0.482   4.036   3.549  0.6732  0.4112  0.0264
    1OL     H4R 9714   0.523   3.987   3.638 -0.8156 -0.3372  0.3250
    1OL     H4S 9715   0.411   3.968   3.501 -0.2609  0.4385  1.3418
    1OL     C15 9716   0.385   4.159   3.581  0.4486  0.1543  0.0824
    1OL     H5R 9717   0.300   4.123   3.639  1.0260  0.7925  1.3362
    1OL     H5S 9718   0.348   4.198   3.486 -0.1739 -0.0190  0.2536
    1OL     C16 9719   0.464   4.281   3.641 -0.0832 -0.1917  0.2708
    1OL     H6R 9720   0.398   4.366   3.660  0.3913 -0.2051  2.1175
    1OL     H6S 9721   0.549   4.299   3.575  0.8507 -0.4248  1.3974
    1OL     C17 9722   0.541   4.249   3.772  0.5319 -0.2166  0.2427
    1OL     H7R 9723   0.610   4.332   3.787 -0.4416  0.0796  3.4577
    1OL     H7S 9724   0.599   4.161   3.743  0.7953  0.6677 -2.0081
    1OL     C18 9725   0.444   4.218   3.877  0.3293 -0.0922 -0.5044
    1OL     H8R 9726   0.411   4.115   3.858  2.4635 -1.1795  1.4316
    1OL     H8S 9727   0.363   4.290   3.864  0.2459 -0.2216 -0.7021
    1OL     C19 9728   0.512   4.227   4.014  0.2844  0.0948  0.0829
    1OL     H9R 9729   0.560   4.321   4.041 -0.1645 -0.2368  2.1312
    1OL    C110 9730   0.524   4.127   4.101 -0.1917  0.5573  0.0870
    1OL    H10R 9731   0.577   4.150   4.193 -0.3536 -0.1560  0.3630
    1OL    C111 9732   0.481   3.978   4.080  0.1259 -0.1480  0.6520
    1OL    H11R 9733   0.480   3.956   3.973  0.1825  0.6524  0.4898
    1OL    H11S 9734   0.374   3.970   4.102  0.6732  1.6779  4.3059
    1OL    C112 9735   0.566   3.876   4.163 -0.1823 -0.3849  0.3866
    1OL    H12R 9736   0.668   3.879   4.125 -0.5888 -0.9377 -0.7514
    1OL    H12S 9737   0.522   3.776   4.156  0.6814 -0.6342 -1.7717
    1OL    C113 9738   0.564   3.918   4.305  0.7088  0.5161 -0.0089
    1OL    H13R 9739   0.459   3.915   4.335  0.0627  2.3716 -1.9433
    1OL    H13S 9740   0.601   4.020   4.320  2.1542  0.2654 -1.6696
    1OL    C114 9741   0.651   3.838   4.404  0.3589  0.2977 -0.6943
    1OL    H14R 9742   0.628   3.888   4.499 -1.9921 -1.0234 -0.5154
    1OL    H14S 9743   0.755   3.851   4.375  0.5351 -1.3120 -0.8064
    1OL    C115 9744   0.618   3.688   4.421  0.0351 -0.5736 -0.4358
    1OL    H15R 9745   0.635   3.635   4.327 -0.8073 -0.4680 -0.6523
    1OL    H15S 9746   0.511   3.681   4.442  0.2699 -0.6559  0.7785
    1OL    C116 9747   0.712   3.639   4.529 -0.2350  0.0385 -0.6750
    1OL    H16R 9748   0.702   3.697   4.621 -0.3763 -2.5581  0.9962
    1OL    H16S 9749   0.816   3.653   4.498 -0.7323 -0.1496 -2.4874
    1OL    C117 9750   0.689   3.485   4.544 -0.3408  0.0422 -0.1012
    1OL    H17R 9751   0.589   3.471   4.587  0.7698 -2.0495  1.8885
    1OL    H17S 9752   0.764   3.458   4.618 -1.6496 -1.3450  0.7553
    1OL    C118 9753   0.675   3.389   4.420 -0.6349  0.8384  0.8003
    1OL    H18R 9754   0.643   3.295   4.466  1.5264 -0.3110  0.0062
    1OL    H18S 9755   0.771   3.375   4.370 -1.8590 -0.1589 -1.2971
    1OL    H18T 9756   0.600   3.432   4.354  0.1272  1.2989  0.2211
    1PA    C116 9757   1.337   1.329   4.994  0.5537  0.2729 -0.3667
    1PA    H16R 9758   1.418   1.368   4.932  1.8377 -3.0383 -0.8750
    1PA    H16S 9759   1.382   1.262   5.068 -1.1888  1.4609  1.8457
    1PA    H16T 9760   1.270   1.404   5.037  0.5811 -0.2988  0.6910
    1PA    C115 9761   1.251   1.243   4.907  0.6742 -0.1937  0.2242
    1PA    H15R 9762   1.315   1.175   4.851 -1.1342 -2.0209  0.3293
    1PA    H15S 9763   1.184   1.190   4.975  2.9987 -0.4911  2.3673
    1PA    C114 9764   1.158   1.305   4.792  0.6116 -0.5212 -0.2192
    1PA    H14R 9765   1.088   1.374   4.839  1.5365  0.4313 -0.2047
    1PA    H14S 9766   1.217   1.361   4.718 -0.2005 -0.4593 -0.8216
    1PA    C113 9767   1.086   1.187   4.734  0.6398  0.0085  0.3418
    1PA    H13R 9768   1.166   1.133   4.683  1.5795  1.0454  0.6904
    1PA    H13S 9769   1.038   1.126   4.811 -0.1386 -0.5676 -0.5911
    1PA    C112 9770   0.988   1.230   4.626  0.8125 -0.5235 -0.2602
    1PA    H12R 9771   0.903   1.274   4.678 -0.0666 -1.0794 -1.2075
    1PA    H12S 9772   1.032   1.305   4.560  2.3386  0.4482  1.8103
    1PA    C111 9773   0.952   1.112   4.526  0.0700 -0.3922 -0.2085
    1PA    H11R 9774   1.043   1.083   4.472  0.4563 -0.0414  0.2503
    1PA    H11S 9775   0.921   1.024   4.582 -0.6786  0.2134  0.3502
    1PA    C110 9776   0.843   1.154   4.421 -0.7535 -0.1905  0.5412
    1PA    H10R 9777   0.756   1.154   4.487 -1.5544 -1.3027 -0.5016
    1PA    H10S 9778   0.863   1.257   4.391 -1.5167 -0.1343  0.2184
    1PA     C19 9779   0.820   1.065   4.297  0.0671  0.4291 -1.0259
    1PA     H9R 9780   0.902   1.054   4.226  2.1724 -1.4653  1.5931
    1PA     H9S 9781   0.783   0.966   4.323  0.1572  1.4302  3.4437
    1PA     C18 9782   0.700   1.129   4.227  1.3314  0.5092 -0.6966
    1PA     H8R 9783   0.618   1.131   4.299  1.6605 -1.7391 -0.1983
    1PA     H8S 9784   0.719   1.230   4.192 -0.7891  1.4493  0.8197
    1PA     C17 9785   0.648   1.034   4.106 -0.3701 -0.5751 -0.8886
    1PA     H7R 9786   0.722   1.009   4.029 -1.5514 -2.8505 -1.3222
    1PA     H7S 9787   0.624   0.933   4.141 -1.0466  0.5820  2.0983
    1PA     C16 9788   0.534   1.093   4.024 -0.3346  0.3215  0.2144
    1PA     H6R 9789   0.511   1.039   3.932 -0.3287  2.1059 -0.8485
    1PA     H6S 9790   0.449   1.091   4.092  0.2471  1.9470  1.0015
    1PA     C15 9791   0.557   1.237   3.962 -0.3198 -0.1210 -0.1785
    1PA     H5R 9792   0.561   1.312   4.042 -1.4400 -0.9039  0.6295
    1PA     H5S 9793   0.648   1.228   3.903 -0.4839 -0.3551 -0.3955
    1PA     C14 9794   0.439   1.268   3.870 -0.0066 -0.4995 -0.1233
    1PA     H4R 9795   0.422   1.191   3.794 -0.6377 -2.5014  1.9796
    1PA     H4S 9796   0.347   1.288   3.925 -1.0281  1.0789 -2.3598
    1PA     C13 9797   0.466   1.403   3.800 -0.2379  0.6657  0.1709
    1PA     H3R 9798   0.485   1.485   3.868  2.5032  1.0595 -1.0009
    1PA     H3S 9799   0.551   1.396   3.732 -0.7455 -1.2725 -0.3095
    1PA     C12 9800   0.346   1.446   3.706 -0.4016 -0.1025 -0.3369
    1PA     H2R 9801   0.327   1.352   3.653 -0.6744 -0.3862  0.2642
    1PA     H2S 9802   0.254   1.465   3.761 -1.3788  0.5671 -2.1463
    1PC     C11 9803   0.379   1.551   3.602 -0.1011 -0.0834  0.4208
    1PC     O12 9804   0.326   1.658   3.611 -0.0170  0.4961  0.1620
    1PC     O11 9805   0.463   1.505   3.507 -0.0726 -0.0029  0.1221
    1PC      C1 9806   0.539   1.609   3.435  0.1142 -0.4569 -0.0137
    1PC      HR 9807   0.508   1.602   3.330  0.9639 -1.8610 -0.1978
    1PC      HS 9808   0.508   1.707   3.471 -1.8228 -1.5505  1.4098
    1PC      C2 9809   0.685   1.569   3.451 -0.4534  0.1221 -0.2278
    1PC      HX 9810   0.734   1.652   3.399  1.9370 -0.7368  0.5758
    1PC      C3 9811   0.720   1.430   3.384  0.4463  0.1108  0.1260
    1PC      HA 9812   0.809   1.390   3.434  0.1187  1.8880  2.2302
    1PC      HB 9813   0.650   1.348   3.397 -1.9470  1.6931 -2.3679
    1PC     O31 9814   0.745   1.436   3.241  0.0704  0.1491 -0.3543
    1PC     P31 9815   0.887   1.477   3.188 -0.1410  0.1656 -0.1658
    1PC     O32 9816   0.966   1.335   3.182 -0.3881 -0.3094 -0.2833
    1PC     C31 9817   0.936   1.239   3.081 -0.4377 -0.1878  0.2893
    1PC     H1A 9818   0.842   1.264   3.031  1.6494  2.0188 -2.7236
    1PC     H1B 9819   1.017   1.225   3.010  0.2265  1.3307  0.7312
    1PC     C32 9820   0.924   1.101   3.155 -0.3026  0.1609 -0.3736
    1PC     H2A 9821   1.002   1.094   3.231  0.5891  1.4086 -1.1484
    1PC     H2B 9822   0.827   1.099   3.206 -1.4702  0.3617 -2.5273
    1PC     N31 9823   0.935   0.977   3.076  0.8243  0.7817 -0.5496
    1PC     C33 9824   0.809   0.953   3.009 -0.1460 -0.0288  0.3630
    1PC     H3A 9825   0.721   0.976   3.069 -0.7765 -0.1439 -0.5000
    1PC     H3B 9826   0.794   1.015   2.920  2.1244 -1.1393 -0.8208
    1PC     H3C 9827   0.802   0.850   2.975  0.2011  0.7248 -2.0884
    1PC     C34 9828   1.053   0.976   2.986  0.0125 -0.0585 -0.6306
    1PC     H4A 9829   1.023   1.027   2.894 -1.4468  1.6091  0.7518
    1PC     H4B 9830   1.133   1.018   3.047 -0.1933  0.0389 -0.4302
    1PC     H4C 9831   1.074   0.873   2.956 -0.4178 -0.6192  0.9592
    1PC     C35 9832   0.949   0.861   3.173 -0.2229 -0.8583  0.0783
    1PC     H5A 9833   0.911   0.767   3.131  0.7877 -0.5005 -1.7029
    1PC     H5B 9834   0.899   0.897   3.262  2.1390  2.9147 -0.0063
    1PC     H5C 9835   1.053   0.845   3.203  0.2216 -2.3696 -2.1184
    1PC     O33 9836   0.882   1.520   3.048  0.2529 -0.3657  0.3360
    1PC     O34 9837   0.967   1.567   3.277 -0.2818  0.1229 -0.8156
    1PC     O21 9838   0.709   1.557   3.596 -0.1143  0.4233 -0.1694
    1PC     C21 9839   0.777   1.653   3.657 -0.4065 -0.4436  0.5949
    1PC     O22 9840   0.817   1.760   3.608  0.7503 -0.1310  0.1931
    1OL     C12 9841   0.772   1.629   3.815  0.7428 -0.4802 -0.0140
    1OL     H2R 9842   0.680   1.589   3.858 -0.2966  1.5801 -0.2424
    1OL     H2S 9843   0.789   1.726   3.864  1.8675 -0.7565  0.1547
    1OL     C13 9844   0.889   1.539   3.867 -0.5099 -0.5787 -0.1672
    1OL     H3R 9845   0.989   1.582   3.856 -0.8236  0.4248  0.8306
    1OL     H3S 9846   0.876   1.433   3.844 -1.5344 -0.8132  1.3730
    1OL     C14 9847   0.866   1.536   4.025 -0.6393  0.8303  0.7563
    1OL     H4R 9848   0.768   1.501   4.057 -1.6901  3.0949  0.1675
    1OL     H4S 9849   0.877   1.638   4.062  0.2056  0.6433  1.0326
    1OL     C15 9850   0.961   1.440   4.099 -0.5756 -0.3923  0.1828
    1OL     H5R 9851   0.945   1.336   4.071 -1.6154  0.2343 -1.6568
    1OL     H5S 9852   0.935   1.438   4.205 -1.1059  1.0200  0.0900
    1OL     C16 9853   1.108   1.471   4.087  0.8068 -0.5457  0.3306
    1OL     H6R 9854   1.126   1.476   3.980 -0.2569  1.3238  0.2367
    1OL     H6S 9855   1.172   1.391   4.127 -0.3560 -2.0556 -0.7636
    1OL     C17 9856   1.156   1.604   4.149  0.3664 -0.5688 -0.3932
    1OL     H7R 9857   1.104   1.689   4.105 -2.3584 -0.9297  1.9584
    1OL     H7S 9858   1.264   1.615   4.133  0.2501  0.5040 -0.4321
    1OL     C18 9859   1.139   1.615   4.304  0.0024 -0.2323  0.2607
    1OL     H8R 9860   1.037   1.597   4.339 -0.2405  0.0753 -0.2875
    1OL     H8S 9861   1.164   1.718   4.328 -0.0457  0.1122 -1.1522
    1OL     C19 9862   1.228   1.521   4.380  0.2645 -0.1832  0.0798
    1OL     H9R 9863   1.198   1.417   4.381  0.7322 -0.3204 -0.3148
    1OL    C110 9864   1.342   1.533   4.442 -0.2870 -0.0342 -0.4154
    1OL    H10R 9865   1.388   1.450   4.496 -1.2857  0.3261  1.0241
    1OL    C111 9866   1.420   1.668   4.453  0.0391 -0.4051  0.2314
    1OL    H11R 9867   1.359   1.753   4.483  0.2524 -0.5513  1.0842
    1OL    H11S 9868   1.461   1.683   4.353  1.7049  1.2489  1.1235
    1OL    C112 9869   1.550   1.658   4.540 -0.2745 -0.3904 -0.7928
    1OL    H12R 9870   1.618   1.744   4.540  0.0268 -0.6061  1.6762
    1OL    H12S 9871   1.608   1.572   4.506 -0.9945 -0.7788 -1.0417
    1OL    C113 9872   1.532   1.633   4.683  0.1563 -0.0877  0.6088
    1OL    H13R 9873   1.633   1.641   4.724  0.2126  2.4009  0.0752
    1OL    H13S 9874   1.502   1.530   4.702  0.2051  0.1341  1.9431
    1OL    C114 9875   1.447   1.741   4.751  0.0405  0.6352  1.4901
    1OL    H14R 9876   1.349   1.736   4.704  0.4751  0.2042  0.6105
    1OL    H14S 9877   1.488   1.841   4.731 -0.1197  0.2738 -0.7881
    1OL    C115 9878   1.447   1.729   4.900 -0.0053  0.4028  0.2293
    1OL    H15R 9879   1.545   1.732   4.947 -0.2488  0.4092  0.7530
    1OL    H15S 9880   1.403   1.633   4.931  3.5470 -0.8314  1.6692
    1OL    C116 9881   1.359   1.844   4.961  0.5998 -0.9631  0.0238
    1OL    H16R 9882   1.266   1.843   4.903 -0.2912 -0.1263  1.4289
    1OL    H16S 9883   1.403   1.943   4.950 -0.7375  0.1854  4.2139
    1OL    C117 9884   1.332   1.830   5.110 -0.0770  0.0631 -0.3732
    1OL    H17R 9885   1.416   1.864   5.170 -1.1518 -0.1274  1.2965
    1OL    H17S 9886   1.314   1.723   5.126 -1.2216  0.1422 -1.0615
    1OL    C118 9887   1.207   1.900   5.155  0.8962  0.3392  0.4035
    1OL    H18R 9888   1.196   2.008   5.140 -0.8897 -0.1435 -2.0595
    1OL    H18S 9889   1.175   1.874   5.256  0.1500 -1.9885 -0.3968
    1OL    H18T 9890   1.126   1.854   5.099  1.3006  1.2277 -0.9416
    1PA    C116 9891   5.282   2.278   4.850 -0.0061 -0.2694  0.2563
    1PA    H16R 9892   5.237   2.182   4.875  0.9587 -0.0366  3.0304
    1PA    H16S 9893   5.304   2.282   4.743  0.2107  0.0571  0.3129
    1PA    H16T 9894   5.192   2.340   4.863  0.0578 -0.3865  1.2608
    1PA    C115 9895   5.392   2.315   4.951 -0.4285 -0.3013  0.0483
    1PA    H15R 9896   5.397   2.424   4.956  1.6698 -0.3667 -0.0242
    1PA    H15S 9897   5.366   2.276   5.050 -1.1236  1.6022  0.6290
    1PA    C114 9898   5.537   2.272   4.915  0.2571 -0.5386 -0.3246
    1PA    H14R 9899   5.539   2.163   4.902 -1.5596 -0.5133 -0.9842
    1PA    H14S 9900   5.570   2.306   4.816  0.0153  0.2460 -0.1395
    1PA    C113 9901   5.631   2.307   5.032 -0.0849  0.7781 -0.5528
    1PA    H13R 9902   5.608   2.248   5.121 -0.9722  0.5952 -0.9029
    1PA    H13S 9903   5.729   2.276   4.993 -0.1510  1.0429 -0.9359
    1PA    C112 9904   5.653   2.450   5.068 -0.5508  0.0096 -0.1899
    1PA    H12R 9905   5.565   2.486   5.121  1.0704  1.0644  1.8821
    1PA    H12S 9906   5.737   2.447   5.138 -0.2133 -2.3918 -0.6425
    1PA    C111 9907   5.689   2.538   4.945  0.3671 -0.2900 -0.6964
    1PA    H11R 9908   5.607   2.523   4.873 -0.1369  1.3213 -0.4661
    1PA    H11S 9909   5.682   2.641   4.979 -2.4345 -1.0841  1.3379
    1PA    C110 9910   5.821   2.504   4.870  0.2123 -0.9462 -1.0233
    1PA    H10R 9911   5.899   2.557   4.925 -0.7184 -0.2646 -0.3231
    1PA    H10S 9912   5.835   2.396   4.863  1.0004 -1.0975  2.0928
    1PA     C19 9913   5.822   2.580   4.732 -0.5310 -0.0230  0.7315
    1PA     H9R 9914   5.744   2.533   4.673 -0.9415  4.0041 -2.1485
    1PA     H9S 9915   5.801   2.684   4.759 -2.0727  0.0098 -0.5470
    1PA     C18 9916   5.953   2.574   4.662 -0.5266 -0.0457  0.9438
    1PA     H8R 9917   6.005   2.666   4.691 -0.0431 -0.2904  0.8520
    1PA     H8S 9918   6.024   2.500   4.701  2.2195  2.7116  1.3474
    1PA     C17 9919   5.928   2.572   4.504  0.5493 -0.3195 -0.4451
    1PA     H7R 9920   6.003   2.511   4.455 -1.9692 -3.2371 -0.8164
    1PA     H7S 9921   5.832   2.522   4.489  0.8391 -0.8807 -0.4540
    1PA     C16 9922   5.924   2.711   4.429 -0.4994  0.3708  0.9848
    1PA     H6R 9923   5.841   2.766   4.474 -0.6629 -2.7308  4.7353
    1PA     H6S 9924   6.017   2.762   4.454 -0.0719 -1.2268  2.7901
    1PA     C15 9925   5.921   2.713   4.278 -0.2573  0.0690 -0.2617
    1PA     H5R 9926   5.926   2.815   4.239 -1.9725 -0.1923 -1.2076
    1PA     H5S 9927   6.015   2.666   4.251  0.1724  0.5878  0.3041
    1PA     C14 9928   5.805   2.650   4.214  0.0298  0.0636 -0.2703
    1PA     H4R 9929   5.809   2.541   4.222 -1.0241 -0.0089 -0.6977
    1PA     H4S 9930   5.713   2.694   4.253 -0.4328 -0.7391 -0.4429
    1PA     C13 9931   5.796   2.677   4.061  0.1073 -0.2585  0.2173
    1PA     H3R 9932   5.699   2.631   4.042  0.9149 -1.1856 -1.7026
    1PA     H3S 9933   5.781   2.785   4.057  1.4284 -0.0973 -0.4992
    1PA     C12 9934   5.915   2.625   3.976  0.3067 -0.2093  0.2405
    1PA     H2R 9935   6.010   2.668   4.007  1.5236 -2.6268 -0.0591
    1PA     H2S 9936   5.921   2.518   3.994  1.9905 -0.2192 -0.3319
    1PC     C11 9937   5.890   2.646   3.827 -0.5256  0.3139  0.4278
    1PC     O12 9938   5.853   2.552   3.754 -0.3929 -0.1595  0.5549
    1PC     O11 9939   5.924   2.772   3.785  0.1302 -0.3760  0.3129
    1PC      C1 9940   5.914   2.813   3.645  0.8335  0.4318  0.1918
    1PC      HR 9941   5.944   2.918   3.642 -1.2575  1.0748  0.7021
    1PC      HS 9942   5.985   2.751   3.590  0.7777  1.4310 -1.0231
    1PC      C2 9943   5.767   2.798   3.590  0.2598 -0.2710  0.9044
    1PC      HX 9944   5.729   2.697   3.607 -2.6887  0.7092  0.4013
    1PC      C3 9945   5.744   2.837   3.444 -0.7054 -0.1666 -0.6356
    1PC      HA 9946   5.634   2.832   3.443 -0.6656 -1.8060  0.8468
    1PC      HB 9947   5.788   2.933   3.417  0.5833  0.2120  2.5166
    1PC     O31 9948   5.791   2.732   3.353 -0.3379  0.0659 -0.1494
    1PC     P31 9949   5.944   2.723   3.309  0.2918 -0.3559 -0.0590
    1PC     O32 9950   5.923   2.754   3.154 -0.2704  0.6161 -0.4257
    1PC     C31 9951   5.890   2.643   3.066 -0.7316 -0.2972  0.0989
    1PC     H1A 9952   5.976   2.575   3.068 -0.0184  0.6222  1.5909
    1PC     H1B 9953   5.799   2.591   3.098 -0.1180 -0.8716  0.9784
    1PC     C32 9954   5.876   2.698   2.921  0.1628 -0.3432  1.0328
    1PC     H2A 9955   5.848   2.619   2.850  2.3456 -0.0849 -0.1350
    1PC     H2B 9956   5.795   2.771   2.921  2.0011  1.7442  2.4665
    1PC     N31 9957   5.997   2.768   2.866  0.0210  0.3343  0.0115
    1PC     C33 9958   6.125   2.702   2.914  0.4453  0.3319 -0.0802
    1PC     H3A 9959   6.127   2.704   3.023 -0.4407  0.4866 -0.0637
    1PC     H3B 9960   6.123   2.597   2.885  0.0723  0.3531 -0.1368
    1PC     H3C 9961   6.208   2.750   2.862  2.0250 -1.3353  0.8525
    1PC     C34 9962   5.991   2.755   2.718 -0.1145 -0.0943 -0.1222
    1PC     H4A 9963   5.977   2.653   2.682  1.4925 -0.4499  0.2064
    1PC     H4B 9964   5.915   2.822   2.677  0.2633  0.2517 -0.2632
    1PC     H4C 9965   6.091   2.779   2.682  0.7091 -1.6086  1.1088
    1PC     C35 9966   6.005   2.916   2.897 -0.3177 -0.0857  0.0983
    1PC     H5A 9967   5.912   2.967   2.872  1.5024  3.7654  0.8144
    1PC     H5B 9968   6.079   2.959   2.830  0.9937 -1.3124  0.7199
    1PC     H5C 9969   6.031   2.920   3.003  2.1817 -0.5264 -0.4463
    1PC     O33 9970   6.030   2.833   3.360  0.0198  0.2994 -0.4044
    1PC     O34 9971   5.990   2.582   3.321 -0.0356  0.0762  0.2069
    1PC     O21 9972   5.690   2.905   3.666  0.4238  0.4496  0.0842
    1PC     C21 9973   5.604   2.863   3.755  0.2174  0.3678 -0.3570
    1PC     O22 9974   5.598   2.746   3.783  0.3036 -0.0267  0.5421
    1OL     C12 9975   5.516   2.975   3.811  0.4166  0.0027  0.2386
    1OL     H2R 9976   5.467   3.010   3.720 -0.9449  0.7431  1.2410
    1OL     H2S 9977   5.576   3.060   3.845 -2.0838  1.2311  1.7516
    1OL     C13 9978   5.424   2.922   3.923 -0.0146  0.2645  0.5721
    1OL     H3R 9979   5.368   2.834   3.890  0.5847  1.3788 -3.7955
    1OL     H3S 9980   5.347   2.999   3.935 -2.1794 -1.0703 -3.5399
    1OL     C14 9981   5.502   2.900   4.057  0.4043  0.0147  0.3704
    1OL     H4R 9982   5.571   2.815   4.052 -0.9465 -1.0450 -0.8178
    1OL     H4S 9983   5.424   2.866   4.125 -1.2260  1.9715 -0.4584
    1OL     C15 9984   5.567   3.021   4.123 -0.4069  0.7617  0.3949
    1OL     H5R 9985   5.658   3.028   4.062  1.2810 -1.4795  2.5645
    1OL     H5S 9986   5.605   3.000   4.223  0.7847  1.3228  0.0728
    1OL     C16 9987   5.481   3.149   4.118 -0.1198 -0.3222 -1.0956
    1OL     H6R 9988   5.468   3.176   4.013 -0.7122 -1.3095 -1.2770
    1OL     H6S 9989   5.543   3.230   4.157 -0.6282 -0.2951 -0.3154
    1OL     C17 9990   5.343   3.143   4.194  0.8661 -0.4828 -0.5128
    1OL     H7R 9991   5.275   3.087   4.129  1.0963 -2.5783  1.0344
    1OL     H7S 9992   5.297   3.241   4.179  0.2586 -0.7132 -0.1267
    1OL     C18 9993   5.353   3.102   4.340  0.5284  0.0560 -0.2385
    1OL     H8R 9994   5.337   2.996   4.362  0.0952  0.2369  0.3076
    1OL     H8S 9995   5.259   3.143   4.379  0.5856  0.9825 -1.0435
    1OL     C19 9996   5.465   3.171   4.420  0.7817  0.3663 -0.3679
    1OL     H9R 9997   5.491   3.268   4.378  0.3248  1.1728  1.1486
    1OL    C110 9998   5.530   3.118   4.521  0.7188 -1.0109  0.4727
    1OL    H10R 9999   5.610   3.177   4.566  0.3209 -0.6091  0.6726
    1OL    C11110000   5.501   2.985   4.581  0.1687 -0.7344 -0.1555
    1OL    H11R10001   5.393   2.973   4.591  0.2643  0.4803  2.7758
    1OL    H11S10002   5.537   2.992   4.684 -0.4611 -0.3178  0.0359
    1OL    C11210003   5.573   2.869   4.516 -0.0825 -0.2318  0.0819
    1OL    H12R10004   5.680   2.889   4.525 -0.5519  2.2754  0.4707
    1OL    H12S10005   5.559   2.878   4.408  1.5543  0.7245 -0.0666
    1OL    C11310006   5.534   2.725   4.561  0.2836 -0.3855  0.3726
    1OL    H13R10007   5.553   2.718   4.668  0.1873 -0.1865  0.4026
    1OL    H13S10008   5.600   2.655   4.510 -0.6895 -0.6662 -0.5212
    1OL    C11410009   5.392   2.681   4.521 -1.0957 -0.4948  0.1734
    1OL    H14R10010   5.369   2.681   4.415 -2.0163 -0.7723  0.3680
    1OL    H14S10011   5.315   2.748   4.562 -0.7824 -0.2190  0.3143
    1OL    C11510012   5.364   2.537   4.564 -0.1352 -0.1732  0.0088
    1OL    H15R10013   5.263   2.512   4.531  0.5263 -2.3036 -0.4718
    1OL    H15S10014   5.379   2.526   4.672  0.9121  2.0533  0.1074
    1OL    C11610015   5.459   2.422   4.512 -0.1566 -0.6116  0.1117
    1OL    H16R10016   5.426   2.321   4.537  1.9854 -1.4624 -0.4585
    1OL    H16S10017   5.549   2.443   4.570 -0.8447 -0.2938  1.0995
    1OL    C11710018   5.488   2.415   4.362  0.0340 -0.2562  0.1351
    1OL    H17R10019   5.581   2.359   4.352 -0.3136 -0.9394  0.7296
    1OL    H17S10020   5.517   2.517   4.333 -0.9153  0.0730  0.3294
    1OL    C11810021   5.376   2.376   4.269 -0.4359 -0.0576 -0.2061
    1OL    H18R10022   5.400   2.282   4.221 -0.3714  0.9129 -2.1207
    1OL    H18S10023   5.378   2.447   4.186  1.4991  2.1146  1.6050
    1OL    H18T10024   5.272   2.378   4.304 -0.3549  0.8794  0.0109
    1PA    C11610025   1.730   4.725   4.521  0.3534 -0.6171  0.3544
    1PA    H16R10026   1.634   4.775   4.510  1.8395  1.8887 -1.6086
    1PA    H16S10027   1.796   4.811   4.531  0.1779 -0.3473 -0.7034
    1PA    H16T10028   1.735   4.663   4.611  0.0987  1.8322  2.1023
    1PA    C11510029   1.746   4.652   4.391  0.1023 -0.3978  0.1843
    1PA    H15R10030   1.660   4.589   4.369  0.1423 -0.3696 -0.0543
    1PA    H15S10031   1.745   4.728   4.313 -1.3781 -0.1761  0.3959
    1PA    C11410032   1.878   4.572   4.385 -0.0794 -0.7505  0.5615
    1PA    H14R10033   1.955   4.644   4.414  0.3993 -1.7136  1.6912
    1PA    H14S10034   1.868   4.496   4.462  1.8536 -0.1901  1.4030
    1PA    C11310035   1.907   4.517   4.238  0.1070 -0.0708  0.4113
    1PA    H13R10036   1.812   4.475   4.204  1.7008 -1.6001 -2.3698
    1PA    H13S10037   1.941   4.602   4.179 -0.6168  0.0408  0.1560
    1PA    C11210038   2.011   4.402   4.231  0.2913 -0.3911  0.0258
    1PA    H12R10039   2.101   4.442   4.278 -0.4723  0.2699  0.9286
    1PA    H12S10040   1.970   4.318   4.288  1.7269 -0.2487  1.3077
    1PA    C11110041   2.038   4.361   4.079 -0.0361  0.0125  0.2224
    1PA    H11R10042   2.060   4.449   4.017 -0.6058  0.0877  0.1265
    1PA    H11S10043   2.122   4.292   4.073  0.0099  0.0497  0.4279
    1PA    C11010044   1.915   4.283   4.025  0.7463  0.3917  0.7402
    1PA    H10R10045   1.885   4.206   4.096 -0.7334 -0.3720 -0.6680
    1PA    H10S10046   1.829   4.345   3.999 -0.4207 -0.4822  2.4570
    1PA     C1910047   1.958   4.213   3.894  0.3283  0.5551  0.1006
    1PA     H9R10048   2.043   4.146   3.910  0.5533  0.7911 -0.1101
    1PA     H9S10049   1.874   4.143   3.882  0.4288  0.0229  2.2743
    1PA     C1810050   1.976   4.308   3.772  0.5859  0.3854 -0.0545
    1PA     H8R10051   2.063   4.370   3.793  0.0023  2.1343 -2.7294
    1PA     H8S10052   1.991   4.246   3.684 -0.0960 -2.1817  1.5496
    1PA     C1710053   1.855   4.401   3.735  0.2599 -0.3904  0.1719
    1PA     H7R10054   1.865   4.485   3.804  0.8406 -0.4965  0.2255
    1PA     H7S10055   1.883   4.434   3.634  0.4885 -0.0927  0.3299
    1PA     C1610056   1.724   4.327   3.733 -0.2324  0.0757  0.6295
    1PA     H6R10057   1.745   4.224   3.703  0.2100  0.5428 -0.6759
    1PA     H6S10058   1.687   4.328   3.836 -0.2557  1.9553  0.6086
    1PA     C1510059   1.615   4.393   3.639 -0.1016 -0.3145 -0.1800
    1PA     H5R10060   1.514   4.357   3.660 -0.6945  2.3873  1.8631
    1PA     H5S10061   1.614   4.498   3.669  1.6401 -0.9191  2.2288
    1PA     C1410062   1.637   4.378   3.490  0.3575 -0.1808  0.2376
    1PA     H4R10063   1.726   4.432   3.458  1.3854 -2.7961 -1.4818
    1PA     H4S10064   1.659   4.273   3.468  0.2132  0.0285 -0.9757
    1PA     C1310065   1.533   4.425   3.386  0.4211  0.3513 -0.1083
    1PA     H3R10066   1.536   4.534   3.382  1.4101  0.5250  3.3397
    1PA     H3S10067   1.561   4.396   3.284 -0.5235 -1.6296  0.1642
    1PA     C1210068   1.383   4.396   3.418 -0.6076 -0.0393 -0.2202
    1PA     H2R10069   1.363   4.427   3.521 -1.7512  1.6298 -0.9098
    1PA     H2S10070   1.330   4.457   3.344 -0.3484 -0.8186 -1.0619
    1PC     C1110071   1.343   4.249   3.398  1.4457  0.0814 -0.4742
    1PC     O1210072   1.418   4.158   3.377  0.0357 -0.1652  0.3926
    1PC     O1110073   1.205   4.230   3.413 -0.9708  0.4885 -0.4907
    1PC      C110074   1.151   4.100   3.373  0.1809  0.0072  0.2255
    1PC      HR10075   1.181   4.066   3.274 -1.4590 -1.1644  0.1156
    1PC      HS10076   1.182   4.037   3.457 -1.2430 -0.9629  0.0396
    1PC      C210077   0.992   4.112   3.372 -0.4788  0.0386 -0.4986
    1PC      HX10078   0.948   4.013   3.391 -1.4478  0.3282 -1.2292
    1PC      C310079   0.924   4.158   3.242  0.4046 -0.6594  0.0675
    1PC      HA10080   0.887   4.078   3.178  0.3025  1.1522 -2.2351
    1PC      HB10081   0.837   4.219   3.268  0.0575 -0.4559 -1.5198
    1PC     O3110082   1.009   4.244   3.166  0.0566  0.0264  0.1768
    1PC     P3110083   0.981   4.275   3.015 -0.2856  0.3165  0.1157
    1PC     O3210084   0.837   4.341   3.025  0.6079  0.6750  0.7953
    1PC     C3110085   0.818   4.488   3.041 -0.0170  0.4997  0.2757
    1PC     H1A10086   0.899   4.544   2.994 -0.3751  2.6645  2.1292
    1PC     H1B10087   0.721   4.521   3.003  0.4257  1.1978 -0.2513
    1PC     C3210088   0.804   4.527   3.194  0.2038 -0.0762 -0.1894
    1PC     H2A10089   0.704   4.494   3.223 -0.6854  1.2675 -1.6364
    1PC     H2B10090   0.876   4.471   3.254  0.0327 -1.5126 -1.2772
    1PC     N3110091   0.808   4.676   3.228 -0.0836 -0.0005  0.4375
    1PC     C3310092   0.944   4.724   3.202  0.0812  0.4395  0.2383
    1PC     H3A10093   0.976   4.720   3.098  2.5110  1.7490  0.9071
    1PC     H3B10094   0.935   4.829   3.231 -2.0486  0.2300  0.4055
    1PC     H3C10095   1.019   4.670   3.260  0.8598  1.1802 -0.0774
    1PC     C3410096   0.723   4.763   3.148  0.1207  0.5584 -0.2024
    1PC     H4A10097   0.619   4.729   3.150  1.1190 -2.6032  0.5349
    1PC     H4B10098   0.731   4.863   3.190 -1.8481  1.4846 -1.9240
    1PC     H4C10099   0.758   4.774   3.045  3.0824  2.9094  1.0155
    1PC     C3510100   0.789   4.702   3.370 -0.7453 -0.4336 -0.4006
    1PC     H5A10101   0.782   4.810   3.386  1.3158 -0.3032 -0.3126
    1PC     H5B10102   0.871   4.659   3.427 -0.6027 -1.6925 -1.5236
    1PC     H5C10103   0.704   4.648   3.412 -0.8218 -2.6298 -3.2377
    1PC     O3310104   1.069   4.376   2.964 -0.2402 -0.0534 -0.0501
    1PC     O3410105   0.970   4.151   2.935 -0.2641  0.5473  0.3346
    1PC     O2110106   0.949   4.201   3.481  0.7103  0.9670 -0.5195
    1PC     C2110107   0.969   4.158   3.610 -0.3575 -1.0144  0.0953
    1PC     O2210108   1.001   4.050   3.637  0.1901  0.4962 -0.0061
    1OL     C1210109   0.929   4.270   3.703 -0.1317  0.0290  0.8410
    1OL     H2R10110   0.834   4.309   3.666 -0.5929 -1.3801  0.4819
    1OL     H2S10111   0.999   4.351   3.683 -1.7904  1.0212 -1.1285
    1OL     C1310112   0.912   4.243   3.857  0.3922  0.2544  0.2562
    1OL     H3R10113   0.998   4.186   3.894  0.1147 -0.8961 -0.8173
    1OL     H3S10114   0.827   4.180   3.884  0.5948  0.0402  0.3982
    1OL     C1410115   0.911   4.366   3.954 -0.5659 -0.1126 -0.2208
    1OL     H4R10116   0.841   4.438   3.911  0.7376  1.6893  0.5835
    1OL     H4S10117   1.010   4.412   3.946 -1.3389  1.7776  0.6073
    1OL     C1510118   0.869   4.350   4.103 -0.0825 -0.4458 -0.4299
    1OL     H5R10119   0.764   4.328   4.120 -0.0601 -0.4575 -0.3022
    1OL     H5S10120   0.899   4.446   4.145 -0.2557 -0.7177  0.3237
    1OL     C1610121   0.965   4.246   4.165 -0.1153  0.0703 -0.2352
    1OL     H6R10122   1.063   4.261   4.118 -0.6466  1.1232 -1.0244
    1OL     H6S10123   0.922   4.152   4.128 -0.5100  0.7018 -1.3863
    1OL     C1710124   0.980   4.243   4.313 -0.0732 -0.1577  0.0712
    1OL     H7R10125   1.014   4.341   4.348  1.4727 -0.5653 -0.2401
    1OL     H7S10126   1.052   4.163   4.335 -0.0177 -0.2209 -0.3467
    1OL     C1810127   0.847   4.204   4.368 -0.2508 -0.6313  0.4805
    1OL     H8R10128   0.827   4.105   4.329 -2.3140 -0.2205  0.4678
    1OL     H8S10129   0.774   4.280   4.339 -0.5619 -0.2350  2.2427
    1OL     C1910130   0.869   4.188   4.513  0.6246 -0.2629  0.0125
    1OL     H9R10131   0.926   4.104   4.552  1.9650  1.2285  1.4026
    1OL    C11010132   0.830   4.276   4.602  1.0443  0.4191  1.2075
    1OL    H10R10133   0.846   4.258   4.708 -2.5931 -1.1452  1.5947
    1OL    C11110134   0.743   4.396   4.584 -0.5978  0.3776  0.2214
    1OL    H11R10135   0.718   4.414   4.479  0.3191 -1.6022 -0.3563
    1OL    H11S10136   0.789   4.485   4.626  0.2952  0.1271 -0.2218
    1OL    C11210137   0.618   4.383   4.664 -0.2793 -0.1166 -0.2441
    1OL    H12R10138   0.562   4.477   4.664 -2.3109 -1.2478  3.5892
    1OL    H12S10139   0.647   4.365   4.767 -0.0527  1.1698 -0.0763
    1OL    C11310140   0.512   4.278   4.613  0.5244 -0.9973 -0.0063
    1OL    H13R10141   0.556   4.178   4.620 -0.6353 -1.5250 -0.2443
    1OL    H13S10142   0.479   4.308   4.514  0.9254  1.8994  0.6743
    1OL    C11410143   0.387   4.265   4.701 -0.5923  0.3740 -0.3033
    1OL    H14R10144   0.322   4.348   4.675 -1.1384  0.6923  1.9527
    1OL    H14S10145   0.414   4.275   4.806 -0.1069  0.4091 -0.4320
    1OL    C11510146   0.312   4.135   4.672  0.1997 -0.1684  0.2986
    1OL    H15R10147   0.238   4.113   4.749  2.9575 -0.9422  2.8099
    1OL    H15S10148   0.386   4.055   4.671  1.9254  1.4167 -0.3099
    1OL    C11610149   0.238   4.147   4.535 -0.0700  0.6981 -0.0914
    1OL    H16R10150   0.302   4.206   4.468 -0.1953 -1.1738 -1.9005
    1OL    H16S10151   0.141   4.192   4.554  0.4615  2.0401 -0.4799
    1OL    C11710152   0.209   4.013   4.471 -0.2019 -0.0881  0.5935
    1OL    H17R10153   0.135   3.965   4.535 -0.2604 -1.4472 -0.4740
    1OL    H17S10154   0.294   3.945   4.469 -0.0016  0.1730 -2.4851
    1OL    C11810155   0.156   4.023   4.326  0.1255  0.1223  0.5011
    1OL    H18R10156   0.121   3.930   4.282 -0.7225  0.6880 -0.0315
    1OL    H18S10157   0.234   4.076   4.271 -2.2592  1.5900 -1.5748
    1OL    H18T10158   0.071   4.091   4.330  0.4329  0.5472 -0.2457
    1PA    C11610159   4.981   4.402   5.040 -0.0169  0.1962  0.9120
    1PA    H16R10160   5.081   4.429   5.007 -0.1919 -0.4845 -0.2094
    1PA    H16S10161   4.974   4.311   5.100  0.8858 -0.3176  0.2539
    1PA    H16T10162   4.948   4.495   5.087  2.0609  1.0186  0.7884
    1PA    C11510163   4.895   4.369   4.917 -0.6664  0.2486 -0.3017
    1PA    H15R10164   4.790   4.365   4.948 -1.5087 -2.1203 -3.2230
    1PA    H15S10165   4.890   4.446   4.840 -0.9631  0.1139 -0.4173
    1PA    C11410166   4.951   4.240   4.853  0.2701 -0.4259 -0.0212
    1PA    H14R10167   4.955   4.151   4.916  0.4791 -1.0543 -0.9067
    1PA    H14S10168   4.874   4.210   4.781 -0.7762  2.1625 -0.0289
    1PA    C11310169   5.082   4.255   4.777 -0.3524  0.4887  0.1564
    1PA    H13R10170   5.153   4.265   4.860  0.4448  1.9060 -0.6626
    1PA    H13S10171   5.102   4.163   4.722 -0.2127 -0.6922  2.1389
    1PA    C11210172   5.097   4.377   4.676 -0.4142  0.5276 -0.1485
    1PA    H12R10173   5.021   4.381   4.597  0.5772  0.4092 -1.1115
    1PA    H12S10174   5.090   4.469   4.733 -0.0641 -0.3014  1.2535
    1PA    C11110175   5.234   4.381   4.606  0.1911 -0.1068 -0.2794
    1PA    H11R10176   5.311   4.382   4.684  2.4002  2.2480 -2.3862
    1PA    H11S10177   5.245   4.296   4.539  0.6021  0.1220 -0.5043
    1PA    C11010178   5.253   4.505   4.516 -1.0613 -0.0759 -0.1688
    1PA    H10R10179   5.171   4.528   4.448 -1.0893 -0.2647 -0.2000
    1PA    H10S10180   5.265   4.590   4.584  0.2760  0.2214 -0.7834
    1PA     C1910181   5.382   4.496   4.442  0.3480  0.0289  0.2970
    1PA     H9R10182   5.393   4.599   4.407  0.7331  0.7367  2.4130
    1PA     H9S10183   5.463   4.483   4.513 -0.5794  0.4666  1.4602
    1PA     C1810184   5.399   4.403   4.322  0.0515 -0.7317  0.7176
    1PA     H8R10185   5.452   4.309   4.338 -0.1041 -0.4484  2.9855
    1PA     H8S10186   5.298   4.382   4.285  1.0487 -2.8125 -0.9301
    1PA     C1710187   5.453   4.484   4.201  0.6471  0.2365  0.0316
    1PA     H7R10188   5.391   4.572   4.183 -0.8896 -1.5470 -4.2407
    1PA     H7S10189   5.552   4.524   4.221  0.7228 -0.0360  0.2022
    1PA     C1610190   5.455   4.403   4.070 -0.7616 -0.4016  0.2585
    1PA     H6R10191   5.352   4.381   4.041 -0.9735  1.5743 -0.5940
    1PA     H6S10192   5.515   4.445   3.988  1.1785 -1.0369  1.3084
    1PA     C1510193   5.523   4.266   4.086 -0.1498 -0.2555  0.3948
    1PA     H5R10194   5.620   4.272   4.135 -0.5885 -1.9071  1.5181
    1PA     H5S10195   5.457   4.207   4.151 -0.0872 -0.8716 -0.0929
    1PA     C1410196   5.535   4.186   3.951  0.2764  0.3060 -0.3982
    1PA     H4R10197   5.566   4.251   3.869  0.9111 -0.4009 -0.7288
    1PA     H4S10198   5.613   4.112   3.971 -1.7744 -1.6848  0.4482
    1PA     C1310199   5.401   4.111   3.919 -0.4917 -0.5010 -0.5412
    1PA     H3R10200   5.344   4.093   4.011 -0.8831  0.9602 -0.4714
    1PA     H3S10201   5.342   4.176   3.854 -2.0176 -2.4385 -1.1448
    1PA     C1210202   5.408   3.977   3.845  0.3135  0.0840 -0.5334
    1PA     H2R10203   5.463   3.987   3.751  0.2947  0.5968 -0.4935
    1PA     H2S10204   5.463   3.910   3.912 -0.5478  0.0106  0.1088
    1PC     C1110205   5.275   3.910   3.811  0.1608 -0.6201 -0.1044
    1PC     O1210206   5.179   3.906   3.885  0.0348 -0.1276  0.4124
    1PC     O1110207   5.271   3.857   3.688 -0.2557  0.4615 -0.0302
    1PC      C110208   5.142   3.827   3.622  0.4018  0.5044 -0.6179
    1PC      HR10209   5.157   3.755   3.541  1.5974 -0.2665  0.2818
    1PC      HS10210   5.074   3.784   3.696 -1.8503  1.3236 -2.1617
    1PC      C210211   5.093   3.951   3.549  0.3937 -0.2633  0.0093
    1PC      HX10212   4.989   3.929   3.524  0.4673 -0.5553 -0.0381
    1PC      C310213   5.162   3.983   3.418 -0.0276 -0.0649 -0.4310
    1PC      HA10214   5.160   3.896   3.352  1.8582 -1.2670  1.0388
    1PC      HB10215   5.098   4.057   3.370  2.1418  2.2830  0.2499
    1PC     O3110216   5.304   4.027   3.429  0.1513 -0.3149 -0.3635
    1PC     P3110217   5.338   4.158   3.349  0.1340  0.2404 -0.1866
    1PC     O3210218   5.241   4.278   3.406  0.6228  0.4724 -0.4297
    1PC     C3110219   5.300   4.398   3.463  0.3498 -0.1321  0.0772
    1PC     H1A10220   5.323   4.378   3.568  1.5216 -0.0660 -0.1654
    1PC     H1B10221   5.388   4.425   3.405  0.2003 -1.8269 -0.9607
    1PC     C3210222   5.205   4.519   3.453 -0.7070 -0.8910 -0.0248
    1PC     H2A10223   5.115   4.509   3.513  0.5454 -0.5674  1.9413
    1PC     H2B10224   5.271   4.600   3.485 -1.4434  0.0900 -0.9659
    1PC     N3110225   5.164   4.570   3.321  0.4754  0.3000 -0.4593
    1PC     C3310226   5.279   4.626   3.246  0.3293  0.2410 -0.2281
    1PC     H3A10227   5.341   4.685   3.314  1.9555 -1.4574 -0.1841
    1PC     H3B10228   5.346   4.555   3.196  0.5227  0.4779 -0.3065
    1PC     H3C10229   5.229   4.689   3.172 -0.7924 -1.4237 -0.9098
    1PC     C3410230   5.095   4.466   3.242  0.4199 -0.3612  0.2905
    1PC     H4A10231   5.173   4.405   3.197  0.2558 -0.0395 -0.4343
    1PC     H4B10232   5.051   4.402   3.319  2.0969 -1.7042  0.1559
    1PC     H4C10233   5.028   4.519   3.174  2.0822  0.5310 -0.6730
    1PC     C3510234   5.067   4.677   3.348  0.5419  0.0023  0.0126
    1PC     H5A10235   4.979   4.623   3.384  0.3139  0.6530  0.4565
    1PC     H5B10236   5.048   4.733   3.257  3.2934 -0.5133 -0.9036
    1PC     H5C10237   5.109   4.741   3.426  1.5143  0.0352 -0.5413
    1PC     O3310238   5.478   4.191   3.379  0.5313  0.1604  0.1989
    1PC     O3410239   5.304   4.128   3.209  0.1090  0.4637  0.2200
    1PC     O2110240   5.098   4.067   3.635 -0.4660 -0.1268 -0.3720
    1PC     C2110241   5.013   4.171   3.625  0.2462  0.5167  0.8390
    1PC     O2210242   4.922   4.171   3.538  0.4132  0.2649 -0.1043
    1OL     C1210243   5.046   4.281   3.727  0.0327 -0.7676  0.0042
    1OL     H2R10244   5.009   4.376   3.687 -0.5142 -0.2192  1.7397
    1OL     H2S10245   5.155   4.284   3.736 -0.0079 -1.9294  1.0092
    1OL     C1310246   4.972   4.239   3.856 -0.4477  0.5155 -0.1399
    1OL     H3R10247   4.999   4.135   3.875 -2.2387 -0.5846 -3.2733
    1OL     H3S10248   4.864   4.247   3.850 -0.5942 -1.0268  0.3095
    1OL     C1410249   5.020   4.336   3.960 -0.7361  0.3062  0.0182
    1OL     H4R10250   4.991   4.437   3.930 -1.5976  0.8795  2.6617
    1OL     H4S10251   5.129   4.344   3.967 -0.6736 -1.1595  0.8551
    1OL     C1510252   4.951   4.325   4.100 -0.2230  0.1203  0.6912
    1OL     H5R10253   4.845   4.346   4.083  0.0208 -0.4004 -1.6675
    1OL     H5S10254   4.995   4.403   4.163 -3.7340  0.7799  2.4930
    1OL     C1610255   4.959   4.185   4.155  0.1290  0.2268  0.1840
    1OL     H6R10256   4.925   4.111   4.082 -0.1721 -1.9438  2.4526
    1OL     H6S10257   4.899   4.180   4.246  0.8122  1.0927  0.6949
    1OL     C1710258   5.111   4.149   4.194  0.3862  0.5911  1.0988
    1OL     H7R10259   5.147   4.217   4.272  0.9379  1.8309 -0.2097
    1OL     H7S10260   5.177   4.172   4.110 -2.4541  2.7978 -0.6466
    1OL     C1810261   5.132   3.999   4.229  0.4207 -0.0025 -0.3492
    1OL     H8R10262   5.110   3.938   4.140  0.5934  2.8378 -2.4080
    1OL     H8S10263   5.058   3.978   4.306  0.4807  1.7916  0.2219
    1OL     C1910264   5.273   3.972   4.274  0.8591  0.1380 -0.2807
    1OL     H9R10265   5.343   3.961   4.192  2.2996  0.3473  0.8993
    1OL    C11010266   5.317   3.981   4.397  0.4121 -0.2674 -0.6625
    1OL    H10R10267   5.420   3.954   4.421  0.6326  2.4435  1.6220
    1OL    C11110268   5.236   4.027   4.519 -0.6627 -0.1609  0.5023
    1OL    H11R10269   5.145   4.075   4.482  0.4818  1.6282 -0.0439
    1OL    H11S10270   5.297   4.100   4.572 -1.3259  1.0824 -0.4170
    1OL    C11210271   5.198   3.908   4.610  0.1118 -0.4919  0.0082
    1OL    H12R10272   5.141   3.833   4.555  1.6876 -1.1078 -0.8168
    1OL    H12S10273   5.129   3.946   4.686  1.8371  2.6844  0.0578
    1OL    C11310274   5.318   3.849   4.690  0.5519 -0.3420  0.0742
    1OL    H13R10275   5.384   3.792   4.625 -1.7327  0.0425 -2.7030
    1OL    H13S10276   5.259   3.784   4.755  0.4023  2.3086  2.7005
    1OL    C11410277   5.390   3.958   4.772 -0.3731 -0.3669  0.0651
    1OL    H14R10278   5.315   4.021   4.820 -0.7188 -1.1226  0.5269
    1OL    H14S10279   5.456   4.017   4.708 -2.2183  2.8935  1.0775
    1OL    C11510280   5.470   3.898   4.887 -0.5328  0.4365  0.1026
    1OL    H15R10281   5.557   3.844   4.848 -1.1052 -0.8107  0.5337
    1OL    H15S10282   5.412   3.823   4.941  3.2278 -2.4013  0.3792
    1OL    C11610283   5.530   3.986   4.991 -0.1108 -0.8092 -0.0715
    1OL    H16R10284   5.618   4.036   4.951 -1.2355  0.8393 -0.5137
    1OL    H16S10285   5.580   3.924   5.066  2.4506  0.6879 -0.4908
    1OL    C11710286   5.423   4.086   5.048 -0.4177 -0.2892 -0.2136
    1OL    H17R10287   5.335   4.025   5.069  0.2788 -1.1255  0.3144
    1OL    H17S10288   5.395   4.148   4.963 -0.4972 -0.4121 -0.2786
    1OL    C11810289   5.482   4.167   5.171 -0.2890  0.3865  0.5374
    1OL    H18R10290   5.576   4.211   5.139 -0.0012  0.0906  0.9770
    1OL    H18S10291   5.512   4.096   5.248 -1.2705 -0.0383  0.5471
    1OL    H18T10292   5.412   4.245   5.202  0.8736  1.9622 -0.7413
    1PA    C11610293   3.077   4.312   4.162  0.3220 -1.2878 -0.5062
    1PA    H16R10294   3.093   4.418   4.180 -2.5091 -0.8486 -0.3481
    1PA    H16S10295   3.146   4.289   4.081  0.3750  0.0154 -0.8400
    1PA    H16T10296   3.114   4.253   4.246  0.9700  2.6749  2.1263
    1PA    C11510297   2.929   4.291   4.123 -0.2941 -0.4652 -1.0712
    1PA    H15R10298   2.903   4.185   4.126  0.7419 -0.7132 -0.1067
    1PA    H15S10299   2.867   4.337   4.200 -0.1649  0.6887 -1.6405
    1PA    C11410300   2.890   4.357   3.982  0.3826  0.0587 -0.5054
    1PA    H14R10301   2.781   4.356   3.971  0.3427  2.1639 -0.5615
    1PA    H14S10302   2.911   4.464   3.985 -1.2408  0.4108 -1.0284
    1PA    C11310303   2.941   4.300   3.850  0.1413 -0.9291 -0.4789
    1PA    H13R10304   3.049   4.284   3.858 -0.2415 -3.0473  0.5865
    1PA    H13S10305   2.902   4.199   3.843  2.2708 -2.2150  4.1553
    1PA    C11210306   2.903   4.393   3.735 -0.2179 -0.6163  0.3624
    1PA    H12R10307   2.911   4.344   3.638  0.9386  2.3507 -1.1235
    1PA    H12S10308   2.796   4.411   3.751 -0.1543  0.3170 -0.2139
    1PA    C11110309   2.963   4.534   3.726  0.1737 -0.0760 -0.4088
    1PA    H11R10310   2.926   4.572   3.631 -1.1656  1.5494  0.7318
    1PA    H11S10311   2.924   4.598   3.806  0.6763  1.2626 -1.2133
    1PA    C11010312   3.113   4.527   3.722  0.1396 -0.1321  0.1291
    1PA    H10R10313   3.134   4.546   3.828 -0.4589 -0.3090  0.2852
    1PA    H10S10314   3.147   4.430   3.685 -2.8655 -0.8399 -0.9519
    1PA     C1910315   3.179   4.635   3.645  0.1678 -0.2345 -0.3093
    1PA     H9R10316   3.287   4.622   3.651  0.2655  0.6135 -0.0731
    1PA     H9S10317   3.151   4.621   3.540  0.3503  0.8866 -0.5158
    1PA     C1810318   3.142   4.779   3.689  0.9500 -0.0625  0.4452
    1PA     H8R10319   3.202   4.850   3.631  0.5006  1.0992  1.3694
    1PA     H8S10320   3.036   4.791   3.664  1.0554 -0.6928 -0.3003
    1PA     C1710321   3.171   4.832   3.833  0.6996 -0.4241 -0.0216
    1PA     H7R10322   3.117   4.778   3.911 -1.7421  4.1820  1.6984
    1PA     H7S10323   3.278   4.843   3.852  0.6583  3.8220 -1.7552
    1PA     C1610324   3.136   4.981   3.854 -0.0606  0.6348  0.0898
    1PA     H6R10325   3.167   5.005   3.956  1.0595 -0.1795 -0.0526
    1PA     H6S10326   3.195   5.034   3.779 -1.7612  1.7401 -0.5173
    1PA     C1510327   2.989   5.024   3.845  0.1060 -0.7107  0.2017
    1PA     H5R10328   2.949   4.999   3.746  2.2190  3.2235 -1.7886
    1PA     H5S10329   2.942   4.956   3.916  1.3604  1.8849  3.6437
    1PA     C1410330   2.965   5.167   3.895 -0.6265 -0.3056  0.3117
    1PA     H4R10331   2.859   5.187   3.880 -0.5155 -0.2451 -0.4057
    1PA     H4S10332   2.985   5.158   4.002  2.2129 -1.5668 -0.2821
    1PA     C1310333   3.052   5.279   3.843 -0.1583  0.1459 -0.7763
    1PA     H3R10334   3.024   5.372   3.893  0.2135 -0.6604  0.9586
    1PA     H3S10335   3.159   5.268   3.861 -0.1306 -0.6036 -1.3708
    1PA     C1210336   3.024   5.313   3.698 -0.4339  0.0362 -0.1919
    1PA     H2R10337   2.917   5.310   3.676 -0.6212 -0.2551  0.7519
    1PA     H2S10338   3.065   5.412   3.674  2.0868 -0.1945  2.9047
    1PC     C1110339   3.083   5.211   3.603 -0.0951  0.0069  0.1847
    1PC     O1210340   3.202   5.184   3.602 -0.5437 -0.1023  0.0213
    1PC     O1110341   2.996   5.170   3.514 -0.6603 -0.3895 -0.1397
    1PC      C110342   3.037   5.071   3.413  0.6562 -0.1199 -0.2642
    1PC      HR10343   3.119   5.111   3.353 -0.6983 -0.3355 -2.3522
    1PC      HS10344   3.078   4.984   3.465 -0.7962  0.5419  2.0683
    1PC      C210345   2.917   5.034   3.320  0.4004  0.3575 -0.3176
    1PC      HX10346   2.931   4.930   3.287 -0.8975  0.6178 -1.7074
    1PC      C310347   2.910   5.126   3.196 -1.3198 -0.2685  0.3147
    1PC      HA10348   2.967   5.086   3.112  0.6162  0.1341  1.3909
    1PC      HB10349   2.806   5.133   3.165 -0.4229  1.7360 -2.4030
    1PC     O3110350   2.957   5.266   3.220  0.3234  0.0235  0.2681
    1PC     P3110351   2.979   5.372   3.100  0.3738 -0.2257 -0.3591
    1PC     O3210352   2.827   5.416   3.053 -0.2268 -0.7542  0.5948
    1PC     C3110353   2.784   5.552   3.052 -0.1399  0.1758 -0.7794
    1PC     H1A10354   2.675   5.553   3.051 -0.2009 -2.5719  0.6703
    1PC     H1B10355   2.823   5.587   3.148  0.9855 -1.3045 -0.6836
    1PC     C3210356   2.845   5.631   2.933 -0.8117  0.0235  0.7257
    1PC     H2A10357   2.843   5.740   2.936  0.5286  0.1319 -1.3891
    1PC     H2B10358   2.953   5.619   2.923 -1.1301 -1.3134 -1.4446
    1PC     N3110359   2.786   5.595   2.798  0.3829  0.1402 -0.3156
    1PC     C3310360   2.770   5.448   2.773 -0.1346  0.0775  0.0238
    1PC     H3A10361   2.720   5.437   2.676 -1.8483 -4.2162  1.2822
    1PC     H3B10362   2.867   5.398   2.766  0.2138  0.6951  0.4147
    1PC     H3C10363   2.720   5.401   2.858  1.7855  1.0813  1.7128
    1PC     C3410364   2.655   5.654   2.772 -0.0074 -0.1508 -0.1228
    1PC     H4A10365   2.630   5.638   2.667 -2.1778  3.3382 -0.1893
    1PC     H4B10366   2.583   5.605   2.838  0.3322 -1.3993 -0.6662
    1PC     H4C10367   2.661   5.760   2.799  1.4596  0.1174 -1.4273
    1PC     C3510368   2.878   5.656   2.699  0.1835  0.5024 -0.0550
    1PC     H5A10369   2.865   5.613   2.600  0.5665  1.6903 -0.6332
    1PC     H5B10370   2.979   5.631   2.732 -0.0850  0.2022  0.5446
    1PC     H5C10371   2.867   5.765   2.690 -1.1179  0.4857  1.1960
    1PC     O3310372   3.048   5.488   3.153  0.4057  0.0485  0.1358
    1PC     O3410373   3.033   5.304   2.981 -0.3760  0.4115 -0.7108
    1PC     O2110374   2.790   5.050   3.405 -0.0539  0.2842 -0.3079
    1PC     C2110375   2.737   4.933   3.443  0.2327  0.1481 -0.8494
    1PC     O2210376   2.796   4.829   3.431 -0.1138 -0.2300 -0.2840
    1OL     C1210377   2.601   4.949   3.513 -0.5631 -0.2673  0.3432
    1OL     H2R10378   2.550   4.854   3.496 -1.7392  0.2710  0.8343
    1OL     H2S10379   2.536   5.024   3.467  0.2268 -1.7670 -3.4247
    1OL     C1310380   2.606   4.970   3.665  0.1476  0.1447 -0.0558
    1OL     H3R10381   2.501   4.982   3.692  0.3509  0.4253  0.6033
    1OL     H3S10382   2.676   5.049   3.692 -1.0972  1.6518 -1.1147
    1OL     C1410383   2.662   4.864   3.749 -0.5416  0.3512 -0.8001
    1OL     H4R10384   2.766   4.842   3.724 -0.5476  3.4005 -3.9108
    1OL     H4S10385   2.612   4.770   3.724 -0.7850  0.1398  0.4335
    1OL     C1510386   2.661   4.888   3.902  0.4884  0.1514 -0.1479
    1OL     H5R10387   2.558   4.901   3.934  1.0808 -1.2584  2.4814
    1OL     H5S10388   2.710   4.983   3.924 -0.5337  0.4175  0.9962
    1OL     C1610389   2.707   4.771   3.990  0.3294 -0.0369 -0.3405
    1OL     H6R10390   2.813   4.752   3.969  0.5865  0.5855  0.3658
    1OL     H6S10391   2.647   4.681   3.980  1.1467 -0.4974 -1.1912
    1OL     C1710392   2.722   4.811   4.141  0.5722  0.0098 -0.1430
    1OL     H7R10393   2.624   4.850   4.169  0.2811  0.0922 -1.2444
    1OL     H7S10394   2.796   4.891   4.146 -1.2752  1.9896 -2.6965
    1OL     C1810395   2.755   4.695   4.226  0.2545  0.6663 -0.0834
    1OL     H8R10396   2.702   4.604   4.196  1.2593  0.4278 -1.2121
    1OL     H8S10397   2.732   4.729   4.327  0.9574 -1.2854  0.7700
    1OL     C1910398   2.911   4.673   4.228  0.3365 -0.5636 -0.3997
    1OL     H9R10399   2.969   4.720   4.150  1.1870 -1.0374 -0.0628
    1OL    C11010400   2.979   4.611   4.320 -0.2776 -0.1904 -0.5059
    1OL    H10R10401   3.086   4.590   4.310  0.0448  1.2529 -0.2108
    1OL    C11110402   2.922   4.544   4.445  0.1990  0.4536 -0.1194
    1OL    H11R10403   2.924   4.438   4.419 -1.1012  1.2485 -3.8281
    1OL    H11S10404   2.816   4.567   4.458 -0.5719 -2.9499 -0.1407
    1OL    C11210405   2.995   4.591   4.570 -0.1086  0.9139  0.5492
    1OL    H12R10406   2.950   4.546   4.658 -1.3799  1.6524  0.2891
    1OL    H12S10407   2.980   4.698   4.586 -1.2984  0.6323  1.3095
    1OL    C11310408   3.150   4.581   4.563 -0.1430  0.8038  0.0595
    1OL    H13R10409   3.197   4.607   4.658  1.4051  0.8445 -0.7017
    1OL    H13S10410   3.194   4.659   4.500 -2.1213  4.8451  3.4535
    1OL    C11410411   3.199   4.432   4.536  0.2880  0.1684 -0.4129
    1OL    H14R10412   3.307   4.424   4.551 -0.0288 -1.2695  1.2867
    1OL    H14S10413   3.165   4.397   4.438 -1.9868  1.9039 -0.2647
    1OL    C11510414   3.140   4.333   4.642 -0.6070  0.1718 -0.5977
    1OL    H15R10415   3.094   4.248   4.594 -0.3846  0.8234 -1.9855
    1OL    H15S10416   3.065   4.383   4.704 -0.9744 -0.2230 -0.7219
    1OL    C11610417   3.253   4.280   4.738 -0.1025 -0.2257  0.2472
    1OL    H16R10418   3.301   4.366   4.786 -3.6402  1.6347  0.6024
    1OL    H16S10419   3.326   4.230   4.674  0.6151 -0.8807  1.5462
    1OL    C11710420   3.200   4.174   4.840  0.0223  0.8902  0.2404
    1OL    H17R10421   3.176   4.078   4.793 -2.0188  0.1475  2.6631
    1OL    H17S10422   3.105   4.204   4.886 -0.8629 -1.3865 -0.0198
    1OL    C11810423   3.314   4.156   4.940 -0.4869 -0.0090  0.3521
    1OL    H18R10424   3.309   4.069   5.006 -0.0225 -0.3303 -0.0341
    1OL    H18S10425   3.322   4.239   5.010  3.6358 -0.8570  1.0051
    1OL    H18T10426   3.406   4.139   4.884 -0.0453  0.9466  0.7748
    1PA    C11610427   4.289   0.158   5.283  0.2895 -0.2076 -0.2245
    1PA    H16R10428   4.268   0.243   5.348 -1.2427 -0.2391 -0.6496
    1PA    H16S10429   4.391   0.125   5.306  1.4904  2.5658 -1.3062
    1PA    H16T10430   4.213   0.084   5.307  1.7791 -1.2889  1.2462
    1PA    C11510431   4.274   0.218   5.139 -0.2166 -0.1230  0.0823
    1PA    H15R10432   4.175   0.254   5.111  1.0536  3.1700 -0.3492
    1PA    H15S10433   4.342   0.302   5.127 -1.3340  0.7265 -0.3106
    1PA    C11410434   4.304   0.103   5.038 -0.2285 -0.4023  0.6852
    1PA    H14R10435   4.376   0.033   5.080  2.6050  1.5958 -0.6219
    1PA    H14S10436   4.221   0.034   5.023  1.6216 -2.1987 -1.7414
    1PA    C11310437   4.355   0.160   4.901 -0.4043  0.1053 -0.1254
    1PA    H13R10438   4.296   0.245   4.867  0.7766  0.8049 -0.4493
    1PA    H13S10439   4.461   0.182   4.919 -0.6437  1.7195 -0.6405
    1PA    C11210440   4.365   0.057   4.786  0.4572 -0.1429 -0.1483
    1PA    H12R10441   4.421  -0.029   4.820  0.2161 -1.2489 -2.4360
    1PA    H12S10442   4.264   0.017   4.769  0.5247 -0.6904  0.7217
    1PA    C11110443   4.429   0.118   4.657  0.0329 -0.1121 -0.0416
    1PA    H11R10444   4.374   0.210   4.634 -1.4650 -0.7078  1.0651
    1PA    H11S10445   4.530   0.151   4.682  0.1778 -1.3269  1.0479
    1PA    C11010446   4.435   0.010   4.550  0.0407  0.2226  0.1892
    1PA    H10R10447   4.486  -0.081   4.582  0.5080  0.5787  0.4553
    1PA    H10S10448   4.331  -0.014   4.523  0.3707  0.6551 -1.5305
    1PA     C1910449   4.499   0.057   4.422 -0.0021  0.4485 -0.1888
    1PA     H9R10450   4.444   0.150   4.405  2.1227  1.9124  0.7039
    1PA     H9S10451   4.605   0.079   4.430  0.4879 -1.7669 -0.3600
    1PA     C1810452   4.473  -0.041   4.296 -0.3864 -0.2428  0.2885
    1PA     H8R10453   4.520  -0.001   4.206 -1.2415  0.0364 -0.0384
    1PA     H8S10454   4.521  -0.137   4.319 -0.8944 -0.2571  1.3091
    1PA     C1710455   4.331  -0.075   4.258  0.5492  0.0140  0.1821
    1PA     H7R10456   4.289  -0.120   4.348  1.4149 -0.2483  0.4670
    1PA     H7S10457   4.276   0.017   4.237  0.1682 -0.3715 -0.4816
    1PA     C1610458   4.325  -0.175   4.141  0.4039 -0.2866 -0.4087
    1PA     H6R10459   4.373  -0.271   4.158 -0.6256 -0.7350 -0.0077
    1PA     H6S10460   4.218  -0.189   4.123  0.9183 -2.2388 -2.0068
    1PA     C1510461   4.387  -0.105   4.016  0.4075 -0.1433 -0.2708
    1PA     H5R10462   4.356  -0.000   4.013 -0.2791 -0.2141  2.4366
    1PA     H5S10463   4.496  -0.096   4.012  0.4854 -1.2308 -0.5773
    1PA     C1410464   4.348  -0.179   3.888 -0.2094 -0.3013  0.6089
    1PA     H4R10465   4.403  -0.136   3.804 -0.6328 -2.0323 -0.5968
    1PA     H4S10466   4.378  -0.283   3.898 -0.6196 -0.4702  0.1358
    1PA     C1310467   4.196  -0.172   3.848  0.3030  0.3371 -0.5243
    1PA     H3R10468   4.138  -0.229   3.920  1.3880 -0.8542 -0.5757
    1PA     H3S10469   4.156  -0.071   3.837 -2.2129 -0.3767  1.6262
    1PA     C1210470   4.184  -0.247   3.718 -0.5872  0.4961 -0.0666
    1PA     H2R10471   4.257  -0.213   3.644  1.0061  1.2045  1.7738
    1PA     H2S10472   4.204  -0.353   3.734 -1.0373  0.5861  1.1991
    1PC     C1110473   4.042  -0.251   3.680 -0.0550 -0.3307  0.6751
    1PC     O1210474   3.946  -0.231   3.750 -0.7949  0.3950  0.0078
    1PC     O1110475   4.028  -0.284   3.547 -0.1557 -0.6578  0.4116
    1PC      C110476   3.903  -0.256   3.488 -0.0363  0.1506  0.2183
    1PC      HR10477   3.905  -0.327   3.405 -0.4385 -2.0108  1.9988
    1PC      HS10478   3.820  -0.284   3.554 -0.8069 -1.9626 -1.6084
    1PC      C210479   3.901  -0.109   3.421  0.0545  0.0470 -0.6425
    1PC      HX10480   3.809  -0.097   3.363 -1.1523  1.3118  1.4609
    1PC      C310481   4.021  -0.113   3.313 -0.2343 -0.1978 -0.1451
    1PC      HA10482   4.119  -0.122   3.361 -0.5006 -1.3094  0.2117
    1PC      HB10483   4.007  -0.184   3.232  0.1048  0.0551 -0.4239
    1PC     O3110484   4.016   0.015   3.239  0.2789  0.4338  0.3356
    1PC     P3110485   3.926   0.051   3.110 -0.1755  0.4564 -0.0059
    1PC     O3210486   4.028   0.134   3.026  0.0726  0.0174  0.0050
    1PC     C3110487   4.064   0.259   3.069 -0.0924  0.0084 -0.1866
    1PC     H1A10488   3.973   0.315   3.088 -1.3352 -1.8820 -0.4429
    1PC     H1B10489   4.124   0.248   3.160  0.1056  0.5952 -0.2450
    1PC     C3210490   4.133   0.343   2.961 -0.1639  0.5716 -0.4404
    1PC     H2A10491   4.153   0.443   3.001 -0.3173 -0.3584  2.0808
    1PC     H2B10492   4.236   0.311   2.944 -0.1125  0.0116  0.8294
    1PC     N3110493   4.072   0.361   2.825 -0.2738  0.7689  0.3596
    1PC     C3310494   3.937   0.411   2.838  0.8657  0.0589  0.7170
    1PC     H3A10495   3.879   0.335   2.890 -0.8379  1.1990  0.5315
    1PC     H3B10496   3.918   0.513   2.872 -0.1907 -0.2276  0.9735
    1PC     H3C10497   3.899   0.402   2.736 -0.1028  1.4316  0.9431
    1PC     C3410498   4.153   0.458   2.757 -0.0236  0.3776 -1.3469
    1PC     H4A10499   4.101   0.554   2.753  2.2702  1.6714 -0.9287
    1PC     H4B10500   4.247   0.468   2.811 -1.5571 -1.1471  1.7186
    1PC     H4C10501   4.164   0.427   2.653 -1.0908 -1.1302 -1.0325
    1PC     C3510502   4.086   0.231   2.748  0.7144 -0.2213  0.4359
    1PC     H5A10503   4.193   0.219   2.732  0.4031 -0.6953 -1.4413
    1PC     H5B10504   4.032   0.243   2.654 -0.5267  0.3973  1.2231
    1PC     H5C10505   4.054   0.143   2.802 -0.2537 -0.0963  0.0745
    1PC     O3310506   3.899  -0.076   3.041  0.1712  0.2313 -0.1826
    1PC     O3410507   3.811   0.145   3.140 -0.3348  0.1022 -0.2969
    1PC     O2110508   3.927  -0.006   3.513 -0.2151 -0.2023  0.8694
    1PC     C2110509   3.831   0.046   3.596  0.4382 -0.7815  0.5413
    1PC     O2210510   3.712   0.015   3.589  0.5002 -0.2724 -0.0821
    1OL     C1210511   3.884   0.142   3.703 -0.5322 -0.4413 -0.1769
    1OL     H2R10512   3.992   0.152   3.692 -0.9539  3.1205 -1.5915
    1OL     H2S10513   3.866   0.099   3.802  0.8292 -0.9405 -0.1349
    1OL     C1310514   3.812   0.278   3.701  0.4069  0.4580  0.0611
    1OL     H3R10515   3.705   0.258   3.686  0.6096 -1.4673  1.0388
    1OL     H3S10516   3.860   0.343   3.627  1.8139  0.3177  0.8508
    1OL     C1410517   3.817   0.342   3.833 -0.1250 -0.0001 -0.0142
    1OL     H4R10518   3.754   0.291   3.906 -0.8770  0.5990 -0.2522
    1OL     H4S10519   3.771   0.440   3.830  0.7298  0.4078 -0.0718
    1OL     C1510520   3.961   0.358   3.900  1.1959  0.2849  0.0960
    1OL     H5R10521   4.015   0.432   3.841  0.9095  1.1912  0.9469
    1OL     H5S10522   4.024   0.269   3.902  2.7839  1.3956  0.5535
    1OL     C1610523   3.944   0.430   4.030  0.1893 -0.7542 -1.1433
    1OL     H6R10524   3.863   0.387   4.090  1.2000 -1.4596 -0.2754
    1OL     H6S10525   3.913   0.531   4.006  1.0794 -0.2100 -0.0302
    1OL     C1710526   4.071   0.445   4.112 -0.3675  0.0579  0.5410
    1OL     H7R10527   4.069   0.530   4.181 -1.3589  0.1327  0.4293
    1OL     H7S10528   4.158   0.462   4.048 -0.5652  1.2046  0.5598
    1OL     C1810529   4.099   0.319   4.207  0.1850  0.5195  0.0598
    1OL     H8R10530   4.134   0.238   4.142 -0.3899 -0.3223  0.7924
    1OL     H8S10531   4.007   0.284   4.254  1.6376  0.8748  3.2985
    1OL     C1910532   4.202   0.344   4.313  0.0201  0.2174  0.1880
    1OL     H9R10533   4.288   0.397   4.272 -0.4784 -0.0675 -1.2629
    1OL    C11010534   4.195   0.299   4.440 -0.3553  0.0816  0.1267
    1OL    H10R10535   4.274   0.334   4.506  1.3032 -0.2332 -1.6143
    1OL    C11110536   4.078   0.214   4.495 -0.2471 -0.4712 -0.4051
    1OL    H11R10537   4.111   0.132   4.559  1.0929  0.7660  0.5132
    1OL    H11S10538   4.026   0.158   4.417 -1.1698  1.0603 -0.9095
    1OL    C11210539   3.991   0.295   4.587 -0.1420 -0.4429 -1.0263
    1OL    H12R10540   4.060   0.356   4.645 -0.1838 -0.9862 -0.3953
    1OL    H12S10541   3.948   0.234   4.667  3.4238 -2.3049 -0.4351
    1OL    C11310542   3.881   0.372   4.516  1.0843  0.0307  0.8111
    1OL    H13R10543   3.919   0.443   4.441  0.1559 -1.2175 -0.8771
    1OL    H13S10544   3.837   0.442   4.588  0.6598  0.3954  0.2074
    1OL    C11410545   3.767   0.286   4.447  0.7429  0.0281  0.8876
    1OL    H14R10546   3.799   0.231   4.358 -0.3651 -0.4036  0.7367
    1OL    H14S10547   3.701   0.370   4.422 -0.8139 -0.3811  3.4471
    1OL    C11510548   3.674   0.197   4.535  0.1553 -0.1842 -0.1040
    1OL    H15R10549   3.659   0.236   4.636  1.0771 -1.1394  0.4022
    1OL    H15S10550   3.728   0.103   4.543 -1.7005 -1.4393 -1.7589
    1OL    C11610551   3.535   0.177   4.467  0.7717 -0.0784 -0.4038
    1OL    H16R10552   3.549   0.163   4.359  1.0841 -0.2326 -0.3454
    1OL    H16S10553   3.467   0.261   4.481  1.0816  0.0262  0.5232
    1OL    C11710554   3.466   0.057   4.529  0.7090 -0.8128  0.0521
    1OL    H17R10555   3.502  -0.039   4.492  0.6353 -0.0035 -2.2118
    1OL    H17S10556   3.366   0.059   4.484  1.0812  2.8749 -0.8034
    1OL    C11810557   3.463   0.052   4.681  0.3581 -0.3050 -0.7509
    1OL    H18R10558   3.414   0.144   4.714  0.8361  0.1264 -1.2287
    1OL    H18S10559   3.564   0.046   4.724  0.6530  0.0966 -1.3804
    1OL    H18T10560   3.409  -0.033   4.722  1.0962 -0.0865  0.7125
    1PA    C11610561   4.655   2.069   4.378 -0.5906 -0.1861  0.5702
    1PA    H16R10562   4.760   2.042   4.369 -0.1553  1.8560 -0.9273
    1PA    H16S10563   4.582   1.992   4.405 -1.1058  0.0926 -0.0137
    1PA    H16T10564   4.660   2.130   4.469 -0.5571 -1.3359  1.3461
    1PA    C11510565   4.600   2.168   4.268  0.3871 -0.0208 -0.1845
    1PA    H15R10566   4.591   2.118   4.172 -0.3667 -1.3081  0.5368
    1PA    H15S10567   4.502   2.203   4.299  1.2125  1.7254  0.5367
    1PA    C11410568   4.679   2.298   4.265  0.2827 -0.1500  0.2544
    1PA    H14R10569   4.661   2.345   4.362  1.7519 -0.7764  0.8430
    1PA    H14S10570   4.786   2.283   4.248  0.4168  0.0466  0.9323
    1PA    C11310571   4.625   2.374   4.145 -0.3749 -0.4881  0.1629
    1PA    H13R10572   4.653   2.336   4.046 -0.8362  0.3555 -0.3018
    1PA    H13S10573   4.516   2.372   4.147 -0.3755  0.3214  1.7342
    1PA    C11210574   4.669   2.521   4.154 -0.0988  0.3510 -0.5209
    1PA    H12R10575   4.617   2.567   4.238  0.8358 -0.2855  0.4191
    1PA    H12S10576   4.778   2.517   4.160 -0.1994 -0.9737  0.6329
    1PA    C11110577   4.645   2.604   4.033  0.7920  0.0887 -0.5046
    1PA    H11R10578   4.688   2.545   3.953 -0.7517  0.8710 -1.9317
    1PA    H11S10579   4.537   2.605   4.018  0.6845 -2.2988 -0.0663
    1PA    C11010580   4.695   2.752   4.041  0.5967  0.0130 -0.7940
    1PA    H10R10581   4.661   2.813   4.125 -0.9772 -3.1115  0.9089
    1PA    H10S10582   4.803   2.744   4.058  0.1402 -2.5553  1.2301
    1PA     C1910583   4.668   2.840   3.918  0.3142  0.8230 -0.2118
    1PA     H9R10584   4.561   2.843   3.898  0.3129 -0.4739 -0.4319
    1PA     H9S10585   4.690   2.943   3.947  0.1006  0.4624  1.2654
    1PA     C1810586   4.729   2.792   3.784  0.6020  0.4080 -0.1491
    1PA     H8R10587   4.837   2.798   3.803  0.4622  2.6502  0.1489
    1PA     H8S10588   4.699   2.688   3.772 -1.0072  0.8288  0.0920
    1PA     C1710589   4.692   2.885   3.663 -0.5025 -0.1268  0.0702
    1PA     H7R10590   4.588   2.881   3.633 -1.1671 -0.3162  2.2594
    1PA     H7S10591   4.715   2.982   3.707  1.4814 -0.0775 -1.0062
    1PA     C1610592   4.790   2.880   3.542 -0.7424  0.3203  0.6082
    1PA     H6R10593   4.807   2.775   3.518 -0.9279 -0.1313  2.3954
    1PA     H6S10594   4.740   2.918   3.452  0.5176 -0.1093 -0.2950
    1PA     C1510595   4.923   2.966   3.546 -0.2094 -0.5893 -0.2897
    1PA     H5R10596   4.948   2.978   3.440 -2.5792 -0.2434 -0.8433
    1PA     H5S10597   4.907   3.068   3.582 -0.9318 -0.6918 -0.3089
    1PA     C1410598   5.035   2.903   3.628 -0.2561 -0.0365  0.6202
    1PA     H4R10599   5.004   2.911   3.732 -1.3062 -2.4723  0.5383
    1PA     H4S10600   5.042   2.799   3.596  1.8596  0.4864 -0.7136
    1PA     C1310601   5.178   2.952   3.608  0.1750  0.7644  0.0821
    1PA     H3R10602   5.181   3.058   3.637 -1.1207  0.6363  0.7158
    1PA     H3S10603   5.241   2.899   3.680 -0.7141  1.6449  1.5307
    1PA     C1210604   5.244   2.921   3.472  0.0643 -0.4189  0.0642
    1PA     H2R10605   5.188   2.963   3.389 -3.2367 -0.3873  2.2129
    1PA     H2S10606   5.344   2.966   3.479  0.2430 -0.8456  0.2433
    1PC     C1110607   5.257   2.775   3.455  0.2179 -0.3550 -0.6988
    1PC     O1210608   5.340   2.711   3.516  0.3674 -0.0535 -0.8325
    1PC     O1110609   5.186   2.724   3.355 -0.0523  0.6461  0.2938
    1PC      C110610   5.170   2.582   3.328  0.5925  0.2089 -0.4093
    1PC      HR10611   5.176   2.562   3.220  0.9572 -0.2268 -0.3105
    1PC      HS10612   5.254   2.531   3.375 -1.6703 -1.5355  1.8731
    1PC      C210613   5.037   2.533   3.391  0.0087  0.6327 -0.9330
    1PC      HX10614   5.045   2.424   3.391 -0.1362  0.6068  0.4209
    1PC      C310615   4.922   2.598   3.318 -0.7940 -0.4791 -0.1496
    1PC      HA10616   4.832   2.589   3.379 -0.6920  0.5877  0.1703
    1PC      HB10617   4.943   2.705   3.306  0.3046 -0.3725  2.5366
    1PC     O3110618   4.888   2.537   3.191  0.3148 -0.6683  0.1375
    1PC     P3110619   4.830   2.384   3.182 -0.1736 -0.0688  0.0209
    1PC     O3210620   4.928   2.302   3.092 -0.7216 -0.0716  0.4205
    1PC     C3110621   5.037   2.227   3.148 -0.7421  0.2600 -0.1337
    1PC     H1A10622   5.101   2.302   3.195  0.5171 -0.6791 -0.3402
    1PC     H1B10623   5.009   2.149   3.220  0.3092 -0.7584 -0.8063
    1PC     C3210624   5.112   2.167   3.031  0.9458  0.7521  0.3579
    1PC     H2A10625   5.149   2.240   2.959 -0.8288  1.5510  0.2384
    1PC     H2B10626   5.193   2.116   3.084 -0.1909 -0.9235  0.5157
    1PC     N3110627   5.034   2.074   2.953  0.7193  0.5776  0.3406
    1PC     C3310628   4.921   2.007   3.032 -0.7101 -0.1741  0.7556
    1PC     H3A10629   4.843   2.083   3.033 -1.7607 -1.2553  1.4309
    1PC     H3B10630   4.884   1.921   2.976  1.5079  0.5625 -1.9805
    1PC     H3C10631   4.965   1.984   3.129  0.6609  1.1697  0.4854
    1PC     C3410632   4.968   2.134   2.832 -0.5318 -0.4883 -0.5443
    1PC     H4A10633   4.886   2.196   2.870 -0.6844 -1.1013  0.1491
    1PC     H4B10634   5.045   2.186   2.777  0.5986 -1.6117 -0.0403
    1PC     H4C10635   4.925   2.065   2.759  0.5693 -0.6609 -1.0369
    1PC     C3510636   5.130   1.965   2.912  0.3980 -0.3325  0.0393
    1PC     H5A10637   5.211   1.953   2.984  1.1376  1.9628 -0.3798
    1PC     H5B10638   5.162   1.977   2.809  2.6613  2.4814  1.0140
    1PC     H5C10639   5.081   1.867   2.911 -0.6794  0.2054 -1.0513
    1PC     O3310640   4.838   2.322   3.319  0.2157 -0.1455  0.3265
    1PC     O3410641   4.699   2.380   3.111  0.2549 -0.0953 -0.2392
    1PC     O2110642   5.032   2.579   3.533  0.3249  0.1700 -0.7721
    1PC     C2110643   5.098   2.508   3.626 -0.1471  0.2848 -0.4514
    1PC     O2210644   5.163   2.410   3.607 -0.0774 -0.4205 -0.2236
    1OL     C1210645   5.106   2.585   3.761  0.6322  0.4980 -0.1984
    1OL     H2R10646   5.007   2.613   3.798  0.3008 -1.1500  0.2461
    1OL     H2S10647   5.175   2.669   3.751 -0.2718  1.3270  0.4385
    1OL     C1310648   5.160   2.494   3.872 -0.9521  0.2576 -0.0964
    1OL     H3R10649   5.266   2.509   3.889 -0.9966 -0.0549  0.4812
    1OL     H3S10650   5.156   2.387   3.850  0.0131  0.0889  0.5111
    1OL     C1410651   5.104   2.509   4.016 -0.1137 -0.5088  0.7786
    1OL     H4R10652   5.143   2.431   4.081 -1.9900 -1.2306  1.0697
    1OL     H4S10653   4.996   2.493   4.022  0.0170 -2.1647 -0.5855
    1OL     C1510654   5.142   2.643   4.079 -0.1270  0.2260 -0.0770
    1OL     H5R10655   5.116   2.723   4.010  0.7964 -0.6491 -1.4716
    1OL     H5S10656   5.250   2.650   4.090 -0.1241  0.7839 -0.4415
    1OL     C1610657   5.074   2.645   4.219 -0.3568  0.7733 -0.0688
    1OL     H6R10658   5.144   2.587   4.278 -0.1769  1.5406  0.4736
    1OL     H6S10659   4.976   2.596   4.223 -0.3801  0.7730 -0.5107
    1OL     C1710660   5.078   2.788   4.270  0.1503  0.0924 -0.0921
    1OL     H7R10661   5.007   2.847   4.212 -0.9444  0.4339  1.5702
    1OL     H7S10662   5.172   2.838   4.246  1.3685 -0.8278  2.5800
    1OL     C1810663   5.054   2.807   4.419  0.2188  0.2679 -0.3587
    1OL     H8R10664   5.081   2.908   4.449  0.9008 -0.8128  2.9061
    1OL     H8S10665   5.111   2.734   4.477  0.7750 -1.2922 -2.7585
    1OL     C1910666   4.905   2.777   4.450  0.1323 -0.7585 -0.1243
    1OL     H9R10667   4.839   2.861   4.431 -2.2106 -2.0716  1.8913
    1OL    C11010668   4.848   2.662   4.486 -0.3111  0.6295 -0.2083
    1OL    H10R10669   4.741   2.661   4.505 -0.1864  1.6237  0.5871
    1OL    C11110670   4.915   2.522   4.507  0.1638 -1.4857  0.3266
    1OL    H11R10671   5.013   2.550   4.546  0.7020 -0.6108 -1.6145
    1OL    H11S10672   4.914   2.465   4.414  2.1669  0.3066 -0.8487
    1OL    C11210673   4.840   2.443   4.610 -0.4881 -0.3306 -0.3001
    1OL    H12R10674   4.733   2.434   4.588 -0.6950 -4.3298  1.9743
    1OL    H12S10675   4.847   2.503   4.701 -3.2955 -1.5582  0.7644
    1OL    C11310676   4.893   2.294   4.616 -0.2136  0.3882 -0.6236
    1OL    H13R10677   5.002   2.300   4.616 -0.1635 -0.5841 -1.3251
    1OL    H13S10678   4.874   2.231   4.529 -0.3606 -3.0642  1.7987
    1OL    C11410679   4.847   2.232   4.753 -0.4733 -0.3003 -0.2552
    1OL    H14R10680   4.739   2.215   4.750 -0.2101 -1.7907 -1.8051
    1OL    H14S10681   4.867   2.306   4.831 -3.0117  2.5712 -2.2228
    1OL    C11510682   4.914   2.095   4.762  0.4197  0.2320  0.1446
    1OL    H15R10683   5.019   2.103   4.734 -0.2683  1.8629 -2.1669
    1OL    H15S10684   4.863   2.027   4.694  1.3070  0.4768 -0.7715
    1OL    C11610685   4.907   2.031   4.900  0.6551 -0.3387  0.4088
    1OL    H16R10686   4.807   2.001   4.932  0.0735 -1.2641 -2.1017
    1OL    H16S10687   4.963   2.094   4.969  1.1131  0.4226 -0.6414
    1OL    C11710688   4.990   1.900   4.897  0.6430 -0.4384  1.0148
    1OL    H17R10689   5.094   1.913   4.867  0.6340 -0.7429  0.8483
    1OL    H17S10690   4.944   1.835   4.822  0.3733  2.2396 -1.2713
    1OL    C11810691   5.004   1.839   5.034  0.1811  0.9688 -0.1398
    1OL    H18R10692   5.075   1.756   5.032 -0.9168 -0.0244  0.9222
    1OL    H18S10693   4.911   1.794   5.070  0.3734 -0.1538 -1.0051
    1OL    H18T10694   5.040   1.911   5.108  0.0210 -1.5451  2.5155
    1PA    C11610695   1.604   1.209   4.622 -0.4169 -0.2797 -0.7903
    1PA    H16R10696   1.639   1.305   4.583 -1.4408  0.6731  0.5460
    1PA    H16S10697   1.667   1.130   4.581 -2.2010 -1.4730 -1.2856
    1PA    H16T10698   1.608   1.208   4.732  2.3715 -1.2518 -0.8636
    1PA    C11510699   1.467   1.185   4.562  0.8325  0.2732  0.0093
    1PA    H15R10700   1.430   1.085   4.585  0.7726  0.2397 -0.2359
    1PA    H15S10701   1.400   1.262   4.600  1.2074  0.5169  0.1758
    1PA    C11410702   1.465   1.205   4.407  0.4755 -0.7280 -0.3714
    1PA    H14R10703   1.475   1.309   4.372  0.8644 -0.2425  1.1605
    1PA    H14S10704   1.554   1.155   4.369  0.3963 -1.5671  0.5317
    1PA    C11310705   1.334   1.147   4.349 -0.5935  0.1097  0.7285
    1PA    H13R10706   1.313   1.051   4.398 -2.6988  0.3230  0.2881
    1PA    H13S10707   1.248   1.211   4.370 -0.7313  0.7704 -1.6686
    1PA    C11210708   1.336   1.120   4.195  0.1508  0.3691  0.2973
    1PA    H12R10709   1.357   1.221   4.160  0.4495  0.2173  0.0367
    1PA    H12S10710   1.412   1.045   4.170 -0.0031  0.3694 -0.1770
    1PA    C11110711   1.202   1.081   4.131 -0.9318 -0.1017  0.4018
    1PA    H11R10712   1.156   0.988   4.166 -0.6166 -0.0102  1.0606
    1PA    H11S10713   1.137   1.148   4.189  1.1759  0.7454  1.8193
    1PA    C11010714   1.195   1.100   3.979  0.3052  0.2793 -0.9329
    1PA    H10R10715   1.214   1.206   3.959  0.5849  0.8703  2.3266
    1PA    H10S10716   1.263   1.026   3.936  0.4002  0.5668 -1.2777
    1PA     C1910717   1.053   1.061   3.928  0.6602 -1.0408  0.0110
    1PA     H9R10718   1.038   0.955   3.946 -2.1711 -0.4841  1.2124
    1PA     H9S10719   0.978   1.110   3.991  1.6111  1.4653 -0.7528
    1PA     C1810720   1.040   1.098   3.778 -0.3635  0.1920  0.2266
    1PA     H8R10721   1.066   1.203   3.764 -2.2165  0.4916 -1.1913
    1PA     H8S10722   1.104   1.035   3.716  0.2032  2.4640 -1.5230
    1PA     C1710723   0.896   1.077   3.726 -0.5698 -0.1339 -0.4401
    1PA     H7R10724   0.873   0.972   3.741 -1.0570 -0.1650 -1.3563
    1PA     H7S10725   0.827   1.136   3.785 -0.6101 -0.7230  0.1028
    1PA     C1610726   0.878   1.121   3.577 -0.9515 -0.9205 -0.0106
    1PA     H6R10727   0.896   1.228   3.563 -3.3965 -0.2031  2.0529
    1PA     H6S10728   0.964   1.080   3.523 -0.6225 -0.9255  0.5170
    1PA     C1510729   0.751   1.081   3.514 -0.5224  0.5544 -0.2917
    1PA     H5R10730   0.745   1.126   3.414  1.7563 -0.1495 -0.7940
    1PA     H5S10731   0.747   0.972   3.508  2.2565  0.3576  0.5010
    1PA     C1410732   0.634   1.143   3.594 -0.2064  0.2949 -0.0311
    1PA     H4R10733   0.629   1.084   3.686  0.5367 -2.1767 -1.5222
    1PA     H4S10734   0.668   1.245   3.611  0.5676  0.2893 -1.4462
    1PA     C1310735   0.498   1.138   3.515 -0.1662 -0.0486 -0.2746
    1PA     H3R10736   0.418   1.184   3.574  0.6452  0.4958  0.4184
    1PA     H3S10737   0.512   1.193   3.421 -0.0073 -1.4785 -1.0949
    1PA     C1210738   0.447   1.002   3.487  0.4534  0.5254  0.4641
    1PA     H2R10739   0.515   0.971   3.407 -1.1106 -1.2882 -0.1900
    1PA     H2S10740   0.454   0.943   3.579  0.8565 -0.6945 -0.3431
    1PC     C1110741   0.304   1.002   3.445  0.4276 -0.4162  0.3291
    1PC     O1210742   0.206   0.983   3.514 -0.2024  0.1186  0.2031
    1PC     O1110743   0.294   1.038   3.318  0.1578  0.2143 -0.8097
    1PC      C110744   0.164   1.082   3.268 -1.3129  0.5722 -0.0559
    1PC      HR10745   0.190   1.074   3.162  1.4769  3.1204  0.3745
    1PC      HS10746   0.082   1.020   3.302 -0.2251 -0.2999  0.9967
    1PC      C210747   0.140   1.231   3.280  0.2084  0.1491  0.3438
    1PC      HX10748   0.048   1.256   3.226 -0.6189 -3.3742 -0.0228
    1PC      C310749   0.257   1.315   3.222  0.7806 -0.2384  0.3837
    1PC      HA10750   0.347   1.279   3.273  2.6316  2.0431 -1.1572
    1PC      HB10751   0.257   1.302   3.114 -0.3674  1.1093  0.2092
    1PC     O3110752   0.237   1.458   3.257 -0.3896  0.0701  0.3026
    1PC     P3110753   0.145   1.558   3.168 -0.2086  0.1967 -0.2711
    1PC     O3210754   0.037   1.617   3.274 -0.1850  0.0781  0.4643
    1PC     C3110755   0.075   1.672   3.402 -0.2314  0.9290  0.2985
    1PC     H1A10756  -0.017   1.697   3.456  0.3523  3.9044  0.0037
    1PC     H1B10757   0.144   1.609   3.459  2.3426  1.7939 -1.7388
    1PC     C3210758   0.155   1.805   3.387  0.4983  0.1721  0.0627
    1PC     H2A10759   0.221   1.824   3.472  3.4868  0.6883 -2.2546
    1PC     H2B10760   0.222   1.793   3.301 -1.1717  0.9699 -1.3665
    1PC     N3110761   0.074   1.932   3.349  0.6036 -0.3517 -0.6634
    1PC     C3310762  -0.051   1.954   3.430  0.4486 -0.2578  0.1711
    1PC     H3A10763  -0.031   1.962   3.537  1.2362 -0.1749  0.0186
    1PC     H3B10764  -0.093   2.051   3.402  2.3601  0.2267 -1.1171
    1PC     H3C10765  -0.129   1.879   3.412 -2.0862  2.1535  0.7276
    1PC     C3410766   0.163   2.053   3.357  0.2279  0.6338  0.3080
    1PC     H4A10767   0.109   2.142   3.322  0.0112 -0.2645 -1.7319
    1PC     H4B10768   0.191   2.085   3.458 -1.9199  1.3208  0.7195
    1PC     H4C10769   0.253   2.051   3.296 -0.8093 -0.3330 -1.2328
    1PC     C3510770   0.024   1.926   3.210  0.3324 -0.4377 -0.1753
    1PC     H5A10771  -0.040   1.839   3.205 -0.8435  0.3803  0.4195
    1PC     H5B10772   0.102   1.920   3.134  0.9252 -1.3098  0.4888
    1PC     H5C10773  -0.020   2.025   3.200  0.5670 -0.2125  1.0020
    1PC     O3310774   0.224   1.671   3.110  0.2830 -0.0597 -0.2604
    1PC     O3410775   0.058   1.476   3.077 -0.0306 -0.7257 -0.2835
    1PC     O2110776   0.127   1.275   3.420 -0.2447 -0.1607 -0.6838
    1PC     C2110777   0.006   1.249   3.481 -0.4995  0.2085  0.5735
    1PC     O2210778  -0.095   1.211   3.423  0.1154 -0.5354  0.5370
    1OL     C1210779   0.005   1.288   3.623 -0.1717  0.3911 -0.5231
    1OL     H2R10780  -0.094   1.331   3.635 -0.7785 -1.0537 -0.2058
    1OL     H2S10781   0.081   1.366   3.630  0.1154  0.0875 -0.2094
    1OL     C1310782   0.034   1.177   3.726  0.6513 -0.0258  0.2846
    1OL     H3R10783   0.128   1.134   3.692 -0.1856  1.1547 -3.7889
    1OL     H3S10784  -0.036   1.093   3.722 -0.6821  1.2103 -4.5335
    1OL     C1410785   0.035   1.220   3.874  0.0765  0.4016  0.2559
    1OL     H4R10786  -0.059   1.264   3.906  0.3033 -1.2362  3.3966
    1OL     H4S10787   0.112   1.296   3.885  0.2733  0.4543 -1.3917
    1OL     C1510788   0.071   1.097   3.960 -0.1911 -0.0599 -0.2311
    1OL     H5R10789   0.151   1.029   3.927  1.1015  0.1589  2.3366
    1OL     H5S10790  -0.015   1.030   3.963 -0.5916  0.4837  0.4917
    1OL     C1610791   0.078   1.140   4.109  0.7352  0.2559 -0.0435
    1OL     H6R10792  -0.007   1.205   4.130 -1.5557 -1.9876 -2.0682
    1OL     H6S10793   0.178   1.182   4.122  0.3066  1.4628 -0.5653
    1OL     C1710794   0.079   1.013   4.200  0.5602  0.0159  0.5285
    1OL     H7R10795   0.165   0.953   4.172  0.1512 -0.2466 -0.2059
    1OL     H7S10796  -0.014   0.958   4.181 -1.3566  3.1526  0.3689
    1OL     C1810797   0.071   1.049   4.347 -0.2160  0.0049 -0.6087
    1OL     H8R10798  -0.015   1.114   4.364 -0.9095 -0.8669 -0.7550
    1OL     H8S10799   0.156   1.117   4.361 -0.8917  0.8484 -0.5518
    1OL     C1910800   0.075   0.932   4.440  0.5087 -0.2205 -0.4153
    1OL     H9R10801  -0.022   0.906   4.483  0.7307  0.7103  0.6826
    1OL    C11010802   0.181   0.855   4.467 -0.0895  0.2630 -0.1201
    1OL    H10R10803   0.161   0.771   4.532  0.4089  0.3938  0.2041
    1OL    C11110804   0.316   0.887   4.405 -0.2010 -0.4630  0.8442
    1OL    H11R10805   0.341   0.993   4.407  0.5034 -0.6208  0.5368
    1OL    H11S10806   0.325   0.848   4.304  2.3644 -1.7630  1.5399
    1OL    C11210807   0.437   0.830   4.488  0.2944  0.4963 -0.3400
    1OL    H12R10808   0.521   0.832   4.419 -1.4117 -3.0385 -2.6694
    1OL    H12S10809   0.408   0.730   4.522 -1.4494  0.7554 -1.0108
    1OL    C11310810   0.455   0.902   4.622 -0.3881  0.7058  0.6722
    1OL    H13R10811   0.377   0.864   4.688 -1.2872  0.6750 -0.3949
    1OL    H13S10812   0.442   1.010   4.611  0.6131  0.5548 -2.6170
    1OL    C11410813   0.602   0.882   4.676 -0.5701 -0.4942 -0.6254
    1OL    H14R10814   0.675   0.924   4.606 -1.1365 -2.8895 -2.7342
    1OL    H14S10815   0.626   0.775   4.680  1.2191 -0.2786 -3.6147
    1OL    C11510816   0.620   0.945   4.815 -0.0454 -0.3418 -0.3083
    1OL    H15R10817   0.564   0.900   4.897 -0.2268  2.0151  0.8996
    1OL    H15S10818   0.571   1.042   4.810  2.7465  1.0689 -1.5997
    1OL    C11610819   0.773   0.962   4.851  0.5200 -0.5326  0.0395
    1OL    H16R10820   0.816   1.041   4.789  0.3674 -0.6158 -0.1715
    1OL    H16S10821   0.818   0.866   4.827  0.6144 -1.1737  2.6000
    1OL    C11710822   0.786   0.996   4.998 -0.0915 -0.6586  0.6414
    1OL    H17R10823   0.741   0.917   5.059  2.9442 -2.8370  0.1505
    1OL    H17S10824   0.723   1.084   5.017  1.0350 -0.1049  1.9188
    1OL    C11810825   0.937   1.021   5.039 -0.0942 -0.1476  0.4730
    1OL    H18R10826   0.961   1.126   5.025  1.0777 -0.6095 -1.1250
    1OL    H18S10827   1.000   0.958   4.975  1.8140  1.2744  0.9104
    1OL    H18T10828   0.950   0.987   5.142 -1.0641 -0.2234  0.5721
    1PA    C11610829   0.152   5.508   5.089  0.1502  0.2066 -0.0028
    1PA    H16R10830   0.050   5.499   5.127  0.1370  1.1842  0.2213
    1PA    H16S10831   0.228   5.545   5.158  1.8513  0.7599 -2.1502
    1PA    H16T10832   0.185   5.410   5.057 -1.8288 -0.7010  0.6513
    1PA    C11510833   0.142   5.605   4.969  0.4353  0.0490 -0.1291
    1PA    H15R10834   0.155   5.703   5.016 -1.3706  0.4868 -0.4888
    1PA    H15S10835   0.225   5.578   4.904  0.7013 -1.1454  0.6827
    1PA    C11410836   0.012   5.605   4.889 -0.4543 -0.2070 -0.0555
    1PA    H14R10837  -0.060   5.670   4.939 -0.6969 -1.2910  1.0245
    1PA    H14S10838   0.029   5.650   4.791 -3.2148  0.2073 -0.3743
    1PA    C11310839  -0.047   5.470   4.860  0.7593  0.1576 -0.0450
    1PA    H13R10840   0.027   5.409   4.808  1.7325 -0.0662  1.5744
    1PA    H13S10841  -0.065   5.421   4.955 -0.4288 -1.6250 -1.1586
    1PA    C11210842  -0.187   5.477   4.793 -0.1994 -0.0421  0.1645
    1PA    H12R10843  -0.235   5.379   4.793  0.5532 -0.4069 -0.0916
    1PA    H12S10844  -0.250   5.544   4.853 -0.5143  0.9008 -1.1821
    1PA    C11110845  -0.184   5.517   4.641  0.2409  0.1669 -0.0301
    1PA    H11R10846  -0.287   5.509   4.604 -1.0246  1.5209  3.0057
    1PA    H11S10847  -0.154   5.622   4.637 -1.1804  0.5802 -0.2406
    1PA    C11010848  -0.104   5.435   4.549  0.3026  0.1205  0.4483
    1PA    H10R10849   0.003   5.447   4.566  0.5493 -0.3328 -0.7586
    1PA    H10S10850  -0.124   5.331   4.577  1.8086 -0.2082  0.3571
    1PA     C1910851  -0.127   5.470   4.404 -0.2935 -0.2938  0.2617
    1PA     H9R10852  -0.054   5.406   4.354  1.7695  1.5392  0.8185
    1PA     H9S10853  -0.225   5.461   4.358 -0.9095 -0.3438  1.5498
    1PA     C1810854  -0.082   5.615   4.373 -0.0567 -0.0653  0.0724
    1PA     H8R10855  -0.129   5.690   4.438  0.3409  1.2321 -1.1170
    1PA     H8S10856   0.024   5.619   4.401 -0.4986  2.2113  1.6463
    1PA     C1710857  -0.093   5.665   4.224  0.4037  0.6884  0.2956
    1PA     H7R10858  -0.035   5.756   4.208  1.6196 -0.0518  0.3688
    1PA     H7S10859  -0.047   5.600   4.149 -1.3173 -0.1273 -0.0890
    1PA     C1610860  -0.248   5.693   4.197  0.6914 -0.2116 -0.0654
    1PA     H6R10861  -0.295   5.596   4.177 -1.3832  1.2123 -2.4956
    1PA     H6S10862  -0.304   5.734   4.281 -2.7783 -0.3995 -2.1777
    1PA     C1510863  -0.256   5.765   4.062  0.1791 -0.5587 -0.1001
    1PA     H5R10864  -0.210   5.863   4.080 -0.1186 -0.8602  2.3694
    1PA     H5S10865  -0.194   5.716   3.986 -0.5942  1.2710 -1.9591
    1PA     C1410866  -0.391   5.801   4.003 -0.1998 -0.2889 -0.3427
    1PA     H4R10867  -0.440   5.858   4.083 -0.7654 -1.6526  0.3104
    1PA     H4S10868  -0.380   5.864   3.915  4.3642  1.2428  1.2021
    1PA     C1310869  -0.469   5.662   3.976  0.1893 -0.1271  0.4880
    1PA     H3R10870  -0.421   5.605   3.896  0.4771  0.9685 -0.1343
    1PA     H3S10871  -0.472   5.599   4.065  0.1784 -0.8667 -0.0301
    1PA     C1210872  -0.617   5.694   3.941 -0.7619 -0.1112  0.4054
    1PA     H2R10873  -0.673   5.600   3.941 -0.7003 -0.1499 -1.0089
    1PA     H2S10874  -0.665   5.756   4.018 -1.1006 -0.1583  0.2340
    1PC     C1110875  -0.629   5.761   3.804  0.4517 -0.1597  0.3453
    1PC     O1210876  -0.652   5.884   3.786  0.0934 -0.2652 -0.1635
    1PC     O1110877  -0.629   5.679   3.697 -0.0257 -0.1116 -0.0249
    1PC      C110878  -0.626   5.741   3.562  0.2735  0.5457 -0.1170
    1PC      HR10879  -0.662   5.667   3.490  2.2912  0.6344 -1.2493
    1PC      HS10880  -0.694   5.827   3.558 -0.2280  0.3003  2.4482
    1PC      C210881  -0.486   5.766   3.514 -0.2470  0.1045 -0.0954
    1PC      HX10882  -0.477   5.818   3.418  2.4487 -0.1371  0.0060
    1PC      C310883  -0.411   5.630   3.501 -0.3234 -0.0105 -0.2317
    1PC      HA10884  -0.405   5.581   3.598 -2.1662 -1.0628 -0.6174
    1PC      HB10885  -0.470   5.573   3.429  0.8294 -1.5428  0.0254
    1PC     O3110886  -0.282   5.648   3.428  0.4274 -0.7767 -0.2145
    1PC     P3110887  -0.262   5.708   3.280  0.3325  0.1046  0.5696
    1PC     O3210888  -0.246   5.859   3.306  0.0691  0.3921  0.3187
    1PC     C3110889  -0.121   5.922   3.350  0.9276  0.3459 -0.3398
    1PC     H1A10890  -0.137   6.022   3.392  1.0789  0.2321 -0.0112
    1PC     H1B10891  -0.062   5.862   3.419 -0.0370  0.3548  0.5113
    1PC     C3210892  -0.035   5.932   3.225 -0.3697  0.4895  0.3020
    1PC     H2A10893   0.064   5.963   3.258  0.3511 -3.3304  1.8992
    1PC     H2B10894  -0.023   5.837   3.173  1.7070  0.3747  0.9751
    1PC     N3110895  -0.084   6.032   3.124 -0.1202 -0.5430 -0.1346
    1PC     C3310896   0.018   6.031   3.015  0.1828  0.3228 -0.2280
    1PC     H3A10897  -0.030   6.073   2.926 -2.0899 -0.5523  0.5264
    1PC     H3B10898   0.096   6.096   3.053 -0.5944  0.8935  0.4281
    1PC     H3C10899   0.045   5.928   2.989 -0.9996 -0.2365  0.6729
    1PC     C3410900  -0.218   6.014   3.064 -0.1537 -0.2595  0.6478
    1PC     H4A10901  -0.230   5.907   3.044  0.3247 -0.2103  0.0859
    1PC     H4B10902  -0.289   6.029   3.146 -1.0907 -1.5796  0.1087
    1PC     H4C10903  -0.234   6.077   2.977  1.4451 -1.6873 -0.7036
    1PC     C3510904  -0.083   6.168   3.177  0.5755 -0.1875  0.0937
    1PC     H5A10905  -0.164   6.184   3.248  0.8767 -1.8468  0.8356
    1PC     H5B10906  -0.105   6.227   3.087  0.0468 -0.9942 -0.3122
    1PC     H5C10907   0.018   6.183   3.214  0.4643  1.6288 -0.2540
    1PC     O3310908  -0.139   5.650   3.230 -0.2476 -0.2507  0.0766
    1PC     O3410909  -0.381   5.684   3.199  0.4343 -0.8721  0.0457
    1PC     O2110910  -0.408   5.839   3.614 -0.3532  0.2005 -0.5908
    1PC     C2110911  -0.387   5.969   3.590  0.7803  0.8018  0.5998
    1PC     O2210912  -0.430   6.030   3.493 -0.1211  0.0248  0.1810
    1OL     C1210913  -0.316   6.030   3.706 -0.1422  0.1682 -0.9582
    1OL     H2R10914  -0.259   5.956   3.763 -0.4112  2.2374  2.0900
    1OL     H2S10915  -0.389   6.074   3.774  0.8172 -3.0199  2.3215
    1OL     C1310916  -0.212   6.143   3.665 -0.0694 -0.0035  0.0720
    1OL     H3R10917  -0.260   6.205   3.589  0.0323 -1.7498 -1.4607
    1OL     H3S10918  -0.126   6.096   3.616  1.1953  0.3777  1.8696
    1OL     C1410919  -0.168   6.217   3.789 -0.0992  0.1977  0.1460
    1OL     H4R10920  -0.261   6.254   3.833 -0.4320 -0.6782  0.1859
    1OL     H4S10921  -0.095   6.292   3.757  1.0998 -1.1514 -0.3020
    1OL     C1510922  -0.102   6.141   3.898 -0.1051 -0.3051  0.7078
    1OL     H5R10923  -0.168   6.058   3.926 -0.4518  0.3999  2.0161
    1OL     H5S10924  -0.102   6.211   3.981  0.3071  1.2099 -0.5484
    1OL     C1610925   0.047   6.096   3.867  0.9362 -0.2884 -1.2250
    1OL     H6R10926   0.063   6.065   3.764  0.5436 -0.0923 -1.3459
    1OL     H6S10927   0.079   6.017   3.935  0.4235  1.8746  1.6244
    1OL     C1710928   0.148   6.217   3.881  0.2061  1.0870 -0.0600
    1OL     H7R10929   0.102   6.303   3.831  0.0732  2.1722  1.8914
    1OL     H7S10930   0.234   6.191   3.820  0.1847 -2.0284  1.1381
    1OL     C1810931   0.182   6.257   4.025  0.1880 -0.0188  0.1830
    1OL     H8R10932   0.100   6.262   4.096 -0.0162  0.3490 -0.0747
    1OL     H8S10933   0.228   6.355   4.014  1.4765 -0.4564  1.4284
    1OL     C1910934   0.300   6.175   4.067 -0.3136 -0.2781  0.1889
    1OL     H9R10935   0.401   6.207   4.043 -1.3633  0.5255 -3.5545
    1OL    C11010936   0.299   6.075   4.157  0.5423 -0.1978 -0.5271
    1OL    H10R10937   0.392   6.028   4.187 -0.1031 -0.8026  0.5558
    1OL    C11110938   0.176   6.027   4.230 -0.4051  1.0099  0.3281
    1OL    H11R10939   0.111   5.970   4.163 -1.7588  1.5961  1.1171
    1OL    H11S10940   0.116   6.113   4.262  0.8174  1.2105  2.1474
    1OL    C11210941   0.212   5.949   4.361  0.5191  0.1013 -0.1650
    1OL    H12R10942   0.284   6.005   4.420  0.9151 -0.3459 -0.2233
    1OL    H12S10943   0.263   5.854   4.340 -2.9001 -2.0510  0.7755
    1OL    C11310944   0.090   5.921   4.442  0.3569  0.2873  0.3360
    1OL    H13R10945   0.012   5.873   4.383 -0.0534  0.6149  0.6126
    1OL    H13S10946   0.047   6.017   4.471  1.6544  0.3895  2.0052
    1OL    C11410947   0.111   5.844   4.572 -0.4557 -0.7127 -0.0299
    1OL    H14R10948   0.146   5.744   4.542 -0.5581 -0.7051 -0.1735
    1OL    H14S10949   0.014   5.837   4.621 -0.2035  2.5158  1.0269
    1OL    C11510950   0.228   5.889   4.667 -0.5412  0.3662 -0.0158
    1OL    H15R10951   0.322   5.894   4.612 -0.3757 -2.4861 -0.0901
    1OL    H15S10952   0.249   5.810   4.739 -0.7265 -1.4542 -1.9124
    1OL    C11610953   0.208   6.018   4.745  0.9316 -0.5190  0.0826
    1OL    H16R10954   0.112   6.013   4.798  0.9638 -3.3680 -0.0557
    1OL    H16S10955   0.200   6.102   4.676  0.5608  0.1997  0.9887
    1OL    C11710956   0.323   6.055   4.838 -0.4194 -0.2064 -0.5198
    1OL    H17R10957   0.414   6.052   4.779 -1.3479 -0.1942 -1.9652
    1OL    H17S10958   0.331   5.973   4.910 -0.8286  1.9293  2.0578
    1OL    C11810959   0.299   6.191   4.908 -0.2513 -0.3708  0.3420
    1OL    H18R10960   0.388   6.217   4.967  0.6607  0.0242 -1.1729
    1OL    H18S10961   0.211   6.174   4.970 -0.3157 -0.8056  0.1336
    1OL    H18T10962   0.289   6.267   4.830 -1.4343 -1.1381 -0.2611
    1PA    C11610963   1.822   5.370   4.986  0.1695 -0.0103  0.0526
    1PA    H16R10964   1.744   5.398   5.056  0.6239 -0.8573  0.9116
    1PA    H16S10965   1.825   5.261   4.987 -2.1022 -0.0783  1.6359
    1PA    H16T10966   1.795   5.411   4.888  0.3226 -2.8720 -1.2350
    1PA    C11510967   1.951   5.439   5.028  1.0069  0.3243 -0.1733
    1PA    H15R10968   1.973   5.417   5.132 -0.8830 -0.3857  0.1002
    1PA    H15S10969   2.033   5.397   4.969  0.2329 -2.2637  0.5252
    1PA    C11410970   1.948   5.597   5.016 -0.3489 -0.0365 -0.1230
    1PA    H14R10971   1.884   5.647   5.088 -0.7940 -0.3639 -0.2927
    1PA    H14S10972   2.048   5.634   5.039 -0.9526  0.3122  2.0419
    1PA    C11310973   1.919   5.650   4.871  0.0436 -0.5898 -0.5780
    1PA    H13R10974   1.819   5.616   4.843 -0.1233 -1.5214  1.0685
    1PA    H13S10975   1.923   5.758   4.855  2.8128 -0.5199  0.3634
    1PA    C11210976   2.007   5.569   4.776  0.4583 -0.5640 -0.3984
    1PA    H12R10977   2.108   5.564   4.818  0.4057 -0.5428 -0.2706
    1PA    H12S10978   1.971   5.466   4.769  0.4638 -0.5261 -1.0455
    1PA    C11110979   2.013   5.632   4.634 -0.1493  0.4287  0.0659
    1PA    H11R10980   1.911   5.646   4.598 -0.3086  0.4321  0.5104
    1PA    H11S10981   2.072   5.724   4.631 -0.1229  0.4276  0.4761
    1PA    C11010982   2.082   5.531   4.543  0.7303  0.0081 -0.0104
    1PA    H10R10983   2.188   5.553   4.529  0.5657 -0.1756 -1.6393
    1PA    H10S10984   2.072   5.431   4.585  0.0916 -0.1046 -0.4432
    1PA     C1910985   2.012   5.522   4.407 -0.0437  0.1283 -0.4194
    1PA     H9R10986   1.913   5.482   4.429 -0.8288  1.7407 -0.9498
    1PA     H9S10987   1.994   5.626   4.379  1.1170  1.2733  2.8616
    1PA     C1810988   2.083   5.425   4.304 -0.5907 -0.4970  0.1615
    1PA     H8R10989   2.187   5.425   4.338 -0.2624  3.7108 -0.5932
    1PA     H8S10990   2.040   5.326   4.317  0.4695 -0.9165  0.5286
    1PA     C1710991   2.072   5.455   4.154  0.1440  0.2316 -0.1209
    1PA     H7R10992   1.968   5.444   4.124  0.3451 -2.5548  0.1209
    1PA     H7S10993   2.112   5.555   4.136  2.2145 -0.7370 -0.9718
    1PA     C1610994   2.164   5.369   4.074 -0.2598 -0.2890 -0.8457
    1PA     H6R10995   2.269   5.399   4.069  0.1282 -1.4991 -0.2709
    1PA     H6S10996   2.171   5.265   4.106 -0.1200  0.0495  0.2454
    1PA     C1510997   2.119   5.375   3.923  0.1035  0.3338  0.6715
    1PA     H5R10998   2.021   5.328   3.915  0.7711 -0.7306 -1.5404
    1PA     H5S10999   2.110   5.476   3.883 -3.2919 -0.3949 -0.5149
    1PA     C1411000   2.205   5.289   3.834  0.2826 -0.0862 -0.4926
    1PA     H4R11001   2.310   5.302   3.860 -0.1720  0.9669  0.8652
    1PA     H4S11002   2.180   5.187   3.863 -1.9178  0.2141 -1.2266
    1PA     C1311003   2.185   5.310   3.684 -0.5600 -0.1273  0.1408
    1PA     H3R11004   2.081   5.283   3.663 -0.5259 -0.8701  0.9023
    1PA     H3S11005   2.208   5.415   3.663  1.1239 -0.5277 -0.0517
    1PA     C1211006   2.276   5.213   3.603 -0.4808  0.2976  0.0039
    1PA     H2R11007   2.381   5.235   3.620  0.2211 -2.4733 -0.4018
    1PA     H2S11008   2.271   5.108   3.635  1.1230  0.3753  0.5539
    1PC     C1111009   2.246   5.219   3.457  0.3254 -0.1484 -0.3092
    1PC     O1211010   2.271   5.313   3.391 -0.3239 -0.6711  0.5006
    1PC     O1111011   2.181   5.107   3.404  0.2215 -0.1618 -0.8954
    1PC      C111012   2.129   5.098   3.268  0.1450  0.1840  0.0739
    1PC      HR11013   2.193   5.144   3.193 -1.5128  2.0974 -0.2075
    1PC      HS11014   2.130   4.991   3.247  1.8534  0.0779  0.6296
    1PC      C211015   1.988   5.156   3.254 -0.6606 -0.1273  0.3920
    1PC      HX11016   1.945   5.127   3.157  0.9814  0.2272 -0.4536
    1PC      C311017   1.985   5.312   3.260  0.3409  0.2896  0.4370
    1PC      HA11018   2.018   5.340   3.361 -1.2669  1.0142  0.7711
    1PC      HB11019   2.049   5.362   3.187 -1.8329  1.9930 -0.3389
    1PC     O3111020   1.853   5.364   3.244  0.0878  0.2634  0.2138
    1PC     P3111021   1.786   5.361   3.100 -0.1009  0.1910  0.0543
    1PC     O3211022   1.794   5.509   3.060  0.0552 -0.0316  0.3353
    1PC     C3111023   1.730   5.612   3.129  0.7946 -0.0895 -0.4550
    1PC     H1A11024   1.623   5.592   3.130  0.4592  1.4632 -2.3948
    1PC     H1B11025   1.769   5.614   3.231  2.1816  0.9990 -0.9963
    1PC     C3211026   1.764   5.746   3.052 -0.5060  0.4119  0.1801
    1PC     H2A11027   1.755   5.731   2.945  1.0677  2.0028 -0.1943
    1PC     H2B11028   1.688   5.823   3.065 -0.1370  0.7480  0.3791
    1PC     N3111029   1.900   5.809   3.077  0.5551 -0.4123 -0.3298
    1PC     C3311030   2.008   5.733   3.008 -0.2003  0.5268 -0.0770
    1PC     H3A11031   2.105   5.779   3.027 -0.6444  1.2169  0.5457
    1PC     H3B11032   2.002   5.633   3.051 -0.6969 -0.0830 -1.5183
    1PC     H3C11033   1.993   5.733   2.900  0.6226 -2.2283 -0.2159
    1PC     C3411034   1.910   5.942   3.030 -0.0550  0.3734 -0.7757
    1PC     H4A11035   1.905   5.924   2.923 -1.8525  2.2305 -1.0347
    1PC     H4B11036   1.823   6.003   3.055 -0.1934 -0.0851 -0.1313
    1PC     H4C11037   2.006   5.993   3.042  1.2742 -2.4813  1.2934
    1PC     C3511038   1.931   5.807   3.223  0.2844  0.5800  0.2805
    1PC     H5A11039   1.843   5.846   3.274 -0.3982 -0.0683 -0.3992
    1PC     H5B11040   2.012   5.880   3.235  0.7608  0.0005  0.6682
    1PC     H5C11041   1.949   5.708   3.265 -2.4950  0.2867  0.8169
    1PC     O3311042   1.878   5.290   3.003  0.0600  0.3447  0.0180
    1PC     O3411043   1.648   5.314   3.116  0.0741 -0.2107 -0.4362
    1PC     O2111044   1.908   5.127   3.370  0.0977 -0.1978 -0.4101
    1PC     C2111045   1.889   5.000   3.403 -0.7156  0.2172  0.1377
    1PC     O2211046   1.934   4.909   3.340  0.3010  0.0988  0.5448
    1OL     C1211047   1.808   4.981   3.520 -0.1831  0.0741  0.1494
    1OL     H2R11048   1.795   4.874   3.535 -0.5281  0.1600  0.4520
    1OL     H2S11049   1.710   5.018   3.490 -0.7857 -1.8970 -0.3731
    1OL     C1311050   1.869   5.052   3.641 -0.3662 -0.4200 -0.2168
    1OL     H3R11051   1.889   5.158   3.626  0.6148 -0.3600  1.3453
    1OL     H3S11052   1.967   5.010   3.665 -0.8702 -1.6705 -0.3222
    1OL     C1411053   1.776   5.046   3.763  0.1203  0.1500 -0.4077
    1OL     H4R11054   1.676   5.079   3.735  0.2759  0.6803 -0.3329
    1OL     H4S11055   1.815   5.112   3.840  1.3461  0.9033 -1.6496
    1OL     C1511056   1.767   4.904   3.812 -0.9292 -1.2075  0.0151
    1OL     H5R11057   1.863   4.870   3.850 -1.5156 -1.0661  1.6680
    1OL     H5S11058   1.734   4.840   3.730  0.6241 -0.1337 -1.4672
    1OL     C1611059   1.658   4.906   3.923 -0.9032 -0.2650 -0.2672
    1OL     H6R11060   1.561   4.937   3.883 -0.1968  1.3711 -0.7864
    1OL     H6S11061   1.676   4.982   4.000 -0.2649 -0.2484 -0.4247
    1OL     C1711062   1.651   4.769   3.991 -0.2144 -0.4700  0.4593
    1OL     H7R11063   1.587   4.773   4.080 -0.5122 -1.1096  0.2749
    1OL     H7S11064   1.753   4.752   4.026 -0.2790 -2.9081 -0.4514
    1OL     C1811065   1.615   4.646   3.897  0.6617 -0.2340 -0.3232
    1OL     H8R11066   1.625   4.552   3.950  0.0737  0.6508  1.4154
    1OL     H8S11067   1.682   4.637   3.812  0.9701 -2.3601  0.1419
    1OL     C1911068   1.477   4.662   3.839  0.5942 -0.0521  0.3784
    1OL     H9R11069   1.469   4.673   3.731  0.6692 -0.9131  0.2836
    1OL    C11011070   1.363   4.650   3.902 -0.2901  0.0333  0.3245
    1OL    H10R11071   1.275   4.632   3.840  0.3531 -0.6760 -0.3939
    1OL    C11111072   1.341   4.624   4.050  0.2871  0.0937 -0.3825
    1OL    H11R11073   1.436   4.582   4.084 -0.8877 -2.2845  0.0867
    1OL    H11S11074   1.268   4.544   4.063  1.1813 -0.8003 -0.8452
    1OL    C11211075   1.292   4.754   4.134 -0.2455  0.4843 -0.6017
    1OL    H12R11076   1.186   4.775   4.118 -0.2148  1.5973  0.5739
    1OL    H12S11077   1.353   4.839   4.104  3.0965 -0.5360  2.8796
    1OL    C11311078   1.315   4.726   4.289  0.1556 -0.2068 -0.4664
    1OL    H13R11079   1.286   4.818   4.341 -1.2015 -0.4609 -0.7410
    1OL    H13S11080   1.419   4.711   4.316 -0.0731 -1.1306 -0.0862
    1OL    C11411081   1.242   4.612   4.350 -0.2334 -0.4305  0.0411
    1OL    H14R11082   1.280   4.518   4.309 -0.9505 -0.4135 -0.6935
    1OL    H14S11083   1.136   4.623   4.325 -0.4592  0.5878  1.3817
    1OL    C11511084   1.242   4.615   4.504  0.5187 -0.1903 -0.0530
    1OL    H15R11085   1.342   4.592   4.541  1.0080  1.5674 -0.2567
    1OL    H15S11086   1.166   4.545   4.542 -1.6295  1.1134 -1.7976
    1OL    C11611087   1.204   4.744   4.584 -0.1901  0.7281 -0.3955
    1OL    H16R11088   1.284   4.816   4.567  1.0605 -0.6461 -0.3249
    1OL    H16S11089   1.208   4.724   4.691  0.9577  3.3762  0.1065
    1OL    C11711090   1.076   4.812   4.537 -0.0584  0.3781 -0.4638
    1OL    H17R11091   0.990   4.748   4.516 -1.3762  2.4653 -1.6097
    1OL    H17S11092   1.090   4.866   4.443 -1.1320 -1.1833 -1.5375
    1OL    C11811093   1.028   4.913   4.645  0.2218 -0.5447 -0.0806
    1OL    H18R11094   0.977   4.870   4.732 -2.6927 -0.9518 -1.9167
    1OL    H18S11095   0.950   4.978   4.605 -0.4933 -1.9937 -1.1196
    1OL    H18T11096   1.115   4.975   4.670 -2.5566  2.2755  3.1464
    1PA    C11611097   0.410   3.835   5.225  0.0980  0.3005 -0.0351
    1PA    H16R11098   0.518   3.828   5.241 -0.0283 -0.7407  0.3941
    1PA    H16S11099   0.353   3.752   5.267  0.9852 -1.2087 -1.7596
    1PA    H16T11100   0.371   3.925   5.274  0.2384  0.9361 -1.0746
    1PA    C11511101   0.374   3.852   5.073 -0.0222  0.5135 -0.0640
    1PA    H15R11102   0.265   3.861   5.074 -0.1793 -1.3440  0.6398
    1PA    H15S11103   0.418   3.945   5.037 -0.8789  0.8350 -0.3120
    1PA    C11411104   0.415   3.723   4.992 -0.2597  1.0112  0.5624
    1PA    H14R11105   0.524   3.727   4.990 -0.1774 -0.9191 -0.0916
    1PA    H14S11106   0.379   3.634   5.043  1.0026  0.3390  0.2908
    1PA    C11311107   0.357   3.735   4.844 -0.2602  0.0538  0.0420
    1PA    H13R11108   0.257   3.780   4.844 -1.2617 -2.1114  0.4020
    1PA    H13S11109   0.413   3.816   4.796  1.3546  0.9720  3.3905
    1PA    C11211110   0.351   3.598   4.779  0.0030  0.3420 -0.0348
    1PA    H12R11111   0.449   3.556   4.753  0.5738  0.8351  1.2851
    1PA    H12S11112   0.305   3.531   4.851  1.8452  1.3512  2.1304
    1PA    C11111113   0.253   3.607   4.663  0.0266 -0.3350 -0.0869
    1PA    H11R11114   0.156   3.633   4.706  0.2609 -0.0549  0.2814
    1PA    H11S11115   0.291   3.687   4.598  0.7764 -0.4651  0.1858
    1PA    C11011116   0.235   3.477   4.585  0.0860 -0.2821 -0.1361
    1PA    H10R11117   0.339   3.450   4.564 -0.1598 -2.6502  1.4573
    1PA    H10S11118   0.193   3.397   4.645  1.1335 -1.9405 -1.5506
    1PA     C1911119   0.158   3.498   4.453 -0.0998  0.0656 -0.4834
    1PA     H9R11120   0.140   3.402   4.403  0.8924 -0.3508 -0.0449
    1PA     H9S11121   0.058   3.531   4.482  0.5780 -0.1146  2.1780
    1PA     C1811122   0.220   3.597   4.352  0.4819 -0.0713 -0.5703
    1PA     H8R11123   0.240   3.697   4.392  0.0236  0.4723 -1.6938
    1PA     H8S11124   0.321   3.560   4.334  1.6106  1.9589  1.2879
    1PA     C1711125   0.144   3.617   4.212  0.2369  0.1167 -0.1092
    1PA     H7R11126   0.106   3.521   4.177  0.7509 -0.6021  1.2626
    1PA     H7S11127   0.060   3.683   4.238  0.9598  0.4449  1.4457
    1PA     C1611128   0.239   3.679   4.110 -0.3890 -0.2287 -0.3477
    1PA     H6R11129   0.179   3.708   4.024  0.6240 -2.0818 -1.7136
    1PA     H6S11130   0.286   3.764   4.159 -0.7907 -0.7403  0.9650
    1PA     C1511131   0.353   3.597   4.049  0.0439 -0.2317 -0.4766
    1PA     H5R11132   0.396   3.660   3.971 -0.0789 -0.5620 -0.8122
    1PA     H5S11133   0.421   3.580   4.133 -0.9627  1.2612  0.6824
    1PA     C1411134   0.308   3.461   3.992  0.0189  0.3849 -0.6246
    1PA     H4R11135   0.394   3.397   3.971  2.2985  2.6143  1.5734
    1PA     H4S11136   0.237   3.406   4.053  1.5547  0.2508  1.0700
    1PA     C1311137   0.223   3.492   3.870 -0.2946 -0.4339  0.5350
    1PA     H3R11138   0.129   3.542   3.891  0.4007  1.8460 -1.4762
    1PA     H3S11139   0.272   3.567   3.807 -2.1749  1.0413  0.8077
    1PA     C1211140   0.212   3.357   3.782  0.6155  0.2541  0.1045
    1PA     H2R11141   0.311   3.317   3.758  0.2510  1.4060 -3.6088
    1PA     H2S11142   0.157   3.292   3.850 -0.1500  0.7535 -0.0290
    1PC     C1111143   0.141   3.398   3.660 -0.0100 -0.6872  0.5487
    1PC     O1211144   0.142   3.511   3.607 -0.0551 -0.0801 -0.3026
    1PC     O1111145   0.078   3.285   3.609  0.1163 -0.5369 -0.1668
    1PC      C111146   0.004   3.300   3.485  0.4028 -0.0255 -0.1188
    1PC      HR11147   0.024   3.397   3.439 -2.8339  0.9359  0.3483
    1PC      HS11148   0.031   3.217   3.420 -0.8006 -1.7779  1.5448
    1PC      C211149  -0.149   3.308   3.514 -0.1796  0.4444 -0.1507
    1PC      HX11150  -0.172   3.215   3.568  0.1647 -0.5799 -1.7329
    1PC      C311151  -0.235   3.304   3.385 -0.1828  0.0218 -0.5387
    1PC      HA11152  -0.272   3.202   3.369  0.0810 -0.1273 -0.2239
    1PC      HB11153  -0.320   3.372   3.376  0.5529  1.2586  1.4832
    1PC     O3111154  -0.160   3.341   3.266 -0.6889 -0.0346  0.0893
    1PC     P3111155  -0.158   3.490   3.201  0.0029  0.1222  0.0449
    1PC     O3211156  -0.081   3.578   3.310  0.0873 -0.1633  0.3193
    1PC     C3111157  -0.149   3.682   3.383  0.0434  0.0810 -0.2064
    1PC     H1A11158  -0.191   3.750   3.308  2.0509  2.7246  0.9910
    1PC     H1B11159  -0.220   3.627   3.446 -0.9554  2.2696  0.6149
    1PC     C3211160  -0.045   3.755   3.468 -0.1459  0.1141 -0.1626
    1PC     H2A11161  -0.099   3.841   3.508  1.7716  1.4291 -0.3688
    1PC     H2B11162   0.000   3.693   3.545  0.6069 -1.7635 -2.0670
    1PC     N3111163   0.070   3.824   3.402 -0.2416 -0.1141  0.4330
    1PC     C3311164   0.119   3.934   3.494 -0.0159 -0.0644  0.5000
    1PC     H3A11165   0.047   4.016   3.496 -0.8815 -0.6583 -3.2206
    1PC     H3B11166   0.124   3.898   3.597 -1.3189  0.0618  0.6149
    1PC     H3C11167   0.218   3.973   3.470  0.3473 -0.8319  0.7284
    1PC     C3411168   0.176   3.726   3.397 -0.0755  0.7038  0.4022
    1PC     H4A11169   0.200   3.691   3.498 -2.0447  2.5697  1.5651
    1PC     H4B11170   0.144   3.639   3.338  3.9192  0.2956 -1.3377
    1PC     H4C11171   0.259   3.776   3.347 -0.5253  1.0908  0.0386
    1PC     C3511172   0.040   3.861   3.255 -0.5962 -0.6743 -0.3104
    1PC     H5A11173  -0.046   3.928   3.257 -1.1797 -1.3585 -1.7179
    1PC     H5B11174   0.012   3.770   3.201 -1.9415 -0.4971  0.0695
    1PC     H5C11175   0.122   3.915   3.207 -1.4884 -0.0376 -1.1432
    1PC     O3311176  -0.077   3.474   3.078  0.0483 -0.3947 -0.0160
    1PC     O3411177  -0.299   3.536   3.184 -0.1388 -0.1193  0.5723
    1PC     O2111178  -0.182   3.428   3.594 -0.1853 -0.5889  0.1669
    1PC     C2111179  -0.215   3.409   3.727  0.7411 -0.8023  0.2864
    1PC     O2211180  -0.231   3.301   3.780 -0.0227  0.1249 -0.0446
    1OL     C1211181  -0.244   3.536   3.802 -0.5032 -0.8738  0.0001
    1OL     H2R11182  -0.345   3.577   3.794 -0.3953 -0.5501  0.2824
    1OL     H2S11183  -0.179   3.617   3.769  0.9147 -0.9301  2.5388
    1OL     C1311184  -0.221   3.528   3.950 -0.2319 -0.4908  0.7483
    1OL     H3R11185  -0.117   3.556   3.971  0.3473 -0.4825 -2.0356
    1OL     H3S11186  -0.228   3.421   3.974  0.5581 -0.7225 -0.0140
    1OL     C1411187  -0.318   3.607   4.048 -0.4920 -0.1239 -0.0473
    1OL     H4R11188  -0.420   3.589   4.013 -0.7449 -3.4843  2.1737
    1OL     H4S11189  -0.287   3.711   4.051  2.3995 -0.8940 -1.0601
    1OL     C1511190  -0.300   3.560   4.191 -0.4307  0.2010 -0.9767
    1OL     H5R11191  -0.195   3.548   4.216  0.0087 -0.5461 -3.0376
    1OL     H5S11192  -0.340   3.458   4.190  2.6470 -1.0524 -0.4603
    1OL     C1611193  -0.367   3.646   4.294  0.6648 -0.6350  0.3042
    1OL     H6R11194  -0.461   3.671   4.244 -0.3726 -3.9186  0.4755
    1OL     H6S11195  -0.310   3.739   4.306 -2.4290  1.2764  0.9022
    1OL     C1711196  -0.392   3.571   4.425  0.1037 -0.2548 -0.0256
    1OL     H7R11197  -0.483   3.513   4.409  0.7150 -0.6970 -2.0212
    1OL     H7S11198  -0.420   3.638   4.506  3.6264  1.4122 -0.1154
    1OL     C1811199  -0.282   3.487   4.483 -0.3231  0.4380 -0.5877
    1OL     H8R11200  -0.195   3.538   4.525  1.8612 -2.3698 -1.4467
    1OL     H8S11201  -0.237   3.429   4.402  2.1613  2.2298 -0.5478
    1OL     C1911202  -0.323   3.410   4.608 -0.4045 -0.1165  0.5802
    1OL     H9R11203  -0.417   3.357   4.614  0.0653 -0.8657  1.4855
    1OL    C11011204  -0.254   3.407   4.727  0.5446  0.6675  0.9262
    1OL    H10R11205  -0.302   3.341   4.798  3.3337 -0.8827  1.4075
    1OL    C11111206  -0.124   3.474   4.761  0.8005 -0.5271  0.2237
    1OL    H11R11207  -0.127   3.577   4.724 -0.2691 -0.3829  0.6945
    1OL    H11S11208  -0.042   3.426   4.706  2.7223 -0.5177  2.9553
    1OL    C11211209  -0.084   3.474   4.909 -0.2177  0.1680 -0.0904
    1OL    H12R11210  -0.155   3.539   4.961  1.4183  3.0891 -1.3524
    1OL    H12S11211   0.009   3.530   4.920 -1.0139  1.3159  0.9215
    1OL    C11311212  -0.076   3.339   4.977 -0.1218  0.6370  0.4776
    1OL    H13R11213   0.004   3.337   5.051 -0.3850 -1.0520  0.7495
    1OL    H13S11214  -0.062   3.258   4.905 -2.1532  0.5137  0.1780
    1OL    C11411215  -0.197   3.303   5.058  0.5811  0.7543 -0.6270
    1OL    H14R11216  -0.286   3.297   4.995 -0.1924 -1.0048  0.5823
    1OL    H14S11217  -0.225   3.379   5.131 -2.9244 -0.5939 -0.4832
    1OL    C11511218  -0.178   3.165   5.127  0.0844 -0.3910 -0.5001
    1OL    H15R11219  -0.079   3.168   5.173  0.1108 -2.4894 -0.3652
    1OL    H15S11220  -0.188   3.077   5.064  3.5447 -0.2138 -1.3787
    1OL    C11611221  -0.283   3.168   5.245 -0.9384 -0.1383  0.3250
    1OL    H16R11222  -0.279   3.266   5.294 -0.0434 -0.2503  0.4827
    1OL    H16S11223  -0.258   3.093   5.320 -0.5607 -0.1093  0.2291
    1OL    C11711224  -0.421   3.147   5.196  0.8769  0.0181  0.5629
    1OL    H17R11225  -0.420   3.063   5.126  0.3275 -0.8906  1.6428
    1OL    H17S11226  -0.454   3.239   5.147  3.4847  1.7357  1.9503
    1OL    C11811227  -0.508   3.114   5.319 -0.1148  0.2952  0.7293
    1OL    H18R11228  -0.529   3.198   5.385  0.4538  0.1834  1.0560
    1OL    H18S11229  -0.457   3.046   5.387 -2.1636  2.3576  4.5516
    1OL    H18T11230  -0.602   3.073   5.281  0.7091 -1.6692  0.7821
    1PA    C11611231   0.268   5.213   4.833 -0.4150 -0.9326 -0.1162
    1PA    H16R11232   0.237   5.298   4.893 -0.6209 -0.6934 -0.5539
    1PA    H16S11233   0.221   5.212   4.734  2.6702  1.9898 -1.7027
    1PA    H16T11234   0.375   5.204   4.817  0.0689  0.0986  2.4054
    1PA    C11511235   0.217   5.094   4.908 -0.1705  0.1298 -0.4661
    1PA    H15R11236   0.263   5.102   5.007 -2.1099  2.8732  0.2615
    1PA    H15S11237   0.108   5.088   4.904 -0.0368 -1.2448 -2.6041
    1PA    C11411238   0.269   4.972   4.840  0.0695  0.1539  0.0947
    1PA    H14R11239   0.376   4.978   4.817  0.3922 -0.4602  1.3650
    1PA    H14S11240   0.267   4.889   4.911  1.6676 -2.8038 -3.1461
    1PA    C11311241   0.195   4.926   4.718 -0.0499 -0.4865 -0.5917
    1PA    H13R11242   0.086   4.926   4.722 -0.0603  3.3316  1.6837
    1PA    H13S11243   0.210   4.994   4.634  1.0207 -1.9073 -1.5681
    1PA    C11211244   0.244   4.795   4.658  1.1598 -0.0000  0.7244
    1PA    H12R11245   0.352   4.798   4.643  1.1271 -0.3008  0.4314
    1PA    H12S11246   0.230   4.714   4.729 -0.0177  0.3268  0.8901
    1PA    C11111247   0.165   4.760   4.523  0.3395  0.0071 -0.2397
    1PA    H11R11248   0.059   4.779   4.539  0.3696  0.3729 -0.4849
    1PA    H11S11249   0.188   4.826   4.439 -0.6650  0.3564 -0.2481
    1PA    C11011250   0.188   4.614   4.476 -0.7082  0.5062  0.3800
    1PA    H10R11251   0.146   4.536   4.540  0.1863 -0.3016 -0.0103
    1PA    H10S11252   0.150   4.615   4.374 -0.7009  1.9840  0.3741
    1PA     C1911253   0.335   4.572   4.449  0.8604  0.4167 -0.1204
    1PA     H9R11254   0.378   4.565   4.550  1.0183 -4.9107 -0.4463
    1PA     H9S11255   0.340   4.471   4.408 -0.0486 -1.0181  3.1190
    1PA     C1811256   0.407   4.678   4.366  0.4510  0.5218 -0.1330
    1PA     H8R11257   0.371   4.667   4.263 -0.6593  0.4007  0.2624
    1PA     H8S11258   0.382   4.780   4.394  2.6117  0.4383  2.2287
    1PA     C1711259   0.555   4.667   4.364 -0.0317 -0.2678 -0.6730
    1PA     H7R11260   0.606   4.703   4.453  1.2509 -1.1069 -1.0493
    1PA     H7S11261   0.589   4.564   4.351  1.4693  0.0216  0.8756
    1PA     C1611262   0.613   4.748   4.256 -0.0885 -0.0039 -0.2358
    1PA     H6R11263   0.571   4.714   4.162 -2.0284 -2.5695  1.5177
    1PA     H6S11264   0.577   4.850   4.272  1.9178  0.3303  2.5609
    1PA     C1511265   0.768   4.758   4.251 -0.1146 -0.1889 -0.5830
    1PA     H5R11266   0.797   4.811   4.342 -0.5611  1.4445 -1.3897
    1PA     H5S11267   0.817   4.660   4.255 -0.2232 -0.2144  0.4105
    1PA     C1411268   0.830   4.827   4.131  0.0104 -0.1605  0.5244
    1PA     H4R11269   0.829   4.932   4.159 -2.4085  0.2594 -0.9954
    1PA     H4S11270   0.936   4.799   4.131  0.0278 -0.1067 -0.0210
    1PA     C1311271   0.773   4.787   3.994  0.0477  0.6406 -0.1088
    1PA     H3R11272   0.780   4.678   3.988 -1.7681  0.4977  0.1286
    1PA     H3S11273   0.668   4.815   3.986  0.0655  1.6469  2.6003
    1PA     C1211274   0.842   4.837   3.862  0.1106  0.0744 -0.2249
    1PA     H2R11275   0.864   4.943   3.872 -1.0130  0.3480 -0.6015
    1PA     H2S11276   0.938   4.786   3.850  0.5333  0.4942  1.2387
    1PC     C1111277   0.761   4.817   3.737  0.4717 -0.0158 -0.0815
    1PC     O1211278   0.806   4.749   3.646  0.1239  0.3461 -0.1663
    1PC     O1111279   0.637   4.869   3.734 -0.1248 -0.4225  0.2319
    1PC      C111280   0.567   4.862   3.610  0.1612 -0.2417 -0.6884
    1PC      HR11281   0.482   4.930   3.621 -0.9584 -1.6169 -0.7353
    1PC      HS11282   0.632   4.896   3.528  0.3877 -2.1173 -1.3018
    1PC      C211283   0.499   4.715   3.596 -0.4830 -0.5474  0.3948
    1PC      HX11284   0.578   4.639   3.587 -1.1081 -1.0892 -0.7367
    1PC      C311285   0.397   4.713   3.482 -0.2565  0.2417 -0.2563
    1PC      HA11286   0.318   4.642   3.506 -0.5850 -0.3548 -2.9421
    1PC      HB11287   0.334   4.802   3.474 -0.6869 -0.1138 -0.8006
    1PC     O3111288   0.464   4.680   3.357  0.4338  0.1716 -0.3853
    1PC     P3111289   0.380   4.661   3.219 -0.1581  0.1549  0.6402
    1PC     O3211290   0.389   4.804   3.155 -0.2818 -0.7958  0.2069
    1PC     C3111291   0.309   4.917   3.187 -0.1066  0.3904  0.2214
    1PC     H1A11292   0.202   4.895   3.174  0.1451  0.0059 -1.3697
    1PC     H1B11293   0.322   4.941   3.293 -1.2994  0.0322  0.4563
    1PC     C3211294   0.362   5.046   3.118 -0.6219 -0.0073  0.2098
    1PC     H2A11295   0.310   5.133   3.159  0.6443  2.0329 -2.3991
    1PC     H2B11296   0.467   5.063   3.143 -1.3131  2.1805  1.7119
    1PC     N3111297   0.349   5.059   2.971 -0.2632  0.0571  0.8347
    1PC     C3311298   0.410   4.948   2.902  0.1843 -0.1025  0.2281
    1PC     H3A11299   0.516   4.960   2.926  0.3104 -1.0707  0.1745
    1PC     H3B11300   0.367   4.854   2.936 -1.7305  1.0985  1.1988
    1PC     H3C11301   0.390   4.963   2.796  2.7620  0.8647 -0.1579
    1PC     C3411302   0.206   5.064   2.924  0.1073 -0.4362  0.5159
    1PC     H4A11303   0.162   4.969   2.954 -1.3898 -0.2769 -1.0700
    1PC     H4B11304   0.151   5.146   2.970  1.4918  0.2593  0.9487
    1PC     H4C11305   0.213   5.084   2.817 -0.2060 -0.9032  0.4068
    1PC     C3511306   0.404   5.189   2.924 -0.6411  0.2648 -0.6240
    1PC     H5A11307   0.393   5.196   2.816 -0.5834  1.7702 -0.5531
    1PC     H5B11308   0.509   5.204   2.948 -0.8897 -0.3973  0.9064
    1PC     H5C11309   0.355   5.275   2.971  0.8079  0.1343  1.1969
    1PC     O3311310   0.461   4.574   3.135 -0.1108  0.5223 -0.4107
    1PC     O3411311   0.233   4.640   3.251 -0.1795 -0.0741 -0.0085
    1PC     O2111312   0.422   4.689   3.719  0.2887  0.2193  0.3291
    1PC     C2111313   0.479   4.617   3.821  0.2503  0.4767  1.2466
    1PC     O2211314   0.592   4.585   3.832  0.3064 -0.1496 -0.1661
    1OL     C1211315   0.377   4.564   3.916  0.3754  0.5641  0.5387
    1OL     H2R11316   0.430   4.518   3.999  1.6995  1.9877  0.5126
    1OL     H2S11317   0.310   4.495   3.864 -0.1274  1.4289  0.0200
    1OL     C1311318   0.298   4.673   3.985 -0.0687  0.3242 -0.0825
    1OL     H3R11319   0.365   4.739   4.040 -1.4960  0.0716  1.9664
    1OL     H3S11320   0.237   4.627   4.062  0.9174 -1.2117 -0.1928
    1OL     C1411321   0.211   4.758   3.891 -0.5285 -0.1914 -0.2592
    1OL     H4R11322   0.181   4.701   3.803 -2.7946  1.3772 -0.5526
    1OL     H4S11323   0.275   4.838   3.853  1.4212 -0.1828  2.7668
    1OL     C1511324   0.092   4.821   3.963  0.3625  0.3803  0.0627
    1OL     H5R11325   0.027   4.739   3.992  0.6111 -0.3668 -1.3933
    1OL     H5S11326   0.039   4.879   3.887  2.1958  0.3742 -1.2586
    1OL     C1611327   0.115   4.911   4.091 -0.1373  1.0839 -0.0983
    1OL     H6R11328   0.181   4.992   4.062  0.6729  1.1415  1.8348
    1OL     H6S11329   0.162   4.850   4.169 -0.5207  2.3780  1.1719
    1OL     C1711330  -0.018   4.972   4.147  0.0935 -0.5671 -0.0213
    1OL     H7R11331  -0.074   4.889   4.189 -0.3415 -0.8872 -1.2058
    1OL     H7S11332  -0.068   5.017   4.061  1.1445  1.4646  0.3897
    1OL     C1811333  -0.009   5.076   4.261 -0.8277 -0.6561 -0.6334
    1OL     H8R11334   0.015   5.021   4.352  2.0851 -0.7077 -1.3874
    1OL     H8S11335  -0.113   5.108   4.268  0.0851  2.1528  1.0105
    1OL     C1911336   0.073   5.190   4.216 -0.4304  0.3701 -0.4663
    1OL     H9R11337   0.035   5.250   4.134 -0.2828  2.1631  0.7450
    1OL    C11011338   0.180   5.238   4.282  0.0044 -0.4558 -0.1299
    1OL    H10R11339   0.224   5.329   4.243 -0.0250 -1.0116 -1.4962
    1OL    C11111340   0.231   5.196   4.414 -0.4575  0.1636  0.1851
    1OL    H11R11341   0.283   5.100   4.418  0.3488  0.5284 -1.0472
    1OL    H11S11342   0.144   5.200   4.480  0.3112 -1.1382  1.2928
    1OL    C11211343   0.349   5.292   4.453 -0.4014 -0.1665  0.0001
    1OL    H12R11344   0.373   5.280   4.559  0.1730 -0.1998 -0.1371
    1OL    H12S11345   0.316   5.396   4.446 -1.8950 -0.6348 -0.1009
    1OL    C11311346   0.478   5.271   4.366  0.6758 -0.6119  0.5476
    1OL    H13R11347   0.561   5.326   4.411 -0.2394 -0.5907  2.2691
    1OL    H13S11348   0.463   5.307   4.264  1.3010 -1.0645  0.2958
    1OL    C11411349   0.534   5.129   4.365 -0.3937 -0.1998 -0.7888
    1OL    H14R11350   0.633   5.135   4.319 -0.1044  0.6944 -0.0492
    1OL    H14S11351   0.474   5.067   4.298 -0.8879 -1.3719  0.7236
    1OL    C11511352   0.548   5.069   4.511  0.3087  0.0543 -0.4232
    1OL    H15R11353   0.567   4.962   4.494  2.6468  0.6140 -1.4679
    1OL    H15S11354   0.453   5.077   4.564  0.6602 -0.8629  0.3514
    1OL    C11611355   0.664   5.125   4.592 -0.9987  0.4637 -0.3560
    1OL    H16R11356   0.669   5.233   4.603  2.4682  0.4608 -1.4459
    1OL    H16S11357   0.756   5.092   4.543 -0.7915 -1.2133  1.1018
    1OL    C11711358   0.661   5.053   4.728 -0.2005  0.0959 -0.0120
    1OL    H17R11359   0.673   4.945   4.714  0.3935 -0.0144  1.1989
    1OL    H17S11360   0.568   5.082   4.777  0.1183  1.0791  0.0314
    1OL    C11811361   0.772   5.100   4.817 -0.6028 -0.8313 -0.8215
    1OL    H18R11362   0.862   5.043   4.792 -0.4273  0.4771 -3.3208
    1OL    H18S11363   0.745   5.087   4.922  3.2779 -1.0424  0.2105
    1OL    H18T11364   0.786   5.207   4.800 -0.2340 -0.6088  0.8449
    1PA    C11611365   5.384   0.444   4.978 -0.1962 -0.3583 -0.1851
    1PA    H16R11366   5.431   0.495   4.894 -0.1457 -0.9433 -0.5160
    1PA    H16S11367   5.432   0.347   4.994 -0.1498 -0.7102 -2.3546
    1PA    H16T11368   5.406   0.505   5.066  0.0630 -0.4021 -0.2186
    1PA    C11511369   5.242   0.409   4.946  0.7968 -0.3755 -0.0637
    1PA    H15R11370   5.187   0.348   5.018 -2.4838 -0.1570 -2.2684
    1PA    H15S11371   5.179   0.498   4.942  0.9455 -0.2339  0.6518
    1PA    C11411372   5.226   0.333   4.812  0.6857 -1.2387  0.4187
    1PA    H14R11373   5.286   0.381   4.735  1.1575 -1.4786  0.6365
    1PA    H14S11374   5.265   0.232   4.822  1.5015 -1.0184 -0.4928
    1PA    C11311375   5.078   0.322   4.775 -0.3153 -0.0988 -0.0498
    1PA    H13R11376   5.031   0.256   4.849  0.9532  0.5835  1.3815
    1PA    H13S11377   5.053   0.426   4.795  1.3154  0.0784  1.1642
    1PA    C11211378   5.065   0.272   4.631 -0.6181  0.6388 -0.3245
    1PA    H12R11379   5.117   0.343   4.566 -0.3898  0.2781 -0.5374
    1PA    H12S11380   5.105   0.171   4.624  0.1832  1.0042 -1.1700
    1PA    C11111381   4.919   0.276   4.578  0.2567  0.5942  0.1903
    1PA    H11R11382   4.848   0.229   4.645  2.3017  0.3386  2.2261
    1PA    H11S11383   4.889   0.381   4.579 -1.7577  0.0380  3.2614
    1PA    C11011384   4.889   0.223   4.437  0.3804  0.2996  1.1352
    1PA    H10R11385   4.786   0.249   4.413  0.5228  0.5812  0.8296
    1PA    H10S11386   4.951   0.271   4.362  2.2186 -2.2285  0.9659
    1PA     C1911387   4.900   0.071   4.436  0.1933  0.2964 -0.6818
    1PA     H9R11388   5.003   0.042   4.461  0.5114  1.3778 -0.7166
    1PA     H9S11389   4.836   0.036   4.517  1.6950  0.0123  0.4082
    1PA     C1811390   4.846  -0.002   4.305  0.8670  0.3684 -0.2093
    1PA     H8R11391   4.757   0.045   4.264  0.2227  1.2829  2.1498
    1PA     H8S11392   4.915   0.010   4.221 -1.0762  1.4578 -1.6927
    1PA     C1711393   4.812  -0.155   4.316  0.1303 -0.0887 -0.1147
    1PA     H7R11394   4.740  -0.158   4.399 -0.5331  3.6268 -0.4329
    1PA     H7S11395   4.758  -0.184   4.226 -0.8968  3.3319 -0.7063
    1PA     C1611396   4.928  -0.250   4.336 -0.2453  0.7916  0.1259
    1PA     H6R11397   4.956  -0.249   4.442 -0.3227  0.7249  0.1468
    1PA     H6S11398   4.899  -0.355   4.328 -1.7157  1.0249  1.9023
    1PA     C1511399   5.046  -0.237   4.241 -0.4050 -0.2931  0.5826
    1PA     H5R11400   5.079  -0.132   4.237  0.5786 -0.5808  0.9150
    1PA     H5S11401   5.135  -0.287   4.280  0.7099  0.6935 -0.6596
    1PA     C1411402   5.019  -0.284   4.096  1.0938  0.1837  0.4045
    1PA     H4R11403   4.973  -0.383   4.107 -1.9420  1.4425 -0.3878
    1PA     H4S11404   4.960  -0.210   4.043 -0.2668 -1.6444 -0.7037
    1PA     C1311405   5.155  -0.296   4.025  0.6673 -0.2546 -0.1072
    1PA     H3R11406   5.204  -0.199   4.019 -1.3248  0.9565  2.1543
    1PA     H3S11407   5.211  -0.370   4.083 -2.4907 -2.7639 -0.1501
    1PA     C1211408   5.152  -0.348   3.881  0.7536  0.4225  0.1747
    1PA     H2R11409   5.256  -0.358   3.849  0.6975 -1.9302  0.6584
    1PA     H2S11410   5.107  -0.447   3.877  0.2744  0.7093 -2.5551
    1PC     C1111411   5.089  -0.248   3.781 -0.5027 -0.4113 -0.4767
    1PC     O1211412   5.154  -0.201   3.688 -0.1582  0.3299 -0.3725
    1PC     O1111413   4.960  -0.220   3.804  0.2307 -0.3168 -0.0065
    1PC      C111414   4.882  -0.157   3.698  0.3858  0.0973  0.5451
    1PC      HR11415   4.809  -0.092   3.747  0.9113 -0.3567  1.9545
    1PC      HS11416   4.946  -0.089   3.641 -0.8551 -0.2321 -1.3170
    1PC      C211417   4.808  -0.264   3.612 -0.5983 -0.1442  0.1393
    1PC      HX11418   4.889  -0.318   3.561  0.4782  1.3514  0.2377
    1PC      C311419   4.712  -0.200   3.510  0.3233  0.6274  0.3710
    1PC      HA11420   4.644  -0.283   3.492 -0.5039  1.2191  0.7475
    1PC      HB11421   4.669  -0.114   3.561  0.4580  1.4191 -0.8246
    1PC     O3111422   4.775  -0.154   3.388 -0.4749  0.2761  0.2370
    1PC     P3111423   4.775  -0.244   3.252 -0.3266  0.5614  0.2013
    1PC     O3211424   4.620  -0.271   3.226 -0.0670  0.2044 -0.0092
    1PC     C3111425   4.548  -0.175   3.162  0.3744  0.6010  0.6255
    1PC     H1A11426   4.552  -0.077   3.209 -0.7138  1.2984 -0.7079
    1PC     H1B11427   4.598  -0.157   3.066  0.3790 -0.9214  0.3228
    1PC     C3211428   4.405  -0.230   3.144  0.1301  0.3774  0.8027
    1PC     H2A11429   4.419  -0.325   3.092 -1.3480  0.3757  0.3745
    1PC     H2B11430   4.349  -0.237   3.238 -1.1966  0.5217  0.0386
    1PC     N3111431   4.316  -0.144   3.055 -0.3490  0.6321  0.1648
    1PC     C3311432   4.296  -0.006   3.113 -0.3457 -1.0695  0.7298
    1PC     H3A11433   4.234   0.062   3.053  2.3944  0.2879 -0.6665
    1PC     H3B11434   4.241  -0.025   3.205 -1.9200 -0.8236 -0.1221
    1PC     H3C11435   4.392   0.041   3.136 -1.3518  1.4005  0.0786
    1PC     C3411436   4.369  -0.130   2.921 -0.4963 -0.1554  0.1094
    1PC     H4A11437   4.292  -0.076   2.866  0.8928  0.6324 -1.0889
    1PC     H4B11438   4.469  -0.087   2.934  0.4530 -1.5545 -2.3143
    1PC     H4C11439   4.376  -0.230   2.879 -5.9341 -0.5704 -0.1995
    1PC     C3511440   4.180  -0.207   3.021 -0.0918  0.0980  0.0402
    1PC     H5A11441   4.125  -0.195   3.114 -1.6106 -1.4089 -0.6494
    1PC     H5B11442   4.187  -0.312   2.991  1.4139  0.4563 -0.9256
    1PC     H5C11443   4.127  -0.153   2.942  1.9099 -1.0326 -2.1659
    1PC     O3311444   4.827  -0.165   3.136 -0.3425 -1.0561 -0.1115
    1PC     O3411445   4.840  -0.373   3.281  0.3868  0.0982 -0.0442
    1PC     O2111446   4.730  -0.356   3.688 -0.7808  0.4116 -0.0195
    1PC     C2111447   4.784  -0.467   3.745 -0.2047  0.0743  0.3605
    1PC     O2211448   4.905  -0.498   3.728 -0.3086 -0.1699  0.2774
    1OL     C1211449   4.688  -0.562   3.818  0.4333  0.9585 -0.5153
    1OL     H2R11450   4.733  -0.662   3.809 -0.3204  0.3544  2.1057
    1OL     H2S11451   4.584  -0.549   3.788 -0.8447 -2.6884  1.9942
    1OL     C1311452   4.696  -0.526   3.965 -0.4704 -0.3407 -0.2160
    1OL     H3R11453   4.666  -0.422   3.983 -0.0109 -0.2000 -0.2566
    1OL     H3S11454   4.793  -0.541   4.013 -0.3742  0.5268 -0.1341
    1OL     C1411455   4.601  -0.626   4.043 -0.1144 -0.4563  0.6478
    1OL     H4R11456   4.623  -0.729   4.015  2.0806 -0.6221  2.8479
    1OL     H4S11457   4.502  -0.617   3.997  0.0156 -3.9033 -0.4330
    1OL     C1511458   4.597  -0.617   4.197  0.2500 -0.0182  0.4024
    1OL     H5R11459   4.689  -0.652   4.243  1.4397 -1.1176 -2.6839
    1OL     H5S11460   4.524  -0.692   4.230  1.7791 -1.3193  0.8832
    1OL     C1611461   4.566  -0.476   4.244 -0.1403  0.1152  0.2384
    1OL     H6R11462   4.482  -0.448   4.179 -0.9484 -0.5487  0.9832
    1OL     H6S11463   4.656  -0.419   4.223 -0.3556  0.4449  0.1971
    1OL     C1711464   4.511  -0.459   4.387  0.5090  0.4585 -0.2397
    1OL     H7R11465   4.403  -0.469   4.398  0.3891  0.4786 -1.3512
    1OL     H7S11466   4.520  -0.355   4.422 -1.9002  0.6603 -0.1487
    1OL     C1811467   4.571  -0.538   4.501  0.8035 -0.0854  0.0542
    1OL     H8R11468   4.676  -0.510   4.510  0.4101  1.6440 -0.4808
    1OL     H8S11469   4.565  -0.644   4.478  1.0954 -0.2408  0.6907
    1OL     C1911470   4.492  -0.507   4.625 -0.0918 -0.1092  0.2082
    1OL     H9R11471   4.412  -0.578   4.647 -1.4213  1.4368  0.4336
    1OL    C11011472   4.512  -0.412   4.713 -0.0943  0.3775 -0.1668
    1OL    H10R11473   4.448  -0.401   4.800 -1.0283 -2.7406 -0.3960
    1OL    C11111474   4.624  -0.303   4.704  0.5459  0.4322 -0.6518
    1OL    H11R11475   4.584  -0.202   4.718 -0.9044 -0.1121 -0.7834
    1OL    H11S11476   4.670  -0.299   4.605 -0.2199 -0.5029 -1.0512
    1OL    C11211477   4.724  -0.311   4.822  0.3787 -0.1303 -0.3559
    1OL    H12R11478   4.760  -0.413   4.810  1.0422  0.0904 -0.2732
    1OL    H12S11479   4.669  -0.307   4.916  0.4133 -1.3613 -0.2766
    1OL    C11311480   4.842  -0.210   4.827  0.1343  0.6104 -0.0860
    1OL    H13R11481   4.910  -0.229   4.744  0.6728  0.8757  0.2888
    1OL    H13S11482   4.908  -0.226   4.913  1.1569  0.4507 -0.8923
    1OL    C11411483   4.787  -0.061   4.830 -0.5335  0.4051 -0.1685
    1OL    H14R11484   4.727  -0.050   4.740  2.0339 -0.3283 -2.0188
    1OL    H14S11485   4.875   0.003   4.826  0.6955 -1.1178  1.5022
    1OL    C11511486   4.720  -0.025   4.968  0.5382  0.0122  0.0751
    1OL    H15R11487   4.638  -0.094   4.991 -1.1429  1.5555 -1.1171
    1OL    H15S11488   4.668   0.068   4.944  2.7499  1.4241  0.6153
    1OL    C11611489   4.827   0.003   5.075  0.3535  0.3237 -0.8293
    1OL    H16R11490   4.894   0.083   5.044  0.1621  0.1193 -1.7829
    1OL    H16S11491   4.872  -0.095   5.091 -1.4340 -0.6091 -1.4591
    1OL    C11711492   4.767   0.049   5.208  0.0008 -0.2161  0.4742
    1OL    H17R11493   4.843   0.049   5.287  0.3802 -0.6375  0.1145
    1OL    H17S11494   4.678  -0.009   5.234  1.2011 -1.4394  2.0046
    1OL    C11811495   4.703   0.192   5.194  0.0708 -0.3133 -1.0332
    1OL    H18R11496   4.781   0.252   5.146  2.4407 -2.5006 -0.0006
    1OL    H18S11497   4.687   0.236   5.293  2.5474 -2.0795  0.2029
    1OL    H18T11498   4.607   0.189   5.141  0.2848 -1.6535 -1.3631
    1PA    C11611499   1.073   5.254   4.520 -0.0678 -0.3183  0.3834
    1PA    H16R11500   1.014   5.253   4.612 -0.9794  2.3002 -0.1361
    1PA    H16S11501   1.134   5.345   4.528  0.3038 -0.6290  1.1813
    1PA    H16T11502   1.127   5.159   4.518  0.4599 -0.0262  0.5925
    1PA    C11511503   0.981   5.244   4.397  0.9024 -0.1202 -0.6232
    1PA    H15R11504   0.925   5.150   4.404 -1.2315  1.1366 -0.3768
    1PA    H15S11505   0.906   5.323   4.387  0.8395 -0.1363 -0.2959
    1PA    C11411506   1.041   5.232   4.256 -0.1679  0.1401 -0.8426
    1PA    H14R11507   1.105   5.318   4.237  1.5297 -0.9108  0.0030
    1PA    H14S11508   1.101   5.140   4.256  0.0300  0.2341  1.4842
    1PA    C11311509   0.928   5.219   4.145 -0.2474  0.2631  0.2197
    1PA    H13R11510   0.979   5.173   4.060 -1.0768 -0.4509  0.1023
    1PA    H13S11511   0.855   5.148   4.183  0.3694  0.1437  1.1788
    1PA    C11211512   0.860   5.347   4.091 -0.6164 -0.6715  0.4661
    1PA    H12R11513   0.805   5.400   4.169  1.7417  2.5114  0.0846
    1PA    H12S11514   0.940   5.419   4.072 -1.2708 -0.6356 -2.3700
    1PA    C11111515   0.783   5.318   3.961 -0.0276  0.2091 -0.7729
    1PA    H11R11516   0.860   5.294   3.888  1.5228 -1.1530  1.2337
    1PA    H11S11517   0.720   5.230   3.968  0.7422 -0.2860  0.1241
    1PA    C11011518   0.691   5.441   3.922  0.0342  0.2820 -0.4127
    1PA    H10R11519   0.615   5.397   3.857 -1.9190 -1.2476  2.7764
    1PA    H10S11520   0.641   5.480   4.010 -1.1981 -0.8179 -0.6082
    1PA     C1911521   0.780   5.552   3.848 -0.1171  0.3725 -0.2556
    1PA     H9R11522   0.855   5.580   3.922 -0.2017 -0.8011  0.2876
    1PA     H9S11523   0.829   5.514   3.758  0.8852  1.2662 -0.0910
    1PA     C1811524   0.701   5.677   3.797 -0.2814 -0.1173 -0.5816
    1PA     H8R11525   0.678   5.734   3.887 -0.6063 -0.2919 -0.5556
    1PA     H8S11526   0.778   5.729   3.739 -0.0777 -1.6619 -1.7016
    1PA     C1711527   0.578   5.650   3.701  0.6594  0.5374  0.2014
    1PA     H7R11528   0.608   5.586   3.618 -2.7369 -2.0148  0.8481
    1PA     H7S11529   0.507   5.587   3.755  4.8586 -2.3740  2.5937
    1PA     C1611530   0.519   5.787   3.649 -0.4769  0.0740  0.2785
    1PA     H6R11531   0.475   5.836   3.736  1.0023  2.1346 -0.1176
    1PA     H6S11532   0.596   5.854   3.611 -1.5394  2.1083  1.6067
    1PA     C1511533   0.416   5.772   3.530 -0.4856  0.6386  0.0913
    1PA     H5R11534   0.461   5.713   3.449 -1.2598  1.7611 -1.1799
    1PA     H5S11535   0.329   5.714   3.560 -1.4155  0.1456 -3.3757
    1PA     C1411536   0.365   5.903   3.471 -0.0899 -0.1548 -0.0427
    1PA     H4R11537   0.443   5.977   3.451 -1.5608  2.0879  2.1206
    1PA     H4S11538   0.306   5.872   3.385  0.5755  0.0228 -0.5688
    1PA     C1311539   0.276   5.975   3.577 -0.0731  0.7152 -0.3153
    1PA     H3R11540   0.203   5.904   3.617  0.0913  1.3025  1.0781
    1PA     H3S11541   0.324   6.002   3.672  3.0822  0.0666 -1.6711
    1PA     C1211542   0.200   6.092   3.507  0.6514 -0.0898  0.6965
    1PA     H2R11543   0.112   6.044   3.462 -0.1489  1.1874  0.8760
    1PA     H2S11544   0.158   6.160   3.581 -2.9548 -0.2218 -1.0926
    1PC     C1111545   0.276   6.172   3.401 -0.3041  0.2812  0.3899
    1PC     O1211546   0.377   6.243   3.433 -0.1364 -0.5498 -0.1319
    1PC     O1111547   0.220   6.152   3.278 -0.1091  0.2401 -0.2629
    1PC      C111548   0.270   6.235   3.169 -0.0541  0.3505  0.2119
    1PC      HR11549   0.206   6.266   3.086 -0.2326 -1.2199 -0.2550
    1PC      HS11550   0.311   6.324   3.217  1.3775 -0.7436  1.0854
    1PC      C211551   0.386   6.170   3.084 -0.3103 -0.4004 -0.3100
    1PC      HX11552   0.446   6.245   3.033  1.6395 -1.4850  0.3572
    1PC      C311553   0.345   6.061   2.987 -0.3542 -0.0925 -0.0067
    1PC      HA11554   0.278   6.098   2.910  0.4722  3.3708  0.8488
    1PC      HB11555   0.429   6.025   2.927  0.8424  1.1703  0.8545
    1PC     O3111556   0.288   5.950   3.068 -0.0743  0.0634  0.3827
    1PC     P3111557   0.324   5.799   3.045 -0.0215 -0.0907 -0.4158
    1PC     O3211558   0.470   5.778   3.107  0.2714  0.2746  0.5178
    1PC     C3111559   0.586   5.801   3.028 -0.7052  0.4537 -0.2675
    1PC     H1A11560   0.576   5.739   2.939  0.2600 -0.9198  0.5638
    1PC     H1B11561   0.591   5.907   3.002  1.1644  0.2968 -0.6097
    1PC     C3211562   0.716   5.757   3.102  0.7524  0.2324  0.0211
    1PC     H2A11563   0.802   5.763   3.036  0.4349  0.1852 -0.3934
    1PC     H2B11564   0.741   5.829   3.181 -2.6308  1.5844 -0.0580
    1PC     N3111565   0.724   5.613   3.158  0.1089 -1.0282 -0.3850
    1PC     C3311566   0.652   5.616   3.288  0.1584  0.1603  0.4401
    1PC     H3A11567   0.551   5.642   3.255  0.3939 -0.3232 -0.6920
    1PC     H3B11568   0.655   5.511   3.314  1.3979 -0.0561 -0.5149
    1PC     H3C11569   0.698   5.683   3.361 -0.0635 -0.1967  0.9078
    1PC     C3411570   0.658   5.508   3.079 -0.2876  0.2462  0.0398
    1PC     H4A11571   0.695   5.498   2.977  1.2854  0.3775  0.5926
    1PC     H4B11572   0.654   5.413   3.131  1.0026 -0.5518 -1.2646
    1PC     H4C11573   0.556   5.548   3.076  0.6509  2.7352  0.1185
    1PC     C3511574   0.868   5.574   3.178  0.7586  0.5687  0.0034
    1PC     H5A11575   0.914   5.636   3.254  0.4300 -0.0466  0.7134
    1PC     H5B11576   0.922   5.590   3.085 -1.9634 -1.1156 -1.9624
    1PC     H5C11577   0.870   5.469   3.209 -0.2842  0.1412 -1.3088
    1PC     O3311578   0.226   5.716   3.122 -0.7519  0.5416 -0.7662
    1PC     O3411579   0.321   5.781   2.902 -0.0232 -0.0042  0.4580
    1PC     O2111580   0.477   6.115   3.176  0.1036 -0.1029 -0.6943
    1PC     C2111581   0.596   6.172   3.204  0.1191  0.3154 -0.8893
    1PC     O2211582   0.637   6.277   3.157 -0.3335 -0.7748 -0.2002
    1OL     C1211583   0.686   6.095   3.305 -0.3609  0.1560 -0.3792
    1OL     H2R11584   0.770   6.058   3.247 -0.7582 -0.4682 -0.5611
    1OL     H2S11585   0.619   6.016   3.340  1.9032 -1.0595  1.3816
    1OL     C1311586   0.728   6.186   3.424 -0.2693 -0.1098  0.9982
    1OL     H3R11587   0.638   6.240   3.457 -1.0513  0.2901 -1.6983
    1OL     H3S11588   0.814   6.245   3.393 -0.0571 -1.6733 -1.5419
    1OL     C1411589   0.770   6.108   3.555 -0.1472 -0.2822  0.5084
    1OL     H4R11590   0.851   6.039   3.532 -3.1894 -3.1751 -2.0162
    1OL     H4S11591   0.686   6.045   3.585 -0.7542  0.5319  0.5460
    1OL     C1511592   0.802   6.190   3.678  0.2551  0.5823  0.1459
    1OL     H5R11593   0.853   6.280   3.643  0.0143  0.1188 -1.4158
    1OL     H5S11594   0.878   6.143   3.742 -0.9262 -1.0274  0.4047
    1OL     C1611595   0.670   6.231   3.753  0.0072  0.2562  0.0381
    1OL     H6R11596   0.592   6.156   3.741 -0.2281  0.2323  1.5935
    1OL     H6S11597   0.631   6.318   3.700  1.7662  0.0670 -1.6085
    1OL     C1711598   0.689   6.271   3.898 -0.2499 -0.6845 -0.0316
    1OL     H7R11599   0.601   6.325   3.933 -0.3925 -0.7696 -0.2542
    1OL     H7S11600   0.776   6.336   3.906  0.4512 -1.4288 -1.3954
    1OL     C1811601   0.714   6.149   3.986  0.1640 -0.4926  0.4901
    1OL     H8R11602   0.789   6.083   3.943 -0.1168  0.2017 -1.0616
    1OL     H8S11603   0.620   6.092   3.987 -1.3064  1.8408  1.1072
    1OL     C1911604   0.753   6.190   4.127 -0.2858 -0.9415  0.2805
    1OL     H9R11605   0.703   6.279   4.166  2.4787  0.3565  0.9748
    1OL    C11011606   0.840   6.133   4.210  0.0945  0.4272 -0.6403
    1OL    H10R11607   0.857   6.178   4.307  2.7486 -1.4317 -0.2004
    1OL    C11111608   0.913   6.007   4.182 -1.1697 -0.3165 -0.7795
    1OL    H11R11609   1.018   6.026   4.205 -0.9421 -1.7766 -0.5805
    1OL    H11S11610   0.900   5.969   4.081 -1.7317  0.9673 -1.1968
    1OL    C11211611   0.883   5.906   4.287  0.7276 -0.7061  0.2484
    1OL    H12R11612   0.776   5.897   4.307  0.5631  1.1517  0.2710
    1OL    H12S11613   0.923   5.951   4.378  2.8913 -1.9035 -0.0918
    1OL    C11311614   0.950   5.773   4.249 -0.2134 -0.2047 -0.3795
    1OL    H13R11615   1.057   5.794   4.238 -0.2286 -0.6163 -1.2971
    1OL    H13S11616   0.906   5.736   4.157  1.8903 -2.9840 -0.3715
    1OL    C11411617   0.915   5.661   4.348 -0.0581  0.5765 -1.0380
    1OL    H14R11618   0.949   5.564   4.312  1.6000  0.1419  1.5658
    1OL    H14S11619   0.806   5.656   4.354  0.0826 -0.4394  1.4576
    1OL    C11511620   0.970   5.680   4.496 -0.1289 -0.8309  0.0217
    1OL    H15R11621   0.931   5.603   4.563 -2.2647  1.0660  1.0358
    1OL    H15S11622   0.935   5.780   4.521 -1.7504 -0.9536 -1.6093
    1OL    C11611623   1.127   5.674   4.493  0.0140  0.0416  0.3413
    1OL    H16R11624   1.169   5.750   4.426 -0.1000  0.3579  0.6304
    1OL    H16S11625   1.155   5.572   4.464  1.2018  0.5844 -0.4759
    1OL    C11711626   1.181   5.676   4.640  0.0151 -0.2785 -0.3298
    1OL    H17R11627   1.286   5.645   4.643  0.8340  2.2873 -0.9583
    1OL    H17S11628   1.133   5.606   4.709 -0.8775  0.5543 -0.0879
    1OL    C11811629   1.169   5.815   4.709 -0.3384 -0.4479 -0.5861
    1OL    H18R11630   1.068   5.850   4.687 -0.1881  0.3424 -0.0233
    1OL    H18S11631   1.245   5.885   4.673 -2.6255  2.2663 -0.2562
    1OL    H18T11632   1.179   5.808   4.817 -0.9700  1.6625 -0.3709
    1PA    C11611633   1.291   5.193   4.857 -0.1435  0.0309  0.2702
    1PA    H16R11634   1.222   5.117   4.819 -2.1533  1.5184  0.8449
    1PA    H16S11635   1.239   5.281   4.895  0.8323  0.9135 -0.4060
    1PA    H16T11636   1.336   5.146   4.944 -2.4706  0.2552  1.6349
    1PA    C11511637   1.390   5.222   4.736  0.8179 -0.0918 -0.2242
    1PA    H15R11638   1.461   5.140   4.742 -0.5133 -1.2371  0.0817
    1PA    H15S11639   1.342   5.211   4.639  2.3413 -2.5076 -0.7475
    1PA    C11411640   1.452   5.360   4.752 -0.4693 -0.0660 -0.2673
    1PA    H14R11641   1.374   5.437   4.744 -0.9541 -0.5423 -0.1595
    1PA    H14S11642   1.493   5.357   4.853 -0.5414 -1.0479 -0.2632
    1PA    C11311643   1.562   5.391   4.653  0.7362  0.5550  0.2177
    1PA    H13R11644   1.604   5.490   4.674  1.5090 -0.3985  3.4140
    1PA    H13S11645   1.649   5.330   4.680  0.2817 -0.4523 -0.5831
    1PA    C11211646   1.538   5.377   4.505 -0.1511  0.4721  0.6118
    1PA    H12R11647   1.635   5.393   4.458  0.2968  1.6398  1.9120
    1PA    H12S11648   1.502   5.277   4.479  0.8935 -0.4516  2.6723
    1PA    C11111649   1.438   5.473   4.442  0.4627 -0.6763  1.2861
    1PA    H11R11650   1.338   5.431   4.455  0.5231 -0.7993  1.3454
    1PA    H11S11651   1.436   5.572   4.489  0.2106 -0.6657  1.2564
    1PA    C11011652   1.462   5.479   4.291  0.1489  0.3169  0.2076
    1PA    H10R11653   1.380   5.539   4.249 -0.5898 -0.8332 -0.0244
    1PA    H10S11654   1.553   5.537   4.274 -0.5535  1.5386  0.5654
    1PA     C1911655   1.456   5.345   4.211 -0.2683  0.5888  0.3298
    1PA     H9R11656   1.514   5.265   4.258  0.4312  1.1022  0.3560
    1PA     H9S11657   1.357   5.302   4.227 -0.2321  1.4582  3.2813
    1PA     C1811658   1.500   5.353   4.067  0.0425 -0.5730 -0.1707
    1PA     H8R11659   1.432   5.427   4.022  1.7437  2.6834  2.4144
    1PA     H8S11660   1.600   5.390   4.046  0.1412 -0.8695 -0.2136
    1PA     C1711661   1.483   5.219   3.995  0.3157  0.2006  0.2357
    1PA     H7R11662   1.496   5.230   3.887 -0.7760  0.5225  0.1362
    1PA     H7S11663   1.556   5.145   4.030 -0.2351 -1.1623 -1.4137
    1PA     C1611664   1.345   5.150   4.024  0.2420 -0.6235 -0.4149
    1PA     H6R11665   1.358   5.081   4.108  4.2898  0.7690  0.2354
    1PA     H6S11666   1.271   5.229   4.043  1.7136  1.3441 -2.6084
    1PA     C1511667   1.292   5.053   3.913 -0.1353  0.0543  0.5950
    1PA     H5R11668   1.356   4.966   3.896 -2.0446 -1.4464  0.8899
    1PA     H5S11669   1.194   5.014   3.942 -0.8791  0.8228 -0.8180
    1PA     C1411670   1.261   5.121   3.780 -0.3457 -0.3766 -0.1069
    1PA     H4R11671   1.354   5.156   3.734  1.0613  0.8686  3.4916
    1PA     H4S11672   1.208   5.057   3.709 -0.7697  1.2048 -1.2397
    1PA     C1311673   1.165   5.239   3.794 -0.8674  0.0208 -0.4570
    1PA     H3R11674   1.078   5.198   3.846  0.0303 -1.8064 -0.3570
    1PA     H3S11675   1.212   5.317   3.855 -3.9312  0.7702  1.0106
    1PA     C1211676   1.120   5.291   3.664  0.0452  0.2530 -0.2122
    1PA     H2R11677   1.076   5.211   3.604 -1.2208  0.1133  0.8829
    1PA     H2S11678   1.044   5.368   3.683  1.5142  1.6209  0.2578
    1PC     C1111679   1.224   5.357   3.576  0.1352 -0.6026  0.4413
    1PC     O1211680   1.330   5.395   3.623  0.2054 -0.2730  0.1813
    1PC     O1111681   1.182   5.375   3.449 -0.4794 -0.5688  0.0504
    1PC      C111682   1.256   5.444   3.341  0.5487  0.0308  0.1175
    1PC      HR11683   1.185   5.472   3.263  0.0138 -1.3447  0.1084
    1PC      HS11684   1.305   5.535   3.377 -0.5823 -0.0468  1.9177
    1PC      C211685   1.363   5.369   3.274  0.9815  0.6644  0.6163
    1PC      HX11686   1.420   5.441   3.215  1.4737 -1.4364 -1.5688
    1PC      C311687   1.313   5.266   3.172 -0.1645  0.5780 -0.2666
    1PC      HA11688   1.289   5.326   3.084 -1.9746  0.1288 -0.1095
    1PC      HB11689   1.389   5.191   3.146 -0.2059  0.6052 -0.4652
    1PC     O3111690   1.193   5.198   3.212 -0.0744  0.4520 -0.0219
    1PC     P3111691   1.090   5.131   3.105 -0.4350  0.4262 -0.3025
    1PC     O3211692   1.193   5.031   3.038  0.3066 -0.0534  0.0113
    1PC     C3111693   1.207   4.894   3.076  0.9159 -0.6540  0.0966
    1PC     H1A11694   1.190   4.889   3.183  0.1193 -0.3897 -0.0136
    1PC     H1B11695   1.129   4.841   3.021 -0.7372  1.7765  0.0312
    1PC     C3211696   1.350   4.830   3.045  0.0736 -0.3599 -1.2489
    1PC     H2A11697   1.428   4.902   3.068  1.2044 -2.2405  1.0807
    1PC     H2B11698   1.346   4.730   3.091  1.5695 -0.5540 -1.5450
    1PC     N3111699   1.376   4.794   2.902  0.4779  0.2418  0.1221
    1PC     C3311700   1.302   4.677   2.858 -0.5701 -0.3321  0.3982
    1PC     H3A11701   1.197   4.705   2.852 -0.7536 -0.8572  1.0699
    1PC     H3B11702   1.341   4.644   2.762 -1.5702 -0.5113  0.0538
    1PC     H3C11703   1.318   4.593   2.927  1.0058  0.3321  0.8736
    1PC     C3411704   1.343   4.901   2.811 -0.2582  0.3587 -0.7454
    1PC     H4A11705   1.240   4.934   2.827 -0.2737  0.1664 -0.4388
    1PC     H4B11706   1.399   4.990   2.839  0.9005 -0.1276 -1.4937
    1PC     H4C11707   1.368   4.876   2.708 -0.9859  1.8167 -1.2944
    1PC     C3511708   1.525   4.769   2.882 -0.0926 -0.1554 -0.5971
    1PC     H5A11709   1.546   4.730   2.782 -2.1529 -1.4966 -0.5474
    1PC     H5B11710   1.551   4.695   2.958  0.6328 -1.4822 -2.1213
    1PC     H5C11711   1.579   4.858   2.913  0.0115  0.1753 -1.7210
    1PC     O3311712   0.986   5.056   3.183  0.4909 -0.4793  0.0170
    1PC     O3411713   1.060   5.236   3.001 -0.1188  0.2300  0.5530
    1PC     O2111714   1.456   5.303   3.366  0.0734 -0.2495 -0.2500
    1PC     C2111715   1.550   5.376   3.423  0.1715  0.4686  0.8375
    1PC     O2211716   1.557   5.497   3.407  0.4571 -0.3032  0.2840
    1OL     C1211717   1.632   5.291   3.515  0.0430 -0.0209  0.5467
    1OL     H2R11718   1.718   5.249   3.461  0.5148  1.3480  0.2096
    1OL     H2S11719   1.568   5.205   3.534  1.0578 -0.9932 -0.3676
    1OL     C1311720   1.673   5.374   3.639 -0.3790  0.2446  0.2391
    1OL     H3R11721   1.701   5.316   3.727 -2.0729 -1.8609 -0.5973
    1OL     H3S11722   1.588   5.433   3.673 -1.7915 -1.2259 -0.6745
    1OL     C1411723   1.792   5.466   3.610  0.3871 -0.0532 -0.0916
    1OL     H4R11724   1.770   5.544   3.537  1.7064 -0.7200 -1.2258
    1OL     H4S11725   1.876   5.408   3.573 -1.0605 -0.9334 -2.0731
    1OL     C1511726   1.829   5.545   3.739  0.0995  0.0785  0.4448
    1OL     H5R11727   1.895   5.628   3.711  0.5018  0.0454  1.2749
    1OL     H5S11728   1.882   5.472   3.800  1.6010  1.9332  1.4216
    1OL     C1611729   1.703   5.599   3.810  0.2921 -0.2734  0.5607
    1OL     H6R11730   1.641   5.514   3.842 -2.4355  0.7917 -1.6333
    1OL     H6S11731   1.638   5.652   3.740 -0.0545  2.5100  2.9019
    1OL     C1711732   1.739   5.681   3.938 -0.2874  0.3005 -0.9220
    1OL     H7R11733   1.816   5.754   3.913 -1.0476  1.5902  0.4254
    1OL     H7S11734   1.774   5.603   4.007 -0.6738 -0.0493 -1.1187
    1OL     C1811735   1.616   5.760   3.991  0.1055 -0.1548  0.2889
    1OL     H8R11736   1.528   5.695   4.000 -0.9174  1.2795  0.7184
    1OL     H8S11737   1.587   5.838   3.921 -1.2517 -0.0296  0.9735
    1OL     C1911738   1.648   5.833   4.118 -0.5800 -0.5969 -0.2551
    1OL     H9R11739   1.752   5.827   4.149 -0.8119  0.6849  0.7829
    1OL    C11011740   1.554   5.889   4.194  0.0187 -0.0064  0.5415
    1OL    H10R11741   1.572   5.939   4.289 -0.8126 -0.0219  0.7158
    1OL    C11111742   1.406   5.888   4.160 -0.1172  0.1601  1.1746
    1OL    H11R11743   1.353   5.817   4.224 -0.5489  0.2447  0.9054
    1OL    H11S11744   1.397   5.866   4.054  1.7345  2.0970  0.5843
    1OL    C11211745   1.347   6.029   4.184 -0.3119  0.3886  0.5005
    1OL    H12R11746   1.258   6.032   4.121  0.6370  3.3304 -0.7973
    1OL    H12S11747   1.419   6.102   4.148 -0.7708  0.1504 -0.9046
    1OL    C11311748   1.302   6.061   4.325 -0.2370 -0.9030 -0.0882
    1OL    H13R11749   1.388   6.049   4.392  0.6335 -0.8658 -1.1754
    1OL    H13S11750   1.238   5.981   4.363 -0.4397 -0.8147 -0.2482
    1OL    C11411751   1.242   6.201   4.333  0.7715  0.5127 -0.2542
    1OL    H14R11752   1.150   6.191   4.274 -0.4317  0.8810  1.5122
    1OL    H14S11753   1.298   6.268   4.267 -1.1092  0.6305 -1.7903
    1OL    C11511754   1.223   6.272   4.469  0.3037  0.2221 -0.3839
    1OL    H15R11755   1.192   6.375   4.449  1.9949  0.9530  0.6592
    1OL    H15S11756   1.320   6.297   4.513 -0.0122  2.6575 -0.9761
    1OL    C11611757   1.148   6.198   4.576  0.2797 -0.3114  0.6627
    1OL    H16R11758   1.206   6.114   4.615 -0.4300 -0.9036  0.4465
    1OL    H16S11759   1.067   6.148   4.523 -1.6773  2.5784  0.8040
    1OL    C11711760   1.068   6.283   4.671 -0.1543 -0.4407  0.8149
    1OL    H17R11761   0.989   6.342   4.624  0.7112  0.3926  0.3895
    1OL    H17S11762   1.132   6.361   4.713  1.0536  0.3660 -2.4194
    1OL    C11811763   1.002   6.205   4.786  0.0631 -0.8150  0.5193
    1OL    H18R11764   1.066   6.132   4.836  1.1599 -1.6066 -1.9547
    1OL    H18S11765   0.922   6.145   4.743 -0.7487 -0.9553  2.2009
    1OL    H18T11766   0.956   6.259   4.869  0.7867  0.6623 -0.0178
    1PA    C11611767   0.884   5.497   4.894  0.5374 -0.2865 -0.1976
    1PA    H16R11768   0.900   5.409   4.831  1.6023  2.0200 -3.2513
    1PA    H16S11769   0.939   5.488   4.987 -0.9177  1.1901  0.8425
    1PA    H16T11770   0.921   5.575   4.827  3.4714 -1.8060 -0.4067
    1PA    C11511771   0.735   5.522   4.926  0.2901 -0.3233 -0.2317
    1PA    H15R11772   0.697   5.461   5.009 -0.9443 -0.5374 -0.9373
    1PA    H15S11773   0.714   5.619   4.973  1.7541 -0.6448  1.1573
    1PA    C11411774   0.642   5.505   4.799 -0.1728  0.1202 -0.4599
    1PA    H14R11775   0.642   5.404   4.756 -0.4814  0.4715 -1.2998
    1PA    H14S11776   0.541   5.515   4.840  0.1013  0.1444  0.2063
    1PA    C11311777   0.658   5.602   4.681  0.1709 -0.2315 -0.5738
    1PA    H13R11778   0.680   5.701   4.721  1.4368 -2.0267  3.3711
    1PA    H13S11779   0.737   5.578   4.609  1.0403  1.6455 -0.2908
    1PA    C11211780   0.529   5.626   4.593  0.1118 -0.1977 -0.4723
    1PA    H12R11781   0.497   5.524   4.570 -1.1122 -0.0726  0.6291
    1PA    H12S11782   0.454   5.679   4.652 -0.4227 -1.1363 -0.3054
    1PA    C11111783   0.541   5.715   4.469 -0.0756 -0.6698 -0.1090
    1PA    H11R11784   0.485   5.804   4.498 -1.4784 -2.5397  3.1409
    1PA    H11S11785   0.647   5.736   4.451  0.1693 -2.0131 -0.2782
    1PA    C11011786   0.480   5.647   4.341  0.4721 -0.3581  0.1665
    1PA    H10R11787   0.529   5.553   4.317 -0.9475 -1.6441  2.1048
    1PA    H10S11788   0.374   5.635   4.364  0.4891 -2.0116 -0.5403
    1PA     C1911789   0.500   5.754   4.230 -0.2489 -1.3537  0.8440
    1PA     H9R11790   0.454   5.851   4.251 -2.9533 -2.1526 -0.9590
    1PA     H9S11791   0.607   5.766   4.211 -0.9082  0.4422 -2.1509
    1PA     C1811792   0.436   5.718   4.097  0.1630  0.1920  0.7444
    1PA     H8R11793   0.449   5.801   4.027  1.0090  1.0359  1.8922
    1PA     H8S11794   0.492   5.631   4.062 -0.6058 -0.2291  0.5648
    1PA     C1711795   0.289   5.686   4.101  0.6962 -0.9077 -0.7495
    1PA     H7R11796   0.271   5.607   4.175 -0.8198  0.0309 -0.0788
    1PA     H7S11797   0.236   5.768   4.151 -1.8047 -2.0683 -1.3909
    1PA     C1611798   0.225   5.654   3.967  1.2036 -0.0538  0.7844
    1PA     H6R11799   0.120   5.655   3.996  0.7020  2.5130 -0.9437
    1PA     H6S11800   0.231   5.727   3.885 -0.4755 -2.1609 -1.2922
    1PA     C1511801   0.268   5.511   3.909 -0.1218 -0.3103 -0.4803
    1PA     H5R11802   0.270   5.525   3.801 -0.6411  2.3641 -0.1804
    1PA     H5S11803   0.372   5.487   3.935 -0.3630 -2.3668 -1.3220
    1PA     C1411804   0.177   5.403   3.959  0.1318 -0.0002 -0.5346
    1PA     H4R11805   0.193   5.388   4.066 -1.9782 -0.7623 -0.3125
    1PA     H4S11806   0.074   5.439   3.950 -1.6431 -4.2416  1.4989
    1PA     C1311807   0.199   5.273   3.884  0.0285  0.1899  0.3468
    1PA     H3R11808   0.306   5.250   3.883 -0.0052  0.0141 -0.6896
    1PA     H3S11809   0.142   5.195   3.935  0.2374  0.4270  0.9419
    1PA     C1211810   0.148   5.269   3.736  0.0529 -0.3833  0.0381
    1PA     H2R11811   0.046   5.308   3.728  0.5048  0.8960  0.3432
    1PA     H2S11812   0.206   5.332   3.668 -0.8238 -0.7054 -1.0327
    1PC     C1111813   0.154   5.133   3.667 -0.1843  0.4548  0.5525
    1PC     O1211814   0.254   5.073   3.633 -0.3901 -0.5194  0.4769
    1PC     O1111815   0.033   5.078   3.672  0.0645 -0.5366 -0.0335
    1PC      C111816   0.008   4.948   3.607  0.5105 -0.1264  0.7067
    1PC      HR11817   0.035   4.963   3.502 -1.5393  1.0623  0.3229
    1PC      HS11818   0.063   4.865   3.652 -0.4897 -1.1465  0.0770
    1PC      C211819  -0.142   4.915   3.616 -0.2534  0.8216 -0.0057
    1PC      HX11820  -0.146   4.815   3.572  2.1723  0.2538  0.9957
    1PC      C311821  -0.246   5.008   3.544  0.2234  0.5320  0.1689
    1PC      HA11822  -0.329   5.028   3.612 -0.4773 -0.8973 -0.2372
    1PC      HB11823  -0.199   5.103   3.518  1.8928  0.0660  1.3563
    1PC     O3111824  -0.311   4.955   3.423 -0.2082  0.4086 -0.1684
    1PC     P3111825  -0.240   4.974   3.278  0.2599  0.3366 -0.0368
    1PC     O3211826  -0.245   5.121   3.233 -0.4825 -1.1101 -0.0985
    1PC     C3111827  -0.370   5.198   3.222  0.2132 -0.7042 -0.3498
    1PC     H1A11828  -0.450   5.149   3.167  1.3792 -0.8713 -1.9529
    1PC     H1B11829  -0.401   5.226   3.323  0.1736  0.2804 -0.6257
    1PC     C3211830  -0.347   5.339   3.152 -0.0522  0.4845  0.2456
    1PC     H2A11831  -0.442   5.388   3.132  0.2931  1.5454  1.1680
    1PC     H2B11832  -0.282   5.402   3.213  0.1112  0.4298  0.1278
    1PC     N3111833  -0.284   5.329   3.013  0.4220  0.2329  0.1189
    1PC     C3311834  -0.148   5.275   3.004  0.0188 -0.1985 -0.2103
    1PC     H3A11835  -0.139   5.186   3.067  3.7623 -0.3364 -0.7889
    1PC     H3B11836  -0.130   5.252   2.899 -1.3298 -0.2838 -0.4290
    1PC     H3C11837  -0.075   5.350   3.035 -0.5386  0.3398 -0.2061
    1PC     C3411838  -0.369   5.255   2.916  0.4150  0.1585 -0.6831
    1PC     H4A11839  -0.342   5.285   2.815 -0.3332 -1.0083 -1.2465
    1PC     H4B11840  -0.371   5.148   2.937  2.4509  0.7520  3.0973
    1PC     H4C11841  -0.470   5.293   2.934  0.8512  1.0637 -0.0818
    1PC     C3511842  -0.277   5.473   2.965 -0.5553  0.3217  0.4341
    1PC     H5A11843  -0.250   5.546   3.042  0.9052 -1.2109  1.4125
    1PC     H5B11844  -0.378   5.510   2.942  0.3323  2.6620  0.1739
    1PC     H5C11845  -0.221   5.478   2.872 -0.1071 -2.1737  0.5416
    1PC     O3311846  -0.096   4.942   3.293 -0.0544 -0.1176 -0.1585
    1PC     O3411847  -0.319   4.899   3.179  0.2030 -0.1311 -0.1690
    1PC     O2111848  -0.177   4.902   3.755  0.4306 -0.0129  0.1551
    1PC     C2111849  -0.259   4.800   3.791 -0.4411 -0.1042 -0.0640
    1PC     O2211850  -0.331   4.733   3.714 -0.2252 -0.0940 -0.2132
    1OL     C1211851  -0.262   4.774   3.946 -0.2586 -0.2411  0.5128
    1OL     H2R11852  -0.245   4.876   3.982  2.1115 -0.1877 -0.5926
    1OL     H2S11853  -0.188   4.699   3.974 -2.1787 -3.3619 -2.3974
    1OL     C1311854  -0.404   4.729   3.993  0.1444 -0.0633 -0.3185
    1OL     H3R11855  -0.435   4.636   3.945  1.0611 -0.7498  0.3898
    1OL     H3S11856  -0.472   4.805   3.955 -0.3129 -0.8209 -1.0452
    1OL     C1411857  -0.407   4.714   4.141  0.2177 -0.2262 -0.1283
    1OL     H4R11858  -0.360   4.801   4.187  0.4953 -0.4530  0.0228
    1OL     H4S11859  -0.343   4.628   4.163  0.4264  0.2041  1.0193
    1OL     C1511860  -0.546   4.698   4.199 -0.4290 -0.0242  0.4417
    1OL     H5R11861  -0.593   4.605   4.166 -0.2844 -0.2255  0.7959
    1OL     H5S11862  -0.610   4.775   4.155 -0.5728 -0.2976  0.1713
    1OL     C1611863  -0.554   4.713   4.350  0.0620  0.5369 -0.0705
    1OL     H6R11864  -0.580   4.809   4.395 -1.6196 -0.7663  1.9047
    1OL     H6S11865  -0.458   4.690   4.396  1.3171 -1.3157 -3.5330
    1OL     C1711866  -0.665   4.621   4.413  0.0962  0.3859 -0.2853
    1OL     H7R11867  -0.643   4.514   4.414 -2.5070 -0.1875 -0.4022
    1OL     H7S11868  -0.757   4.630   4.355 -0.2291  0.9180  0.3093
    1OL     C1811869  -0.672   4.655   4.565 -0.4289 -0.5296 -0.2255
    1OL     H8R11870  -0.704   4.757   4.586 -0.3118 -0.9101  1.8665
    1OL     H8S11871  -0.572   4.644   4.608  0.4589 -1.2356 -2.3625
    1OL     C1911872  -0.756   4.558   4.638  0.1482  0.0991 -0.8371
    1OL     H9R11873  -0.748   4.453   4.614  2.2988 -0.4352  1.9808
    1OL    C11011874  -0.849   4.589   4.732 -0.0570 -0.4089  0.1766
    1OL    H10R11875  -0.907   4.505   4.771 -0.7613  0.3718  0.8240
    1OL    C11111876  -0.878   4.730   4.785 -0.3826  0.3323  0.2500
    1OL    H11R11877  -0.985   4.738   4.805  0.0179  1.1946  2.2339
    1OL    H11S11878  -0.861   4.801   4.704 -1.2533 -0.6720 -0.8277
    1OL    C11211879  -0.814   4.751   4.917  0.1935 -0.5239  0.4556
    1OL    H12R11880  -0.842   4.676   4.991  0.0790 -0.7940  0.1396
    1OL    H12S11881  -0.863   4.842   4.953 -0.7485 -1.3628  1.3488
    1OL    C11311882  -0.659   4.755   4.925  0.7266  0.2841  0.4915
    1OL    H13R11883  -0.617   4.666   4.877 -2.1441 -0.4143 -0.8550
    1OL    H13S11884  -0.617   4.760   5.025 -0.6335  0.2638  1.0688
    1OL    C11411885  -0.607   4.881   4.848  0.1959 -1.2370  0.2254
    1OL    H14R11886  -0.653   4.971   4.890 -1.3258 -1.9069  0.0075
    1OL    H14S11887  -0.647   4.867   4.747  0.2495  0.6793 -0.0880
    1OL    C11511888  -0.452   4.882   4.834 -0.0371  0.4135 -0.6420
    1OL    H15R11889  -0.412   4.805   4.769 -2.0042 -1.4445  0.2983
    1OL    H15S11890  -0.410   4.868   4.934  0.9470 -1.8289 -1.3534
    1OL    C11611891  -0.383   5.007   4.773 -0.2450 -0.5062 -0.5117
    1OL    H16R11892  -0.278   5.011   4.804 -0.4709 -3.5430  0.8290
    1OL    H16S11893  -0.425   5.099   4.813 -1.0858 -1.1857  0.1754
    1OL    C11711894  -0.386   5.030   4.619  0.1176  0.1333  0.0481
    1OL    H17R11895  -0.322   5.117   4.601 -0.1678  0.5833  1.2099
    1OL    H17S11896  -0.484   5.069   4.593  1.1777  3.4733  0.8872
    1OL    C11811897  -0.341   4.916   4.533  0.7140  0.1880  0.2993
    1OL    H18R11898  -0.350   4.953   4.431 -0.7948  1.6786  0.9322
    1OL    H18S11899  -0.398   4.825   4.552  0.3705  0.3681  0.1431
    1OL    H18T11900  -0.235   4.911   4.559  0.4827 -1.9165  0.9268
    7Na+    Na+11901   1.218   0.579   9.224  0.2589  0.2168  0.0005
    8Na+    Na+11902   4.873   3.430   8.255 -0.5479 -0.0022  0.1783
    9Na+    Na+11903   5.473   3.692   8.879 -0.3976  0.2672 -0.0250
   10Na+    Na+11904   3.766   2.009   1.516  0.3597  0.5639 -0.4947
   11Na+    Na+11905   4.884   4.253  10.200  0.2364  0.2224 -0.1516
   12Na+    Na+11906   1.197   3.416   8.573 -0.3501  0.0465  0.1307
   13Na+    Na+11907   3.657   4.861   1.620 -0.2060  0.2773  0.3866
   14Na+    Na+11908   0.781   2.145   1.178  0.0965 -0.1872 -0.3238
   15Na+    Na+11909   4.440   1.987   0.758  0.1009 -0.0324  0.0808
   16Na+    Na+11910   3.662   4.411   0.583  0.0181  0.2036 -0.1503
   17Na+    Na+11911   1.635   0.773   2.376 -0.1539 -0.1257  0.1735
   18Na+    Na+11912   0.700   5.475   2.298  0.1330  0.0750  0.7719
   19Na+    Na+11913   1.342   3.691   1.473  0.5669  0.0464 -0.5616
   20Na+    Na+11914   2.640   4.475   8.764 -0.2402 -0.2407  0.3544
   21Cl-    Cl-11915   1.339   3.724   0.262  0.2975 -0.4124  0.0740
   22Cl-    Cl-11916   0.559   1.968  10.307 -0.1388  0.0986  0.1815
   23Cl-    Cl-11917   3.756   0.157   8.854 -0.1238  0.0887  0.3673
   24Cl-    Cl-11918   0.407   2.919   2.400  0.2398  0.0842 -0.5011
   25Cl-    Cl-11919   5.321   4.186   8.222  0.2119 -0.0810  0.2953
   26Cl-    Cl-11920   2.731   2.553   1.734  0.0897  0.0385 -0.1962
   27Cl-    Cl-11921   1.047   2.067   1.806  0.1025  0.2600  0.1758
   28Cl-    Cl-11922   2.263   3.672   1.231 -0.0324 -0.2458 -0.0757
   29Cl-    Cl-11923   0.346   4.608   0.924  0.1189  0.0186  0.4151
   30Cl-    Cl-11924   4.204   4.357   9.022  0.0008  0.3373  0.1255
   31Cl-    Cl-11925   4.502   2.711   0.241 -0.0549  0.1015 -0.0361
   32Cl-    Cl-11926   3.752   1.804   8.987  0.0755  0.1291 -0.2643
   33Cl-    Cl-11927   0.868   2.907   8.396  0.2846 -0.1172 -0.3348
   34Cl-    Cl-11928   4.021   4.326   1.000 -0.4278 -0.1831  0.2962
   35Cl-    Cl-11929   4.092   2.379   1.135 -0.1747 -0.1528 -0.1091
   36Cl-    Cl-11930   1.352   0.356   2.731 -0.0443  0.1180 -0.0086
   37Cl-    Cl-11931   3.655   2.024   2.863 -0.0145  0.0708 -0.1173
   38TP3      O11932   1.753   1.843   0.286  0.1387 -0.4975 -0.1048
   38TP3     H111933   1.726   1.760   0.325  2.2634 -1.9836 -1.6753
   38TP3     H211934   1.842   1.857   0.318 -0.2023  1.1770  0.1377
   39TP3      O11935   0.784   3.543   0.775 -0.2526  0.3738 -0.3552
   39TP3     H111936   0.818   3.586   0.696 -1.4840  1.3111 -0.3926
   39TP3     H211937   0.802   3.605   0.846 -0.9829  0.4401 -0.2256
   40TP3      O11938   0.972   0.055   7.824 -0.1969  0.0253  0.7862
   40TP3     H111939   0.969   0.088   7.734  0.7629  1.0571  1.1283
   40TP3     H211940   0.966  -0.040   7.814 -1.5887  0.2087 -0.2761
   41TP3      O11941   0.002   1.946   8.748 -0.2757  0.1058  0.0198
   41TP3     H111942   0.081   1.988   8.714 -0.2233 -0.3764 -0.4579
   41TP3     H211943   0.033   1.885   8.815 -0.3837  1.0931  0.9720
   42TP3      O11944   1.910   1.377   1.764  0.2247 -0.0619  0.3264
   42TP3     H111945   1.909   1.315   1.692 -0.8501 -0.6944  0.8843
   42TP3     H211946   1.951   1.455   1.727 -0.6306 -0.2517 -1.0691
   43TP3      O11947   4.405   3.001   0.205 -0.3574 -0.4277  0.3727
   43TP3     H111948   4.329   2.965   0.159  0.1694 -0.8902 -0.1380
   43TP3     H211949   4.455   2.924   0.232  0.2117 -0.1089  0.2336
   44TP3      O11950   1.781   1.954   0.567 -0.2596 -0.2397 -0.3461
   44TP3     H111951   1.827   1.993   0.642 -1.9778 -0.8641  1.0845
   44TP3     H211952   1.714   2.019   0.544  0.0500 -0.1999 -1.1489
   45TP3      O11953   4.143   1.971   7.843  0.4743 -0.4435 -0.1922
   45TP3     H111954   4.121   1.916   7.768  1.9025  0.2001 -1.1082
   45TP3     H211955   4.157   1.910   7.915 -0.4050 -1.0996 -0.5723
   46TP3      O11956   5.414   1.202   7.892  0.0479  0.2470 -0.0896
   46TP3     H111957   5.469   1.277   7.871  0.8698 -0.1976  0.4482
   46TP3     H211958   5.331   1.219   7.847  0.6723  0.8513 -1.0155
   47TP3      O11959   2.417   4.712   8.296 -0.2777 -0.5734  0.1270
   47TP3     H111960   2.381   4.762   8.223  1.0089 -1.2984 -1.0213
   47TP3     H211961   2.365   4.740   8.372  0.0343  2.0536 -0.5829
   48TP3      O11962   5.244   0.780   8.282  0.8136 -0.0195  0.4759
   48TP3     H111963   5.299   0.831   8.341 -1.2509  0.5156  1.9682
   48TP3     H211964   5.251   0.690   8.315  0.6032  0.0798  0.7855
   49TP3      O11965   3.910   0.839  10.286 -0.3273 -0.0846 -0.2520
   49TP3     H111966   3.891   0.788  10.208  2.5761  1.1860 -1.8603
   49TP3     H211967   3.865   0.922  10.272  0.6872  0.3677 -0.8787
   50TP3      O11968   2.382   2.676   0.804  0.3650 -0.0027 -0.0533
   50TP3     H111969   2.303   2.657   0.856  0.3961 -1.1390 -0.4178
   50TP3     H211970   2.435   2.597   0.811  1.2792  0.5922 -0.1854
   51TP3      O11971   0.807   0.162   9.082  0.2588 -0.0030 -0.1783
   51TP3     H111972   0.822   0.176   9.176 -0.1916  0.4889 -0.1790
   51TP3     H211973   0.720   0.199   9.066  0.8399  1.0450 -1.0321
   52TP3      O11974   3.507   0.195   7.842  0.2257 -0.0301 -0.3634
   52TP3     H111975   3.442   0.209   7.772  0.6459  0.5347 -0.6539
   52TP3     H211976   3.581   0.250   7.816  0.8063 -0.6420 -0.0145
   53TP3      O11977   2.202   3.928   8.644 -0.1069 -0.2473 -0.2581
   53TP3     H111978   2.127   3.985   8.626  0.8744  0.8361 -0.9471
   53TP3     H211979   2.199   3.862   8.573  0.6341  0.8689 -1.3495
   54TP3      O11980   4.743   0.986   8.857  0.6517  0.6401  0.4831
   54TP3     H111981   4.681   0.925   8.897  1.4953  0.9662  2.3000
   54TP3     H211982   4.812   0.930   8.822  0.9962  0.4940  1.3953
   55TP3      O11983   1.372   2.849   8.990  0.0332  0.0205 -0.1777
   55TP3     H111984   1.400   2.800   9.068  0.6934  0.1020 -0.3635
   55TP3     H211985   1.303   2.794   8.951  2.3666 -1.9546 -1.6851
   56TP3      O11986   3.280   0.377   8.001  0.6146  0.2214  0.0848
   56TP3     H111987   3.329   0.458   8.006 -0.0269  0.5821  0.5808
   56TP3     H211988   3.322   0.327   7.930  0.0705  1.6110 -1.2451
   57TP3      O11989   2.695   4.734   7.337 -0.4279 -0.4872  0.0637
   57TP3     H111990   2.763   4.723   7.271 -1.0056  0.1489 -0.6536
   57TP3     H211991   2.615   4.752   7.287 -0.7827  0.4968  0.9356
   58TP3      O11992   1.947   1.094   9.106  0.4019  0.0056  0.2542
   58TP3     H111993   1.859   1.129   9.122  0.2273  0.6827 -1.9937
   58TP3     H211994   1.945   1.006   9.144 -0.5656  0.7724  2.0556
   59TP3      O11995   0.619   2.347   7.838  0.3925 -0.2592 -0.2149
   59TP3     H111996   0.683   2.418   7.834  0.0729  0.1263  1.1492
   59TP3     H211997   0.534   2.391   7.839  0.0605 -0.7793 -2.4492
   60TP3      O11998   0.666   2.138   7.471  0.2942 -0.4262 -0.1485
   60TP3     H111999   0.615   2.178   7.400 -0.7099 -0.0807  0.7459
   60TP3     H212000   0.756   2.165   7.455 -0.1779  1.0648 -0.3238
   61TP3      O12001   4.055   2.500   6.861  0.5090  0.0596 -0.7288
   61TP3     H112002   4.037   2.589   6.829 -0.2145 -0.0794 -0.7221
   61TP3     H212003   3.968   2.460   6.868  0.8469 -0.7015 -0.8891
   62TP3      O12004   0.723   0.665   7.805 -0.0753  1.0502 -0.2324
   62TP3     H112005   0.695   0.707   7.723 -0.0650 -0.1026 -0.8440
   62TP3     H212006   0.678   0.714   7.873  0.6622  2.6398 -0.8521
   63TP3      O12007   1.286   0.863   9.566  0.0783 -0.0104 -0.3853
   63TP3     H112008   1.290   0.918   9.644  0.0669 -0.3790 -0.1289
   63TP3     H212009   1.311   0.776   9.596  0.2975 -0.1022 -0.8373
   64TP3      O12010   2.293   1.198   8.681 -0.2765  0.3027 -0.0096
   64TP3     H112011   2.256   1.251   8.611  1.2605  0.2200 -0.9041
   64TP3     H212012   2.235   1.214   8.756 -0.9328  1.7469 -0.7996
   65TP3      O12013   2.894   2.228  10.063 -0.1145 -0.0537  0.2401
   65TP3     H112014   2.885   2.307  10.116  0.5577  0.9745 -1.1717
   65TP3     H212015   2.841   2.162  10.109 -2.4389  1.7759  0.2270
   66TP3      O12016   0.687   2.567   6.687  0.5852 -0.7344 -0.2512
   66TP3     H112017   0.695   2.661   6.671  0.3913 -0.4261  1.4338
   66TP3     H212018   0.778   2.537   6.696  0.6468 -0.7149 -0.7728
   67TP3      O12019   4.305   0.958   9.072  0.2763 -0.5146  0.1513
   67TP3     H112020   4.261   0.925   8.994  0.3828  1.2457 -0.6783
   67TP3     H212021   4.235   0.986   9.130  0.1511 -2.8987  1.2230
   68TP3      O12022   0.853   1.766   8.125  0.6975 -0.4515  0.0060
   68TP3     H112023   0.892   1.853   8.119 -1.1236  0.4158  0.3721
   68TP3     H212024   0.923   1.711   8.160  1.8541  0.8770 -0.1783
   69TP3      O12025   2.199   3.680   7.565 -0.3694 -0.2281  0.4083
   69TP3     H112026   2.125   3.726   7.525 -1.0689 -2.5705 -1.0967
   69TP3     H212027   2.263   3.671   7.494  0.1508 -0.7675  0.9377
   70TP3      O12028   2.459   2.970   9.336  0.0544  0.1574  0.0997
   70TP3     H112029   2.389   2.920   9.379  0.2436 -1.1345 -1.0809
   70TP3     H212030   2.530   2.970   9.400 -0.2809 -0.2764  0.4789
   71TP3      O12031   2.931   3.692   1.519 -0.1592  0.7426 -0.0156
   71TP3     H112032   2.872   3.767   1.517 -1.5853 -0.3520 -0.5840
   71TP3     H212033   2.910   3.649   1.603 -1.7739 -0.8609 -1.2027
   72TP3      O12034   0.572   3.697   1.442 -0.3048 -0.1837 -0.6375
   72TP3     H112035   0.575   3.784   1.481  0.9904 -0.5541  0.1250
   72TP3     H212036   0.655   3.688   1.396  0.5641 -1.8406  1.1619
   73TP3      O12037   2.659   4.763   0.557 -0.6470 -0.0470  0.0536
   73TP3     H112038   2.672   4.726   0.470  4.7833  1.2119  0.1889
   73TP3     H212039   2.701   4.700   0.616  1.0755  2.0278  1.1149
   74TP3      O12040   1.087   3.237   7.901  0.2270  0.1092  0.2806
   74TP3     H112041   0.993   3.228   7.920  0.0783  2.9614  1.1158
   74TP3     H212042   1.125   3.154   7.930 -1.9805 -0.9329  0.2912
   75TP3      O12043   1.434   1.650   7.746  0.3872 -0.2662 -0.2400
   75TP3     H112044   1.343   1.620   7.748  0.2373  0.2878  1.4779
   75TP3     H212045   1.431   1.732   7.697 -0.4566  1.1345  2.1302
   76TP3      O12046   0.932   0.206   8.027 -0.1293  0.5983 -0.4203
   76TP3     H112047   0.954   0.140   7.962  0.1148 -0.7474  0.9886
   76TP3     H212048   0.885   0.273   7.978 -1.3297 -1.1287 -1.7072
   77TP3      O12049   1.004   2.906   0.766  0.7140  0.1265  0.2571
   77TP3     H112050   0.923   2.943   0.730 -0.1610 -2.1830 -0.2668
   77TP3     H212051   1.055   2.882   0.689  0.2136 -1.9264  0.5416
   78TP3      O12052   2.101   1.699   6.907 -0.4424 -0.0539  0.1946
   78TP3     H112053   2.164   1.634   6.876  0.1222  0.8078 -0.4722
   78TP3     H212054   2.019   1.675   6.863  0.1481  0.6409 -1.3251
   79TP3      O12055   2.210   3.364   0.105 -0.6455  0.5580 -0.4102
   79TP3     H112056   2.177   3.309   0.176  0.6005  0.0630 -0.2072
   79TP3     H212057   2.264   3.429   0.149  0.7533 -0.2142 -0.9760
   80TP3      O12058   0.250   0.488   7.871 -0.6626 -0.4804  0.0554
   80TP3     H112059   0.335   0.444   7.873 -0.4292 -0.0799 -0.8397
   80TP3     H212060   0.247   0.537   7.953  0.3935  0.2720 -0.3423
   81TP3      O12061   0.384   4.370   8.742 -0.0758  0.2896 -0.2239
   81TP3     H112062   0.303   4.415   8.768 -0.4591 -0.7535  0.4120
   81TP3     H212063   0.356   4.306   8.677  0.2507  0.0384 -0.1219
   82TP3      O12064   3.467   0.374   9.293  0.1176 -0.1195 -0.1088
   82TP3     H112065   3.532   0.441   9.315 -1.0073  0.2493  2.2174
   82TP3     H212066   3.385   0.423   9.283 -0.0875 -0.7610 -1.6429
   83TP3      O12067   4.962   0.899   2.487  0.1547  0.2114 -0.0105
   83TP3     H112068   4.901   0.963   2.450 -0.7625  1.7801  4.0438
   83TP3     H212069   5.044   0.947   2.498  0.9049 -0.6971 -1.3560
   84TP3      O12070   3.488   2.063   0.924 -0.1135  0.4123 -0.0676
   84TP3     H112071   3.554   2.051   0.856  1.1121  1.4682  0.9293
   84TP3     H212072   3.407   2.031   0.883  0.7133  0.4589 -1.8131
   85TP3      O12073   1.647   0.044   0.733  0.0539 -0.1192 -0.8933
   85TP3     H112074   1.653   0.006   0.645  1.4442 -2.1049 -0.0054
   85TP3     H212075   1.720   0.106   0.737  1.3204 -1.5883 -0.4732
   86TP3      O12076   1.750   5.229   9.604  0.9637 -0.6635  0.4318
   86TP3     H112077   1.799   5.225   9.687 -0.1589  0.5612  1.1808
   86TP3     H212078   1.779   5.152   9.556  2.2226 -0.9822  1.6431
   87TP3      O12079   5.407   2.404   7.569 -0.0164 -1.0028 -0.1525
   87TP3     H112080   5.406   2.337   7.500  2.7809  0.3587 -1.5845
   87TP3     H212081   5.377   2.484   7.526  0.9693 -0.3191  0.4102
   88TP3      O12082   5.356   1.031   8.546  0.6123 -0.2994  0.0944
   88TP3     H112083   5.423   0.967   8.566 -0.4401 -1.8354 -1.1134
   88TP3     H212084   5.280   1.004   8.598 -0.5186 -1.3718 -1.9890
   89TP3      O12085   0.958   2.724   6.869 -0.8613  0.1299 -0.2890
   89TP3     H112086   1.019   2.754   6.801 -3.2721  1.8693 -1.7503
   89TP3     H212087   1.008   2.733   6.950  1.3033  0.1787 -1.5650
   90TP3      O12088   0.858   4.307   6.781  0.4443  0.1122 -0.0417
   90TP3     H112089   0.941   4.315   6.733  1.3331  1.8266  1.6664
   90TP3     H212090   0.830   4.398   6.794 -1.3972 -0.4437 -0.0623
   91TP3      O12091   2.151   0.315   7.948 -0.1670 -0.6085 -0.5397
   91TP3     H112092   2.196   0.372   7.886 -0.5326  1.1807  0.7928
   91TP3     H212093   2.152   0.363   8.031 -2.4544 -1.5286  0.0907
   92TP3      O12094   0.754   0.667   8.971  0.2172 -0.6943 -0.5578
   92TP3     H112095   0.801   0.611   8.909  1.6817 -0.1915  0.0664
   92TP3     H212096   0.688   0.712   8.918  0.5401 -1.3032 -1.4830
   93TP3      O12097   5.511   4.276   9.635 -0.0483  0.8005 -0.4145
   93TP3     H112098   5.593   4.252   9.679  0.1915  1.2189 -0.6346
   93TP3     H212099   5.525   4.253   9.543 -1.1569 -1.6464 -0.0205
   94TP3      O12100   0.932   2.758   7.921  0.0316  0.3877 -0.8434
   94TP3     H112101   0.864   2.782   7.984  0.3827 -2.6360  0.7828
   94TP3     H212102   0.972   2.841   7.897 -2.1197  1.9113  0.5894
   95TP3      O12103   5.146   2.118   7.668 -0.2920 -0.2473 -0.3028
   95TP3     H112104   5.220   2.160   7.711  0.5214 -1.0128 -0.9289
   95TP3     H212105   5.148   2.028   7.700 -1.7399  0.0472  0.6792
   96TP3      O12106   5.248   4.071   9.155  0.0060 -0.0085  0.2781
   96TP3     H112107   5.309   3.998   9.163 -0.2437 -0.3337 -0.7453
   96TP3     H212108   5.213   4.063   9.066 -0.1288  1.2716  0.2178
   97TP3      O12109   0.294   1.753   8.317 -0.3372 -0.2229  0.3296
   97TP3     H112110   0.287   1.668   8.359  1.8590 -0.8510 -0.5334
   97TP3     H212111   0.348   1.806   8.376 -1.7846  0.6286  0.9184
   98TP3      O12112   0.970   4.867   8.362  0.1678 -0.0877  0.3755
   98TP3     H112113   0.976   4.904   8.274  2.1838 -0.8110  0.1573
   98TP3     H212114   0.941   4.939   8.417  0.2165  0.7514 -0.6780
   99TP3      O12115   4.554   1.665   9.876  0.0602 -0.6263 -0.0468
   99TP3     H112116   4.460   1.666   9.895  0.2467 -0.2941  0.9144
   99TP3     H212117   4.588   1.592   9.927  0.3848 -0.4913 -0.0688
  100TP3      O12118   5.341   1.790   7.261 -0.3379  0.3901  0.0400
  100TP3     H112119   5.378   1.702   7.270 -1.6514 -0.0399  1.3920
  100TP3     H212120   5.391   1.844   7.322  0.2525  0.5254 -0.5554
  101TP3      O12121   3.786   5.493   8.589 -0.0878 -0.8801 -0.0859
  101TP3     H112122   3.863   5.442   8.612  0.8352  0.4572 -0.1872
  101TP3     H212123   3.767   5.545   8.666 -1.9005 -2.4050  0.5356
  102TP3      O12124   1.417   0.992   7.769  0.7634 -0.0584  0.5997
  102TP3     H112125   1.503   0.968   7.734  0.8450 -1.2745  1.5736
  102TP3     H212126   1.434   1.014   7.861 -0.2463 -2.3568  1.3824
  103TP3      O12127   0.146   0.031   6.925 -0.7090 -0.2459  0.0144
  103TP3     H112128   0.184   0.116   6.903 -0.1278 -0.8198 -1.2287
  103TP3     H212129   0.096   0.047   7.005  0.2544  1.0269  0.3659
  104TP3      O12130   2.374   1.983   8.743  0.6933  0.3041  0.0621
  104TP3     H112131   2.385   1.918   8.812 -4.2860 -0.1230  0.6235
  104TP3     H212132   2.338   1.934   8.669 -0.0576  1.8126 -0.6113
  105TP3      O12133   0.354   5.054   7.325 -0.6183  0.5160 -0.5787
  105TP3     H112134   0.260   5.062   7.305 -0.5227  2.1002 -0.4780
  105TP3     H212135   0.395   5.042   7.239 -0.8501  0.6232 -0.7067
  106TP3      O12136   5.038   4.834   7.129  0.0891 -0.3959  0.2574
  106TP3     H112137   4.946   4.840   7.154 -0.6420  1.2414 -2.5520
  106TP3     H212138   5.076   4.917   7.157  0.8316 -1.2097  1.7252
  107TP3      O12139   5.508   0.501   7.501  0.4017  0.1603 -0.0046
  107TP3     H112140   5.561   0.564   7.551  1.2458  0.0774 -0.7791
  107TP3     H212141   5.552   0.495   7.416 -0.1085 -0.8940 -0.2025
  108TP3      O12142   0.601   3.395   7.970  0.1871  0.4177 -0.3162
  108TP3     H112143   0.557   3.429   7.892 -1.6106 -0.1147  0.4315
  108TP3     H212144   0.624   3.473   8.020 -0.9303  0.6704 -0.1859
  109TP3      O12145   0.969   5.326   7.948  0.4636  0.1726 -0.2848
  109TP3     H112146   0.884   5.322   7.991  1.3003 -0.4679  1.3656
  109TP3     H212147   0.954   5.287   7.862 -0.6004 -1.2908  0.5348
  110TP3      O12148   4.048   1.116   8.199  0.2414  0.5496 -0.1225
  110TP3     H112149   4.116   1.167   8.155 -0.9499  1.6359 -0.7456
  110TP3     H212150   4.087   1.089   8.282  0.9226  2.3754  0.1649
  111TP3      O12151   4.615   3.010   7.546 -0.3780  0.0980 -0.0094
  111TP3     H112152   4.553   2.944   7.575  1.2485 -1.6313 -0.3905
  111TP3     H212153   4.681   3.013   7.615 -0.3181  1.1872 -0.1005
  112TP3      O12154   2.006   2.742   7.786 -0.1672 -0.6274 -0.0323
  112TP3     H112155   1.947   2.677   7.823 -0.9276 -0.6817 -1.3302
  112TP3     H212156   2.039   2.703   7.706  0.0963  0.2103 -0.3401
  113TP3      O12157   0.494   0.176   9.568  0.1345 -0.2765  0.2598
  113TP3     H112158   0.410   0.129   9.573  0.0831 -0.2398 -0.2570
  113TP3     H212159   0.547   0.124   9.508 -0.0167  0.4718 -0.5249
  114TP3      O12160   1.651   0.788   7.461  0.3023 -0.3636 -0.3405
  114TP3     H112161   1.587   0.807   7.393  0.5300 -1.0280 -0.7433
  114TP3     H212162   1.729   0.837   7.435  0.3654 -0.5585 -0.5168
  115TP3      O12163   2.891   0.129   7.540 -0.0888 -0.2139  0.2609
  115TP3     H112164   2.936   0.161   7.618  0.8417  0.0639 -0.3839
  115TP3     H212165   2.949   0.152   7.467 -0.9052 -0.5476 -0.5085
  116TP3      O12166   1.514   2.682   7.592  0.5506 -0.3286 -0.0600
  116TP3     H112167   1.420   2.700   7.580  0.8272  1.2041 -0.0076
  116TP3     H212168   1.518   2.588   7.611 -0.9745 -0.4108 -0.0798
  117TP3      O12169   4.230   0.278   9.262  0.3041 -0.1290 -0.0783
  117TP3     H112170   4.293   0.214   9.297  0.6145 -0.0266 -0.4408
  117TP3     H212171   4.145   0.240   9.281  0.4611  0.1644  1.2245
  118TP3      O12172   5.193   1.250   7.743  0.0275  0.0094  0.0342
  118TP3     H112173   5.179   1.344   7.735 -0.0970 -0.0804 -0.8526
  118TP3     H212174   5.118   1.219   7.794  1.6295  0.8182  3.0206
  119TP3      O12175   1.039   1.949   6.637  0.1335  0.1081 -0.3991
  119TP3     H112176   1.093   1.927   6.713 -2.2311 -1.8159  0.7888
  119TP3     H212177   0.987   1.871   6.621 -2.5175  1.9917 -1.3044
  120TP3      O12178   1.219   1.314   6.856  0.4070 -0.6467  0.4124
  120TP3     H112179   1.224   1.362   6.773 -0.0641 -0.3773  0.5355
  120TP3     H212180   1.280   1.361   6.914  1.5799 -1.5161 -0.1109
  121TP3      O12181   2.569   2.492   2.284  0.2135 -0.2979 -0.1759
  121TP3     H112182   2.596   2.565   2.340  0.0249  0.8101 -1.5024
  121TP3     H212183   2.563   2.530   2.196 -0.8634 -1.6805 -0.7189
  122TP3      O12184   4.771   2.989   8.346 -0.2635  0.1303  0.1816
  122TP3     H112185   4.786   2.942   8.264  0.2906  0.9597 -0.2063
  122TP3     H212186   4.679   3.015   8.341 -0.3773 -0.2903  0.0669
  123TP3      O12187   1.429   1.493   8.382  0.1467  0.0551 -0.4001
  123TP3     H112188   1.396   1.488   8.292 -0.4043  0.9176 -0.2502
  123TP3     H212189   1.359   1.536   8.431  0.2804 -0.7686  0.5325
  124TP3      O12190   3.662   0.706   7.827 -0.2109  0.4005  0.1501
  124TP3     H112191   3.602   0.756   7.883 -1.2626 -0.5628 -0.0899
  124TP3     H212192   3.645   0.739   7.738  1.9728  2.4412  0.4482
  125TP3      O12193   3.559   0.586   6.874 -0.2572  0.2138  0.0571
  125TP3     H112194   3.478   0.635   6.885  0.4948  1.6082 -0.5718
  125TP3     H212195   3.621   0.628   6.934  0.3974  0.0542 -0.4945
  126TP3      O12196   1.820   2.763   8.689 -0.5655 -0.1263  0.7619
  126TP3     H112197   1.915   2.752   8.695 -0.5563 -0.4793 -0.0465
  126TP3     H212198   1.798   2.741   8.599 -1.5364 -0.8814  1.1670
  127TP3      O12199   2.235   5.213   7.563  0.6735  0.4308 -0.4068
  127TP3     H112200   2.276   5.254   7.639  1.6719 -2.4437  0.6370
  127TP3     H212201   2.295   5.144   7.537 -1.3187 -0.8986 -1.6433
  128TP3      O12202   4.956   1.159   7.917 -0.2058 -0.0403 -0.1209
  128TP3     H112203   4.912   1.244   7.917  1.4993  0.8776  1.3446
  128TP3     H212204   4.923   1.116   7.996  0.1194 -0.1067 -0.0229
  129TP3      O12205   0.992   0.879   6.950 -1.2504 -0.2033 -0.1399
  129TP3     H112206   0.908   0.925   6.952  0.1391  2.4029  0.1513
  129TP3     H212207   1.057   0.947   6.965  0.7998 -2.5411  1.9435
  130TP3      O12208   0.808   4.783   9.397  0.4030 -0.5562 -0.3194
  130TP3     H112209   0.876   4.771   9.463 -0.1693  2.0546  0.8210
  130TP3     H212210   0.738   4.724   9.423  0.6133 -0.3043  0.8378
  131TP3      O12211   1.066   0.630   6.900  0.2756  0.2367  0.1118
  131TP3     H112212   0.980   0.594   6.876 -0.0933  0.2233  1.4266
  131TP3     H212213   1.049   0.723   6.917  0.6337  0.3600 -0.2169
  132TP3      O12214   5.187   1.125   8.071 -0.4092  0.2239  0.1955
  132TP3     H112215   5.113   1.149   8.015 -0.4068  1.2876  0.6246
  132TP3     H212216   5.264   1.158   8.025 -0.3655  0.6688  0.5782
  133TP3      O12217   4.893   1.689  10.164  0.2710 -0.6042  0.0008
  133TP3     H112218   4.960   1.622  10.148  1.4775  0.3422  0.8873
  133TP3     H212219   4.932   1.769  10.130 -0.7062 -0.1578 -0.0732
  134TP3      O12220   1.336   2.864   9.734  0.0498 -0.1479 -0.1824
  134TP3     H112221   1.424   2.853   9.699 -0.0717  0.6057 -0.7316
  134TP3     H212222   1.349   2.879   9.828  0.3660 -2.2387  0.1427
  135TP3      O12223   2.382   0.767   7.487 -0.5690  0.2804 -0.2866
  135TP3     H112224   2.470   0.762   7.448 -0.8240  0.0218 -0.8303
  135TP3     H212225   2.353   0.676   7.494 -0.7612  0.3605 -0.0326
  136TP3      O12226   1.271   2.059   8.135 -0.2401  0.5102  0.1055
  136TP3     H112227   1.363   2.080   8.154 -0.5322  1.4706  0.4638
  136TP3     H212228   1.239   2.134   8.084 -0.9544  0.3796  0.3591
  137TP3      O12229   0.349   1.903   7.114 -0.5352  0.3626  0.1694
  137TP3     H112230   0.342   1.992   7.150  1.8374  0.5363  0.2794
  137TP3     H212231   0.317   1.847   7.184 -1.3245  1.0837  0.3990
  138TP3      O12232   3.717   2.535  10.271 -0.1497 -0.2350  0.4686
  138TP3     H112233   3.679   2.517  10.357  0.9090  1.0247  1.2289
  138TP3     H212234   3.789   2.596  10.289 -0.5242  0.8078 -1.4252
  139TP3      O12235   2.242   2.111   9.018 -0.1717 -0.1647 -0.0348
  139TP3     H112236   2.215   2.165   8.944 -1.7265 -1.6208 -0.5598
  139TP3     H212237   2.317   2.158   9.055 -1.8715  2.7062 -0.0587
  140TP3      O12238   0.823   2.797   7.246  0.4033 -0.1854  0.4372
  140TP3     H112239   0.853   2.888   7.255 -0.2348  0.0845 -0.1011
  140TP3     H212240   0.732   2.805   7.219  0.3869 -0.9910  0.2550
  141TP3      O12241   2.362   0.555   8.673 -0.1693  0.4756  0.1593
  141TP3     H112242   2.274   0.575   8.705 -0.4301 -0.2197 -0.0964
  141TP3     H212243   2.390   0.634   8.627  0.3121  1.5813  2.2787
  142TP3      O12244   4.512   3.728   9.713  0.2821 -0.0601  0.3925
  142TP3     H112245   4.518   3.817   9.679  1.5169  0.3933  1.7709
  142TP3     H212246   4.555   3.674   9.646  0.2422  0.4668 -0.0650
  143TP3      O12247   1.169   0.208   7.297 -0.2351  0.7373  0.0739
  143TP3     H112248   1.079   0.179   7.305 -0.1289  0.6766  1.0135
  143TP3     H212249   1.211   0.141   7.242 -0.4012 -0.0010  0.8433
  144TP3      O12250   1.873   2.460   8.615  0.3467  0.1946 -0.1199
  144TP3     H112251   1.910   2.472   8.702  0.9211  0.9304 -0.4605
  144TP3     H212252   1.827   2.376   8.620  2.4000 -0.9521  0.1878
  145TP3      O12253   1.440   4.981   9.780 -0.2202 -0.0347 -0.0530
  145TP3     H112254   1.388   4.920   9.728 -0.7378  0.9717 -0.7211
  145TP3     H212255   1.530   4.964   9.753 -0.2557 -1.1857  0.4892
  146TP3      O12256   2.199   3.772   8.062  0.0979  0.0290  0.0611
  146TP3     H112257   2.242   3.752   7.979  0.2490  0.2352  0.0871
  146TP3     H212258   2.140   3.698   8.078  0.2047 -0.0980 -0.1380
  147TP3      O12259   2.350   4.490   7.518  0.5612 -0.1068  0.3954
  147TP3     H112260   2.349   4.407   7.471 -0.8778  0.6843 -1.0349
  147TP3     H212261   2.268   4.533   7.492  2.0917  2.5132 -0.2862
  148TP3      O12262   0.241   0.302   6.887  0.1912  0.1661 -0.3693
  148TP3     H112263   0.198   0.355   6.820  1.8499  0.6215 -1.0996
  148TP3     H212264   0.238   0.356   6.967  1.6909  1.3155 -1.0555
  149TP3      O12265   1.480   1.062   8.033 -0.4131 -0.2116 -0.1589
  149TP3     H112266   1.552   1.010   8.068  0.1746  0.7503  0.0720
  149TP3     H212267   1.510   1.153   8.040 -1.7513  0.2207  0.1999
  150TP3      O12268   3.889   3.431   7.772 -0.4076 -0.6442 -0.4357
  150TP3     H112269   3.886   3.390   7.859  1.0616 -3.1589 -1.5365
  150TP3     H212270   3.981   3.427   7.746 -0.3888  2.4896 -1.0300
  151TP3      O12271   1.492   1.870   7.297  0.0582  0.0868  0.0422
  151TP3     H112272   1.451   1.912   7.373  1.7414  1.1420  0.3742
  151TP3     H212273   1.419   1.855   7.236 -0.8922  1.5690  0.7820
  152TP3      O12274   1.698   1.428   9.666 -0.5588  0.3212  0.0995
  152TP3     H112275   1.692   1.483   9.588 -0.3780  0.7284  0.3690
  152TP3     H212276   1.609   1.423   9.699 -0.7768 -0.5532 -0.6088
  153TP3      O12277   5.273   2.664   9.422 -0.2535 -0.0059 -0.0283
  153TP3     H112278   5.335   2.591   9.422 -1.1679 -0.8157  1.8255
  153TP3     H212279   5.197   2.631   9.374 -1.4566 -1.0176  2.4824
  154TP3      O12280   5.179   2.596   0.479  0.9794  0.2711 -0.1634
  154TP3     H112281   5.248   2.533   0.460  0.1601 -0.7485  0.2212
  154TP3     H212282   5.105   2.569   0.424  1.0698  1.7110 -1.0222
  155TP3      O12283   0.698   0.786   7.067 -0.9955 -0.2684  0.1957
  155TP3     H112284   0.699   0.877   7.040 -1.3557 -0.6830 -1.2793
  155TP3     H212285   0.735   0.738   6.993  0.8471 -1.1555  1.6321
  156TP3      O12286   4.833   4.073   8.115 -0.1304  0.1189 -0.6213
  156TP3     H112287   4.828   4.092   8.208  0.4646 -1.4418 -0.2643
  156TP3     H212288   4.892   4.140   8.080  0.2110  0.2771  0.2486
  157TP3      O12289   0.702   3.490   9.753 -0.2497  0.1717  0.1724
  157TP3     H112290   0.659   3.481   9.667 -1.9685  1.0508  0.9083
  157TP3     H212291   0.770   3.556   9.738  0.2000 -0.4900 -0.7727
  158TP3      O12292   1.017   2.236   6.907  0.4510 -0.0577  0.1304
  158TP3     H112293   1.059   2.162   6.951 -1.3089 -0.7398  0.7383
  158TP3     H212294   0.987   2.292   6.978  0.8213  0.6987 -0.3046
  159TP3      O12295   0.990   0.641   7.797  0.2498  0.0028  0.5303
  159TP3     H112296   1.002   0.547   7.782  0.2925  0.3218 -1.5654
  159TP3     H212297   0.896   0.650   7.813  0.2329 -0.3739  0.6691
  160TP3      O12298   1.611   2.990   7.964 -0.3305 -0.2435  0.5213
  160TP3     H112299   1.579   3.003   8.053 -0.9166 -1.1508  0.4420
  160TP3     H212300   1.687   3.048   7.958 -0.5125  0.1094  1.4830
  161TP3      O12301   2.030   4.877   0.275  0.4030 -0.0298 -0.2116
  161TP3     H112302   1.941   4.900   0.248  0.2240 -3.0959 -2.4647
  161TP3     H212303   2.083   4.892   0.196  1.2684 -1.5540  0.0630
  162TP3      O12304   0.354   1.670   0.153 -0.3700 -0.5310  0.3417
  162TP3     H112305   0.347   1.766   0.151  0.1626 -0.4902  0.3478
  162TP3     H212306   0.265   1.639   0.135 -0.3860 -0.0404 -0.4529
  163TP3      O12307   1.343   4.237  10.067  0.0906 -0.1889  0.6441
  163TP3     H112308   1.389   4.193   9.996  3.2077  0.6023  2.0852
  163TP3     H212309   1.349   4.330  10.047 -1.4429 -0.0887  0.5542
  164TP3      O12310   0.435   3.726   7.747  0.0010 -0.4693  0.5240
  164TP3     H112311   0.391   3.723   7.832 -2.4848 -1.0581 -0.7240
  164TP3     H212312   0.418   3.814   7.714  2.6340  0.4307  1.4313
  165TP3      O12313   5.026   0.268   8.575  0.0980 -0.0304 -0.0488
  165TP3     H112314   4.954   0.249   8.636  0.3861  1.2143  0.7102
  165TP3     H212315   5.023   0.197   8.511 -0.4777 -1.1254  1.1757
  166TP3      O12316   5.075   1.493  10.093  0.5287  0.4091 -0.0776
  166TP3     H112317   5.094   1.556  10.024 -1.8233  0.7365 -0.4648
  166TP3     H212318   5.023   1.425  10.050  1.0146 -0.5821  0.8655
  167TP3      O12319   1.129   3.522   8.375 -0.1828  0.0792  0.2023
  167TP3     H112320   1.150   3.589   8.310  0.4323 -0.5715 -0.2865
  167TP3     H212321   1.134   3.439   8.326 -0.8443 -0.3314  0.8158
  168TP3      O12322   3.466   0.621   9.073 -0.2647  0.3210  0.2323
  168TP3     H112323   3.488   0.609   9.166  0.2716  2.4054  0.4032
  168TP3     H212324   3.534   0.574   9.026  0.5448  0.8176  0.8825
  169TP3      O12325   5.505   4.949   9.628  0.0717 -0.6418  0.2310
  169TP3     H112326   5.410   4.945   9.633  0.0220  1.6374  2.9588
  169TP3     H212327   5.523   4.997   9.548 -1.0550 -1.4836 -0.5317
  170TP3      O12328   1.224   1.730   0.589  0.4766  0.3160 -0.0679
  170TP3     H112329   1.219   1.641   0.554 -1.0520  0.8112 -1.1645
  170TP3     H212330   1.314   1.740   0.618  0.4442 -1.8878  0.8355
  171TP3      O12331   5.490   0.806   0.336  0.1155  0.1841 -0.0486
  171TP3     H112332   5.480   0.776   0.427  0.7089 -0.8507 -0.3260
  171TP3     H212333   5.583   0.828   0.328  0.2582 -0.6572 -0.6984
  172TP3      O12334   1.489   2.162   8.647 -0.2967 -0.3328 -0.1245
  172TP3     H112335   1.396   2.150   8.664 -0.7184 -0.7610 -2.5954
  172TP3     H212336   1.494   2.244   8.596  0.7404  0.0052  0.4948
  173TP3      O12337   0.163   3.425   8.913  0.5342  0.1635 -0.3629
  173TP3     H112338   0.212   3.376   8.846  0.7257  0.8518 -0.7254
  173TP3     H212339   0.071   3.404   8.895  0.5608  0.6527 -1.0830
  174TP3      O12340   0.864   5.285   7.165  0.0637 -0.8299 -0.0090
  174TP3     H112341   0.793   5.224   7.146 -0.9549 -0.0170  1.0820
  174TP3     H212342   0.930   5.268   7.097 -0.5667 -2.5409 -0.2111
  175TP3      O12343   1.231   3.092  10.146 -0.8237  0.0539  0.0248
  175TP3     H112344   1.152   3.070  10.097 -0.4864  0.1243 -0.5605
  175TP3     H212345   1.291   3.128  10.080 -0.3980  0.2356  0.5069
  176TP3      O12346   0.030   4.675   8.158 -0.3966  0.0028  0.2042
  176TP3     H112347  -0.005   4.616   8.224  2.1065  1.2302  2.7171
  176TP3     H212348  -0.047   4.708   8.112 -2.0295 -2.6799  0.9101
  177TP3      O12349   0.359   2.003   9.170 -0.6691 -0.2576 -0.4680
  177TP3     H112350   0.397   1.985   9.257  0.6728 -1.1818 -1.2191
  177TP3     H212351   0.427   2.053   9.125 -1.1575 -0.2041 -1.1435
  178TP3      O12352   3.850   1.186   1.152 -0.1105 -0.4487  0.1791
  178TP3     H112353   3.842   1.227   1.066  2.6816  1.3890  0.7071
  178TP3     H212354   3.925   1.126   1.143 -0.8917 -1.5578  0.8699
  179TP3      O12355   2.364   4.821   7.801  0.3330 -0.3897 -0.4287
  179TP3     H112356   2.420   4.746   7.780  0.4458  0.4592 -3.2838
  179TP3     H212357   2.425   4.894   7.812  0.0439 -0.2289  0.1646
  180TP3      O12358   2.631   3.554   8.656  0.0941 -0.0086  0.5402
  180TP3     H112359   2.644   3.588   8.744  1.3791 -2.5252  1.3663
  180TP3     H212360   2.598   3.629   8.606 -0.5082  1.4781  3.0991
  181TP3      O12361   3.239   0.727   8.983 -0.4526 -0.2201  0.2867
  181TP3     H112362   3.203   0.766   9.063  1.4509 -1.2113  1.6675
  181TP3     H212363   3.324   0.692   9.010  0.3204 -0.3652 -2.2382
  182TP3      O12364   2.012   1.932   8.463  0.1701 -0.6405  0.6718
  182TP3     H112365   1.994   2.026   8.464  0.2625 -0.5014 -3.3220
  182TP3     H212366   1.928   1.892   8.441  0.2988 -1.4909  1.6700
  183TP3      O12367   1.838   2.438   7.789 -0.2377  0.1454  0.3575
  183TP3     H112368   1.826   2.465   7.880 -0.4539 -1.6002  0.8536
  183TP3     H212369   1.911   2.376   7.792 -0.5706 -0.2908 -0.5899
  184TP3      O12370   1.133   3.179   7.638  0.4764 -0.0211 -0.0454
  184TP3     H112371   1.182   3.250   7.596  0.0960  0.0343 -0.4076
  184TP3     H212372   1.104   3.215   7.722  2.3144 -0.5556  0.8321
  185TP3      O12373   0.855   3.044   6.876  0.0596  0.4709 -0.1583
  185TP3     H112374   0.931   2.997   6.911 -0.3214 -0.2421 -0.2639
  185TP3     H212375   0.882   3.136   6.874  0.5939  0.3397  0.6576
  186TP3      O12376   1.773   4.469   0.040  0.0383  0.9636 -0.0829
  186TP3     H112377   1.766   4.564   0.033  1.0487  1.0991  0.5354
  186TP3     H212378   1.835   4.444  -0.029  0.7452  0.9108  0.5575
  187TP3      O12379   2.800   5.191   9.136 -0.2365  0.0639  0.1184
  187TP3     H112380   2.743   5.172   9.210 -0.8897  0.6118 -0.2360
  187TP3     H212381   2.751   5.255   9.084  1.5038  1.9810  0.7831
  188TP3      O12382   2.096   1.258   9.466 -0.0561  0.0164 -0.2656
  188TP3     H112383   2.041   1.266   9.544 -0.8790 -2.5927 -0.5604
  188TP3     H212384   2.175   1.214   9.496 -0.4771 -1.2170 -0.9317
  189TP3      O12385   3.337   4.538   8.632 -0.0869  0.0887 -0.1018
  189TP3     H112386   3.361   4.593   8.706  1.5349 -0.3216 -0.3081
  189TP3     H212387   3.415   4.537   8.576 -0.8325 -0.6821 -1.1571
  190TP3      O12388   3.387   1.383   7.377  0.1420 -0.6042  0.2615
  190TP3     H112389   3.352   1.310   7.326 -0.2890 -0.8607  0.9111
  190TP3     H212390   3.438   1.341   7.447  2.0312 -0.2285 -0.8634
  191TP3      O12391   0.838   0.820   9.832 -0.2143  0.4054  0.0581
  191TP3     H112392   0.886   0.753   9.782 -1.9697 -0.6800 -0.2214
  191TP3     H212393   0.761   0.838   9.779 -0.4583  1.6666  0.8176
  192TP3      O12394   2.750   4.870   8.379 -0.1972  0.4491 -0.6033
  192TP3     H112395   2.752   4.854   8.284  1.1483  1.4771 -0.7662
  192TP3     H212396   2.842   4.888   8.402 -0.2263 -1.4878  1.2063
  193TP3      O12397   1.862   2.011   0.835  0.0563  0.1400  0.2616
  193TP3     H112398   1.905   2.084   0.880 -2.0728  1.7666 -0.2879
  193TP3     H212399   1.776   2.005   0.876 -1.4250  0.7916 -2.6041
  194TP3      O12400   0.768   0.302   0.444  0.4051  0.1409  0.4265
  194TP3     H112401   0.704   0.349   0.391 -0.1284 -1.8938 -0.7974
  194TP3     H212402   0.852   0.339   0.420 -0.0009  0.4661 -0.5198
  195TP3      O12403   1.654   4.728   7.660  0.3435 -0.4588  0.9892
  195TP3     H112404   1.699   4.741   7.577  0.3586  1.4886  1.2625
  195TP3     H212405   1.678   4.640   7.688  0.5340 -1.0208 -0.9454
  196TP3      O12406   2.889   4.861   9.729 -0.0289  0.1006 -0.1015
  196TP3     H112407   2.799   4.847   9.757 -0.2361 -0.0378 -0.8160
  196TP3     H212408   2.939   4.794   9.776 -0.2442  0.4136  0.5790
  197TP3      O12409   1.396   0.731  10.278  0.2637  0.1125  0.3197
  197TP3     H112410   1.491   0.724  10.276  0.4185  1.4484  2.0575
  197TP3     H212411   1.378   0.825  10.281 -1.1514 -0.0822 -0.9837
  198TP3      O12412   1.901   2.760   7.380 -0.1854  0.4451  0.8107
  198TP3     H112413   1.915   2.673   7.418 -0.5887 -0.1534 -0.3682
  198TP3     H212414   1.912   2.746   7.286 -4.2619  0.8081  0.1760
  199TP3      O12415   0.350   3.984   7.620  0.2349  0.1836 -0.3016
  199TP3     H112416   0.278   4.027   7.666  0.4388  0.8997 -0.6393
  199TP3     H212417   0.342   4.015   7.530  2.7897  2.7142  0.2675
  200TP3      O12418   4.492   5.303   9.028 -0.0217 -0.0237 -0.5673
  200TP3     H112419   4.421   5.364   9.007  2.2862  2.2981 -1.7572
  200TP3     H212420   4.479   5.230   8.967 -1.9311 -0.0904 -0.1179
  201TP3      O12421   0.523   3.460   8.843 -0.4620 -0.1510 -0.6283
  201TP3     H112422   0.453   3.475   8.780 -1.4896 -0.4831  0.4214
  201TP3     H212423   0.522   3.365   8.858  0.5708 -0.2264 -1.0227
  202TP3      O12424   2.071   4.267   9.126  1.0046 -0.0448 -0.0990
  202TP3     H112425   2.040   4.191   9.077 -0.4541 -0.4134  1.3455
  202TP3     H212426   2.166   4.257   9.130  0.6979 -2.6100  1.4379
  203TP3      O12427   0.677   4.555   9.592 -0.6754 -0.0191  0.1899
  203TP3     H112428   0.662   4.621   9.660 -1.3466 -0.8505  0.8534
  203TP3     H212429   0.589   4.529   9.563 -0.4130 -0.4962 -0.1931
  204TP3      O12430   3.155   3.356   9.081  0.3591  0.0747  0.5339
  204TP3     H112431   3.068   3.336   9.117  0.2177 -3.5432 -1.5249
  204TP3     H212432   3.141   3.432   9.024 -1.6282 -0.8618 -0.2888
  205TP3      O12433   2.632   2.521   0.165  0.0190  0.5282  0.1669
  205TP3     H112434   2.589   2.493   0.246  0.7577 -1.2310 -0.0167
  205TP3     H212435   2.662   2.610   0.183 -0.4544  0.4169  1.5719
  206TP3      O12436   3.416   4.220   7.758  0.1243 -0.3636 -0.1598
  206TP3     H112437   3.344   4.205   7.696 -0.0285  1.3705 -0.4318
  206TP3     H212438   3.394   4.304   7.799  1.4610 -0.3398  0.5169
  207TP3      O12439   3.915   2.816   8.311  0.3370  0.3647 -0.3648
  207TP3     H112440   4.007   2.844   8.302 -0.1173  1.3578 -2.1762
  207TP3     H212441   3.868   2.896   8.335 -0.5890  0.6708 -3.0371
  208TP3      O12442   1.586   0.166   7.749 -0.3198 -0.4267 -0.3080
  208TP3     H112443   1.634   0.105   7.806  0.7935 -0.0906 -0.8677
  208TP3     H212444   1.619   0.253   7.775 -0.5625 -0.1993 -0.7604
  209TP3      O12445   1.241   2.888   9.354 -0.0276  0.6167  0.5754
  209TP3     H112446   1.190   2.820   9.398 -1.1300  0.2247 -1.2338
  209TP3     H212447   1.331   2.856   9.358 -0.3894 -0.4139  0.7288
  210TP3      O12448   0.797   4.659   8.387 -0.3869  0.1963  0.7927
  210TP3     H112449   0.733   4.717   8.427  0.1574  0.1206  1.7876
  210TP3     H212450   0.865   4.717   8.354 -0.5658  0.2167  0.4474
  211TP3      O12451   5.420   1.273   8.957 -0.0129 -0.3986 -0.1489
  211TP3     H112452   5.469   1.198   8.924  1.7048  0.8151 -0.4251
  211TP3     H212453   5.334   1.238   8.978  0.4476 -2.2304 -1.2220
  212TP3      O12454   2.397   3.237   9.106  0.2284 -0.1380 -0.4302
  212TP3     H112455   2.330   3.231   9.174  2.1352 -0.4202  1.5038
  212TP3     H212456   2.401   3.330   9.084  0.4681  0.1530  0.7978
  213TP3      O12457   4.940   0.054   9.483  0.1865 -0.3522  0.6671
  213TP3     H112458   5.001   0.088   9.549  2.0494 -2.1260 -0.0936
  213TP3     H212459   4.959  -0.039   9.478  0.7640 -0.1126 -3.0838
  214TP3      O12460   1.259   0.457   7.934  0.3059  0.0435 -0.0951
  214TP3     H112461   1.197   0.433   7.865  0.6046 -0.1923 -0.2778
  214TP3     H212462   1.306   0.533   7.899  2.6267 -1.9775 -1.4162
  215TP3      O12463   0.717   2.107   7.730  0.3176 -0.6888  0.3534
  215TP3     H112464   0.679   2.187   7.765 -0.9390 -0.6855 -0.9577
  215TP3     H212465   0.697   2.110   7.636  0.8148 -2.2123  0.1807
  216TP3      O12466   0.243   0.651   9.219  0.0889 -0.0560 -0.3389
  216TP3     H112467   0.222   0.559   9.204  0.0259 -0.0683 -0.1798
  216TP3     H212468   0.298   0.676   9.145 -0.8340  0.0919 -0.9853
  217TP3      O12469   1.992   0.139   8.600 -0.0733 -0.3519  0.2125
  217TP3     H112470   2.022   0.163   8.687 -0.1592 -0.6211  0.3175
  217TP3     H212471   2.068   0.098   8.558  0.6146  1.7061 -0.6039
  218TP3      O12472   3.613   1.878   8.550 -0.1305 -0.2352 -0.4963
  218TP3     H112473   3.606   1.850   8.641  0.3026  0.8660 -0.1135
  218TP3     H212474   3.592   1.800   8.499  1.9747 -1.4974  0.5337
  219TP3      O12475   1.607   4.291   8.444  0.1833 -0.6038  0.3994
  219TP3     H112476   1.537   4.256   8.499  0.2245 -2.9087 -0.9653
  219TP3     H212477   1.652   4.355   8.500 -0.4950 -2.0351  2.6221
  220TP3      O12478   4.501   1.571   8.382  0.6125 -0.0765  0.2501
  220TP3     H112479   4.556   1.548   8.307  0.7614  0.5957  0.1571
  220TP3     H212480   4.423   1.611   8.343 -0.9479 -2.9552  0.2366
  221TP3      O12481   2.485   4.597   7.709  0.3560  0.2154  0.2180
  221TP3     H112482   2.578   4.588   7.691  0.1917 -0.3395 -0.3740
  221TP3     H212483   2.442   4.553   7.636 -0.4022  1.8067 -0.3258
  222TP3      O12484   1.543   5.407   8.491  0.3067 -0.2205  0.0255
  222TP3     H112485   1.527   5.322   8.532  1.9910  0.0085  1.2087
  222TP3     H212486   1.636   5.405   8.467 -0.1924  0.4017 -2.0842
  223TP3      O12487   1.328   0.356   7.000 -0.2339  0.1787 -0.0801
  223TP3     H112488   1.302   0.304   6.924  1.3737 -1.1740  0.2552
  223TP3     H212489   1.388   0.299   7.048 -1.4019  0.9146  2.3443
  224TP3      O12490   0.125   1.418   7.601  0.4717 -0.2409  0.4305
  224TP3     H112491   0.049   1.467   7.632  0.8294  0.8235 -0.3770
  224TP3     H212492   0.144   1.454   7.515  1.2053 -1.2772  0.1523
  225TP3      O12493   3.015   1.747   8.273 -0.0473  0.3371  0.5083
  225TP3     H112494   3.022   1.654   8.255 -0.6621  0.2482  0.7100
  225TP3     H212495   3.093   1.786   8.233 -1.1885  0.1202 -2.0262
  226TP3      O12496   1.339   0.618   6.989  0.4176  0.6152 -0.5339
  226TP3     H112497   1.264   0.643   6.935  1.0752  1.0884 -1.2218
  226TP3     H212498   1.335   0.522   6.992  0.9646  0.5223 -2.2667
  227TP3      O12499   0.231   2.580   7.352 -0.1770 -0.4690 -0.1126
  227TP3     H112500   0.209   2.513   7.287  0.2757 -0.1067 -0.6490
  227TP3     H212501   0.267   2.530   7.426  1.8103 -0.7122 -1.2149
  228TP3      O12502   2.337   1.240   6.740  0.1679  0.2596  0.0314
  228TP3     H112503   2.248   1.275   6.748 -0.1134 -0.6471  0.9709
  228TP3     H212504   2.373   1.247   6.828  1.6647  2.2588 -0.7074
  229TP3      O12505   3.539   4.814   8.351  0.4207 -0.4406  0.1629
  229TP3     H112506   3.566   4.723   8.365  0.8220 -0.1182  1.5387
  229TP3     H212507   3.618   4.859   8.323  0.6002 -0.1959  1.0209
  230TP3      O12508   1.264   2.918   0.351 -0.5063 -0.2319 -0.5770
  230TP3     H112509   1.262   2.999   0.301 -0.8253 -0.0430 -0.2658
  230TP3     H212510   1.356   2.907   0.376 -0.8670  1.5400  1.7890
  231TP3      O12511   5.398   4.959   0.886  0.1945 -0.5393  0.2789
  231TP3     H112512   5.389   5.003   0.970  1.2699 -0.0509  0.1463
  231TP3     H212513   5.438   4.874   0.907 -0.3873 -0.7968  0.3566
  232TP3      O12514   1.406   0.259   8.082  0.1052  0.0728 -0.4849
  232TP3     H112515   1.365   0.317   8.018  1.4250  0.3513 -1.0900
  232TP3     H212516   1.362   0.278   8.165 -0.1594  1.2076 -0.8861
  233TP3      O12517   4.338   1.181   7.837 -0.0227 -0.1062  0.1378
  233TP3     H112518   4.396   1.242   7.792  2.0797 -0.8115  1.8343
  233TP3     H212519   4.349   1.200   7.930 -0.5875 -1.9292  0.6124
  234TP3      O12520   1.505   2.356   8.278 -0.2337 -0.3359  0.0907
  234TP3     H112521   1.496   2.449   8.257  0.0126 -0.1934  0.5978
  234TP3     H212522   1.444   2.342   8.351 -0.1947 -0.5469  0.0821
  235TP3      O12523   1.551   3.869   8.205  0.4221  0.0348 -0.0459
  235TP3     H112524   1.518   3.925   8.275  0.3713  0.8793 -0.7435
  235TP3     H212525   1.589   3.929   8.141  0.8629 -0.7562 -0.5406
  236TP3      O12526   3.635   1.007   9.265  0.5940 -0.2268  0.2825
  236TP3     H112527   3.688   0.934   9.298  0.0113  0.9195  4.0038
  236TP3     H212528   3.666   1.083   9.315 -0.0094  1.7514 -2.2886
  237TP3      O12529   3.210   5.375   8.948 -0.4391  0.4546 -0.2238
  237TP3     H112530   3.171   5.388   8.862 -2.1461  0.1739  0.4763
  237TP3     H212531   3.273   5.446   8.957  0.0088  0.2792 -1.8265
  238TP3      O12532   3.006   4.641   9.848 -0.1574  0.3299  0.0060
  238TP3     H112533   3.101   4.652   9.847 -0.1227  0.0551  0.3414
  238TP3     H212534   2.991   4.561   9.897 -0.5271 -0.0418 -0.6999
  239TP3      O12535   1.728   5.134   8.675  0.2788 -0.1351 -0.0999
  239TP3     H112536   1.654   5.131   8.613  1.2781  0.0358 -1.3221
  239TP3     H212537   1.796   5.183   8.629  1.3473 -0.7315  0.8107
  240TP3      O12538   1.309   3.441   7.896 -0.6794 -0.2098  0.2290
  240TP3     H112539   1.248   3.370   7.917 -1.4001  0.4654  0.4464
  240TP3     H212540   1.319   3.489   7.977 -0.7223  0.3311 -0.0836
  241TP3      O12541   0.815   4.169   9.763  0.1956  0.2681  0.1736
  241TP3     H112542   0.836   4.191   9.672 -1.3634 -0.6856 -0.4322
  241TP3     H212543   0.836   4.076   9.770  0.0846  0.2872  0.7346
  242TP3      O12544   3.079   3.272   9.694 -0.7975  0.7901 -0.2900
  242TP3     H112545   3.139   3.218   9.744 -1.4582  0.6982  0.4044
  242TP3     H212546   3.052   3.217   9.620 -0.1002  0.8055 -0.5564
  243TP3      O12547   0.558   1.419   9.206  0.6645  0.1238  0.3155
  243TP3     H112548   0.488   1.458   9.154  1.6935  3.2911  1.1531
  243TP3     H212549   0.519   1.405   9.292  0.8029  1.1155  0.5464
  244TP3      O12550   2.639   1.910   8.985 -0.1626  0.1397 -0.0798
  244TP3     H112551   2.641   1.997   8.945  1.5916  0.6899  1.1496
  244TP3     H212552   2.554   1.905   9.030  0.0327  1.4859  0.4428
  245TP3      O12553   2.487   1.980   7.272 -0.2132  0.2291 -0.7578
  245TP3     H112554   2.489   1.884   7.266  0.5733  0.2043 -0.2482
  245TP3     H212555   2.556   2.001   7.335 -0.1734  1.1513 -1.1037
  246TP3      O12556   3.013   4.102   9.624 -0.6581 -0.5187  0.3638
  246TP3     H112557   2.944   4.038   9.612  0.2354 -1.2686 -0.8798
  246TP3     H212558   3.006   4.129   9.716 -0.9061 -2.5501  0.9554
  247TP3      O12559   2.686   0.460   7.439 -0.1511  0.3816  0.8322
  247TP3     H112560   2.653   0.534   7.388 -0.8834  0.2606  1.1297
  247TP3     H212561   2.614   0.438   7.498 -0.6416 -1.7991 -0.5418
  248TP3      O12562   0.649   2.073   0.275 -0.1982 -0.5611 -0.4653
  248TP3     H112563   0.590   2.070   0.200  0.7395 -1.5794 -1.1774
  248TP3     H212564   0.737   2.063   0.238  0.3085 -0.6936  0.7286
  249TP3      O12565   2.409   0.442   7.884  0.2136 -0.0078 -0.0329
  249TP3     H112566   2.475   0.399   7.939  0.9485  0.1395 -0.7928
  249TP3     H212567   2.438   0.425   7.795 -0.0379  1.2343 -0.3547
  250TP3      O12568   4.825   5.077   9.669 -0.2569 -0.1483  0.0521
  250TP3     H112569   4.799   5.142   9.734 -0.2686  0.4020 -0.5099
  250TP3     H212570   4.768   5.002   9.686 -1.3452  0.5910 -0.3709
  251TP3      O12571   0.821   0.116   9.711  0.1253 -0.0701 -0.1783
  251TP3     H112572   0.842   0.108   9.804 -0.0050 -0.4619 -0.1833
  251TP3     H212573   0.817   0.210   9.696  0.3159 -0.0038  0.1752
  252TP3      O12574   2.996   0.213   7.768  0.0739 -0.1310 -0.0473
  252TP3     H112575   3.034   0.131   7.799  1.2596  0.9742  1.5668
  252TP3     H212576   2.993   0.269   7.847  0.3899  1.7453 -1.3306
  253TP3      O12577   4.886   0.336   9.421  0.1115  0.2923  0.0809
  253TP3     H112578   4.936   0.289   9.488  1.5958  0.2560 -1.0336
  253TP3     H212579   4.835   0.268   9.378 -0.1363  0.1812  0.5393
  254TP3      O12580   0.465   1.289   9.842  0.0016  0.5929  0.0954
  254TP3     H112581   0.435   1.208   9.801 -0.6933  1.0941 -0.4077
  254TP3     H212582   0.540   1.263   9.895 -1.1610 -0.6523  1.1710
  255TP3      O12583   1.829   3.690   0.038 -0.2519 -0.1956 -0.0675
  255TP3     H112584   1.871   3.748   0.102  2.1694 -0.6384 -1.1758
  255TP3     H212585   1.880   3.609   0.044 -0.8515 -0.6987 -1.5895
  256TP3      O12586   3.885   1.196   8.561 -0.2263  0.5698  0.3025
  256TP3     H112587   3.816   1.226   8.621  0.5516  0.5707  1.2134
  256TP3     H212588   3.959   1.176   8.618  0.6863  1.0132 -0.7088
  257TP3      O12589   3.779   4.839   9.198 -0.4587 -0.0644  0.3099
  257TP3     H112590   3.743   4.927   9.212  0.1184  0.1881  0.2131
  257TP3     H212591   3.815   4.842   9.109 -3.4248 -1.4143 -1.0468
  258TP3      O12592   2.357   2.236   8.650  0.2868  0.2434 -0.0030
  258TP3     H112593   2.310   2.269   8.727  3.5677  2.3115  1.2548
  258TP3     H212594   2.376   2.145   8.670  0.9029  0.7040  1.5874
  259TP3      O12595   2.191   3.189   8.507  0.8476 -0.6039 -0.3428
  259TP3     H112596   2.182   3.149   8.593  2.3720 -1.1511 -0.4110
  259TP3     H212597   2.236   3.122   8.455  2.2332  0.6721 -0.8315
  260TP3      O12598   1.423   2.439   9.170 -0.2386 -0.1695  0.3151
  260TP3     H112599   1.467   2.355   9.165 -2.0253 -1.0498 -1.6434
  260TP3     H212600   1.360   2.429   9.242  0.9129  0.2047  1.3949
  261TP3      O12601   1.442   1.938   7.574  0.0839 -0.5365 -0.4873
  261TP3     H112602   1.362   1.991   7.572 -0.3159 -1.1034 -0.0469
  261TP3     H212603   1.502   1.987   7.630 -0.5813 -0.9493  0.6036
  262TP3      O12604   3.122   1.844   7.068  0.4127 -0.0181 -0.6368
  262TP3     H112605   3.116   1.776   7.000 -0.2848  0.4001 -0.9945
  262TP3     H212606   3.035   1.848   7.106  0.5660  0.3823 -0.3286
  263TP3      O12607   2.385   1.866   9.614 -0.1441  0.0512  0.1042
  263TP3     H112608   2.382   1.947   9.666  2.4944 -0.2689  0.8654
  263TP3     H212609   2.351   1.799   9.674  1.4644 -0.0565  0.9364
  264TP3      O12610   2.561   0.820   7.857 -0.1248 -0.4971  0.2612
  264TP3     H112611   2.618   0.744   7.870 -1.2818 -1.1686  1.5324
  264TP3     H212612   2.490   0.786   7.803 -0.9352 -0.4735  1.3000
  265TP3      O12613   3.464   3.636   8.034 -0.4365  0.4512 -0.6014
  265TP3     H112614   3.470   3.602   7.945  2.2015  0.1630 -0.3429
  265TP3     H212615   3.458   3.559   8.089 -2.6051  0.6371 -0.5083
  266TP3      O12616   1.065   4.923   0.150  0.2025  0.3295 -0.1309
  266TP3     H112617   1.109   4.864   0.211  1.9609  0.2914 -1.3967
  266TP3     H212618   1.065   5.008   0.195 -0.8229 -0.2539  0.9878
  267TP3      O12619   2.700   1.753   7.501 -0.6575  0.3266 -0.0968
  267TP3     H112620   2.695   1.848   7.486  1.8500  0.2579 -1.6910
  267TP3     H212621   2.683   1.715   7.415 -1.2365 -0.6555  0.4544
  268TP3      O12622   1.813   1.982   8.145 -0.3496  0.5946  0.5466
  268TP3     H112623   1.888   2.032   8.176 -0.7315  0.3360  1.9293
  268TP3     H212624   1.849   1.921   8.081  0.3155  1.7240 -0.1840
  269TP3      O12625   2.854   4.910   8.125 -0.4393 -0.0254 -0.2061
  269TP3     H112626   2.793   4.983   8.136 -0.2074 -0.0970  1.9042
  269TP3     H212627   2.940   4.951   8.117 -0.6690  0.0542 -2.6779
  270TP3      O12628   4.568   1.777   7.771  0.6128  0.6577 -0.0691
  270TP3     H112629   4.620   1.791   7.692  0.4290  0.4565 -0.2298
  270TP3     H212630   4.549   1.864   7.804  0.5554  0.7483 -0.3399
  271TP3      O12631   0.957   2.450   7.078  0.2802 -0.4924 -0.0896
  271TP3     H112632   1.041   2.483   7.044 -0.8319  3.2674  0.6102
  271TP3     H212633   0.960   2.469   7.172 -0.6999 -1.8664  0.2331
  272TP3      O12634   4.945   3.847   0.168 -0.1224 -0.1308  0.0713
  272TP3     H112635   4.962   3.756   0.143 -1.6732 -0.8070  1.4272
  272TP3     H212636   4.964   3.897   0.089  0.7357 -1.6305 -0.6944
  273TP3      O12637   5.045   2.983   7.477  0.3154  0.4265  0.1221
  273TP3     H112638   5.085   2.918   7.419 -1.0234 -0.4919  0.1916
  273TP3     H212639   5.119   3.033   7.511  1.3144 -0.5507 -0.5463
  274TP3      O12640   0.612   1.747   7.345  0.3591 -0.4230 -0.2264
  274TP3     H112641   0.619   1.664   7.299  0.5525 -0.2399 -0.5271
  274TP3     H212642   0.645   1.812   7.283 -2.6429  0.2823 -1.1446
  275TP3      O12643   4.578   0.596   8.271  0.4030 -0.0779 -0.4272
  275TP3     H112644   4.664   0.565   8.300  1.1740  1.5271 -0.9173
  275TP3     H212645   4.597   0.676   8.221 -1.4166  0.5295 -0.1852
  276TP3      O12646   0.977   0.077   7.561  0.1178  0.7219  0.0902
  276TP3     H112647   0.918   0.134   7.513 -0.8023  0.7126  1.1897
  276TP3     H212648   0.970  -0.007   7.517  0.4559  1.1021 -0.7031
  277TP3      O12649   4.659   2.271   7.903  0.3203 -0.4102  0.7312
  277TP3     H112650   4.646   2.348   7.957  1.5677  0.2960  0.0682
  277TP3     H212651   4.580   2.264   7.850  0.0639  0.2171  1.0339
  278TP3      O12652   0.958   1.703   7.053 -0.5245 -0.3487  0.6817
  278TP3     H112653   0.941   1.787   7.009 -0.4063 -0.2305  0.8605
  278TP3     H212654   1.048   1.710   7.084 -0.5905 -0.4520  0.8994
  279TP3      O12655   4.112   3.717   9.280  0.0493  0.4128 -0.0628
  279TP3     H112656   4.150   3.804   9.284 -0.4538  0.5747  1.5646
  279TP3     H212657   4.040   3.719   9.342 -0.5615 -0.8812 -0.6960
  280TP3      O12658   3.143   0.273   2.781 -0.4168 -0.0166 -0.1514
  280TP3     H112659   3.152   0.294   2.874 -0.2274  1.8768 -0.5807
  280TP3     H212660   3.210   0.207   2.765 -0.5455 -0.4631  1.0824
  281TP3      O12661   2.143   3.555   9.817 -0.2296  0.6543  0.1841
  281TP3     H112662   2.188   3.588   9.895  1.1629  0.5421 -0.5592
  281TP3     H212663   2.201   3.486   9.784 -0.6256  0.9719 -1.1855
  282TP3      O12664   5.280   3.690   7.093 -0.1275 -0.0482 -0.1905
  282TP3     H112665   5.241   3.604   7.076  0.9681 -0.8840  1.3408
  282TP3     H212666   5.355   3.671   7.149  0.6516  1.8369 -0.5643
  283TP3      O12667   1.551   1.829   9.048 -0.2264  0.1950 -0.1254
  283TP3     H112668   1.536   1.891   8.976  2.0232 -1.1863 -1.8668
  283TP3     H212669   1.582   1.883   9.121 -0.2027  1.3575 -0.9865
  284TP3      O12670   2.892   0.734   7.777  0.1953 -0.0856 -0.5614
  284TP3     H112671   2.855   0.780   7.702 -1.2575  1.5500  1.0928
  284TP3     H212672   2.854   0.646   7.773 -1.1280  0.4918 -0.8739
  285TP3      O12673   4.832   1.246   7.422  0.0150  0.5840  0.6141
  285TP3     H112674   4.868   1.288   7.344  2.2043 -2.5924 -0.2122
  285TP3     H212675   4.824   1.154   7.398 -0.9504 -0.1723  3.5792
  286TP3      O12676   3.764   1.080   6.865 -0.1803  0.0073 -0.2375
  286TP3     H112677   3.807   0.995   6.857 -1.1197 -0.3863 -1.2908
  286TP3     H212678   3.682   1.070   6.816 -0.7965  1.1896  0.5234
  287TP3      O12679   2.205   0.059   1.106  0.1308  0.0625  0.5812
  287TP3     H112680   2.168   0.140   1.142  0.9695  0.9262 -0.4662
  287TP3     H212681   2.129   0.003   1.090 -0.4320  0.5203  1.6189
  288TP3      O12682   4.548   1.017   1.134 -0.2653  0.1330  0.4454
  288TP3     H112683   4.541   1.106   1.168  1.5596  0.1875  0.7247
  288TP3     H212684   4.494   1.017   1.055 -0.4602  1.4191  0.5720
  289TP3      O12685   1.020   0.319   8.965  0.4396  0.1046  0.4364
  289TP3     H112686   1.034   0.277   8.880  1.5303  1.5425 -0.1155
  289TP3     H212687   0.961   0.260   9.011 -0.4864 -0.5099 -1.4698
  290TP3      O12688   1.036   4.435   9.997  0.1128  0.0813 -0.1864
  290TP3     H112689   1.023   4.462   9.906  1.0448 -0.8132 -0.5962
  290TP3     H212690   1.129   4.415  10.003  0.3155  1.4059  1.3257
  291TP3      O12691   1.091   1.850   8.929 -0.1779  0.2334 -0.5408
  291TP3     H112692   1.016   1.791   8.926  0.7902 -1.1365  1.0107
  291TP3     H212693   1.163   1.798   8.894  0.1742  1.3273 -1.4412
  292TP3      O12694   1.502   3.481   7.721 -0.0531  0.1692  0.3336
  292TP3     H112695   1.419   3.477   7.770  0.1347  1.6721  0.8041
  292TP3     H212696   1.565   3.517   7.784  1.1587 -1.6792  0.2178
  293TP3      O12697   1.627   0.875   9.700 -0.2093 -0.4675  0.3942
  293TP3     H112698   1.609   0.828   9.619 -1.6667 -1.7314  1.4097
  293TP3     H212699   1.584   0.960   9.689 -1.5581 -1.1385  0.3332
  294TP3      O12700   4.017   0.734   9.502  0.1519  0.1540  0.4832
  294TP3     H112701   4.084   0.802   9.493 -0.4635  0.8757  1.1894
  294TP3     H212702   4.066   0.654   9.517  0.8940  0.4375 -0.4321
  295TP3      O12703   3.270   3.826   7.501  0.0194 -0.2064  0.3832
  295TP3     H112704   3.270   3.826   7.405  0.9296 -0.2452  0.3809
  295TP3     H212705   3.362   3.814   7.525 -0.1492  0.2310  1.2629
  296TP3      O12706   1.276   1.157   9.632 -0.2422 -0.1948 -0.0325
  296TP3     H112707   1.251   1.143   9.541  0.1918  0.3864 -0.2418
  296TP3     H212708   1.218   1.226   9.663  1.2475  1.3367 -0.5928
  297TP3      O12709   3.164   4.812   7.873 -0.2041  0.3047 -0.3914
  297TP3     H112710   3.106   4.777   7.806  0.2332  0.6335 -0.9457
  297TP3     H212711   3.112   4.881   7.916 -1.0318 -0.9422  0.6440
  298TP3      O12712   1.800   3.922   8.710  0.0219  0.9466 -0.1724
  298TP3     H112713   1.726   3.972   8.745  0.7521  2.2566 -0.4915
  298TP3     H212714   1.867   3.987   8.693  0.6711 -0.0351 -1.4343
  299TP3      O12715   2.390   1.688   7.827 -0.1400  0.2050 -0.3516
  299TP3     H112716   2.427   1.658   7.910  0.4652 -0.6523 -0.9152
  299TP3     H212717   2.462   1.737   7.786 -0.0435 -0.3792 -0.8864
  300TP3      O12718   1.125   4.936   8.631  0.2535 -0.1935  0.3327
  300TP3     H112719   1.218   4.923   8.616  0.1615  0.7547 -1.0533
  300TP3     H212720   1.096   4.993   8.560 -1.3034 -0.1642  0.9683
  301TP3      O12721   2.030   4.416   7.641  0.7389  0.4840  0.2943
  301TP3     H112722   2.040   4.457   7.556  1.8778  0.0416  0.2015
  301TP3     H212723   2.112   4.434   7.687  0.9037 -0.8804  0.5811
  302TP3      O12724   2.182   1.309   8.456 -0.2545  0.1572  0.0827
  302TP3     H112725   2.234   1.236   8.422 -0.1525  0.1151  0.3310
  302TP3     H212726   2.157   1.359   8.378 -0.5452 -0.2909 -0.1146
  303TP3      O12727   1.535   2.084   8.200 -0.1447 -0.4867  0.4150
  303TP3     H112728   1.619   2.061   8.160 -0.3369 -0.3335 -0.0780
  303TP3     H212729   1.539   2.178   8.213 -0.0445 -0.5512  0.8456
  304TP3      O12730   2.469   2.993   0.123  0.8240  0.2877 -0.2935
  304TP3     H112731   2.381   2.958   0.137  1.2353 -0.8319 -0.4721
  304TP3     H212732   2.473   3.071   0.179 -0.7382  1.1145 -1.2929
  305TP3      O12733   2.529   2.834   9.054 -1.0594 -0.1449  0.5116
  305TP3     H112734   2.607   2.782   9.069 -0.4444  0.3459 -0.8914
  305TP3     H212735   2.527   2.897   9.126  0.5594  0.6890 -0.1639
  306TP3      O12736   3.639   1.301  10.081  0.4747  0.1323 -0.0282
  306TP3     H112737   3.626   1.393  10.104  0.0727  0.4959 -1.6378
  306TP3     H212738   3.557   1.275  10.039  0.5820 -0.9767  0.4275
  307TP3      O12739   4.023   0.111   7.696  0.1796  0.4005 -0.0629
  307TP3     H112740   3.955   0.053   7.663  0.3441 -0.3771  0.9423
  307TP3     H212741   3.993   0.199   7.674 -2.3652  0.2400  2.5767
  308TP3      O12742   2.478   2.687   9.539 -0.1013  0.6308 -0.1569
  308TP3     H112743   2.414   2.754   9.561  0.4507  0.8220  0.9034
  308TP3     H212744   2.559   2.717   9.582  0.3861 -0.2152 -0.4812
  309TP3      O12745   3.830   4.875   8.294  0.4418  0.3434  0.3888
  309TP3     H112746   3.802   4.944   8.353  3.2408  0.9002  1.1635
  309TP3     H212747   3.912   4.907   8.257  0.6557 -1.6133 -0.9242
  310TP3      O12748   2.073   4.741   9.980 -0.3803 -0.1515 -0.2821
  310TP3     H112749   2.146   4.712   9.926  0.9505  0.1854  1.2788
  310TP3     H212750   2.086   4.697  10.064 -1.4896  0.5735  0.2978
  311TP3      O12751   1.375   1.006   0.006 -0.6644  0.4268 -0.0648
  311TP3     H112752   1.312   1.074   0.031 -1.3617 -0.1170 -0.3492
  311TP3     H212753   1.458   1.036   0.045 -0.9035  1.5730 -0.4099
  312TP3      O12754   4.162   2.288   7.607  0.4600 -0.3900 -0.0423
  312TP3     H112755   4.251   2.297   7.573  0.3400 -2.7084 -1.0852
  312TP3     H212756   4.132   2.204   7.573 -2.7738  1.1270 -1.1203
  313TP3      O12757   2.438   2.606   8.258 -0.2682 -0.9265  0.1030
  313TP3     H112758   2.422   2.524   8.305 -1.5695 -1.0732 -0.5695
  313TP3     H212759   2.355   2.654   8.265  0.1278 -0.1554 -0.4622
  314TP3      O12760   2.763   1.087   7.222 -0.1931  0.1478  0.2906
  314TP3     H112761   2.761   0.997   7.252 -0.8998  0.3563  0.8821
  314TP3     H212762   2.855   1.113   7.227  0.0878 -0.6932 -0.3660
  315TP3      O12763   1.378   4.671   7.554  0.2446  0.4831  0.2095
  315TP3     H112764   1.395   4.579   7.576  1.4787  0.8351  0.7688
  315TP3     H212765   1.448   4.719   7.597  0.3021  1.5863 -1.0907
  316TP3      O12766   2.983   0.190   9.785 -0.0421 -0.0393  0.6265
  316TP3     H112767   3.065   0.212   9.827 -0.5068 -0.1072  1.5871
  316TP3     H212768   2.961   0.266   9.731  0.2346  0.3040  1.0041
  317TP3      O12769   3.363   1.994   9.593  0.3959 -0.2111 -0.2842
  317TP3     H112770   3.288   2.052   9.609 -0.7338 -1.3484 -1.2682
  317TP3     H212771   3.351   1.922   9.655  0.6037 -0.4511 -0.5179
  318TP3      O12772   3.910   0.868   6.922  0.5042  0.0379 -0.1614
  318TP3     H112773   3.996   0.837   6.949  0.7849 -1.1102 -2.2811
  318TP3     H212774   3.848   0.809   6.966  0.8479 -0.0109  0.2560
  319TP3      O12775   3.019   0.633   7.263  0.2264 -0.5963 -0.2428
  319TP3     H112776   3.021   0.607   7.171  0.0052  1.1488 -0.7560
  319TP3     H212777   2.948   0.696   7.269 -0.4995 -1.5302  1.3770
  320TP3      O12778   3.702   1.260   7.056 -0.0972 -0.1035  0.1123
  320TP3     H112779   3.640   1.205   7.104 -2.7179  2.2200 -0.4180
  320TP3     H212780   3.736   1.204   6.987 -0.9685 -1.6939  0.9571
  321TP3      O12781   4.170   2.989   9.884 -0.2367  0.2461  0.4260
  321TP3     H112782   4.182   3.081   9.911  1.8135 -0.2835  1.4961
  321TP3     H212783   4.235   2.976   9.815 -0.2725 -0.4858  0.5288
  322TP3      O12784   1.949   1.327   8.626 -0.5928  0.3689 -0.1939
  322TP3     H112785   1.919   1.413   8.596 -0.9822 -0.7511 -3.1331
  322TP3     H212786   2.011   1.299   8.559  1.8716 -0.3818  2.2728
  323TP3      O12787   1.854   0.435   8.172 -0.1669 -0.3141 -0.4438
  323TP3     H112788   1.787   0.370   8.148  0.0626  0.2829 -2.8135
  323TP3     H212789   1.821   0.474   8.253 -0.9615 -2.4502  0.2856
  324TP3      O12790   2.942   0.258   8.573  0.3616 -0.5486  0.2168
  324TP3     H112791   3.013   0.321   8.569 -0.3600  0.2444 -0.2083
  324TP3     H212792   2.884   0.281   8.500 -0.2180 -1.3222  0.4177
  325TP3      O12793   2.854   1.846   7.169 -0.8051  0.4979 -0.1193
  325TP3     H112794   2.821   1.932   7.196 -0.5606  1.3354 -2.3921
  325TP3     H212795   2.783   1.785   7.190 -1.3066  1.3605  0.7484
  326TP3      O12796   2.374   3.372   8.389 -0.0604  0.1280 -0.1139
  326TP3     H112797   2.415   3.326   8.462 -0.8379 -2.8458 -1.4828
  326TP3     H212798   2.287   3.333   8.382 -1.0213  2.3461 -0.8847
  327TP3      O12799   2.017   2.237  10.017 -0.4487 -0.1486  0.0339
  327TP3     H112800   1.999   2.301  10.086 -1.3643 -0.7422  0.3551
  327TP3     H212801   2.064   2.286   9.950 -0.1221  0.5835  0.8011
  328TP3      O12802   1.794   3.161   8.966 -0.0817 -0.1967  0.5704
  328TP3     H112803   1.771   3.088   8.908 -0.6080 -0.2581  0.8542
  328TP3     H212804   1.851   3.216   8.913 -0.5027 -0.2887  0.0116
  329TP3      O12805   1.768   1.513   8.508  0.2031 -0.5129  0.0794
  329TP3     H112806   1.740   1.555   8.426  1.4756  1.7471  0.7549
  329TP3     H212807   1.719   1.559   8.576  1.2982 -0.4093  0.8083
  330TP3      O12808   2.751   4.867   0.196  0.1298  0.1895 -0.0007
  330TP3     H112809   2.674   4.890   0.144 -0.0355 -0.0439  0.1404
  330TP3     H212810   2.731   4.780   0.231  1.2905 -0.7419 -1.5655
  331TP3      O12811   2.626   2.359   8.264 -0.3255 -0.1583  0.1315
  331TP3     H112812   2.652   2.362   8.356 -1.4149 -0.6576  0.4679
  331TP3     H212813   2.691   2.413   8.219 -0.8560  1.6229  1.4382
  332TP3      O12814   1.665   0.242   8.114 -0.4708  0.1555 -0.5222
  332TP3     H112815   1.576   0.247   8.080 -0.0987  0.9110 -1.4042
  332TP3     H212816   1.669   0.157   8.159 -1.9952  0.6409  0.5882
  333TP3      O12817   2.614   1.277   7.383 -0.0934 -0.1302 -0.4017
  333TP3     H112818   2.592   1.360   7.341  0.4969 -0.7199 -1.9120
  333TP3     H212819   2.652   1.223   7.313  0.1534 -1.4366  0.6991
  334TP3      O12820   1.097   0.924   8.365 -0.1058 -0.3887  0.1659
  334TP3     H112821   1.056   0.838   8.355 -1.4921  0.2933 -0.0681
  334TP3     H212822   1.169   0.923   8.301  0.0785 -1.4793  0.3752
  335TP3      O12823   2.752   4.475   7.070 -0.4213 -0.3621 -0.2718
  335TP3     H112824   2.798   4.550   7.106  1.1101 -1.3379 -0.1598
  335TP3     H212825   2.821   4.413   7.048 -1.7571 -2.5127  1.3945
  336TP3      O12826   2.095   0.550   8.454 -0.6250  0.2014 -0.0470
  336TP3     H112827   2.183   0.556   8.415 -1.4416 -0.4573 -2.0743
  336TP3     H212828   2.103   0.593   8.539  1.5039  0.7302 -0.4915
  337TP3      O12829   4.982   2.609   7.709 -0.0208 -0.0366 -0.2615
  337TP3     H112830   5.058   2.604   7.767 -0.5482  1.4803  0.5983
  337TP3     H212831   4.931   2.531   7.731  0.7914 -0.5424 -0.1430
  338TP3      O12832   2.721   0.090   9.578  0.1565 -0.7518 -0.5415
  338TP3     H112833   2.708   0.155   9.509 -0.1957  0.6350  0.8161
  338TP3     H212834   2.814   0.069   9.573  0.1182 -0.7173 -1.4956
  339TP3      O12835   2.679   3.973   7.843 -0.1211 -0.0500  0.1058
  339TP3     H112836   2.770   3.967   7.873 -0.2300  0.5111  0.5834
  339TP3     H212837   2.684   3.965   7.748  0.1981 -2.2164  0.2951
  340TP3      O12838   2.814   2.509   8.102 -0.0267 -0.0105  0.3143
  340TP3     H112839   2.885   2.445   8.106  3.3366  3.4344 -0.8203
  340TP3     H212840   2.795   2.518   8.009 -1.0575  0.0032  0.5222
  341TP3      O12841   2.416   0.311   7.087 -0.8270  0.1230 -0.2013
  341TP3     H112842   2.442   0.333   7.177 -1.4400  0.0003  0.0126
  341TP3     H212843   2.335   0.360   7.073 -1.0930 -0.3783 -0.4495
  342TP3      O12844   3.603   5.482   7.693 -0.0507 -0.2290  0.3561
  342TP3     H112845   3.694   5.465   7.669 -0.5547  1.2443 -2.7412
  342TP3     H212846   3.603   5.575   7.719 -0.9190  0.1382 -0.9501
  343TP3      O12847   0.625   4.065   9.084  0.0820 -0.1928  0.1124
  343TP3     H112848   0.588   4.137   9.033  0.6658  0.8672  1.1208
  343TP3     H212849   0.572   4.063   9.164  0.0707 -0.8860  0.0886
  344TP3      O12850   0.993   1.857   7.562  0.9093  0.3208 -0.0186
  344TP3     H112851   1.084   1.883   7.575  0.6706  0.8063  0.7609
  344TP3     H212852   0.980   1.860   7.468  1.7354  0.1418 -0.1365
  345TP3      O12853   1.068   0.123   8.542 -0.0193  0.4265 -0.2314
  345TP3     H112854   1.057   0.109   8.636  1.3959  1.6504  0.1502
  345TP3     H212855   1.141   0.066   8.518  0.8438  1.4938 -0.1894
  346TP3      O12856   0.982   2.003   8.189  0.1581  0.7379 -0.0242
  346TP3     H112857   1.064   2.052   8.176  0.2406  0.3549 -1.0627
  346TP3     H212858   0.917   2.055   8.142  0.3272 -0.3489 -1.4894
  347TP3      O12859   2.655   1.726   7.774  0.3354  0.1164  0.4004
  347TP3     H112860   2.657   1.726   7.678 -1.4229 -1.7942  0.3398
  347TP3     H212861   2.709   1.651   7.799 -1.3155 -0.9291  0.8333
  348TP3      O12862   2.700   2.395   0.633  0.3480  0.2403  0.2588
  348TP3     H112863   2.707   2.488   0.610 -0.6994  0.3740  0.4476
  348TP3     H212864   2.773   2.379   0.693  0.4530  0.9648  0.3248
  349TP3      O12865   1.529   4.701   9.980  0.3198 -0.0980  0.1455
  349TP3     H112866   1.623   4.685   9.984  0.3193 -0.7154 -1.8186
  349TP3     H212867   1.512   4.721   9.888 -1.2637  1.3532  0.7345
  350TP3      O12868   0.269   2.608   8.482  0.1826 -0.6430  0.0300
  350TP3     H112869   0.185   2.647   8.460  0.6724  1.4605  1.6571
  350TP3     H212870   0.319   2.611   8.401 -0.5947 -0.0118 -0.4338
  351TP3      O12871   4.618   3.317   1.114  0.2722  0.1044 -0.3069
  351TP3     H112872   4.653   3.237   1.153 -1.0082 -0.4610 -0.2745
  351TP3     H212873   4.671   3.331   1.036  2.0441  0.5479  0.9274
  352TP3      O12874   2.729   1.543   8.409  0.1546 -0.2204 -0.2659
  352TP3     H112875   2.731   1.636   8.431 -1.1216 -0.1968 -0.1940
  352TP3     H212876   2.798   1.504   8.462  0.0140  0.5307  0.4827
  353TP3      O12877   1.106   2.223   7.251 -0.5811  0.1133  0.2130
  353TP3     H112878   1.124   2.167   7.175 -0.0378 -0.8157  1.0113
  353TP3     H212879   1.175   2.289   7.247 -0.0342 -0.4412  0.3810
  354TP3      O12880   4.995   3.774   8.750  0.4887 -0.6071  0.2662
  354TP3     H112881   4.943   3.822   8.686 -0.8989  1.0738  2.5554
  354TP3     H212882   5.031   3.842   8.807  0.1213 -2.1338  2.4033
  355TP3      O12883   3.866   0.103   7.335  0.0238  0.6890  0.3266
  355TP3     H112884   3.931   0.033   7.332  0.8454  1.5099 -1.6614
  355TP3     H212885   3.796   0.073   7.276  0.2457  1.3807 -0.3040
  356TP3      O12886   0.095   5.262   0.855  0.6982 -0.2357  0.0695
  356TP3     H112887   0.039   5.185   0.868  0.0942  0.1188 -0.4271
  356TP3     H212888   0.180   5.235   0.891  0.1774 -0.7239  0.9468
  357TP3      O12889   2.102   3.818   9.024 -0.3502  0.0286 -0.2327
  357TP3     H112890   2.126   3.819   9.117 -0.1536 -2.9239 -0.1972
  357TP3     H212891   2.183   3.795   8.979 -0.6087  0.7511 -1.0681
  358TP3      O12892   4.969   5.351   8.601  0.2082 -0.3525 -0.2333
  358TP3     H112893   4.941   5.268   8.562  0.2502 -0.6256  0.3110
  358TP3     H212894   4.993   5.405   8.526  1.0263 -1.1446 -0.5675
  359TP3      O12895   2.927   0.594   9.015  0.6835 -0.8676 -0.2992
  359TP3     H112896   3.009   0.609   8.969  2.0461 -0.5055  2.1413
  359TP3     H212897   2.910   0.676   9.061  0.3620 -1.7997  1.2935
  360TP3      O12898   3.278   1.516   2.225  0.7906 -0.2967 -0.2226
  360TP3     H112899   3.300   1.587   2.285  1.1027 -0.9983  0.5051
  360TP3     H212900   3.254   1.442   2.282  2.3417 -1.3648 -0.9010
  361TP3      O12901   5.047   4.737   9.275  0.3332 -0.5004  0.4620
  361TP3     H112902   5.089   4.665   9.227 -1.6823 -0.9292 -0.7113
  361TP3     H212903   5.005   4.694   9.349  2.5504  0.0299  2.0865
  362TP3      O12904   3.614   1.395   8.296 -0.5679 -0.2711  0.1113
  362TP3     H112905   3.605   1.393   8.201 -1.8749  1.1864  0.1784
  362TP3     H212906   3.619   1.303   8.322 -2.3645 -0.7570 -1.1792
  363TP3      O12907   3.328   2.336   7.801  0.1855 -0.0945  0.3815
  363TP3     H112908   3.422   2.347   7.815  0.3651 -1.0983  0.0483
  363TP3     H212909   3.295   2.307   7.886 -0.3131  3.0473  1.2933
  364TP3      O12910   2.047   3.949   7.769  0.6176 -0.2319 -0.2930
  364TP3     H112911   2.017   4.016   7.707 -0.6260 -0.2283  0.2960
  364TP3     H212912   2.119   3.906   7.724  0.4647  0.5165 -1.2895
  365TP3      O12913   5.201   2.147   9.356 -0.7332  0.2979  0.1020
  365TP3     H112914   5.144   2.099   9.416  0.7258 -0.4249  0.9422
  365TP3     H212915   5.204   2.092   9.278 -0.6099 -0.0170  0.3296
  366TP3      O12916   0.572   4.546   8.659  0.0682 -0.1584  0.6766
  366TP3     H112917   0.525   4.466   8.679  1.2046 -1.0497 -0.1080
  366TP3     H212918   0.648   4.544   8.717 -0.7040  1.1271  1.7425
  367TP3      O12919   0.435   5.086   9.210  0.5420 -0.1474  0.1533
  367TP3     H112920   0.388   5.084   9.126  3.1645  1.2025 -1.4055
  367TP3     H212921   0.500   5.016   9.202  1.4058  0.5882  0.6735
  368TP3      O12922   1.242   4.506   9.388 -0.5177  0.3246  0.2040
  368TP3     H112923   1.255   4.421   9.345 -0.6592 -0.0592  0.9026
  368TP3     H212924   1.178   4.551   9.334 -1.6245 -0.6512  0.6833
  369TP3      O12925   0.875   5.410   0.712 -0.0798  0.3319 -0.5329
  369TP3     H112926   0.787   5.440   0.688  0.0418  0.2843 -1.0321
  369TP3     H212927   0.873   5.315   0.697 -0.3263  0.1429  0.6235
  370TP3      O12928   4.418   2.209   0.650  0.1932 -0.4263 -0.6351
  370TP3     H112929   4.338   2.257   0.673  0.3804 -0.1416 -0.5822
  370TP3     H212930   4.488   2.273   0.659  0.4568 -0.7359 -0.4656
  371TP3      O12931   0.396   1.208   8.333  0.2192  1.1616 -0.4371
  371TP3     H112932   0.487   1.183   8.315  0.9853  4.1006 -0.9512
  371TP3     H212933   0.344   1.144   8.284  1.9986 -0.4485 -0.2887
  372TP3      O12934   2.354   1.555   6.839 -0.3657 -0.5080 -0.2695
  372TP3     H112935   2.429   1.615   6.835 -0.6954 -0.0941 -0.2282
  372TP3     H212936   2.389   1.471   6.808  0.6633 -0.8703  1.7935
  373TP3      O12937   1.755   1.794   7.357  0.7818 -0.3198  0.1146
  373TP3     H112938   1.753   1.708   7.397  0.5330 -0.4196 -0.1085
  373TP3     H212939   1.664   1.824   7.359  0.9140  0.0728  0.4808
  374TP3      O12940   2.849   2.379   0.164 -0.4136  0.1546  0.6551
  374TP3     H112941   2.835   2.293   0.205 -1.6965  0.2874  0.5108
  374TP3     H212942   2.762   2.418   0.160  0.0608  1.1626  0.0380
  375TP3      O12943   3.872   1.566   8.311 -0.3455 -0.1474  0.8910
  375TP3     H112944   3.804   1.517   8.357 -0.3224 -0.5522  0.5017
  375TP3     H212945   3.951   1.550   8.362 -0.4331 -0.1356  1.0287
  376TP3      O12946   3.303   2.035   7.535  0.0257 -0.4047  0.0936
  376TP3     H112947   3.314   2.040   7.440  2.7483 -1.4605  0.3289
  376TP3     H212948   3.328   2.122   7.566 -0.1746 -0.2823 -0.0813
  377TP3      O12949   2.081   0.308   0.605 -0.1688  0.6450  0.0685
  377TP3     H112950   2.014   0.305   0.674 -0.8153 -0.5911 -0.6036
  377TP3     H212951   2.070   0.394   0.565  0.5485  1.5873  1.8301
  378TP3      O12952   1.206   1.791   8.122  0.2785  0.1707  0.0836
  378TP3     H112953   1.174   1.790   8.032 -3.1894  1.7611  1.2167
  378TP3     H212954   1.202   1.883   8.149  1.9109 -0.1832  1.6635
  379TP3      O12955   2.649   1.105   6.983 -0.3273 -0.8288  0.1154
  379TP3     H112956   2.676   1.088   7.073  0.5562 -2.9548 -0.5208
  379TP3     H212957   2.592   1.032   6.960 -1.4018  0.2495 -0.7142
  380TP3      O12958   2.430   0.285   0.425  0.3741  0.0305 -0.4497
  380TP3     H112959   2.351   0.232   0.432  1.0863 -0.9888 -0.0929
  380TP3     H212960   2.431   0.336   0.506 -0.6406  1.0681 -1.0736
  381TP3      O12961   1.998   0.794   9.969  0.5962 -0.1213 -0.1902
  381TP3     H112962   2.049   0.719   9.937 -0.4283 -0.7364 -0.3932
  381TP3     H212963   2.018   0.865   9.908  0.4480 -0.6370 -0.8420
  382TP3      O12964   4.469   5.329   8.201 -0.2914  0.6365 -0.1741
  382TP3     H112965   4.417   5.261   8.159  1.4575 -0.2363 -0.9669
  382TP3     H212966   4.538   5.348   8.138 -0.0216  2.2517  0.5910
  383TP3      O12967   4.752   0.673   7.930 -0.4239 -0.7749 -0.2105
  383TP3     H112968   4.667   0.673   7.886  0.4478 -0.8041 -1.9270
  383TP3     H212969   4.740   0.733   8.004 -1.5485  0.2486 -1.1947
  384TP3      O12970   3.876   2.969   9.852  0.7065 -0.3578  0.2946
  384TP3     H112971   3.840   3.029   9.917  2.3657  1.6393 -0.5689
  384TP3     H212972   3.971   2.980   9.858  0.9145 -0.3142 -2.2378
  385TP3      O12973   5.028   3.869   8.364  0.1804 -0.3849  0.2424
  385TP3     H112974   5.119   3.896   8.348 -0.5789  0.7687 -2.3111
  385TP3     H212975   4.976   3.947   8.342 -1.3284 -0.2060  3.9638
  386TP3      O12976   0.731   0.560   0.656 -0.1260 -0.0233 -0.2154
  386TP3     H112977   0.676   0.617   0.601 -1.3622  0.8723  1.8800
  386TP3     H212978   0.686   0.476   0.656 -1.8156  0.8258  1.8430
  387TP3      O12979   3.679   0.448   7.206  0.0869 -0.2198 -0.3132
  387TP3     H112980   3.750   0.473   7.147 -0.1147 -0.4873 -0.6724
  387TP3     H212981   3.671   0.522   7.267 -0.1578  0.3604 -1.0396
  388TP3      O12982   2.962   5.019   9.004  0.3179  0.7709 -0.2837
  388TP3     H112983   3.054   5.046   9.011 -0.0816  1.4338  3.1209
  388TP3     H212984   2.912   5.094   9.036 -1.3363 -0.1373 -0.6794
  389TP3      O12985   1.736   0.758   8.381  0.6548  0.4583 -0.0468
  389TP3     H112986   1.655   0.771   8.332  0.0123  0.0960  0.8986
  389TP3     H212987   1.801   0.811   8.335 -0.9888  3.9336  1.4501
  390TP3      O12988   5.046   4.404   8.995  0.2895 -0.2355 -0.4151
  390TP3     H112989   4.961   4.433   9.028 -0.1742  1.2412 -2.7681
  390TP3     H212990   5.110   4.435   9.059 -0.7017  1.2528 -0.1355
  391TP3      O12991   1.404   2.913   8.297  0.7873 -0.0873  0.4133
  391TP3     H112992   1.330   2.859   8.323  1.3676 -0.2869  1.6849
  391TP3     H212993   1.416   2.973   8.371  1.2135  0.6517 -0.2540
  392TP3      O12994   3.196   0.094   1.927 -0.4156  0.2837 -0.3612
  392TP3     H112995   3.105   0.114   1.947 -0.4453 -0.0851 -0.1341
  392TP3     H212996   3.239   0.092   2.013 -0.2654  0.0998 -0.4423
  393TP3      O12997   2.519   0.976   8.984  0.3090 -0.3704  0.1804
  393TP3     H112998   2.426   0.965   8.966 -0.4389  0.5754  3.3079
  393TP3     H212999   2.536   0.922   9.061  2.0579  0.5225  0.4499
  394TP3      O13000   2.017   4.529   9.423 -0.4932 -0.0681 -0.0568
  394TP3     H113001   2.025   4.540   9.518  0.0238 -1.3999  0.0618
  394TP3     H213002   1.951   4.460   9.413 -0.7558  0.2725 -0.6706
  395TP3      O13003   1.483   0.590   8.351 -0.0339 -0.2167 -0.8839
  395TP3     H113004   1.425   0.514   8.350  0.1866 -0.4269  0.9194
  395TP3     H213005   1.478   0.623   8.441 -0.2636  2.0110 -1.6702
  396TP3      O13006   5.392   2.452   1.869 -0.5613  0.0255  0.3685
  396TP3     H113007   5.402   2.442   1.963 -1.5976 -0.2563  0.4562
  396TP3     H213008   5.299   2.432   1.852  0.2417 -2.7948 -1.0613
  397TP3      O13009   3.314   0.338   7.253  0.2483 -0.1855 -0.4156
  397TP3     H113010   3.403   0.319   7.282  0.7108  0.8050 -1.1982
  397TP3     H213011   3.323   0.369   7.164 -1.1677 -3.2285 -1.7213
  398TP3      O13012   3.397   0.084   7.448  0.1881  0.2331 -0.5490
  398TP3     H113013   3.462   0.028   7.489 -1.6429  0.2911  2.6342
  398TP3     H213014   3.447   0.140   7.389  3.1132  0.7958  2.3323
  399TP3      O13015   3.343   5.486   8.615 -0.5520  0.1250  0.2671
  399TP3     H113016   3.352   5.403   8.570 -0.5460  0.1041  0.3074
  399TP3     H213017   3.406   5.544   8.572 -2.3451  0.8402 -1.4583
  400TP3      O13018   5.231   5.359   0.531  0.2921 -0.1574 -0.1398
  400TP3     H113019   5.281   5.431   0.570  1.2765  0.0866 -1.7933
  400TP3     H213020   5.173   5.330   0.601  1.8691  0.3765  1.4517
  401TP3      O13021   2.909   4.119   8.581 -1.1349 -0.1154 -0.0641
  401TP3     H113022   2.997   4.152   8.598 -0.3594 -1.2005 -1.8043
  401TP3     H213023   2.907   4.035   8.627 -1.9596  0.7917  1.6013
  402TP3      O13024   3.064   2.829   9.390  0.2684 -0.0738  0.0622
  402TP3     H113025   3.030   2.826   9.300 -1.4717  2.8211  0.5340
  402TP3     H213026   3.158   2.814   9.381 -0.0291 -0.8323 -2.1258
  403TP3      O13027   2.008   1.379   7.157 -0.6214  0.6278 -0.6047
  403TP3     H113028   1.945   1.311   7.181  0.6701 -1.6699 -3.3919
  403TP3     H213029   2.080   1.369   7.221 -0.4289 -0.6494 -1.0141
  404TP3      O13030   3.834   3.931   8.090 -0.0331 -0.3081  0.7112
  404TP3     H113031   3.741   3.914   8.104 -0.4071  0.9737 -0.1303
  404TP3     H213032   3.844   4.025   8.100  1.2885 -0.4924  1.3311
  405TP3      O13033   4.691   4.735   7.784 -0.0922  0.2343  0.0471
  405TP3     H113034   4.613   4.778   7.820  0.1868  2.6259 -2.0345
  405TP3     H213035   4.657   4.677   7.716 -0.0312  2.2458 -1.7605
  406TP3      O13036   0.169   4.936   2.656 -0.0268 -0.0183  0.2853
  406TP3     H113037   0.254   4.967   2.624  0.6547 -1.7006  0.3634
  406TP3     H213038   0.185   4.844   2.678 -2.5519 -1.1209 -2.2694
  407TP3      O13039   1.296   5.050   8.908  0.1109  0.7872 -0.0506
  407TP3     H113040   1.286   5.121   8.844  0.9908  1.7157  0.8134
  407TP3     H213041   1.388   5.054   8.934 -0.5932  1.5710  2.5380
  408TP3      O13042   1.986   1.309   0.333 -0.7895  0.1444 -0.4198
  408TP3     H113043   2.002   1.402   0.349  0.5898  0.0213 -0.9554
  408TP3     H213044   1.925   1.308   0.259 -0.3464  0.6293 -0.8045
  409TP3      O13045   0.330   3.721   7.993  0.3241 -0.1028 -0.3092
  409TP3     H113046   0.342   3.669   8.073 -2.6132 -0.0147  0.2354
  409TP3     H213047   0.300   3.806   8.024  0.3246  0.3220 -1.4540
  410TP3      O13048   0.644   0.048   9.398 -0.0123 -0.4680  0.2752
  410TP3     H113049   0.651  -0.019   9.329 -0.5619 -1.5172  1.2366
  410TP3     H213050   0.725   0.099   9.389 -1.0484  0.8255 -2.5934
  411TP3      O13051   2.147   3.444   8.982  0.5567 -0.2690 -0.2434
  411TP3     H113052   2.162   3.428   9.075  3.5655  0.8979 -0.4958
  411TP3     H213053   2.234   3.442   8.943 -0.6783 -0.7225 -3.0453
  412TP3      O13054   2.766   2.790   7.081  0.0279 -0.3076  0.1206
  412TP3     H113055   2.671   2.795   7.092  0.1104 -0.2664  0.8412
  412TP3     H213056   2.782   2.698   7.061  0.0700 -0.8317  2.4217
  413TP3      O13057   3.454   2.588   0.819  0.1259  0.3751 -0.0005
  413TP3     H113058   3.486   2.501   0.843  0.5664  0.2948 -0.8939
  413TP3     H213059   3.464   2.593   0.724 -2.9361  0.1743 -0.3967
  414TP3      O13060   2.474   1.709   8.880  0.1433  0.6658 -0.1569
  414TP3     H113061   2.421   1.634   8.904 -0.4608  0.7699 -1.1605
  414TP3     H213062   2.527   1.727   8.958 -1.8650  1.0773  1.1381
  415TP3      O13063   2.542   1.823   8.103 -0.6629  0.0099  0.6084
  415TP3     H113064   2.632   1.844   8.127 -0.8044 -0.1890  1.3229
  415TP3     H213065   2.547   1.732   8.074 -0.6836 -0.0915  0.9199
  416TP3      O13066   1.454   4.180   8.201 -0.6755  0.6049 -0.3090
  416TP3     H113067   1.511   4.230   8.259 -1.4192  1.0267  0.0769
  416TP3     H213068   1.487   4.197   8.113 -0.7451  1.5611 -0.1560
  417TP3      O13069   0.895   3.955   8.996  0.6057  0.6294 -0.1528
  417TP3     H113070   0.938   3.871   9.014 -1.4678 -0.4737 -0.2555
  417TP3     H213071   0.808   3.946   9.034  0.9274  3.3795  1.3493
  418TP3      O13072   2.626   4.553   1.390 -0.3163  0.5906 -0.4361
  418TP3     H113073   2.577   4.610   1.449 -1.0885  1.5993 -2.0471
  418TP3     H213074   2.661   4.611   1.323  0.7745 -0.5237 -0.8600
  419TP3      O13075   0.336   2.030   8.480  0.2227 -0.4192 -0.2309
  419TP3     H113076   0.387   1.985   8.547  0.5297  3.0924  2.0104
  419TP3     H213077   0.399   2.087   8.436 -1.1199  1.6629  0.4744
  420TP3      O13078   3.284   1.197  10.218 -0.7093  0.3507  0.2448
  420TP3     H113079   3.317   1.149  10.295 -0.2442  0.1821 -0.0530
  420TP3     H213080   3.220   1.259  10.253 -0.0496  0.6973  0.8444
  421TP3      O13081   1.334   4.180   7.911  0.0354 -0.5200 -0.0688
  421TP3     H113082   1.411   4.231   7.888  0.3894 -2.0592 -2.3756
  421TP3     H213083   1.270   4.246   7.939  1.7588  0.8558  0.7235
  422TP3      O13084   2.464   0.110   6.891  0.1797  0.3576  0.1070
  422TP3     H113085   2.520   0.147   6.823 -0.2390  0.9054  0.0524
  422TP3     H213086   2.463   0.177   6.960  1.8589 -0.8479  1.3522
  423TP3      O13087   2.869   0.818   7.499  0.2997  0.2454 -0.0575
  423TP3     H113088   2.808   0.869   7.552 -0.3996  0.6266 -1.2084
  423TP3     H213089   2.831   0.818   7.411  1.8273  0.2626 -0.7398
  424TP3      O13090   2.580   1.765   9.466 -0.1568  0.2168 -0.1560
  424TP3     H113091   2.653   1.738   9.523 -0.4057 -0.5734 -0.2178
  424TP3     H213092   2.518   1.807   9.526 -0.3886 -0.5585  0.1556
  425TP3      O13093   3.034   0.365   9.396 -0.0280 -0.4505  0.0762
  425TP3     H113094   2.988   0.344   9.315 -0.1833 -0.7768  0.2452
  425TP3     H213095   3.085   0.287   9.415 -1.1760 -0.9737  1.1024
  426TP3      O13096   3.558   0.214   7.292 -0.0734  0.5997 -0.2516
  426TP3     H113097   3.612   0.137   7.274 -0.1120  0.1754  1.3505
  426TP3     H213098   3.605   0.286   7.251  2.3425  0.4142  2.0577
  427TP3      O13099   2.702   1.819   0.262 -0.0518 -0.1861 -0.2660
  427TP3     H113100   2.744   1.768   0.331 -1.5301  0.5502  1.2559
  427TP3     H213101   2.619   1.773   0.245 -0.4168  0.5045 -0.4015
  428TP3      O13102   1.035   1.104   7.482 -0.2638 -0.6269 -0.6357
  428TP3     H113103   1.029   1.064   7.568  0.8440 -0.0674 -0.2827
  428TP3     H213104   0.993   1.189   7.492  0.6840 -0.1752 -0.3842
  429TP3      O13105   1.758   1.819   9.554  0.0814  0.0229 -0.6704
  429TP3     H113106   1.813   1.741   9.541  0.1982  0.0184 -0.1433
  429TP3     H213107   1.793   1.883   9.492 -0.7585 -0.7248 -1.9613
  430TP3      O13108   0.263   1.004   8.188 -0.8725  0.1837  0.3185
  430TP3     H113109   0.251   0.915   8.219 -0.4970 -0.1424 -0.4700
  430TP3     H213110   0.203   1.013   8.115  0.2704  0.0482 -0.6509
  431TP3      O13111   1.202   2.735   8.638  0.6211 -0.5711 -0.4113
  431TP3     H113112   1.170   2.669   8.699  0.8311 -2.6135 -2.4655
  431TP3     H213113   1.297   2.723   8.638  0.7593  0.4734  0.0266
  432TP3      O13114   4.446   3.093   9.353  0.1592  0.3476  0.1532
  432TP3     H113115   4.502   3.114   9.428 -0.2711  1.5411  0.1588
  432TP3     H213116   4.357   3.092   9.390  0.1445 -1.4521  0.1329
  433TP3      O13117   4.637   0.907   8.431  0.2562 -0.2173 -0.2926
  433TP3     H113118   4.704   0.844   8.459 -0.3210 -1.2319 -1.1351
  433TP3     H213119   4.626   0.966   8.505  1.9112 -0.1881 -0.0632
  434TP3      O13120   4.324   1.743   6.869  1.2304  0.8437 -0.5481
  434TP3     H113121   4.389   1.803   6.904  1.9745 -0.0102 -0.4203
  434TP3     H213122   4.268   1.721   6.943  3.0783 -1.3195  0.2585
  435TP3      O13123   5.176   4.957   9.883  0.4161  0.0971 -0.6045
  435TP3     H113124   5.187   5.048   9.857  1.4934  0.6622  1.6936
  435TP3     H213125   5.093   4.956   9.931  1.2974  0.2633  0.9556
  436TP3      O13126   0.226   1.730   7.297  0.0176  0.0561  0.3484
  436TP3     H113127   0.246   1.752   7.388 -1.8590  0.3029  0.7134
  436TP3     H213128   0.196   1.639   7.301 -2.5213  0.8645  0.3582
  437TP3      O13129   5.017   0.085   8.101  0.0415 -0.5607 -0.1084
  437TP3     H113130   4.961   0.044   8.035 -0.5585  0.3768 -0.1886
  437TP3     H213131   4.958   0.110   8.172  0.1108  1.7741 -0.8381
  438TP3      O13132   0.479   1.742   9.070 -0.2308 -0.8152 -0.0334
  438TP3     H113133   0.476   1.650   9.042  0.6708 -0.2084 -2.2912
  438TP3     H213134   0.389   1.763   9.093 -1.2113 -1.2467 -3.1838
  439TP3      O13135   4.460   0.723   7.381 -0.3547 -0.6798 -0.2566
  439TP3     H113136   4.366   0.739   7.380 -0.2996 -0.3772 -0.6272
  439TP3     H213137   4.495   0.780   7.313  0.0765 -0.9173 -0.2361
  440TP3      O13138   0.064   3.316   8.139  0.3536  0.4218  0.4535
  440TP3     H113139   0.075   3.405   8.105  1.3572 -0.4517 -1.5645
  440TP3     H213140   0.139   3.303   8.197  0.8558  0.4839 -0.1731
  441TP3      O13141   3.862   0.641   9.081 -0.5441  0.3614  0.2231
  441TP3     H113142   3.952   0.632   9.114 -1.0322 -3.0400  0.7274
  441TP3     H213143   3.816   0.687   9.151 -0.1506 -1.5716  1.7949
  442TP3      O13144   3.330   2.543   0.191 -0.6469 -0.2156 -0.0600
  442TP3     H113145   3.367   2.542   0.103  2.5370  0.8213  1.1961
  442TP3     H213146   3.343   2.454   0.223 -0.7650 -0.2884 -0.2124
  443TP3      O13147   4.834   0.469   8.275  0.1739 -0.0200 -0.6436
  443TP3     H113148   4.902   0.496   8.213  1.6571 -2.0789  0.0202
  443TP3     H213149   4.856   0.513   8.356 -0.0319  0.3130 -0.7667
  444TP3      O13150   1.125   2.289   7.706  0.0061  0.1423 -0.1532
  444TP3     H113151   1.070   2.357   7.744 -0.4934  0.4586 -1.4125
  444TP3     H213152   1.160   2.329   7.626 -1.5995 -1.6194 -1.7793
  445TP3      O13153   2.808   0.161  10.016  0.6030  0.2224 -0.2897
  445TP3     H113154   2.882   0.138  10.073  0.8666 -0.4547 -0.8947
  445TP3     H213155   2.846   0.165   9.929  0.1613  1.0626 -0.4432
  446TP3      O13156   0.012   0.882   7.397 -0.3812  0.0546  0.1931
  446TP3     H113157   0.044   0.807   7.348  1.5110 -0.3490  1.9949
  446TP3     H213158  -0.083   0.867   7.403 -0.2949 -1.1720 -1.1134
  447TP3      O13159   2.482   0.382   7.596  0.6356  0.0448  0.1903
  447TP3     H113160   2.449   0.404   7.509 -1.1635  3.3227  1.6076
  447TP3     H213161   2.423   0.313   7.627  1.1802 -1.0160 -1.1083
  448TP3      O13162   4.387   0.874   8.034  0.6100  0.4372 -0.0631
  448TP3     H113163   4.291   0.869   8.036  0.7034 -3.1368 -0.9798
  448TP3     H213164   4.407   0.924   7.955 -0.5142  1.2110  0.1403
  449TP3      O13165   2.513   0.799   8.591  0.3151  0.5885 -0.1086
  449TP3     H113166   2.491   0.878   8.641 -1.5485  0.4475 -0.6850
  449TP3     H213167   2.606   0.810   8.569  0.4083  2.0052  0.9055
  450TP3      O13168   2.336   5.039   9.933 -0.1674  0.0828  0.4026
  450TP3     H113169   2.429   5.023   9.946  0.4380  2.5895 -0.5623
  450TP3     H213170   2.319   5.008   9.844 -0.1106  0.2850  0.3227
  451TP3      O13171   0.630   4.385   7.746 -0.2374  0.2761 -0.3351
  451TP3     H113172   0.599   4.432   7.669 -1.1316  0.3996  0.0963
  451TP3     H213173   0.665   4.453   7.804  0.3731  0.1909 -0.6061
  452TP3      O13174   3.248   0.905   9.412 -0.4999  0.0375  0.7016
  452TP3     H113175   3.279   0.948   9.333 -1.1668 -0.1815  0.3148
  452TP3     H213176   3.298   0.946   9.483 -0.5472  0.8713  0.2570
  453TP3      O13177   5.110   2.181   6.995 -0.3852 -0.2109 -0.1912
  453TP3     H113178   5.169   2.109   7.018  1.2225  1.1378  0.0061
  453TP3     H213179   5.097   2.172   6.901  2.3043  1.0221 -0.7277
  454TP3      O13180   4.049   1.005   7.889 -0.3543 -0.6279 -0.0127
  454TP3     H113181   4.068   0.941   7.959  1.1855  0.0610  0.2272
  454TP3     H213182   4.114   0.985   7.821 -0.5050  0.0592 -0.3580
  455TP3      O13183   2.674   0.452   8.576 -0.1019 -0.1952  0.3072
  455TP3     H113184   2.679   0.442   8.671  0.9866 -0.9292  0.1736
  455TP3     H213185   2.719   0.535   8.559 -1.3090  0.5251  0.5295
  456TP3      O13186   3.028   0.474   0.110 -0.6741 -0.0724 -0.1196
  456TP3     H113187   3.043   0.390   0.067  0.2971 -0.5870  1.1987
  456TP3     H213188   3.097   0.480   0.176  0.6890  2.7997 -1.7367
  457TP3      O13189   1.101   2.523   8.749  0.1143  0.5320  0.2718
  457TP3     H113190   1.007   2.534   8.736  0.1918  2.2772  1.0533
  457TP3     H213191   1.112   2.429   8.768 -1.3900  0.2226 -0.3619
  458TP3      O13192   5.276   0.010   7.996 -0.3366  0.1187  0.2364
  458TP3     H113193   5.202   0.037   8.051  0.9243  0.3257  1.8872
  458TP3     H213194   5.325   0.090   7.980 -0.6127  0.0303 -1.0955
  459TP3      O13195   3.683   0.608  10.083 -0.7965  0.0873 -0.1762
  459TP3     H113196   3.607   0.555  10.060 -0.7924 -0.2512  0.5855
  459TP3     H213197   3.687   0.604  10.178  0.0317  0.3053 -0.2008
  460TP3      O13198   0.818   5.058   9.087 -0.1749  0.3771 -0.8839
  460TP3     H113199   0.862   5.114   9.150 -1.7549  0.2309  0.3662
  460TP3     H213200   0.883   5.045   9.017  2.3464 -1.1469  1.6377
  461TP3      O13201   1.557   1.319   8.044  0.2978  0.2655  0.8278
  461TP3     H113202   1.485   1.382   8.051  0.3268  0.6791 -1.9750
  461TP3     H213203   1.634   1.369   8.073 -0.1143  0.6398  1.2991
  462TP3      O13204   0.910   0.613   8.582  0.0304 -0.1354 -0.4312
  462TP3     H113205   0.891   0.583   8.671 -0.5150 -0.4633 -0.6550
  462TP3     H213206   0.906   0.533   8.529  1.8426 -0.1814 -0.5185
  463TP3      O13207   4.776   5.090   9.065 -0.0971 -0.4397 -0.3476
  463TP3     H113208   4.732   5.062   8.985  1.5054  0.3185 -1.5149
  463TP3     H213209   4.743   5.030   9.132 -1.6858 -0.8912 -1.4956
  464TP3      O13210   5.264   0.289   8.735 -0.1898  0.2904 -0.1490
  464TP3     H113211   5.262   0.220   8.801 -0.1352 -0.2452 -0.6952
  464TP3     H213212   5.215   0.252   8.661 -1.3680  1.3759  0.0724
  465TP3      O13213   3.841   2.268   8.356  0.3935  0.2517  0.7100
  465TP3     H113214   3.834   2.317   8.274  0.4531  1.0719  1.1880
  465TP3     H213215   3.893   2.325   8.413  1.3248 -0.8269  0.9363
  466TP3      O13216   0.089   4.197   8.248 -0.0045 -0.5227  0.0558
  466TP3     H113217   0.099   4.221   8.156 -2.0817 -1.6846 -0.4959
  466TP3     H213218  -0.003   4.215   8.268 -0.1681 -2.4916  1.2327
  467TP3      O13219   3.412   2.655   8.279  0.5177  0.2231  0.5277
  467TP3     H113220   3.484   2.717   8.289  0.5036  0.1639  0.9724
  467TP3     H213221   3.455   2.569   8.279  0.2309  0.0307  3.2609
  468TP3      O13222   5.105   5.350   7.116 -0.1209  0.1707 -0.0408
  468TP3     H113223   5.032   5.412   7.114  1.1193  1.7244  1.4158
  468TP3     H213224   5.183   5.405   7.125  1.0414 -1.5923  0.9200
  469TP3      O13225   0.255   0.941   9.491 -0.5757 -0.2711  0.1297
  469TP3     H113226   0.289   0.877   9.429 -2.7746 -1.0997 -0.2722
  469TP3     H213227   0.256   1.023   9.443  3.0712  0.2613  0.9271
  470TP3      O13228   2.656   0.695   0.747  0.1446  0.2474  0.2225
  470TP3     H113229   2.621   0.662   0.665  0.5278 -0.0816  0.1924
  470TP3     H213230   2.744   0.658   0.753  0.5331  1.1631  0.2422
  471TP3      O13231   1.706   2.535   9.132  0.0660  0.0194 -0.3090
  471TP3     H113232   1.617   2.509   9.153 -0.2325  0.1793 -1.3446
  471TP3     H213233   1.758   2.504   9.206 -0.7920 -0.4004  0.1253
  472TP3      O13234   3.124   1.799   0.369  0.7173  0.1457  0.5644
  472TP3     H113235   3.042   1.815   0.415  1.3025  1.5816  1.1301
  472TP3     H213236   3.166   1.729   0.419  0.7503  0.8024  1.4681
  473TP3      O13237   4.297   0.642   0.104  0.2076  0.4192  0.2282
  473TP3     H113238   4.291   0.734   0.079 -0.0038 -0.0785 -1.6201
  473TP3     H213239   4.206   0.613   0.111  0.2811  0.2279  0.4020
  474TP3      O13240   0.119   1.164   0.189  0.6354  0.1524  0.1046
  474TP3     H113241   0.056   1.210   0.133  0.3450 -0.2197  0.1227
  474TP3     H213242   0.110   1.207   0.274 -0.4759 -0.6910  0.4331
  475TP3      O13243   2.013   4.245   9.405 -0.2498  0.3313  0.0236
  475TP3     H113244   2.036   4.276   9.317 -2.0031  0.3636 -0.4482
  475TP3     H213245   1.978   4.157   9.391 -3.6704  1.5628  0.2222
  476TP3      O13246   2.468   2.790   7.034  0.5668  0.2558 -0.3621
  476TP3     H113247   2.384   2.768   7.074  1.5826  1.5334  2.6229
  476TP3     H213248   2.451   2.872   6.988  0.3975  1.0800  1.1275
  477TP3      O13249   1.569   0.278   9.438 -0.1925  0.0943  0.1948
  477TP3     H113250   1.529   0.195   9.411 -1.5460  0.1158  2.0396
  477TP3     H213251   1.640   0.252   9.497 -0.3810  0.2314  0.4840
  478TP3      O13252   5.320   5.446   8.600 -0.3355  0.2441  0.8505
  478TP3     H113253   5.364   5.361   8.606  0.1648  0.4926  0.6710
  478TP3     H213254   5.229   5.426   8.620 -0.5360 -0.6166 -0.7729
  479TP3      O13255   1.245   1.134   0.301 -0.5794  0.5196 -0.4783
  479TP3     H113256   1.203   1.050   0.281  0.0750 -0.5865  2.6076
  479TP3     H213257   1.173   1.197   0.296 -1.2943 -0.3619 -1.7387
  480TP3      O13258   0.262   0.744   8.797 -0.1846  0.3116 -0.0834
  480TP3     H113259   0.334   0.698   8.753 -2.6676 -1.2521 -2.6763
  480TP3     H213260   0.212   0.675   8.841 -0.3506  1.3311  1.3816
  481TP3      O13261   4.301   2.131   8.923  0.5433  0.0472 -0.2225
  481TP3     H113262   4.206   2.119   8.916  0.6147  0.5274 -2.3579
  481TP3     H213263   4.334   2.114   8.834  2.2406  1.8288  0.0291
  482TP3      O13264   5.102   3.430   8.240 -0.1425 -0.0534  0.1958
  482TP3     H113265   5.117   3.510   8.189  1.9627  0.6530  1.8649
  482TP3     H213266   5.185   3.383   8.235 -0.9976 -1.5842  0.2010
  483TP3      O13267   4.852   5.279   0.159  0.2697 -0.6495  0.4974
  483TP3     H113268   4.897   5.197   0.177  1.6794 -0.0131 -0.0757
  483TP3     H213269   4.921   5.345   0.162 -0.8442  0.5160  0.9444
  484TP3      O13270   4.592   0.682   7.058  0.4114 -0.0435 -0.3435
  484TP3     H113271   4.605   0.708   6.966 -1.2986  1.0970 -0.2715
  484TP3     H213272   4.616   0.760   7.108  2.9690 -1.1892  0.2974
  485TP3      O13273   4.602   5.422   8.624  0.0128  0.2233  0.3138
  485TP3     H113274   4.682   5.472   8.608  0.1168  0.1859  0.7038
  485TP3     H213275   4.550   5.479   8.681  0.2466 -0.2192  0.9795
  486TP3      O13276   5.040   0.043   2.120  0.3199 -0.3677 -0.1017
  486TP3     H113277   4.953   0.075   2.147  1.2737  1.8929  0.4401
  486TP3     H213278   5.031   0.029   2.026 -0.2075  1.4395 -0.3506
  487TP3      O13279   3.953   2.529   9.648  0.5560 -0.1527  0.2000
  487TP3     H113280   3.917   2.612   9.680  0.1514 -0.2207 -0.0649
  487TP3     H213281   4.027   2.554   9.593 -0.0825  0.0906 -0.5701
  488TP3      O13282   3.822   0.420   6.860  0.3680 -0.4700  0.1969
  488TP3     H113283   3.743   0.473   6.851  0.9387  0.2253 -0.9200
  488TP3     H213284   3.861   0.448   6.942  1.0386  1.3977 -0.7288
  489TP3      O13285   3.856   0.708   7.447  0.1926  0.2472 -0.2073
  489TP3     H113286   3.926   0.664   7.399  0.6229  0.4367  0.2388
  489TP3     H213287   3.778   0.693   7.394  0.8903  1.6310 -1.6887
  490TP3      O13288   4.046   2.070   8.893 -0.7370  0.3296 -0.5541
  490TP3     H113289   3.961   2.085   8.854  0.0934  3.3289 -1.3577
  490TP3     H213290   4.027   2.031   8.978 -2.8325 -0.2652 -1.2672
  491TP3      O13291   1.642   2.221   9.784 -0.3908  0.0818 -0.4072
  491TP3     H113292   1.638   2.226   9.880  0.8366  1.4993 -0.4148
  491TP3     H213293   1.595   2.140   9.763 -0.4477 -0.3935  1.4092
  492TP3      O13294   2.466   5.290   9.115 -1.1043 -0.1279 -0.4683
  492TP3     H113295   2.519   5.317   9.040 -2.4918  0.5510 -1.2245
  492TP3     H213296   2.492   5.351   9.185 -0.6205 -0.0349 -0.7277
  493TP3      O13297   2.983   2.030   8.588 -0.4874  0.3620  0.1744
  493TP3     H113298   3.061   2.045   8.640  0.3872  0.3466 -1.1054
  493TP3     H213299   2.921   1.988   8.648  0.5651  0.1642  1.1301
  494TP3      O13300   0.625   1.168   7.471  0.1381  0.0918  0.0038
  494TP3     H113301   0.720   1.159   7.462  0.2921  0.6538  0.9934
  494TP3     H213302   0.613   1.252   7.515 -0.7908 -0.3222  0.5586
  495TP3      O13303   0.428   2.642   9.517 -0.8772  0.5093  0.0888
  495TP3     H113304   0.335   2.622   9.506 -1.0612  1.0584  0.6560
  495TP3     H213305   0.470   2.604   9.439 -1.7443  1.4271 -0.8401
  496TP3      O13306   3.294   2.575   8.003 -0.5825 -0.3221  0.7257
  496TP3     H113307   3.276   2.481   8.005  0.0800 -0.4357  2.2023
  496TP3     H213308   3.340   2.592   8.085  1.8738  0.7836 -0.8019
  497TP3      O13309   5.299   1.567   7.464  0.0122 -0.1467  0.0546
  497TP3     H113310   5.344   1.644   7.499  1.3459 -1.7057  1.9151
  497TP3     H213311   5.336   1.555   7.377  0.1790  1.0156 -0.0389
  498TP3      O13312   2.774   0.834   8.775  0.3263 -0.4337 -0.3100
  498TP3     H113313   2.848   0.872   8.821 -0.3847  3.5398 -2.1688
  498TP3     H213314   2.699   0.848   8.834  0.1655  0.6729 -0.7506
  499TP3      O13315   3.184   4.198   1.598  0.3875  0.5260 -0.3612
  499TP3     H113316   3.244   4.173   1.668  1.4072  1.5526 -0.8618
  499TP3     H213317   3.193   4.293   1.591 -0.6972  0.5898 -0.9810
  500TP3      O13318   4.895   1.494   8.317 -0.1058 -0.0209 -0.0709
  500TP3     H113319   4.821   1.503   8.257  0.6844 -2.8675 -1.5956
  500TP3     H213320   4.891   1.571   8.373 -4.1016 -0.0066 -0.2450
  501TP3      O13321   0.116   2.941   7.150  0.0848  0.2553 -0.6727
  501TP3     H113322   0.027   2.907   7.162 -0.0429  0.2061 -1.7506
  501TP3     H213323   0.141   2.915   7.062  2.2419 -2.1049  0.5722
  502TP3      O13324   0.063   5.484   9.330  0.1103 -0.4715  0.4855
  502TP3     H113325   0.006   5.552   9.367  0.9506 -0.9894  2.8684
  502TP3     H213326   0.005   5.431   9.276 -0.7984  1.4624 -0.5014
  503TP3      O13327   4.582   0.391   7.463  0.6615  0.5004  0.7676
  503TP3     H113328   4.560   0.467   7.518 -0.6571  2.1642 -1.9060
  503TP3     H213329   4.578   0.426   7.373  0.8396 -2.5635 -0.4734
  504TP3      O13330   4.028   1.963   8.140  0.0698  0.1359 -0.2434
  504TP3     H113331   4.043   1.871   8.119  0.5494 -0.0423  0.8407
  504TP3     H213332   3.969   1.960   8.215  0.7461  0.6953  0.3100
  505TP3      O13333   0.138   3.505   8.504  0.3159 -0.4891  0.4211
  505TP3     H113334   0.142   3.427   8.449  1.4476 -0.3233  0.2407
  505TP3     H213335   0.228   3.539   8.502 -0.2212  0.9434  0.2916
  506TP3      O13336   1.210   0.320   7.562  0.2800 -0.3036 -0.3960
  506TP3     H113337   1.178   0.273   7.485  1.4271 -0.4321 -0.8074
  506TP3     H213338   1.293   0.359   7.534 -0.5549  1.7961  0.0201
  507TP3      O13339   0.087   0.487   0.168 -0.0978 -0.0422  0.1194
  507TP3     H113340   0.047   0.574   0.173  0.0370 -0.0481  1.5684
  507TP3     H213341   0.015   0.426   0.185  0.2351 -0.1031  1.4070
  508TP3      O13342   0.873   0.191   9.340  0.2236 -0.1444  0.4465
  508TP3     H113343   0.944   0.136   9.372  1.1815  0.5171 -0.4837
  508TP3     H213344   0.890   0.277   9.378  0.5649  0.2863 -0.6396
  509TP3      O13345   1.326   0.368   8.349 -0.2447  0.0442 -0.3704
  509TP3     H113346   1.326   0.355   8.444 -0.3813 -0.0701 -0.3848
  509TP3     H213347   1.244   0.327   8.320  0.3817 -1.0192 -0.6803
  510TP3      O13348   2.556   5.223   0.368  0.0341 -0.2796  0.1935
  510TP3     H113349   2.597   5.302   0.404  0.0831  0.1820 -0.8551
  510TP3     H213350   2.608   5.151   0.404  0.3813  0.1917  0.6507
  511TP3      O13351   5.392   0.244   8.026  0.3426 -0.6522  0.1248
  511TP3     H113352   5.482   0.237   8.055 -0.4573  2.5227  3.8766
  511TP3     H213353   5.395   0.306   7.953  1.2291 -0.9901 -0.1321
  512TP3      O13354   1.980   5.510   9.890 -0.3502 -0.1433  0.0736
  512TP3     H113355   1.977   5.415   9.902  0.9685 -0.3315 -0.9910
  512TP3     H213356   2.057   5.525   9.835  0.2422  1.6577  1.3233
  513TP3      O13357   4.126   3.558   2.907 -0.7748  0.1775  0.0242
  513TP3     H113358   4.177   3.551   2.988 -0.9720  0.7582  0.2037
  513TP3     H213359   4.038   3.579   2.937 -1.2860 -1.4912 -0.2499
  514TP3      O13360   3.659   0.846   7.580 -0.0937 -0.2032 -0.8101
  514TP3     H113361   3.610   0.881   7.505 -0.2217 -1.0195 -1.1146
  514TP3     H213362   3.736   0.805   7.540  0.1418 -0.1225 -0.4392
  515TP3      O13363   0.057   5.046   8.017  0.3799  0.0888 -0.4503
  515TP3     H113364   0.145   5.023   7.986  0.5039  2.0316 -1.6088
  515TP3     H213365   0.035   5.126   7.970 -1.4516  0.4047  0.8830
  516TP3      O13366   4.714   4.150   9.517  0.1430 -0.4071  0.1889
  516TP3     H113367   4.725   4.084   9.448  0.7763  0.5252 -0.6096
  516TP3     H213368   4.625   4.182   9.504 -0.0948 -0.9587  0.4473
  517TP3      O13369   3.356   4.398   9.315  0.4597  0.5884  0.3717
  517TP3     H113370   3.312   4.361   9.239  0.4336  0.1478  0.6009
  517TP3     H213371   3.350   4.329   9.382 -0.2266  1.2803  1.0312
  518TP3      O13372   0.779   1.835   9.754 -0.0983  0.4468  0.2325
  518TP3     H113373   0.796   1.869   9.842  0.6369 -0.0701  0.2914
  518TP3     H213374   0.714   1.766   9.767  0.1554  0.2390  0.3928
  519TP3      O13375   0.409   2.414   7.525  0.0397 -0.3267  0.1660
  519TP3     H113376   0.466   2.462   7.585 -0.0606 -0.9170  0.7360
  519TP3     H213377   0.468   2.375   7.462  0.1632  0.1245 -0.0024
  520TP3      O13378   3.558   4.950   8.706  0.1677  0.6777 -0.2530
  520TP3     H113379   3.598   5.002   8.775  1.6740 -1.5132  0.6026
  520TP3     H213380   3.632   4.923   8.651 -0.5033 -0.8015 -0.4701
  521TP3      O13381   4.077   0.422   7.757  0.3354  0.6215  0.5099
  521TP3     H113382   4.165   0.397   7.728 -0.7815 -2.5164 -0.3851
  521TP3     H213383   4.058   0.502   7.708  2.0556  0.4564 -0.4933
  522TP3      O13384   0.466   0.310  10.300 -0.2567  0.4236  0.1415
  522TP3     H113385   0.554   0.273  10.306 -0.0564  0.7454 -0.6952
  522TP3     H213386   0.409   0.236  10.282 -0.1201  0.2448  0.4556
  523TP3      O13387   4.931   1.392   7.186  0.2528  0.2976 -0.6070
  523TP3     H113388   4.871   1.461   7.157  0.0472  0.9157  1.2403
  523TP3     H213389   5.018   1.428   7.168  0.2250  1.9996  2.2782
  524TP3      O13390   4.566   0.150   8.348 -0.7973  0.6796 -0.3586
  524TP3     H113391   4.511   0.167   8.425  1.5133 -0.4755  1.6489
  524TP3     H213392   4.536   0.065   8.316 -0.9235  0.5574  0.0715
  525TP3      O13393   0.612   2.804   9.063  0.1147  0.0565  0.2243
  525TP3     H113394   0.658   2.731   9.104  0.4467 -0.8787 -1.7717
  525TP3     H213395   0.524   2.800   9.099  0.7127 -0.0392  1.7102
  526TP3      O13396   4.826   0.060   8.968 -0.5437  0.0794 -0.1004
  526TP3     H113397   4.801   0.006   9.043  0.7280  0.8900  0.9274
  526TP3     H213398   4.807   0.150   8.995  2.3711  0.6254  0.3121
  527TP3      O13399   3.887   1.548   7.368 -0.2591  0.1060 -0.3645
  527TP3     H113400   3.830   1.621   7.395  0.6588 -0.0092  1.9211
  527TP3     H213401   3.909   1.569   7.277 -2.5937  1.0140 -0.7715
  528TP3      O13402   3.485   4.013   0.716 -0.5516 -0.3321  0.1628
  528TP3     H113403   3.548   3.974   0.777 -1.6861 -0.3782  1.3180
  528TP3     H213404   3.431   3.939   0.688 -2.0950  0.2565  1.6049
  529TP3      O13405   1.476   1.313   9.035  0.2517 -0.1403 -0.3799
  529TP3     H113406   1.562   1.333   9.072  0.6060 -1.4835 -0.4626
  529TP3     H213407   1.441   1.399   9.009  1.0166  0.5558  0.8331
  530TP3      O13408   0.521   2.192   8.865  0.2603  0.1334  0.2677
  530TP3     H113409   0.554   2.204   8.776  0.5982  0.0408  0.3805
  530TP3     H213410   0.451   2.127   8.855 -1.4716  2.0222 -0.3130
  531TP3      O13411   4.674   3.854   8.204  0.1758 -0.0413 -0.4381
  531TP3     H113412   4.755   3.899   8.184 -0.5100  1.0061 -0.9067
  531TP3     H213413   4.606   3.921   8.197 -0.5725 -0.5745  1.3574
  532TP3      O13414   2.397   5.381   6.961  0.1824 -0.4919 -0.2858
  532TP3     H113415   2.408   5.475   6.974 -0.1468 -0.5624  0.5912
  532TP3     H213416   2.307   5.371   6.930  0.1497 -0.5301 -0.1810
  533TP3      O13417   0.127   0.377   8.672  0.4075 -0.0334  0.6279
  533TP3     H113418   0.113   0.319   8.597 -0.4705  0.7432  0.1840
  533TP3     H213419   0.202   0.339   8.718 -0.1401 -1.5125  0.3275
  534TP3      O13420   2.823   1.803   9.150  0.6531  0.0736  0.3823
  534TP3     H113421   2.754   1.854   9.106  0.8421 -0.4664 -0.5548
  534TP3     H213422   2.899   1.862   9.151  1.2003 -0.5406 -1.6665
  535TP3      O13423   3.284   1.540   8.211  0.6271  0.0570 -0.1582
  535TP3     H113424   3.334   1.598   8.152  0.8854 -1.0733 -1.0914
  535TP3     H213425   3.325   1.454   8.198 -1.5301 -0.8778 -0.8825
  536TP3      O13426   3.889   1.820   9.392  0.2601 -0.5890  0.4716
  536TP3     H113427   3.907   1.745   9.448 -1.6449  0.2497  2.2674
  536TP3     H213428   3.802   1.803   9.356  0.1251  0.3951  0.3182
  537TP3      O13429   4.588   3.250   9.961 -0.1587 -0.1876 -0.0205
  537TP3     H113430   4.677   3.247   9.995 -0.8370  0.5830  1.8742
  537TP3     H213431   4.562   3.158   9.955  0.7547 -0.4130 -0.5653
  538TP3      O13432   1.510   4.464   8.964  0.3016  0.1896  0.0560
  538TP3     H113433   1.573   4.527   9.000 -1.5615  1.4999  1.0998
  538TP3     H213434   1.487   4.499   8.878 -1.8811  1.7572  1.2692
  539TP3      O13435   3.797   4.767   0.391 -0.0192 -0.1686  0.6020
  539TP3     H113436   3.706   4.743   0.373 -0.0111 -0.3534  0.8149
  539TP3     H213437   3.830   4.798   0.306 -0.2213 -0.2864  0.4794
  540TP3      O13438   3.272   5.250   7.124 -0.4158 -0.4710  0.5999
  540TP3     H113439   3.308   5.197   7.053 -0.6734  0.3724 -0.1693
  540TP3     H213440   3.198   5.198   7.157  0.2506 -1.2690  0.8375
  541TP3      O13441   4.230   5.255   8.605 -0.2562 -0.6002  0.2232
  541TP3     H113442   4.184   5.338   8.591 -0.3582 -0.5997  0.5524
  541TP3     H213443   4.301   5.256   8.541  0.3178  0.1690  0.8745
  542TP3      O13444   0.137   0.288   8.186 -0.0466 -0.2307 -0.2629
  542TP3     H113445   0.229   0.302   8.165 -0.0942  0.4026 -0.0653
  542TP3     H213446   0.132   0.196   8.211  0.1925 -0.7410 -2.0556
  543TP3      O13447   4.351   3.298   1.207 -0.0782  0.4063  0.3480
  543TP3     H113448   4.294   3.321   1.134  0.1155 -2.8092 -0.8830
  543TP3     H213449   4.439   3.296   1.170  0.2684  0.6572  1.1290
  544TP3      O13450   4.502   3.458   9.195  0.5101 -0.4132 -0.5140
  544TP3     H113451   4.503   3.545   9.156  3.1402  0.0964  0.5730
  544TP3     H213452   4.442   3.465   9.269 -0.3562  0.0784 -1.2609
  545TP3      O13453   2.575   0.331   9.996 -0.0387  0.5324 -0.0663
  545TP3     H113454   2.656   0.293  10.029  0.2236  1.6162  0.5857
  545TP3     H213455   2.560   0.407  10.052 -0.6930  1.2203 -1.1505
  546TP3      O13456   5.362   0.804   0.826 -0.3139 -0.4320 -0.0969
  546TP3     H113457   5.448   0.815   0.867 -0.4077 -0.6717  0.1679
  546TP3     H213458   5.358   0.712   0.803  0.4369  0.0607 -2.2527
  547TP3      O13459   3.727   3.935   9.116  0.2109 -0.3253 -0.7490
  547TP3     H113460   3.803   3.955   9.171 -0.8469  1.5190  0.0848
  547TP3     H213461   3.734   3.998   9.044 -0.6212 -0.0448 -0.5818
  548TP3      O13462   0.267   5.094   8.988 -0.1283 -0.4488  0.5263
  548TP3     H113463   0.268   5.071   8.895  2.3533  1.6174  0.0082
  548TP3     H213464   0.175   5.113   9.006 -0.6360 -0.7968 -1.5081
  549TP3      O13465   0.605   3.090   8.982  0.0196 -0.2771  0.1815
  549TP3     H113466   0.591   3.131   9.067 -0.9837  0.7387 -0.4633
  549TP3     H213467   0.599   2.996   8.999  1.5112 -0.1606  1.5254
  550TP3      O13468   4.789   2.947   9.394 -0.1739  0.2566  0.3335
  550TP3     H113469   4.751   2.973   9.310  0.3114  0.4981  0.1873
  550TP3     H213470   4.750   3.006   9.458 -1.8913 -1.0676  0.5404
  551TP3      O13471   5.147   4.723   7.825  0.8527  0.4416 -0.6737
  551TP3     H113472   5.061   4.759   7.804 -0.5394 -0.4180  3.1981
  551TP3     H213473   5.203   4.800   7.833  0.3514  1.0440 -2.7317
  552TP3      O13474   0.001   1.865   0.207 -0.8061 -0.0067  0.2365
  552TP3     H113475   0.094   1.883   0.199 -0.1358 -2.0487  2.7025
  552TP3     H213476  -0.031   1.861   0.117  1.4385  0.8408 -0.6277
  553TP3      O13477   4.613   5.426   8.000  0.5975  0.2037 -0.2962
  553TP3     H113478   4.548   5.463   7.941  2.0012  0.1257 -1.9159
  553TP3     H213479   4.690   5.483   7.990  0.9177  0.0742  1.3012
  554TP3      O13480   2.801   5.057  10.052  0.2996  0.0547 -0.0382
  554TP3     H113481   2.833   5.137  10.093 -0.8505  0.3785  0.2229
  554TP3     H213482   2.841   5.059   9.964  2.0712 -0.2225  0.7372
  555TP3      O13483   1.424   1.494  10.085 -0.1470  0.0376 -0.1770
  555TP3     H113484   1.367   1.562  10.121  0.0739 -1.0169  2.2349
  555TP3     H213485   1.512   1.521  10.109  0.3409  1.0172 -2.8359
  556TP3      O13486   4.525   0.450   7.175  0.0804  0.6179 -0.0810
  556TP3     H113487   4.553   0.531   7.134 -0.8273 -0.3462 -2.6922
  556TP3     H213488   4.602   0.393   7.171 -0.5997 -0.1982 -2.4405
  557TP3      O13489   2.022   4.373   7.927 -0.2013 -0.4102 -0.5664
  557TP3     H113490   2.106   4.418   7.935 -2.2011  3.9445 -2.5370
  557TP3     H213491   2.021   4.339   7.838 -0.1487 -1.3241 -0.2261
  558TP3      O13492   3.107   1.891   6.685  0.3628 -0.2407 -0.1642
  558TP3     H113493   3.107   1.978   6.645 -0.3078  0.1168  0.6115
  558TP3     H213494   3.171   1.898   6.756 -1.6180  0.4029  1.5850
  559TP3      O13495   2.060   2.844   8.877 -0.8660  0.8423 -0.5839
  559TP3     H113496   2.025   2.821   8.963  1.0221  1.2135  0.3009
  559TP3     H213497   2.072   2.759   8.833  1.4562  0.4022  0.8349
  560TP3      O13498   5.282   4.413   7.357 -0.1171 -0.6332  0.6261
  560TP3     H113499   5.359   4.418   7.301  0.7165 -0.3070  1.7811
  560TP3     H213500   5.276   4.499   7.397 -0.5300 -0.9584  1.2680
  561TP3      O13501   2.693   1.480   1.473  0.5998 -0.2377 -0.2966
  561TP3     H113502   2.636   1.543   1.518  0.5459 -0.8229  0.4588
  561TP3     H213503   2.667   1.486   1.381 -1.7353 -1.5779  0.2428
  562TP3      O13504   5.379   0.487   7.170 -0.2566 -0.2456 -0.5291
  562TP3     H113505   5.419   0.400   7.172 -0.7003 -0.4346  0.2092
  562TP3     H213506   5.449   0.546   7.196 -0.6190 -0.6470  1.4580
  563TP3      O13507   2.921   2.716   0.593  0.3804  0.5014 -0.0872
  563TP3     H113508   2.842   2.708   0.539  0.1416 -1.3952  0.4876
  563TP3     H213509   2.889   2.705   0.683  1.2346  0.2311  0.1838
  564TP3      O13510   4.787   4.838   7.248  0.9736  0.1133 -0.0846
  564TP3     H113511   4.736   4.877   7.177 -0.1881  1.9134  1.6695
  564TP3     H213512   4.741   4.757   7.270  0.7684  0.0534 -0.7353
  565TP3      O13513   5.223   0.189   7.734  0.3925 -0.2622  0.5377
  565TP3     H113514   5.275   0.233   7.667  0.2723  1.2192  1.4147
  565TP3     H213515   5.276   0.193   7.813 -0.6728  0.5157  1.2301
  566TP3      O13516   0.781   0.983   7.757 -0.1982  0.4667 -0.4164
  566TP3     H113517   0.735   1.021   7.832 -1.2655  0.0152 -0.8239
  566TP3     H213518   0.871   1.013   7.766 -0.5829  1.4129  0.3768
  567TP3      O13519   2.708   1.139   8.882 -0.0474 -0.0539  0.1392
  567TP3     H113520   2.669   1.066   8.931 -2.2368  1.0272  0.1006
  567TP3     H213521   2.739   1.199   8.950  1.6161 -0.9355  0.1698
  568TP3      O13522   1.160   1.570   7.462  0.7419 -0.6535  0.6124
  568TP3     H113523   1.064   1.569   7.458  0.7681 -0.9887  0.1491
  568TP3     H213524   1.179   1.592   7.553  0.2245 -1.2099  0.8585
  569TP3      O13525   1.381   0.190   8.683 -0.2469 -0.0421 -0.1776
  569TP3     H113526   1.342   0.276   8.667 -0.8134 -0.3312 -0.3774
  569TP3     H213527   1.354   0.138   8.607  0.2227 -0.3484 -0.1325
  570TP3      O13528   2.011   0.171   8.855  0.1763  0.1608  0.0247
  570TP3     H113529   2.062   0.209   8.926 -0.0184 -0.8836  0.7459
  570TP3     H213530   1.922   0.202   8.870  0.4903  1.5048 -0.8899
  571TP3      O13531   3.452   5.465   7.059  0.4693 -0.3762 -0.8666
  571TP3     H113532   3.470   5.431   6.972 -1.5044 -0.9021 -1.0985
  571TP3     H213533   3.389   5.404   7.096 -0.1750  0.9032  0.1969
  572TP3      O13534   2.886   4.412   7.632  0.0566 -0.4841  0.2409
  572TP3     H113535   2.911   4.321   7.618 -0.7661 -0.7100  0.1926
  572TP3     H213536   2.797   4.418   7.596 -0.4312 -0.0077  1.4850
  573TP3      O13537   3.576   0.227   8.365 -0.1277 -0.3789 -0.0721
  573TP3     H113538   3.580   0.177   8.283 -1.9520 -1.2438  0.3399
  573TP3     H213539   3.493   0.274   8.360  0.0619  0.0875  1.0019
  574TP3      O13540   4.263   5.468   7.362 -0.0127  0.4541  0.5111
  574TP3     H113541   4.170   5.447   7.368  0.8676 -3.4809  2.1724
  574TP3     H213542   4.278   5.530   7.434 -1.2330  0.6586  0.6052
  575TP3      O13543   3.496   2.417   9.970  0.2754  0.2597 -0.5221
  575TP3     H113544   3.442   2.424   9.891  0.0526  1.7389 -0.2491
  575TP3     H213545   3.572   2.473   9.952  1.5507 -1.5005 -0.7539
  576TP3      O13546   3.516   1.119   7.178  0.1878 -0.1959  0.3483
  576TP3     H113547   3.540   1.048   7.238  1.8830 -0.7891 -0.9896
  576TP3     H213548   3.427   1.143   7.203 -0.2194 -2.4511  1.1416
  577TP3      O13549   0.081   4.615   8.817 -0.4788 -0.4038  0.1129
  577TP3     H113550   0.174   4.637   8.821 -0.5509 -0.3461  1.5517
  577TP3     H213551   0.057   4.632   8.726 -0.0310  3.6015  0.6087
  578TP3      O13552   0.709   0.820   9.200 -0.5378 -0.5671  0.2362
  578TP3     H113553   0.624   0.864   9.186 -0.4402 -0.0450  1.2379
  578TP3     H213554   0.717   0.760   9.126 -0.9804  0.6353 -0.8159
  579TP3      O13555   3.810   0.442   9.421  0.2184 -0.2824 -0.3173
  579TP3     H113556   3.832   0.389   9.344  2.3840  0.7910 -0.4835
  579TP3     H213557   3.893   0.450   9.469 -0.8029  0.2328  1.3914
  580TP3      O13558   0.036   4.419   9.252  0.0323  0.3604  0.0596
  580TP3     H113559  -0.012   4.499   9.228  0.7273  0.3522 -1.4366
  580TP3     H213560   0.104   4.450   9.312 -2.2081  0.2722  2.7141
  581TP3      O13561   1.678   5.523   8.192  0.4625 -0.2551 -0.7152
  581TP3     H113562   1.722   5.481   8.266 -0.1863  2.2901  1.2005
  581TP3     H213563   1.605   5.466   8.172  0.9503 -1.2457  0.2832
  582TP3      O13564   3.597   3.511   0.954 -0.4887  0.2924  0.2614
  582TP3     H113565   3.624   3.428   0.993 -0.6007  0.1808  0.1010
  582TP3     H213566   3.540   3.486   0.881  0.0970  0.4781 -0.2702
  583TP3      O13567   3.845   3.148   9.405 -0.3270 -0.0772 -0.3801
  583TP3     H113568   3.910   3.123   9.339 -0.7132  0.4798 -0.9866
  583TP3     H213569   3.764   3.106   9.375 -0.8109  1.2682 -1.0071
  584TP3      O13570   5.114   2.731   8.531  0.2008  0.0820  0.4124
  584TP3     H113571   5.034   2.778   8.509  0.8640  0.7020 -0.7261
  584TP3     H213572   5.170   2.796   8.573  0.1407 -0.3356  1.1501
  585TP3      O13573   4.141   3.697   9.671 -0.3093 -0.3746  0.1519
  585TP3     H113574   4.139   3.614   9.719  0.0167 -0.7718 -0.5135
  585TP3     H213575   4.235   3.715   9.660 -0.3785  0.2756  0.6305
  586TP3      O13576   3.580   4.388   0.028  0.0534  0.0527  0.1460
  586TP3     H113577   3.604   4.310   0.076  2.9122 -0.5989 -2.1890
  586TP3     H213578   3.612   4.373  -0.061 -3.0586  2.1259 -1.4587
  587TP3      O13579   3.457   2.383   1.132  0.2123 -0.1503 -0.3515
  587TP3     H113580   3.507   2.346   1.059  0.5704 -0.5323  0.0870
  587TP3     H213581   3.478   2.476   1.131  1.4481 -0.4155  0.2330
  588TP3      O13582   2.379   0.170   9.110 -0.1957  0.6225 -0.2333
  588TP3     H113583   2.459   0.161   9.058 -0.6884 -2.5601 -0.5297
  588TP3     H213584   2.409   0.205   9.194  1.4676 -0.3174 -0.4197
  589TP3      O13585   0.908   3.775   8.066  0.2365 -0.7901  0.1407
  589TP3     H113586   0.988   3.762   8.117 -0.1922 -0.5496  0.8887
  589TP3     H213587   0.925   3.732   7.982  2.4860  2.3444 -1.0700
  590TP3      O13588   2.403   1.521   9.115  0.3360  0.2245  0.2547
  590TP3     H113589   2.485   1.554   9.151 -0.2850  0.3313  1.6298
  590TP3     H213590   2.408   1.426   9.127  0.4171  0.1957 -0.0056
  591TP3      O13591   0.466   1.470   0.314  0.4782 -0.7446 -0.0472
  591TP3     H113592   0.469   1.557   0.273  0.0998  0.7253  2.8469
  591TP3     H213593   0.424   1.414   0.249  0.6541  1.2584 -1.9643
  592TP3      O13594   5.025   1.205   1.104  0.2712  0.5705  0.4850
  592TP3     H113595   5.039   1.151   1.182  1.4320  1.1743  0.6988
  592TP3     H213596   4.968   1.152   1.049  0.4528 -0.3883  1.1964
  593TP3      O13597   0.758   1.828   7.716 -0.1648 -0.1161 -0.2432
  593TP3     H113598   0.729   1.918   7.729  1.0280 -0.0055  1.7686
  593TP3     H213599   0.839   1.835   7.666 -0.4251 -0.1289 -0.6752
  594TP3      O13600   3.931   5.422   8.119 -0.4942 -0.3185 -0.2292
  594TP3     H113601   3.980   5.497   8.086 -1.0812 -0.6861 -1.9830
  594TP3     H213602   3.899   5.378   8.041 -1.6470 -1.4092  0.8340
  595TP3      O13603   1.183   1.573   7.748 -0.2643 -0.0074 -0.2925
  595TP3     H113604   1.161   1.499   7.804  0.7031  0.1828  0.3470
  595TP3     H213605   1.150   1.649   7.795  0.2074  0.1170 -0.1621
  596TP3      O13606   0.075   0.294   7.276 -1.0764  0.6621  0.2016
  596TP3     H113607   0.032   0.226   7.225 -0.0489  0.2564 -0.1168
  596TP3     H213608   0.107   0.356   7.212 -1.7359  1.2997  0.4765
  597TP3      O13609   4.339   1.604   7.798 -0.4175 -0.0154 -0.1143
  597TP3     H113610   4.417   1.655   7.776 -0.9852  0.4853 -1.0105
  597TP3     H213611   4.352   1.520   7.754 -0.3180  0.0170 -0.1463
  598TP3      O13612   3.332   1.992   7.268  0.4412  0.1844 -0.0352
  598TP3     H113613   3.285   1.935   7.207 -0.4501  0.7886  0.0779
  598TP3     H213614   3.410   2.019   7.219  0.0180  0.2109 -0.6971
  599TP3      O13615   5.308   0.820   7.207 -0.2072  0.4745 -0.4154
  599TP3     H113616   5.280   0.743   7.158  0.2362 -0.0525  0.1568
  599TP3     H213617   5.297   0.795   7.298  0.5114  0.8721 -0.2194
  600TP3      O13618   0.753   4.394   9.176  0.1529  0.5093 -0.1782
  600TP3     H113619   0.801   4.446   9.112  1.4259 -0.5261 -0.0927
  600TP3     H213620   0.780   4.303   9.158 -1.6699 -0.0854 -0.0382
  601TP3      O13621   4.458   4.822   7.386  0.2220 -0.0548 -0.1607
  601TP3     H113622   4.525   4.763   7.352  1.1360  1.6359 -1.4064
  601TP3     H213623   4.378   4.796   7.341  0.5905 -0.4173 -0.6110
  602TP3      O13624   3.356   5.463   0.524 -0.4373  0.0884 -0.1389
  602TP3     H113625   3.330   5.384   0.477 -1.4053  0.9176 -1.0095
  602TP3     H213626   3.320   5.451   0.612 -0.2878 -0.5898 -0.1680
  603TP3      O13627   4.482   1.316   6.657 -0.0673  0.8212  0.1651
  603TP3     H113628   4.408   1.376   6.665  0.0723  0.9986  0.1384
  603TP3     H213629   4.458   1.241   6.711  0.0077  1.1553  0.6699
  604TP3      O13630   1.871   1.352   9.324 -0.3805  0.0180 -0.5697
  604TP3     H113631   1.956   1.315   9.349  0.0188  1.1632 -0.1794
  604TP3     H213632   1.808   1.307   9.380  0.0317 -0.4691 -0.4921
  605TP3      O13633   4.532   4.798   9.195 -0.2986  0.1156  0.0578
  605TP3     H113634   4.615   4.843   9.213 -1.0729  1.1274  1.2618
  605TP3     H213635   4.541   4.765   9.106  1.9060 -0.9466  0.6328
  606TP3      O13636   1.486   1.003   9.426  0.1440 -0.0279  0.6043
  606TP3     H113637   1.453   0.984   9.338 -0.4277 -0.0876  0.8301
  606TP3     H213638   1.413   0.980   9.484  0.8434 -0.8614  1.1618
  607TP3      O13639   3.222   4.099   7.574 -0.2274  0.7326 -0.2695
  607TP3     H113640   3.241   4.005   7.576 -0.5765  0.5290 -3.6360
  607TP3     H213641   3.129   4.105   7.596 -0.0191  0.3772  0.7382
  608TP3      O13642   1.591   2.652   0.025 -0.1871  0.2881  0.0383
  608TP3     H113643   1.551   2.580  -0.023  0.5902 -0.5352  0.6016
  608TP3     H213644   1.684   2.650  -0.001  0.4267 -0.7063  2.1799
  609TP3      O13645   3.060   5.212   8.521 -0.0155  0.0114 -0.0145
  609TP3     H113646   3.107   5.254   8.450  0.7196 -1.9824 -0.7558
  609TP3     H213647   3.098   5.248   8.601  0.4345  0.8844 -0.6172
  610TP3      O13648   5.414   3.085   8.904 -0.5203 -0.0529  0.1495
  610TP3     H113649   5.446   3.009   8.952 -0.8139 -0.1302  0.2232
  610TP3     H213650   5.485   3.108   8.845 -0.1363  0.0761  0.6554
  611TP3      O13651   5.146   3.696   7.628  0.0708 -0.3482 -0.8738
  611TP3     H113652   5.221   3.725   7.679 -0.2532 -2.0086  0.5818
  611TP3     H213653   5.150   3.600   7.631 -1.9774 -0.4691 -0.9398
  612TP3      O13654   0.501   2.633   9.800  0.5273 -0.1983 -0.8510
  612TP3     H113655   0.491   2.641   9.705  0.8649 -1.1997 -0.9764
  612TP3     H213656   0.596   2.620   9.813  0.2506 -2.0895 -0.5424
  613TP3      O13657   1.756   1.546   7.459  0.1799  0.1589  0.4478
  613TP3     H113658   1.797   1.461   7.471 -0.3913  0.1047  2.1169
  613TP3     H213659   1.741   1.578   7.548 -0.7218  1.4644 -0.1614
  614TP3      O13660   2.571   2.558   7.172  0.0316 -0.0507 -0.0816
  614TP3     H113661   2.509   2.629   7.152  2.0858  2.6455  2.5513
  614TP3     H213662   2.635   2.561   7.101 -0.9057 -0.5117 -0.9568
  615TP3      O13663   1.349   2.500  10.014 -0.7307  0.2549  0.0289
  615TP3     H113664   1.288   2.572  10.030 -0.9915 -0.1254  0.7808
  615TP3     H213665   1.401   2.528   9.938 -2.2918  0.2947 -1.0408
  616TP3      O13666   0.256   3.853   9.033 -0.3556  0.4455  0.6028
  616TP3     H113667   0.350   3.842   9.017 -0.0434  1.0169  1.9537
  616TP3     H213668   0.214   3.791   8.974  0.8521  0.5616 -0.3934
  617TP3      O13669   5.316   5.242   7.625  0.3262  0.2751  0.0905
  617TP3     H113670   5.412   5.235   7.626  0.3575  0.6269 -0.6175
  617TP3     H213671   5.295   5.273   7.537 -0.5497 -1.4418 -0.3385
  618TP3      O13672   3.867   3.118   8.500  0.9938  0.0268  0.6761
  618TP3     H113673   3.900   3.174   8.571 -0.8382  3.2180 -0.8413
  618TP3     H213674   3.786   3.081   8.534 -0.3228  2.2219  0.0288
  619TP3      O13675   3.896   3.286   7.354 -0.8692 -0.1135 -0.4248
  619TP3     H113676   3.910   3.291   7.260  1.3705  3.3504  0.0051
  619TP3     H213677   3.837   3.359   7.373  0.9065  0.9462  1.1706
  620TP3      O13678   1.570   3.438   9.346 -0.5332 -0.3663 -0.3282
  620TP3     H113679   1.632   3.491   9.396  1.6395 -1.7920 -1.3966
  620TP3     H213680   1.606   3.349   9.351 -0.4978 -0.6441 -3.9090
  621TP3      O13681   2.480   4.497   9.150  0.3556  0.0558  0.0210
  621TP3     H113682   2.508   4.537   9.068  3.2489 -0.0149  0.9142
  621TP3     H213683   2.473   4.570   9.211  0.6961 -0.1697  0.3371
  622TP3      O13684   1.408   1.580   9.055  0.1394  0.1709  0.0233
  622TP3     H113685   1.356   1.584   9.135 -0.9486  1.3504 -0.7199
  622TP3     H213686   1.439   1.670   9.042  2.3607 -0.5011  0.4280
  623TP3      O13687   5.440   3.329   9.074 -0.2410  0.3166  0.3548
  623TP3     H113688   5.480   3.247   9.044  2.2834  1.6373 -0.0791
  623TP3     H213689   5.357   3.302   9.114  0.4528 -2.4232  0.0880
  624TP3      O13690   2.790   3.217   9.349  0.0899  0.4072  0.4026
  624TP3     H113691   2.724   3.178   9.291  0.6955 -0.7276  0.4742
  624TP3     H213692   2.750   3.214   9.436  0.2492 -0.3161  0.4519
  625TP3      O13693   2.755   3.065   7.671  0.1195 -0.0163 -0.3655
  625TP3     H113694   2.820   3.085   7.604  2.0593 -1.1750  1.0955
  625TP3     H213695   2.682   3.125   7.653  0.6810 -0.1607 -3.3290
  626TP3      O13696   0.739   2.852   6.718 -0.3707  0.2741  0.1826
  626TP3     H113697   0.744   2.943   6.746  1.8551  0.9918 -2.3099
  626TP3     H213698   0.800   2.806   6.775 -0.6573  0.5271  0.7000
  627TP3      O13699   3.763   3.178   8.951  0.0190  0.5416  0.4875
  627TP3     H113700   3.765   3.258   9.005 -1.2328  1.1030 -0.2561
  627TP3     H213701   3.729   3.208   8.867  2.0893 -0.3096 -0.6613
  628TP3      O13702   0.920   3.069   7.209 -0.0852  0.2260  0.0236
  628TP3     H113703   0.873   3.148   7.184 -0.4807  0.1238  0.4342
  628TP3     H213704   1.007   3.100   7.234 -0.9142  0.8351  2.3054
  629TP3      O13705   3.349   2.668   7.732  0.2037  0.1370  0.1665
  629TP3     H113706   3.303   2.628   7.805 -0.4557 -0.0892 -0.3708
  629TP3     H213707   3.293   2.741   7.706 -1.2215 -1.7275 -2.2089
  630TP3      O13708   5.355   0.644   8.880  0.1847  0.2107 -0.5695
  630TP3     H113709   5.292   0.616   8.813  0.7413 -0.8945 -0.6486
  630TP3     H213710   5.426   0.580   8.875  0.9502  0.9856  0.0604
  631TP3      O13711   4.822   3.354   8.508  0.3617  0.2824 -0.2434
  631TP3     H113712   4.766   3.419   8.550  1.7077  1.2125  0.1694
  631TP3     H213713   4.865   3.309   8.581  0.2102 -0.3739 -0.5525
  632TP3      O13714   0.568   4.725   9.829 -0.4488  0.1518  0.0590
  632TP3     H113715   0.608   4.799   9.875 -2.4804  0.9042  0.6640
  632TP3     H213716   0.579   4.651   9.888 -2.3299  0.9466  1.4718
  633TP3      O13717   0.989   3.281   6.892 -0.0511 -0.1136 -0.0376
  633TP3     H113718   0.932   3.317   6.960 -0.0683 -0.6157  0.2218
  633TP3     H213719   1.039   3.356   6.860 -0.4280  0.2209  0.1573
  634TP3      O13720   1.890   3.720   7.806 -0.3026  0.2754  0.0407
  634TP3     H113721   1.956   3.789   7.798  1.3188 -1.1897  0.4629
  634TP3     H213722   1.834   3.730   7.729  0.5289  1.4044 -0.4206
  635TP3      O13723   2.642   3.296   7.795 -0.5619  0.0592  0.2837
  635TP3     H113724   2.690   3.305   7.878 -0.7499 -0.2471  0.4254
  635TP3     H213725   2.552   3.278   7.821 -0.2569 -1.9990  0.0170
  636TP3      O13726   3.388   3.738   9.031 -0.6253  0.3808  0.3283
  636TP3     H113727   3.437   3.727   8.950 -1.1421  0.4118  0.0118
  636TP3     H213728   3.456   3.749   9.098 -0.2057  1.1273 -0.2030
  637TP3      O13729   1.239   4.397   8.914  0.2660 -0.0352  0.2003
  637TP3     H113730   1.259   4.454   8.839  0.2439  0.9882  0.9558
  637TP3     H213731   1.307   4.418   8.978  0.9588 -1.7403  0.0322
  638TP3      O13732   0.731   3.114   8.597 -0.8224 -0.6515 -0.3130
  638TP3     H113733   0.789   3.147   8.665 -2.2728  0.5854  0.3649
  638TP3     H213734   0.788   3.064   8.538  0.7469 -0.2281  0.8202
  639TP3      O13735   0.303   0.636   9.472  0.3684 -0.3165  0.2157
  639TP3     H113736   0.238   0.574   9.505 -1.1368 -0.7155 -3.3179
  639TP3     H213737   0.275   0.654   9.382  2.3355  3.3849  0.2739
  640TP3      O13738   0.924   2.536   7.774 -1.0218 -0.0185  0.1827
  640TP3     H113739   0.931   2.575   7.687  1.6469  2.6559  1.5224
  640TP3     H213740   0.914   2.611   7.833  1.8742 -1.4204  2.6057
  641TP3      O13741   2.578   4.232  10.248  0.3507 -0.5064 -0.4618
  641TP3     H113742   2.528   4.152  10.230 -0.1507 -1.0627  3.0191
  641TP3     H213743   2.531   4.274  10.321  1.9377  1.7564 -0.6909
  642TP3      O13744   2.437   2.260   9.106 -0.2899  0.1318  0.3686
  642TP3     H113745   2.478   2.247   9.192 -0.4424 -0.3898  0.3628
  642TP3     H213746   2.441   2.355   9.092 -1.0051  0.3018  1.3192
  643TP3      O13747   5.334   2.622   9.948  0.1167  0.1819 -0.3326
  643TP3     H113748   5.393   2.588  10.015  0.4554  0.0109 -0.7172
  643TP3     H213749   5.312   2.546   9.894 -1.5606 -0.0512  0.6174
  644TP3      O13750   3.560   1.628   8.428  0.2750  0.0763 -0.8147
  644TP3     H113751   3.471   1.601   8.454  0.3989 -0.7554 -1.2449
  644TP3     H213752   3.587   1.563   8.363  1.2517  0.2484 -0.5901
  645TP3      O13753   4.444   3.348   7.463 -0.6422  0.4441  0.6365
  645TP3     H113754   4.536   3.328   7.443 -1.3765 -1.0017 -1.6078
  645TP3     H213755   4.426   3.298   7.542 -0.0641 -1.0413 -0.1357
  646TP3      O13756   0.779   2.129   8.947  0.1733 -0.3454 -0.0112
  646TP3     H113757   0.790   2.042   8.986  1.3677 -0.8959 -1.5615
  646TP3     H213758   0.690   2.127   8.911  0.3308 -1.0707 -0.3832
  647TP3      O13759   3.076   3.158   0.939 -0.1884  0.2083  0.0918
  647TP3     H113760   2.989   3.133   0.907 -0.1646  0.2359  0.0069
  647TP3     H213761   3.071   3.253   0.949  0.2577  0.3721 -1.1792
  648TP3      O13762   2.084   1.938   6.997  0.2001  0.3198 -0.2600
  648TP3     H113763   2.013   1.926   7.061  1.1051 -0.4934  0.6110
  648TP3     H213764   2.087   1.855   6.950  1.3377 -0.0700  0.4930
  649TP3      O13765   1.177   1.952   7.373  0.0322 -0.5516  0.1648
  649TP3     H113766   1.154   2.043   7.356 -2.6639 -0.8747  1.7553
  649TP3     H213767   1.184   1.912   7.287 -2.3199  0.3660 -0.5061
  650TP3      O13768   2.308   0.178   7.656  0.3980  0.3673  0.4134
  650TP3     H113769   2.361   0.102   7.681 -0.7958 -1.4015 -2.1785
  650TP3     H213770   2.241   0.182   7.724  0.4130 -0.9938  0.5380
  651TP3      O13771   3.228   0.164   9.383  0.6229 -0.1413  0.6179
  651TP3     H113772   3.238   0.133   9.293 -0.0720  2.1744 -0.2976
  651TP3     H213773   3.314   0.196   9.407  1.0886 -1.7748  1.2042
  652TP3      O13774   0.626   3.972   7.309 -0.6537  0.0156 -0.2979
  652TP3     H113775   0.626   3.915   7.232 -2.0510 -1.5645  0.8314
  652TP3     H213776   0.660   3.917   7.380  1.5015  1.7360  0.0350
  653TP3      O13777   3.936   4.430   2.557 -0.6137  0.2960  0.2175
  653TP3     H113778   3.962   4.338   2.567 -1.0748  0.2102  0.6582
  653TP3     H213779   3.844   4.432   2.586  0.2176  1.4189  2.9440
  654TP3      O13780   1.801   1.576   7.117 -0.4210 -0.0151 -0.0000
  654TP3     H113781   1.771   1.629   7.191 -1.1720 -1.4114  0.7187
  654TP3     H213782   1.807   1.487   7.153 -1.2405 -0.7875 -1.7424
  655TP3      O13783   1.601   3.643   8.466  0.0576  0.0703 -0.0778
  655TP3     H113784   1.696   3.649   8.457  0.0559 -1.9373 -2.1104
  655TP3     H213785   1.567   3.707   8.404  0.1161 -1.7990 -2.1085
  656TP3      O13786   1.060   3.469   7.212 -0.2692  0.2411 -0.2921
  656TP3     H113787   1.041   3.562   7.199 -0.0514  0.3228 -0.0445
  656TP3     H213788   0.983   3.423   7.179 -1.4221  0.6116  1.8391
  657TP3      O13789   4.390   5.113   8.782  0.0513  0.1932 -0.1581
  657TP3     H113790   4.324   5.132   8.716  0.4031 -0.1756 -0.6249
  657TP3     H213791   4.474   5.126   8.737  0.3060  1.2341  0.5939
  658TP3      O13792   4.901   3.814   7.548  0.2564  0.9967  0.1293
  658TP3     H113793   4.974   3.761   7.580  0.5321  0.8065 -0.7969
  658TP3     H213794   4.938   3.865   7.476 -0.7320  0.2535 -0.9255
  659TP3      O13795   0.050   3.839   8.503  0.1194  0.1154  0.1571
  659TP3     H113796   0.057   3.749   8.472  0.1523  0.5588 -1.1680
  659TP3     H213797   0.140   3.867   8.518  0.0059 -0.7264  2.5482
  660TP3      O13798   0.644   3.508   0.439 -0.2672  0.0076 -0.2398
  660TP3     H113799   0.702   3.541   0.370 -0.7916  0.8225 -0.3012
  660TP3     H213800   0.590   3.442   0.396  0.3342 -0.4564 -0.2831
  661TP3      O13801   1.052   3.680   7.468  0.4924  0.0454  0.0061
  661TP3     H113802   1.027   3.765   7.504 -0.8445 -0.4761  0.2974
  661TP3     H213803   1.057   3.695   7.373  1.5801  0.7821  0.1698
  662TP3      O13804   1.676   3.025   6.972 -0.4905  0.0698  0.0360
  662TP3     H113805   1.685   2.938   7.010 -0.9288 -0.9420 -2.1714
  662TP3     H213806   1.634   3.011   6.888 -0.1080  2.3720 -0.5687
  663TP3      O13807   1.954   5.343   2.219  0.4238 -0.5686  0.6647
  663TP3     H113808   1.955   5.415   2.282  0.6045 -0.6819  0.7920
  663TP3     H213809   2.046   5.320   2.208  0.4904  0.1910 -0.4925
  664TP3      O13810   1.392   1.952   7.884 -0.4178  0.2423 -0.0184
  664TP3     H113811   1.479   1.916   7.866  0.1986  1.9948 -0.6802
  664TP3     H213812   1.400   1.992   7.970 -0.6365  0.2353  0.0066
  665TP3      O13813   5.375   3.629   8.256 -0.0623 -0.3816  0.2213
  665TP3     H113814   5.323   3.707   8.274  0.8177  0.2356  0.1489
  665TP3     H213815   5.389   3.589   8.342  0.4903  0.1993  0.4052
  666TP3      O13816   1.197   5.196   8.488  0.1587  0.1995 -0.2883
  666TP3     H113817   1.184   5.135   8.415  2.1655 -0.0180 -0.5008
  666TP3     H213818   1.212   5.281   8.446  0.9596  0.1411 -0.1410
  667TP3      O13819   2.443   2.985   7.469 -0.1295  0.2661  0.1280
  667TP3     H113820   2.538   2.988   7.479  0.1011 -0.9904 -1.4153
  667TP3     H213821   2.417   3.076   7.462  0.8201  0.6808  1.7723
  668TP3      O13822   1.879   3.475   8.233 -0.4731  0.0474  0.1387
  668TP3     H113823   1.866   3.566   8.256  0.9964 -0.1064  1.6571
  668TP3     H213824   1.911   3.477   8.142 -0.1812  1.0537  0.2656
  669TP3      O13825   4.871   4.230   0.418 -0.5040 -0.1698  0.3619
  669TP3     H113826   4.930   4.207   0.347  0.9072 -0.0971  1.4940
  669TP3     H213827   4.925   4.226   0.497 -1.8179  0.6535  1.3288
  670TP3      O13828   3.299   2.869   8.599  0.0147  0.6469 -0.4795
  670TP3     H113829   3.385   2.832   8.619 -0.2164  0.5040  0.2538
  670TP3     H213830   3.318   2.944   8.543  0.4526 -0.9279 -2.4954
  671TP3      O13831   3.610   4.947   7.768  0.0148  0.0870  0.3605
  671TP3     H113832   3.671   4.899   7.825  0.8576  0.6073 -0.0925
  671TP3     H213833   3.547   4.880   7.740 -1.5324  0.2031  3.3749
  672TP3      O13834   2.749   4.302   8.947  0.1066  0.2728 -0.2372
  672TP3     H113835   2.837   4.328   8.977  0.9009  0.1756 -2.4103
  672TP3     H213836   2.756   4.207   8.934 -0.1025  0.3768 -1.1075
  673TP3      O13837   0.333   4.758   0.044  0.0357  0.0536  0.6108
  673TP3     H113838   0.358   4.837  -0.004  0.1911 -1.2597 -1.5372
  673TP3     H213839   0.238   4.766   0.055  0.0741  0.6015  0.5757
  674TP3      O13840   1.616   2.521   7.156 -0.6591 -0.2312 -0.4603
  674TP3     H113841   1.685   2.517   7.090 -1.0601  0.7527 -0.9498
  674TP3     H213842   1.542   2.562   7.110 -0.8816  0.6208  0.6462
  675TP3      O13843   4.332   3.510   9.398 -0.2128 -0.1183  0.6846
  675TP3     H113844   4.372   3.593   9.422  0.9041 -0.3366 -0.3717
  675TP3     H213845   4.239   3.530   9.387 -0.1021  0.7824  1.3264
  676TP3      O13846   0.929   2.679   7.537 -0.3146  0.1353 -0.1572
  676TP3     H113847   0.834   2.683   7.523 -0.2858 -0.0848 -0.4093
  676TP3     H213848   0.962   2.629   7.463 -0.1908 -1.1950  0.7699
  677TP3      O13849   4.111   4.849   1.641 -0.5033 -0.1170 -0.6809
  677TP3     H113850   4.041   4.893   1.593  1.0134 -0.0173 -2.8483
  677TP3     H213851   4.188   4.858   1.585  1.1970 -0.4562  1.5492
  678TP3      O13852   2.470   2.408   0.367 -0.2954 -0.0207  0.2691
  678TP3     H113853   2.515   2.382   0.447 -0.5080  0.6288  0.6069
  678TP3     H213854   2.423   2.488   0.391 -1.2401 -0.4186 -0.2040
  679TP3      O13855   1.610   2.439   7.650 -0.4250 -0.5816 -0.4023
  679TP3     H113856   1.703   2.438   7.675 -0.5826  1.8285  0.3272
  679TP3     H213857   1.564   2.409   7.728 -0.3165 -1.1070 -0.5380
  680TP3      O13858   3.878   1.638   1.025  0.2159 -0.3301 -0.2703
  680TP3     H113859   3.922   1.660   0.943  0.8665 -0.1883  0.1129
  680TP3     H213860   3.796   1.597   0.997 -0.4865  1.4949 -0.9880
  681TP3      O13861   1.206   2.627   8.981 -0.5567 -0.3016  0.2733
  681TP3     H113862   1.157   2.580   8.913  0.8879 -1.3524 -0.0711
  681TP3     H213863   1.277   2.568   9.004  0.8215  1.3819  0.4288
  682TP3      O13864   0.627   1.785   8.271 -0.3456  0.4381  0.2291
  682TP3     H113865   0.584   1.701   8.283  0.8585  0.0404  1.7723
  682TP3     H213866   0.697   1.768   8.208 -1.5506  0.7984 -1.2387
  683TP3      O13867   2.086   1.109  10.138  0.3880 -0.1448 -0.4296
  683TP3     H113868   2.030   1.060  10.197 -1.2300 -0.2623 -2.0294
  683TP3     H213869   2.127   1.176  10.193 -1.1803 -0.1724  0.7793
  684TP3      O13870   1.886   3.444   8.601  0.6063 -0.1422 -0.2418
  684TP3     H113871   1.897   3.418   8.510 -2.1143  0.2003 -0.6841
  684TP3     H213872   1.920   3.534   8.604 -0.0730  0.1454 -1.0981
  685TP3      O13873   4.956   4.707   7.473  0.0811  0.1962 -0.2673
  685TP3     H113874   4.952   4.739   7.563  0.8057  0.3124 -0.2796
  685TP3     H213875   4.920   4.778   7.420  0.0523  0.2911 -0.1180
  686TP3      O13876   1.371   4.145   9.804  0.7630 -0.5032 -0.5913
  686TP3     H113877   1.303   4.093   9.761  0.6330 -1.2509  0.5159
  686TP3     H213878   1.346   4.236   9.787 -0.6576 -0.7757  0.0270
  687TP3      O13879   0.603   1.664   0.010  0.0785 -0.5209  0.3988
  687TP3     H113880   0.550   1.643   0.086 -1.2138 -1.9427 -0.8651
  687TP3     H213881   0.604   1.760   0.008 -2.5290 -0.4523  0.4136
  688TP3      O13882   1.275   3.267   8.776  0.1243 -0.2270 -0.1771
  688TP3     H113883   1.369   3.261   8.761  0.3141 -0.7055  1.1630
  688TP3     H213884   1.258   3.208   8.849 -1.1846  0.0116 -0.2733
  689TP3      O13885   4.723   3.080  10.290  0.1332 -0.0021  0.2174
  689TP3     H113886   4.630   3.061  10.281  0.3172 -0.8405  0.0130
  689TP3     H213887   4.744   3.061  10.381  0.0064  0.5948  0.3661
  690TP3      O13888   2.665   3.109   8.290 -0.3307  0.1220  0.0293
  690TP3     H113889   2.677   3.198   8.322  0.5075  0.8296 -2.1782
  690TP3     H213890   2.750   3.067   8.305 -1.0751 -0.7273  2.1883
  691TP3      O13891   0.447   2.819   0.839 -0.5393 -0.3029 -0.4996
  691TP3     H113892   0.354   2.800   0.854 -1.2712  1.5841 -2.4174
  691TP3     H213893   0.452   2.915   0.843  1.3111 -0.3822 -0.6229
  692TP3      O13894   3.234   3.275   7.273 -0.1391 -0.2277  0.5878
  692TP3     H113895   3.293   3.231   7.212  0.0537 -0.4575  0.9376
  692TP3     H213896   3.165   3.311   7.217  1.3548  1.7270 -0.0355
  693TP3      O13897   5.096   2.701   6.971  0.1484 -0.2581  0.4935
  693TP3     H113898   5.158   2.691   7.044  2.0123 -0.2520 -1.0734
  693TP3     H213899   5.110   2.624   6.917 -2.3107 -1.0251  0.8903
  694TP3      O13900   3.404   5.051   8.340  0.0951 -0.5682 -0.0778
  694TP3     H113901   3.359   5.072   8.258  1.3161  1.0234 -0.3644
  694TP3     H213902   3.439   4.963   8.326  0.2393 -0.3349 -1.2356
  695TP3      O13903   4.388   2.842   8.436  0.2087  0.6715  0.2853
  695TP3     H113904   4.365   2.754   8.408  1.8303  0.7342 -1.3155
  695TP3     H213905   4.308   2.875   8.478 -1.0711 -0.7879 -0.9561
  696TP3      O13906   1.017   2.603   7.305 -0.3399  0.3250 -0.4774
  696TP3     H113907   0.962   2.680   7.293 -1.5677 -0.4022  0.4621
  696TP3     H213908   1.072   2.601   7.226 -2.7892  0.1225 -2.2291
  697TP3      O13909   3.543   1.618   0.150  0.1292  0.0805  0.2030
  697TP3     H113910   3.489   1.552   0.192  1.0021  0.5474  2.1214
  697TP3     H213911   3.481   1.675   0.104 -0.5637 -2.4530 -2.1140
  698TP3      O13912   2.883   4.106   7.552  0.9978  0.1562  0.1922
  698TP3     H113913   2.941   4.065   7.487  0.9585 -2.4150  1.6887
  698TP3     H213914   2.808   4.047   7.557  0.1621  1.2925  1.2829
  699TP3      O13915   4.713   2.353   8.699 -0.2914 -0.4429 -0.0810
  699TP3     H113916   4.708   2.261   8.728  0.1807 -1.1148 -2.0516
  699TP3     H213917   4.624   2.386   8.708 -0.8530 -1.6500 -1.0968
  700TP3      O13918   1.849   3.504   6.904 -0.4499  0.1661 -0.1758
  700TP3     H113919   1.883   3.527   6.991 -1.2390 -1.0723  0.4821
  700TP3     H213920   1.759   3.535   6.905 -0.3256  0.5464 -0.7239
  701TP3      O13921   5.217   3.419   7.018  0.7606  0.2527 -0.1958
  701TP3     H113922   5.259   3.342   7.056  0.3490  0.5905  0.9568
  701TP3     H213923   5.150   3.384   6.960  1.0985 -0.2574 -0.2884
  702TP3      O13924   1.514   4.224   9.081  0.3861 -0.4246  0.4171
  702TP3     H113925   1.426   4.188   9.080  0.4317 -0.5884  1.6358
  702TP3     H213926   1.504   4.314   9.050  0.0067 -0.8990 -0.8371
  703TP3      O13927   2.980   4.969   8.510  0.3382  0.3727 -0.3651
  703TP3     H113928   3.010   5.060   8.503  0.9820  0.3121  1.3097
  703TP3     H213929   3.053   4.917   8.474  0.6508  0.4271  0.1961
  704TP3      O13930   1.178   3.197   7.185 -0.2889 -0.1643  0.0371
  704TP3     H113931   1.148   3.287   7.198 -0.6338 -0.2524 -0.1390
  704TP3     H213932   1.233   3.202   7.107  2.6316  0.5610  2.0676
  705TP3      O13933   1.880   2.016   7.205  0.4006  0.2126  0.4019
  705TP3     H113934   1.848   1.944   7.259  0.0171 -0.0394 -0.1506
  705TP3     H213935   1.800   2.059   7.173  0.6255  0.5100  0.2380
  706TP3      O13936   2.181   2.868   7.412 -0.5102 -0.0322 -0.5491
  706TP3     H113937   2.117   2.890   7.480  0.4401  0.2520  0.2553
  706TP3     H213938   2.260   2.915   7.437  0.0410 -0.4272 -1.5212
  707TP3      O13939   1.260   3.304   8.187  0.0861  0.1722 -0.4284
  707TP3     H113940   1.179   3.252   8.186 -0.0317  0.3522 -2.5670
  707TP3     H213941   1.329   3.242   8.164  0.4492  0.2045  0.5486
  708TP3      O13942   0.815   4.025   8.130  0.1546  0.2286  0.1782
  708TP3     H113943   0.829   3.934   8.103 -0.1396 -0.2105  1.4258
  708TP3     H213944   0.903   4.062   8.136  0.1519  0.8370 -2.9333
  709TP3      O13945   0.005   2.965   7.566  0.1099  0.0308 -0.3819
  709TP3     H113946   0.054   3.019   7.505 -2.9539  1.0039 -2.1027
  709TP3     H213947   0.020   2.875   7.535  0.6300  0.3331 -1.0202
  710TP3      O13948   0.599   0.865   9.718 -0.4682  0.0481 -0.5081
  710TP3     H113949   0.550   0.844   9.798 -0.1705 -1.0029 -0.6015
  710TP3     H213950   0.604   0.783   9.670  1.5644  0.0698 -0.3925
  711TP3      O13951   0.711   3.223  10.173 -0.4437  0.1862 -0.2879
  711TP3     H113952   0.668   3.161  10.114 -0.2810  1.6406 -2.0012
  711TP3     H213953   0.801   3.190  10.182 -0.9623 -0.9965  0.5572
  712TP3      O13954   0.536   2.365   8.394  0.4849  0.0559  0.1214
  712TP3     H113955   0.480   2.443   8.389  2.7554  1.8501  1.6743
  712TP3     H213956   0.614   2.388   8.344  2.1183 -0.3674  2.4171
  713TP3      O13957   2.654   5.067   2.020 -0.4025  0.2727 -0.0285
  713TP3     H113958   2.571   5.048   2.062  0.0826 -0.5539  0.5835
  713TP3     H213959   2.638   5.145   1.968 -1.7269 -0.2301 -0.3953
  714TP3      O13960   2.562   3.712   7.939 -0.3568 -0.1026  0.2142
  714TP3     H113961   2.565   3.678   8.028 -0.2694 -1.0345 -0.1316
  714TP3     H213962   2.621   3.787   7.939  0.6204 -0.8593  0.6274
  715TP3      O13963   2.275   1.351   7.320 -0.0144  0.2571  0.2507
  715TP3     H113964   2.272   1.350   7.416 -2.0429 -0.1704  0.2096
  715TP3     H213965   2.361   1.385   7.299 -0.0776  1.7146  2.2269
  716TP3      O13966   5.269   0.455   7.665  0.1517 -0.2909  0.2286
  716TP3     H113967   5.241   0.547   7.660  0.5893 -0.1990 -0.6227
  716TP3     H213968   5.364   0.459   7.663  0.1757 -0.7579  0.4556
  717TP3      O13969   5.176   2.525   8.312  0.0992 -0.0501 -0.4375
  717TP3     H113970   5.161   2.578   8.389  0.9448 -0.4982  0.0408
  717TP3     H213971   5.090   2.490   8.290 -0.3112  0.8475 -0.2715
  718TP3      O13972   5.373   5.185   8.195 -0.0408  0.2444  0.3180
  718TP3     H113973   5.426   5.106   8.184 -3.1274 -1.6152 -2.2180
  718TP3     H213974   5.425   5.255   8.155  1.4008 -1.0988 -0.1750
  719TP3      O13975   2.082   2.080   9.234 -0.1965 -0.2898 -0.2853
  719TP3     H113976   2.132   2.086   9.153  0.1905 -0.4234 -0.0624
  719TP3     H213977   2.138   2.121   9.300 -0.0605 -1.0787  0.1091
  720TP3      O13978   1.561   5.135   8.946 -0.0641 -0.5756 -0.2313
  720TP3     H113979   1.531   5.179   8.866 -1.5545 -2.5483 -0.8041
  720TP3     H213980   1.636   5.083   8.918  1.4517  1.2305  0.3651
  721TP3      O13981   1.714   4.724   8.643 -0.0037  0.6192 -0.0720
  721TP3     H113982   1.716   4.632   8.670 -1.5620  0.6218  0.1057
  721TP3     H213983   1.728   4.773   8.725 -1.8922  0.5754  0.2949
  722TP3      O13984   4.476   3.800   0.548  0.1840 -0.3886 -0.1768
  722TP3     H113985   4.521   3.874   0.507 -0.6579 -0.2244 -0.8368
  722TP3     H213986   4.427   3.840   0.620 -2.3688  0.1457 -2.1434
  723TP3      O13987   1.849   4.107   8.973  0.2635  0.6081 -0.0717
  723TP3     H113988   1.828   4.056   8.894 -1.4580  2.3227 -0.7548
  723TP3     H213989   1.843   4.043   9.044  1.3697 -0.8590 -1.2714
  724TP3      O13990   4.270   3.812   7.818 -0.4025  0.4328  0.4875
  724TP3     H113991   4.332   3.742   7.798 -0.2150  0.1043  2.1882
  724TP3     H213992   4.276   3.825   7.912  0.6450  3.7872  0.0322
  725TP3      O13993   4.941   3.620   2.513 -0.1478  0.6671 -0.5361
  725TP3     H113994   4.986   3.684   2.457  0.2584  1.9283  1.2055
  725TP3     H213995   4.998   3.610   2.589 -0.8571 -0.7871 -0.1823
  726TP3      O13996   0.214   4.333   7.390  0.8612  0.3776  0.0815
  726TP3     H113997   0.274   4.258   7.398  3.1502  2.2297  0.6206
  726TP3     H213998   0.217   4.356   7.297  2.5892  1.7268  0.4496
  727TP3      O13999   1.545   2.546   6.843 -0.1564 -0.2961  0.2294
  727TP3     H114000   1.497   2.590   6.914 -1.6621 -0.2155 -0.8186
  727TP3     H214001   1.637   2.556   6.867 -0.6483 -0.3664  2.2355
  728TP3      O14002   3.831   4.729   1.497 -0.0749 -0.0078 -0.1505
  728TP3     H114003   3.811   4.724   1.404  3.3267  1.0470 -1.0037
  728TP3     H214004   3.898   4.662   1.510 -1.0221 -0.6356  1.7144
  729TP3      O14005   0.822   0.642   8.137  0.6137 -0.2351 -0.2332
  729TP3     H114006   0.840   0.693   8.058  1.0590 -1.0631 -0.6767
  729TP3     H214007   0.899   0.587   8.148 -0.9068 -2.6399 -1.2063
  730TP3      O14008   3.915   4.329   9.159 -0.0700 -0.1346 -0.2475
  730TP3     H114009   3.935   4.246   9.201 -0.5112 -0.9892 -1.6947
  730TP3     H214010   4.001   4.368   9.141  0.1474 -0.4837  0.0231
  731TP3      O14011   1.758   4.756   9.373  0.1882 -0.1227  0.1202
  731TP3     H114012   1.806   4.697   9.317  0.6898  1.0462 -0.6959
  731TP3     H214013   1.806   4.839   9.368 -1.2858  0.7514  0.1287
  732TP3      O14014   1.714   5.341   0.262  0.2343 -0.2893 -0.2299
  732TP3     H114015   1.675   5.389   0.189  1.0562  0.1849 -0.3658
  732TP3     H214016   1.696   5.249   0.243  0.9535 -0.2115 -1.3374
  733TP3      O14017   0.964   1.021   2.025 -0.4198 -0.1550  0.3252
  733TP3     H114018   1.045   1.053   2.065  0.1103 -0.8789 -0.1629
  733TP3     H214019   0.954   0.933   2.059  0.0723 -0.8083 -1.1814
  734TP3      O14020   0.246   2.003   7.568 -0.1267  0.5696  0.3943
  734TP3     H114021   0.294   2.022   7.649 -1.3216  1.1864  0.9676
  734TP3     H214022   0.315   1.997   7.502  1.0580 -1.9592  1.7711
  735TP3      O14023   2.918   4.682   7.135  0.2558  0.0160 -0.0467
  735TP3     H114024   2.996   4.637   7.167  0.9160  1.2839  0.1522
  735TP3     H214025   2.952   4.760   7.091 -0.9433  0.9875  0.7374
  736TP3      O14026   3.077   3.500  10.009 -0.0475  0.2447 -0.3228
  736TP3     H114027   3.094   3.578  10.062  1.4526 -0.0064 -0.4015
  736TP3     H214028   3.100   3.527   9.920 -0.9189  0.1444 -0.5839
  737TP3      O14029   2.279   3.603   0.938 -0.1324 -0.3475 -0.0081
  737TP3     H114030   2.240   3.517   0.953 -1.1931 -0.1595 -1.5954
  737TP3     H214031   2.288   3.641   1.026 -1.6723 -1.2048  0.5454
  738TP3      O14032   4.731   4.090   7.072 -0.1161 -0.1687  0.3414
  738TP3     H114033   4.711   4.100   6.979  0.6522  0.6682  0.2654
  738TP3     H214034   4.800   4.024   7.074  1.4242  1.4366  0.1548
  739TP3      O14035   3.260   4.360   9.690 -0.3539 -0.9784 -0.3564
  739TP3     H114036   3.338   4.312   9.717 -0.0072 -0.5322 -0.5659
  739TP3     H214037   3.202   4.356   9.766  1.7722  2.8088  1.6359
  740TP3      O14038   1.550   2.363   7.382 -0.4073 -0.3561  0.0386
  740TP3     H114039   1.591   2.362   7.469 -0.1960 -1.3063 -0.0625
  740TP3     H214040   1.602   2.424   7.331 -1.6424  1.6496  1.1027
  741TP3      O14041   0.861   3.471   7.523  0.3921 -0.0659 -0.3466
  741TP3     H114042   0.799   3.482   7.451  0.1419 -0.5339 -0.2012
  741TP3     H214043   0.942   3.511   7.490 -0.1703  1.1502 -0.2735
  742TP3      O14044   2.899   3.903   7.999  0.0029 -0.0158  0.3748
  742TP3     H114045   2.850   3.854   8.064 -1.8187  1.8246  0.4441
  742TP3     H214046   2.943   3.972   8.049 -0.0784  0.4003 -0.1227
  743TP3      O14047   1.302   3.580   7.433  0.1464 -0.4203  0.2965
  743TP3     H114048   1.322   3.637   7.359  1.1365 -1.2862 -0.1119
  743TP3     H214049   1.217   3.612   7.465  0.8576  1.5040  0.3171
  744TP3      O14050   2.544   3.282   8.594 -0.0552  0.3793 -0.4119
  744TP3     H114051   2.555   3.367   8.637 -1.0694  0.2262  0.1608
  744TP3     H214052   2.494   3.230   8.657  0.6892 -0.6936 -0.7009
  745TP3      O14053   0.716   1.640   1.239 -0.3087 -0.4433  0.4910
  745TP3     H114054   0.724   1.546   1.253 -0.5262 -0.4520  0.5640
  745TP3     H214055   0.774   1.659   1.165 -2.7659 -1.1896 -1.6962
  746TP3      O14056   1.709   2.801   7.091  0.7015 -0.1390 -0.8500
  746TP3     H114057   1.654   2.723   7.087  0.6701 -0.0865 -1.4679
  746TP3     H214058   1.798   2.768   7.101  0.4179 -0.2021  1.8886
  747TP3      O14059   2.953   3.105   7.465  0.2092  0.1416 -0.4477
  747TP3     H114060   2.967   3.040   7.396  1.2548 -1.2830  1.0575
  747TP3     H214061   2.903   3.175   7.423  0.5851 -0.8305 -2.5549
  748TP3      O14062   1.047   1.248   7.188 -0.0767 -0.0798 -0.0083
  748TP3     H114063   1.073   1.269   7.278  0.8800 -2.1071  0.1987
  748TP3     H214064   0.953   1.233   7.193 -0.1210  0.3718  0.5497
  749TP3      O14065   4.496   3.147   9.097 -0.0963  0.2890  0.2343
  749TP3     H114066   4.460   3.134   9.185 -0.0933  1.1450  0.3621
  749TP3     H214067   4.503   3.242   9.088 -0.6539  0.2259 -0.9179
  750TP3      O14068   2.225   2.760   8.295 -0.3299 -0.0423  0.3738
  750TP3     H114069   2.276   2.782   8.372 -0.2828 -2.8552  1.1886
  750TP3     H214070   2.134   2.756   8.327 -0.5474  0.6536 -0.1374
  751TP3      O14071   4.270   5.051   7.371 -0.0998  0.1655  0.0391
  751TP3     H114072   4.218   5.119   7.328 -1.0547 -0.1833  0.6315
  751TP3     H214073   4.299   4.995   7.299 -0.5724  0.3351 -0.2886
  752TP3      O14074   0.830   2.138   8.013 -0.0541 -0.2869 -0.6289
  752TP3     H114075   0.814   2.116   7.921  0.5520  1.2223 -1.1124
  752TP3     H214076   0.852   2.231   8.012  2.4379 -0.7994  0.7365
  753TP3      O14077   3.633   3.024   8.611  0.2614  0.3248 -0.1438
  753TP3     H114078   3.616   2.948   8.667  2.2484 -1.8677 -2.3972
  753TP3     H214079   3.556   3.029   8.554  1.1357 -1.4912 -1.5441
  754TP3      O14080   2.067   5.000   9.890  0.6917 -0.2257  0.4250
  754TP3     H114081   2.157   5.013   9.921 -0.6269  1.0745  3.9528
  754TP3     H214082   2.046   4.910   9.914  1.0836 -0.5906 -0.5673
  755TP3      O14083   2.071   5.458   9.417 -0.5149 -0.0560 -0.2940
  755TP3     H114084   2.017   5.524   9.372  1.2151  0.4303 -1.6948
  755TP3     H214085   2.099   5.399   9.348  1.0901 -0.0735  0.3559
  756TP3      O14086   0.439   2.674  10.189  0.0415 -0.3025 -0.5892
  756TP3     H114087   0.386   2.626  10.126 -2.4649  0.2350  1.0370
  756TP3     H214088   0.406   2.646  10.274  2.5662 -0.1324  0.4709
  757TP3      O14089   0.806   4.937   7.690  0.0847 -0.4222  0.3775
  757TP3     H114090   0.728   4.993   7.692  1.1249  1.0309  1.0414
  757TP3     H214091   0.778   4.858   7.643 -1.6339  0.3025  0.1600
  758TP3      O14092   0.949   2.191   9.289  0.4515 -0.7650  0.1928
  758TP3     H114093   0.861   2.159   9.310  0.4642 -1.3510 -0.6504
  758TP3     H214094   0.985   2.218   9.374 -0.1095 -1.6167  0.7146
  759TP3      O14095   2.172   1.561   7.687 -0.2187  0.6012 -0.4381
  759TP3     H114096   2.108   1.517   7.743  0.3008 -2.3630 -2.0407
  759TP3     H214097   2.233   1.603   7.748 -0.5448 -1.2388  1.1981
  760TP3      O14098   0.037   3.600   8.071 -0.0063 -0.3428  0.3056
  760TP3     H114099   0.096   3.674   8.059 -0.4344 -0.0690 -0.1051
  760TP3     H214100  -0.027   3.630   8.135  1.5126 -1.3556  2.3690
  761TP3      O14101   4.632   2.638   7.575  0.1932  0.2630  0.0764
  761TP3     H114102   4.560   2.626   7.512  0.6881 -0.7355 -0.3209
  761TP3     H214103   4.705   2.669   7.522  0.5368 -0.3402  0.1913
  762TP3      O14104   2.103   0.958   1.069 -0.5188 -0.4410 -0.0851
  762TP3     H114105   2.152   1.039   1.057 -0.3031 -0.7147 -1.1095
  762TP3     H214106   2.029   0.964   1.008 -3.1354  0.9890  3.0609
  763TP3      O14107   2.240   0.974   7.601 -0.0447 -0.2223 -0.0772
  763TP3     H114108   2.298   1.043   7.566 -0.2017 -1.0013 -1.9409
  763TP3     H214109   2.284   0.892   7.577 -2.5705 -0.8534 -2.7861
  764TP3      O14110   0.013   3.631   9.120  0.4348  0.0799 -0.0785
  764TP3     H114111  -0.031   3.547   9.137 -0.9707  1.1738  1.8506
  764TP3     H214112   0.104   3.616   9.147  0.4204 -1.0977 -0.6374
  765TP3      O14113   1.340   4.919   7.423 -0.3276  0.0592  0.0668
  765TP3     H114114   1.392   4.928   7.343  0.2558 -1.3784  0.2518
  765TP3     H214115   1.349   4.826   7.446 -2.2085  0.0085  0.6438
  766TP3      O14116   2.778   2.536   7.832 -0.2343 -0.7234 -0.5670
  766TP3     H114117   2.775   2.484   7.752 -1.6636  1.2916 -1.8693
  766TP3     H214118   2.738   2.620   7.808 -0.9129 -0.1636  2.3300
  767TP3      O14119   4.225   0.233   9.900 -0.1235 -0.7165  0.0771
  767TP3     H114120   4.245   0.286   9.823 -1.7450  0.4298  0.4096
  767TP3     H214121   4.214   0.144   9.866  0.4500 -0.4544 -0.8077
  768TP3      O14122   4.103   3.328   9.692 -0.0667 -0.1726  0.3180
  768TP3     H114123   4.193   3.343   9.719 -0.4973  1.5653  0.8861
  768TP3     H214124   4.055   3.403   9.726 -1.4453 -0.2380 -1.3716
  769TP3      O14125   3.038   0.188   8.966 -0.0985 -0.0500 -0.1523
  769TP3     H114126   3.057   0.253   8.898 -1.8464 -0.1894 -0.7948
  769TP3     H214127   2.975   0.231   9.023  0.6955 -0.2637  0.8963
  770TP3      O14128   3.858   3.413   2.420 -0.4625 -0.1196 -0.2224
  770TP3     H114129   3.893   3.370   2.342  2.8856  1.1264  0.5316
  770TP3     H214130   3.853   3.505   2.396  0.1208  0.1984  0.8757
  771TP3      O14131   0.726   0.358   9.588  0.1954  0.2328 -0.5995
  771TP3     H114132   0.714   0.437   9.640  2.9204  1.8458 -2.3422
  771TP3     H214133   0.645   0.309   9.601 -2.2967  4.0919 -0.8551
  772TP3      O14134   5.204   1.855   7.694  0.3596 -0.4356  0.2130
  772TP3     H114135   5.298   1.837   7.683  0.3182 -1.5127  1.5603
  772TP3     H214136   5.160   1.779   7.657  0.0828 -1.0546  1.7880
  773TP3      O14137   0.036   4.320   7.589 -0.1035  0.2432  0.1073
  773TP3     H114138   0.084   4.351   7.512 -0.1863  0.9265  0.3277
  773TP3     H214139   0.089   4.348   7.663 -0.5429  0.4982  0.3322
  774TP3      O14140   1.434   0.083   7.372  0.3346 -0.1494  0.0227
  774TP3     H114141   1.373   0.027   7.420  0.2076 -0.2501 -0.2556
  774TP3     H214142   1.393   0.169   7.373  0.1154 -0.2489 -0.2927
  775TP3      O14143   1.005   3.774   8.468  0.2396 -0.5391  0.1171
  775TP3     H114144   1.028   3.710   8.400  2.1117  0.5225 -0.2847
  775TP3     H214145   1.080   3.774   8.527  0.5127  1.6941 -0.2108
  776TP3      O14146   3.804   2.844   7.783 -0.4803  0.0646 -0.3162
  776TP3     H114147   3.870   2.848   7.852  0.6136  0.0794 -1.3472
  776TP3     H214148   3.721   2.836   7.829  0.0049  2.5832  1.1080
  777TP3      O14149   2.204   4.857   9.372  0.0359  0.1519 -0.1821
  777TP3     H114150   2.170   4.816   9.452  2.0427  0.6016  0.9603
  777TP3     H214151   2.171   4.947   9.375  0.3678  0.2616  0.3316
  778TP3      O14152   3.894   3.687   7.966 -0.2103 -0.2610  0.5206
  778TP3     H114153   3.869   3.708   7.876 -1.2819 -1.1827  0.6039
  778TP3     H214154   3.868   3.765   8.016  0.0176  0.0857  0.1101
  779TP3      O14155   1.621   3.899   7.742 -0.7482 -0.4600 -0.1861
  779TP3     H114156   1.673   3.889   7.662 -1.8155 -0.6277 -0.8738
  779TP3     H214157   1.538   3.854   7.722 -0.9495 -0.6543  1.0794
  780TP3      O14158   3.185   3.334   7.814 -0.6032 -0.4093 -0.0975
  780TP3     H114159   3.199   3.288   7.731  1.2482  0.4535 -0.2919
  780TP3     H214160   3.105   3.295   7.849 -1.2450 -1.0240 -2.1222
  781TP3      O14161   3.082   4.384   7.994  0.3569  0.6123 -0.0079
  781TP3     H114162   3.029   4.378   8.073  1.0559 -0.0341  0.4224
  781TP3     H214163   3.019   4.399   7.924 -0.2900  0.9420  0.6391
  782TP3      O14164   1.156   3.497   8.918  0.1877  0.1667 -0.1505
  782TP3     H114165   1.223   3.471   8.981 -1.1670 -1.1107  0.7687
  782TP3     H214166   1.151   3.423   8.857 -0.6851  0.0823  0.0243
  783TP3      O14167   1.014   1.856   0.189  0.1822 -0.3164  0.5385
  783TP3     H114168   1.004   1.764   0.163  1.2527 -0.8943  2.0761
  783TP3     H214169   0.958   1.904   0.128 -0.0231 -1.9401 -0.5971
  784TP3      O14170   0.942   2.225   7.460  0.4280  0.3595  0.2284
  784TP3     H114171   0.991   2.253   7.382 -0.3650  1.1048  0.0013
  784TP3     H214172   1.010   2.199   7.522  1.1010  0.7938 -0.3184
  785TP3      O14173   4.803   1.390   7.874 -0.0795  0.3489  0.0113
  785TP3     H114174   4.799   1.383   7.778  1.3483  0.4615 -0.0725
  785TP3     H214175   4.804   1.484   7.891  0.2997  0.3342  0.0901
  786TP3      O14176   0.605   2.700   7.455 -0.5396 -0.3659 -0.4993
  786TP3     H114177   0.553   2.671   7.531  1.9994  0.3471  1.5813
  786TP3     H214178   0.543   2.751   7.402 -1.9200  0.6983  2.0396
  787TP3      O14179   1.724   2.275   6.948  0.0011  0.0322  0.9173
  787TP3     H114180   1.710   2.238   7.036 -2.6148 -0.7198  0.2355
  787TP3     H214181   1.764   2.360   6.964 -1.1319  0.2312  2.8873
  788TP3      O14182   3.133   3.585   8.609  0.2085 -0.3635 -0.0169
  788TP3     H114183   3.074   3.624   8.674  1.0640  0.3250  0.3607
  788TP3     H214184   3.135   3.492   8.632  0.4172 -0.1436  0.8874
  789TP3      O14185   0.324   2.442   9.046 -0.9213 -0.7694  0.5953
  789TP3     H114186   0.402   2.386   9.045 -0.7154 -0.4796  0.3385
  789TP3     H214187   0.315   2.473   8.956  0.0833  1.1437  1.1255
  790TP3      O14188   5.524   1.352   8.213  0.2929  0.4958  0.1226
  790TP3     H114189   5.508   1.258   8.225  0.3109  0.3239 -1.0971
  790TP3     H214190   5.443   1.394   8.240 -0.0100  0.0672 -0.1114
  791TP3      O14191   2.996   3.911   7.369  0.1060 -0.7307 -0.0347
  791TP3     H114192   3.084   3.880   7.348  0.3262  0.2180 -0.5763
  791TP3     H214193   2.938   3.856   7.318  0.3524 -1.6207  0.6211
  792TP3      O14194   5.286   4.414   7.634  0.3118  0.0805  0.5087
  792TP3     H114195   5.272   4.414   7.539 -0.0550 -0.2116  0.5599
  792TP3     H214196   5.380   4.399   7.644  0.1986 -0.9162  0.2039
  793TP3      O14197   2.234   3.801  10.000 -0.1005 -0.4573 -0.0440
  793TP3     H114198   2.144   3.820  10.026  0.3778  0.1044  1.2564
  793TP3     H214199   2.275   3.768  10.080  1.4752  1.5388 -0.0137
  794TP3      O14200   0.807   3.728   7.184  0.0318  0.5494  0.8057
  794TP3     H114201   0.899   3.725   7.210 -0.0830  0.4579  1.1962
  794TP3     H214202   0.768   3.650   7.223  0.0376 -0.0161 -0.3108
  795TP3      O14203   5.510   1.132   0.652 -0.6456  0.1869 -0.5272
  795TP3     H114204   5.495   1.171   0.566 -2.3742  0.1637 -0.2681
  795TP3     H214205   5.529   1.206   0.709 -0.7110  0.3260 -0.6838
  796TP3      O14206   1.810   4.632   9.941  0.6211 -0.2014 -0.3086
  796TP3     H114207   1.794   4.549   9.895  2.3157  0.3986 -2.0579
  796TP3     H214208   1.900   4.623   9.974  0.7244  0.8453 -0.3152
  797TP3      O14209   3.221   4.735   0.883 -0.0414  0.5584  0.1066
  797TP3     H114210   3.260   4.745   0.796  2.7668  1.6559  1.4496
  797TP3     H214211   3.159   4.808   0.890 -2.5818 -1.2869 -2.0938
  798TP3      O14212   2.391   5.523   9.992 -0.3129 -0.0193 -0.3587
  798TP3     H114213   2.420   5.558   9.908  0.1868 -0.4632 -0.3749
  798TP3     H214214   2.404   5.595  10.054  2.6869 -0.8056  0.0094
  799TP3      O14215   1.786   4.759   0.066  0.1906 -0.0234 -0.0285
  799TP3     H114216   1.842   4.757  -0.011 -1.3259 -1.3957 -1.1290
  799TP3     H214217   1.755   4.849   0.070 -0.3378 -0.1260 -1.4836
  800TP3      O14218   3.758   3.681   9.206 -0.2706 -0.2075 -0.1359
  800TP3     H114219   3.760   3.754   9.145  0.1101  1.8080  2.2308
  800TP3     H214220   3.670   3.683   9.243 -0.2434 -0.9420 -0.0083
  801TP3      O14221   3.313   1.579   8.489 -0.3299  0.3371 -0.0381
  801TP3     H114222   3.297   1.492   8.524  2.7662 -0.3709 -0.2961
  801TP3     H214223   3.304   1.569   8.394 -2.0358  0.7802  0.0633
  802TP3      O14224   3.225   4.062   0.301 -0.3758  0.1014 -0.1291
  802TP3     H114225   3.284   3.987   0.296  1.5065  1.5720 -0.6894
  802TP3     H214226   3.176   4.059   0.219 -0.9805 -1.0433  0.2675
  803TP3      O14227   2.884   3.402   9.127 -0.0109 -0.0542 -0.1450
  803TP3     H114228   2.847   3.430   9.211  1.2400  1.5411 -0.1036
  803TP3     H214229   2.812   3.355   9.084 -1.1783  0.5244  1.1269
  804TP3      O14230   2.229   2.741   7.148  0.1384  0.0723  0.5059
  804TP3     H114231   2.138   2.717   7.134  0.5824 -1.1336 -0.3975
  804TP3     H214232   2.230   2.785   7.233 -1.6072  1.9681 -0.4292
  805TP3      O14233   0.284   1.948   0.157  0.2200  0.2958  0.5752
  805TP3     H114234   0.295   2.008   0.231  0.5821 -1.5409  2.0499
  805TP3     H214235   0.364   1.958   0.106  1.0406 -0.2128  1.7593
  806TP3      O14236   2.018   3.717   7.369  0.5421 -0.7949 -0.1593
  806TP3     H114237   2.050   3.777   7.301  1.4567 -1.0303  0.0608
  806TP3     H214238   1.952   3.664   7.325  0.6820 -0.5215 -0.7026
  807TP3      O14239   2.363   1.295   7.958  0.2022  0.0040 -0.3635
  807TP3     H114240   2.323   1.281   7.872 -2.7587 -4.2619  1.4757
  807TP3     H214241   2.452   1.260   7.950 -0.6375 -1.9956 -1.2833
  808TP3      O14242   1.484   3.675   9.235 -0.1860 -0.4734  0.3766
  808TP3     H114243   1.509   3.664   9.143  0.7640  0.0784  0.5593
  808TP3     H214244   1.478   3.585   9.269  3.0968 -0.6218  0.7067
  809TP3      O14245   3.193   2.778   7.314  0.5641  1.1438 -0.2124
  809TP3     H114246   3.240   2.788   7.397 -1.4205  0.6579  1.0004
  809TP3     H214247   3.137   2.856   7.309 -0.1423  0.6190 -0.5482
  810TP3      O14248   1.667   0.050   1.186  0.7390 -0.1999  0.4020
  810TP3     H114249   1.590   0.001   1.158  1.1781  0.2468 -1.6606
  810TP3     H214250   1.681   0.023   1.277  0.5086 -3.3180 -0.4343
  811TP3      O14251   4.479   1.306   9.160  0.3719 -0.2827  0.5628
  811TP3     H114252   4.468   1.271   9.072  0.3304  0.4758  0.2666
  811TP3     H214253   4.392   1.338   9.184  0.4888 -0.0718  0.7008
  812TP3      O14254   4.431   2.531   7.796 -0.6608  0.3084 -0.1177
  812TP3     H114255   4.386   2.559   7.716 -1.1395  0.9384  0.3601
  812TP3     H214256   4.512   2.582   7.796 -1.6925  1.9850  0.9286
  813TP3      O14257   1.623   4.089   9.315  0.0249 -0.3443  0.3804
  813TP3     H114258   1.562   4.137   9.372  0.9949  0.9251  0.3720
  813TP3     H214259   1.605   4.123   9.227 -0.4872 -1.2750  0.1210
  814TP3      O14260   1.184   3.444   9.819  0.1594 -0.3629  0.4885
  814TP3     H114261   1.215   3.416   9.733 -0.0400 -1.0693  0.6436
  814TP3     H214262   1.182   3.540   9.814 -1.0926 -0.4283 -0.7434
  815TP3      O14263   1.642   0.971   0.967  0.2844  0.0322  0.7917
  815TP3     H114264   1.591   0.907   1.017 -0.0308 -1.5225 -1.4547
  815TP3     H214265   1.576   1.021   0.919  0.7155 -0.3387 -0.2025
  816TP3      O14266   2.005   2.181   0.053  0.3279 -0.3825  0.0982
  816TP3     H114267   2.010   2.242  -0.020 -0.5163 -2.2610 -1.5819
  816TP3     H214268   1.958   2.230   0.122  0.2096  1.0532 -0.9875
  817TP3      O14269   1.272   0.934   8.131  0.3725  0.1809 -0.7099
  817TP3     H114270   1.224   0.908   8.052  0.5760  0.6835 -0.9985
  817TP3     H214271   1.341   0.992   8.099  0.3517  0.5192 -0.1454
  818TP3      O14272   4.738   2.058   8.128  0.2114  0.4597  0.8858
  818TP3     H114273   4.692   2.134   8.163  1.5935  0.8727  1.8681
  818TP3     H214274   4.827   2.066   8.163  1.1318 -0.1136 -1.2542
  819TP3      O14275   1.223   2.703   7.614  0.4515 -0.2365 -0.1677
  819TP3     H114276   1.202   2.658   7.696  0.9121 -0.2736 -0.0645
  819TP3     H214277   1.143   2.699   7.563  0.5018 -1.2632 -0.1933
  820TP3      O14278   3.305   4.449   0.104  0.4656  0.1695 -0.4033
  820TP3     H114279   3.394   4.451   0.069  1.3726  0.2169  1.7916
  820TP3     H214280   3.258   4.517   0.057  2.1973  1.5960 -0.1039
  821TP3      O14281   3.180   1.885   9.365  0.4599  0.0313 -0.0476
  821TP3     H114282   3.268   1.920   9.381  0.5916  0.0954 -0.8975
  821TP3     H214283   3.163   1.829   9.441  2.5757 -2.6127 -1.4168
  822TP3      O14284   0.431   3.172   7.898 -0.0104 -0.5590  0.0060
  822TP3     H114285   0.374   3.212   7.832  0.5130 -0.7359 -0.5669
  822TP3     H214286   0.485   3.245   7.930 -1.1642 -0.2160  1.2005
  823TP3      O14287   2.643   2.613   8.521  0.3281  0.6300 -0.0256
  823TP3     H114288   2.611   2.523   8.533 -0.1957  0.8639  0.3741
  823TP3     H214289   2.670   2.618   8.430  0.3774  0.0565 -0.0410
  824TP3      O14290   2.724   2.812   7.749  0.1263 -0.2687  0.3575
  824TP3     H114291   2.746   2.898   7.713  1.6762 -0.8251 -0.0518
  824TP3     H214292   2.654   2.780   7.692  0.6003  0.0773 -0.4239
  825TP3      O14293   4.610   1.075   7.545  0.3291 -0.0366 -0.0011
  825TP3     H114294   4.679   1.113   7.600 -0.2154 -0.0183  0.6834
  825TP3     H214295   4.654   1.056   7.462  0.6352  2.0278 -0.3469
  826TP3      O14296   1.744   3.613   0.555 -0.0125  0.3543  0.0464
  826TP3     H114297   1.773   3.610   0.646 -0.2525 -2.9351  0.0983
  826TP3     H214298   1.657   3.653   0.559 -0.0584  0.1566  1.2661
  827TP3      O14299   3.242   3.139   8.053 -0.1225  0.0823 -0.3843
  827TP3     H114300   3.271   3.049   8.068 -1.4533  0.0323  2.1714
  827TP3     H214301   3.147   3.132   8.046 -0.1338  1.1582 -1.4370
  828TP3      O14302   3.307   1.666   8.965  0.5448 -0.8295  0.2459
  828TP3     H114303   3.357   1.642   8.887  1.0692 -0.2232  0.3925
  828TP3     H214304   3.219   1.685   8.933  1.2715  1.4719 -0.5234
  829TP3      O14305   0.030   4.604   7.456  0.3108  0.0786 -0.0105
  829TP3     H114306  -0.030   4.619   7.528 -0.4992  0.7231 -0.8210
  829TP3     H214307   0.063   4.691   7.432  1.7776 -0.2883  0.6063
  830TP3      O14308   0.475   1.333   6.760  0.5095 -0.3689 -0.0880
  830TP3     H114309   0.559   1.348   6.716  1.0751 -0.5217  0.9410
  830TP3     H214310   0.498   1.302   6.847 -0.5955  0.8145  0.6478
  831TP3      O14311   1.862   3.819   7.056  0.1017  0.4342 -0.7545
  831TP3     H114312   1.939   3.828   7.113 -0.1202  0.6616 -0.4933
  831TP3     H214313   1.835   3.728   7.066 -0.4430  0.6896  0.1447
  832TP3      O14314   0.860   0.900   0.048 -0.5241  0.0517 -0.2940
  832TP3     H114315   0.896   0.989   0.044  0.6000 -0.4214 -1.0924
  832TP3     H214316   0.852   0.874  -0.044  0.9545 -1.3689 -0.0412
  833TP3      O14317   3.417   2.493  10.251 -0.2760  0.0394 -0.4308
  833TP3     H114318   3.505   2.491  10.212 -0.2880 -1.6998 -0.4219
  833TP3     H214319   3.361   2.450  10.186 -0.8442 -0.1860  0.1981
  834TP3      O14320   5.058   4.236   8.029 -0.1083 -0.1613  0.2165
  834TP3     H114321   5.066   4.309   7.968  2.3849  0.4049  1.1591
  834TP3     H214322   5.120   4.256   8.099 -0.3671 -2.5161  1.1849
  835TP3      O14323   0.590   4.482   8.162  0.7117  0.0088  0.7651
  835TP3     H114324   0.670   4.521   8.125  0.3699 -0.3601 -0.3857
  835TP3     H214325   0.622   4.416   8.223  1.2893  1.1552  1.7145
  836TP3      O14326   0.519   4.499   7.509 -0.3753  0.0087  0.2107
  836TP3     H114327   0.439   4.552   7.514 -1.6027 -1.8294  0.6073
  836TP3     H214328   0.503   4.437   7.437 -0.1134 -1.6299  1.5179
  837TP3      O14329   2.824   1.883   8.748  0.3088  0.7479 -0.0696
  837TP3     H114330   2.766   1.887   8.823 -0.1204  0.6047 -0.3923
  837TP3     H214331   2.773   1.840   8.679  0.3823  1.6887 -0.7231
  838TP3      O14332   1.412   4.133   8.584 -0.1933 -0.5341  0.5694
  838TP3     H114333   1.338   4.184   8.550  1.8708  1.5616 -0.9020
  838TP3     H214334   1.424   4.063   8.520  0.3334  0.3057 -0.2700
  839TP3      O14335   5.139   4.019   9.992  0.8062  0.3577  0.6902
  839TP3     H114336   5.174   4.030   9.903 -0.0221 -1.9212  0.0514
  839TP3     H214337   5.194   3.951  10.031  0.5866  0.7062  1.6278
  840TP3      O14338   2.350   3.708   7.330  0.3368  0.0641 -0.3678
  840TP3     H114339   2.314   3.785   7.286  0.4532  0.1663 -0.2850
  840TP3     H214340   2.444   3.726   7.337  0.0484  0.9339  1.6875
  841TP3      O14341   3.925   3.330   6.817 -0.0721 -0.5278  0.1228
  841TP3     H114342   3.897   3.381   6.893 -0.9932 -0.8138 -0.0104
  841TP3     H214343   3.889   3.242   6.832 -0.0913 -0.6399 -0.5353
  842TP3      O14344   3.721   1.757   7.420 -0.5673 -0.1365  0.0423
  842TP3     H114345   3.771   1.822   7.471 -1.0448 -0.5296  1.0159
  842TP3     H214346   3.710   1.799   7.335 -1.1950  1.2430  0.7731
  843TP3      O14347   3.799   1.671   8.703 -0.0864 -0.0275 -0.0816
  843TP3     H114348   3.778   1.718   8.784 -1.8781  0.6812 -0.9454
  843TP3     H214349   3.748   1.590   8.709  0.7473 -0.5581  0.0476
  844TP3      O14350   2.719   3.616   9.495  0.1221  0.6629 -0.1460
  844TP3     H114351   2.750   3.550   9.557 -0.4914  0.8528  0.3644
  844TP3     H214352   2.799   3.654   9.458  0.4917  0.9366  0.9296
  845TP3      O14353   1.422   0.531   9.390 -0.5308 -0.0505  0.4154
  845TP3     H114354   1.471   0.449   9.393 -0.3632  0.0968  2.0816
  845TP3     H214355   1.390   0.544   9.480 -1.9202  0.8807 -0.1896
  846TP3      O14356   3.112   3.292   8.401 -0.3725  0.2965  0.1596
  846TP3     H114357   3.070   3.227   8.457  0.7088 -0.5849 -0.0344
  846TP3     H214358   3.042   3.354   8.380 -1.3455 -0.6391  0.5736
  847TP3      O14359   3.572   2.887  10.245 -0.1637  0.3250  0.3329
  847TP3     H114360   3.492   2.835  10.250 -0.1207  0.1377 -0.7261
  847TP3     H214361   3.570   2.943  10.322 -1.5710  0.6790  0.0391
  848TP3      O14362   0.645   5.354   8.533  0.8259  0.3484  0.3949
  848TP3     H114363   0.660   5.405   8.613  0.0099 -0.1248  0.8551
  848TP3     H214364   0.566   5.304   8.551  1.2478 -0.5803 -0.3079
  849TP3      O14365   2.163   3.182   7.489 -0.0690 -0.0496  0.2479
  849TP3     H114366   2.119   3.267   7.496  0.4750  0.2196  0.3710
  849TP3     H214367   2.092   3.118   7.500 -0.2115  0.3691  1.9374
  850TP3      O14368   2.558   2.472   7.431  0.4305  0.4923 -0.3294
  850TP3     H114369   2.610   2.392   7.436 -0.6705 -0.2585 -0.5556
  850TP3     H214370   2.551   2.491   7.337 -0.9145 -0.2465 -0.3973
  851TP3      O14371   1.217   3.791  10.142  0.1237 -0.3484  0.4382
  851TP3     H114372   1.178   3.878  10.147 -1.5412 -0.9825 -1.0555
  851TP3     H214373   1.305   3.803  10.178  0.0849  2.0511 -0.1403
  852TP3      O14374   0.173   3.969   0.083 -0.8419  0.7691 -0.1860
  852TP3     H114375   0.202   3.881   0.061 -1.5045  0.6474 -0.5831
  852TP3     H214376   0.251   4.023   0.077 -0.1084 -0.0542  1.5265
  853TP3      O14377   4.400   2.326   7.497  0.1299  0.3822 -0.2722
  853TP3     H114378   4.421   2.412   7.461  1.6100 -0.7329 -2.1213
  853TP3     H214379   4.430   2.264   7.432 -0.6511 -1.5836  1.1748
  854TP3      O14380   2.153   2.740   9.156 -0.3116  0.8295 -0.5300
  854TP3     H114381   2.209   2.665   9.177 -0.5504  0.9446  0.5197
  854TP3     H214382   2.207   2.793   9.098 -0.0867 -0.0763 -1.1715
  855TP3      O14383   4.753   0.697   7.373 -0.3985  0.1479  0.3646
  855TP3     H114384   4.788   0.785   7.363  0.2087  0.1051  1.9147
  855TP3     H214385   4.660   0.709   7.394 -0.0377  0.4830  1.8334
  856TP3      O14386   3.224   1.796   7.589 -0.2407  0.2890  0.3150
  856TP3     H114387   3.247   1.887   7.571 -1.1977  0.4106 -0.3613
  856TP3     H214388   3.256   1.748   7.513 -1.9465  0.4247 -0.5104
  857TP3      O14389   4.502   0.629   7.805  0.2232  0.5620  0.3193
  857TP3     H114390   4.472   0.606   7.717  0.0911  2.5774 -0.1709
  857TP3     H214391   4.493   0.724   7.810  2.6375  0.7548  1.6257
  858TP3      O14392   4.299   2.497   9.806  0.1310 -0.2351 -0.1248
  858TP3     H114393   4.368   2.437   9.776  0.3587  0.3678 -0.8135
  858TP3     H214394   4.309   2.575   9.752  1.0033  1.1749  1.9893
  859TP3      O14395   1.436   3.431   8.560 -0.2870  0.0848  0.1062
  859TP3     H114396   1.478   3.517   8.554 -0.6484  0.1292 -2.0613
  859TP3     H214397   1.497   3.379   8.613  0.2677  1.4658  0.8517
  860TP3      O14398   0.996   1.926   8.450  0.0425 -0.0962 -0.1486
  860TP3     H114399   0.901   1.921   8.439 -0.1141  2.0924  0.0811
  860TP3     H214400   1.031   1.926   8.361 -0.1992 -0.1642 -0.2434
  861TP3      O14401   4.415   5.088  10.084  0.0938  0.8528 -0.8113
  861TP3     H114402   4.478   5.099  10.155 -0.4513  0.7363 -0.3016
  861TP3     H214403   4.460   5.035  10.019 -0.2624 -1.1652  0.5534
  862TP3      O14404   4.697   2.684   9.303 -0.4459 -0.0826  0.1940
  862TP3     H114405   4.741   2.767   9.288 -2.0980  0.7086 -0.3772
  862TP3     H214406   4.606   2.708   9.323 -1.1080 -1.7596 -0.6644
  863TP3      O14407   1.421   1.457   7.011  0.3363 -0.1221  0.6777
  863TP3     H114408   1.484   1.516   6.970 -0.1462  0.8177  1.2923
  863TP3     H214409   1.378   1.509   7.078 -2.3476 -0.2099 -0.9031
  864TP3      O14410   1.445   4.405   7.622  0.3583  0.7076  0.0831
  864TP3     H114411   1.535   4.410   7.590  0.3347 -0.6615 -0.2650
  864TP3     H214412   1.454   4.387   7.715  0.4860 -1.1082 -0.2483
  865TP3      O14413   4.959   1.982   9.524  0.4590 -0.2495  0.2299
  865TP3     H114414   4.949   1.931   9.443  0.3033  1.5134 -0.9105
  865TP3     H214415   4.972   1.917   9.592  2.2053 -1.7431 -1.4570
  866TP3      O14416   1.661   1.948   7.841  0.4621  0.6158 -0.0649
  866TP3     H114417   1.747   1.962   7.801 -0.4081  1.1916 -1.8216
  866TP3     H214418   1.676   1.954   7.935  2.5844 -0.7263 -0.3015
  867TP3      O14419   2.630   4.570   0.841  0.0173 -0.3115  0.0769
  867TP3     H114420   2.712   4.618   0.836 -1.2569  1.7956 -1.6242
  867TP3     H214421   2.631   4.529   0.927  2.4199  0.4508  0.4453
  868TP3      O14422   0.966   5.350  10.015 -0.2318 -0.2287  0.2354
  868TP3     H114423   1.008   5.268   9.987 -1.7495 -0.9233 -0.0868
  868TP3     H214424   0.911   5.324  10.090 -1.9413  0.1607 -0.8446
  869TP3      O14425   2.700   3.204   7.360  0.2159  0.2539 -0.2556
  869TP3     H114426   2.747   3.207   7.276 -1.0766 -0.8474 -1.0383
  869TP3     H214427   2.609   3.218   7.337 -0.1854 -0.3526  0.9329
  870TP3      O14428   0.269   5.065   8.345  0.0719 -0.0927 -0.1196
  870TP3     H114429   0.223   5.092   8.266  0.2663 -0.3259 -0.3163
  870TP3     H214430   0.236   4.977   8.363 -0.4988  0.2391  0.4717
  871TP3      O14431   2.669   4.017   8.424  0.6314 -0.6372 -0.0014
  871TP3     H114432   2.624   4.093   8.386  0.0366 -0.9797  0.0007
  871TP3     H214433   2.758   4.048   8.441  0.7428 -0.2980 -1.1122
  872TP3      O14434   5.511   4.463   7.225 -0.2049  0.1498  0.3084
  872TP3     H114435   5.594   4.448   7.179 -0.1697  1.7225 -0.1515
  872TP3     H214436   5.537   4.509   7.305 -0.8328  2.8306 -0.9696
  873TP3      O14437   0.500   3.108   8.731 -0.1593  0.2834  0.4873
  873TP3     H114438   0.534   3.096   8.820  1.6879 -0.1867 -0.2784
  873TP3     H214439   0.574   3.089   8.674 -2.0094 -1.9208 -1.2445
  874TP3      O14440   3.568   1.995   9.832  0.1381  0.8249 -0.3318
  874TP3     H114441   3.525   1.988   9.918  0.3017 -0.6639 -0.3624
  874TP3     H214442   3.531   2.075   9.794 -1.5338  0.3682  0.2575
  875TP3      O14443   3.040   1.641   6.863 -0.2168 -0.5411  1.0648
  875TP3     H114444   2.983   1.577   6.820  1.2082  0.2474 -2.1019
  875TP3     H214445   3.053   1.710   6.798  1.6943  0.9201  2.9106
  876TP3      O14446   1.439   3.318   0.090  0.1664 -0.2706 -0.4044
  876TP3     H114447   1.471   3.408   0.079  1.5721 -0.8075 -0.7909
  876TP3     H214448   1.518   3.265   0.092 -0.6706 -1.5218 -0.2858
  877TP3      O14449   3.051   4.898   0.290 -0.1726 -0.3673 -0.3509
  877TP3     H114450   3.038   4.901   0.384  0.3793 -0.3838 -0.2751
  877TP3     H214451   2.964   4.917   0.253 -0.3272 -0.0983  0.1548
  878TP3      O14452   1.493   0.801   9.138 -0.1033 -0.0720  0.6980
  878TP3     H114453   1.424   0.806   9.204 -0.6881  0.1666  0.0799
  878TP3     H214454   1.449   0.826   9.056  0.7371  0.1476  0.3123
  879TP3      O14455   2.860   1.253   2.937  0.3069  0.4099  0.2110
  879TP3     H114456   2.863   1.343   2.971  1.6348  0.4644 -0.0489
  879TP3     H214457   2.927   1.207   2.986  1.1282  0.0895 -1.2106
  880TP3      O14458   2.895   4.559   9.444 -0.0711  0.0969 -0.4333
  880TP3     H114459   2.901   4.504   9.521 -1.2749 -0.6108 -0.8239
  880TP3     H214460   2.805   4.591   9.444  0.3720  1.3923 -0.6681
  881TP3      O14461   4.144   3.154   7.395  0.2712  0.4263  0.0356
  881TP3     H114462   4.052   3.179   7.405 -0.1311 -1.3880  1.0098
  881TP3     H214463   4.159   3.159   7.300 -0.6396  1.3690 -0.0703
  882TP3      O14464   0.270   1.745   8.728 -0.0449  0.0033  0.1578
  882TP3     H114465   0.290   1.678   8.663 -0.9628  0.2543 -0.3887
  882TP3     H214466   0.191   1.714   8.771 -0.1370  0.4444  0.3122
  883TP3      O14467   3.636   2.591   7.083 -0.2152 -0.0362  0.3844
  883TP3     H114468   3.678   2.515   7.123  0.2564 -0.7433 -1.4007
  883TP3     H214469   3.553   2.601   7.130  0.4856 -0.6082  1.7635
  884TP3      O14470   2.406   3.042   6.923 -0.3938  1.0226  0.1675
  884TP3     H114471   2.475   3.108   6.932 -1.6892  2.1252  2.4247
  884TP3     H214472   2.346   3.079   6.858 -0.5351  1.6031  0.6136
  885TP3      O14473   2.930   3.208   7.193 -0.4774 -0.0184 -0.0112
  885TP3     H114474   2.927   3.145   7.120  1.2394 -0.1901  0.0494
  885TP3     H214475   2.958   3.290   7.152  2.2035 -0.5347  0.6963
  886TP3      O14476   3.247   3.563   7.604 -0.1824  0.2254  0.2382
  886TP3     H114477   3.239   3.658   7.597 -0.4948  0.1133 -1.1223
  886TP3     H214478   3.190   3.529   7.534  2.8398 -0.8947 -1.7845
  887TP3      O14479   2.689   3.853   8.197  0.7188  0.1944 -0.1819
  887TP3     H114480   2.695   3.896   8.283  0.7124  0.3883 -0.2765
  887TP3     H214481   2.618   3.900   8.153 -1.0607 -1.6065  0.6785
  888TP3      O14482   1.337   4.176   9.416  0.4804 -0.3870  0.1175
  888TP3     H114483   1.283   4.231   9.359  0.3205  2.3823  2.8291
  888TP3     H214484   1.275   4.115   9.456 -0.0185  0.1505  0.1732
  889TP3      O14485   0.641   3.873   2.140 -0.4166 -0.1986  0.0776
  889TP3     H114486   0.604   3.904   2.057 -2.5473 -1.1773  0.6222
  889TP3     H214487   0.605   3.785   2.151 -0.6474  0.1339  2.3020
  890TP3      O14488   3.413   3.487   7.787  0.1490  0.3607 -0.6284
  890TP3     H114489   3.356   3.420   7.825  0.3114  1.1409  1.0374
  890TP3     H214490   3.364   3.521   7.712 -1.4569  0.8233  0.6117
  891TP3      O14491   4.505   5.171   9.345 -0.5164 -0.1167 -0.7378
  891TP3     H114492   4.503   5.205   9.255 -0.6905 -0.6913 -0.9534
  891TP3     H214493   4.597   5.150   9.360 -0.6542 -1.0549 -1.1787
  892TP3      O14494   2.919   1.030   9.297  0.3891  0.1474  0.1752
  892TP3     H114495   2.981   1.071   9.236  0.2873 -1.7062 -1.2459
  892TP3     H214496   2.955   1.047   9.383  0.1144  3.5474 -0.3158
  893TP3      O14497   2.924   4.348   8.247  0.3038 -0.0235 -0.9328
  893TP3     H114498   2.834   4.338   8.280  0.8796 -3.7554 -0.3356
  893TP3     H214499   2.978   4.353   8.326  0.7611  1.0429 -1.3030
  894TP3      O14500   2.699   2.476   9.782  0.5455 -0.4401 -0.9578
  894TP3     H114501   2.722   2.565   9.810  1.1554 -0.3458 -1.7487
  894TP3     H214502   2.780   2.425   9.795  0.3993 -0.7250 -1.1523
  895TP3      O14503   2.893   2.816   7.356 -0.5004 -0.5061 -0.7181
  895TP3     H114504   2.848   2.841   7.275  0.6357  0.7265 -0.9783
  895TP3     H214505   2.822   2.796   7.417 -1.4945  2.5399 -0.7624
  896TP3      O14506   4.143   5.222   7.800 -0.4573 -0.6240 -0.2007
  896TP3     H114507   4.162   5.206   7.892 -0.5194 -0.4747 -0.1617
  896TP3     H214508   4.229   5.216   7.757 -0.6619 -2.5477 -0.4151
  897TP3      O14509   2.604   1.387   1.069  0.0765 -0.1635 -0.0038
  897TP3     H114510   2.574   1.321   1.131 -0.1158 -1.1892 -1.1884
  897TP3     H214511   2.619   1.465   1.123 -1.1031 -0.7351  1.1663
  898TP3      O14512   3.344   2.590   8.760  0.1344  0.2400  0.1890
  898TP3     H114513   3.289   2.669   8.761 -1.0824 -0.5903 -0.0689
  898TP3     H214514   3.324   2.546   8.843  0.2208 -0.1836 -0.0146
  899TP3      O14515   4.965   4.251   9.597  0.3319  0.0653 -0.1614
  899TP3     H114516   4.871   4.240   9.582  0.4571 -1.4092  0.1194
  899TP3     H214517   5.000   4.162   9.599  1.6484  0.5810  0.3276
  900TP3      O14518   1.904   4.358   8.532  0.1444  0.1787 -0.0619
  900TP3     H114519   1.878   4.359   8.440  0.1895  0.0547 -0.0745
  900TP3     H214520   1.967   4.430   8.540 -0.2313  0.5057 -0.0188
  901TP3      O14521   5.302   1.523   9.164 -0.1874 -0.6383  0.2197
  901TP3     H114522   5.386   1.499   9.203 -0.2685 -1.3159 -0.0221
  901TP3     H214523   5.324   1.547   9.073 -0.1243  0.0894  0.4230
  902TP3      O14524   3.176   3.501   0.573 -0.2881 -0.1442 -0.3445
  902TP3     H114525   3.224   3.447   0.511  1.6374  1.5877 -0.4171
  902TP3     H214526   3.110   3.545   0.521  0.3501  0.1597 -0.9021
  903TP3      O14527   3.582   2.764   9.472  0.1108  0.1373  0.3806
  903TP3     H114528   3.489   2.744   9.459  0.5082 -0.9490 -0.8825
  903TP3     H214529   3.625   2.679   9.472  1.3398  0.7393 -1.0028
  904TP3      O14530   0.360   2.208   0.011 -0.0581  0.2093 -1.0526
  904TP3     H114531   0.374   2.260  -0.068  0.9075  1.9173  0.2011
  904TP3     H214532   0.431   2.143   0.010  0.3666  0.6735 -1.2244
  905TP3      O14533   2.088   3.446   6.809  0.0744  0.2562  0.2248
  905TP3     H114534   2.105   3.516   6.745 -3.0763 -0.3275 -1.3196
  905TP3     H214535   2.003   3.468   6.847  0.5543 -1.0159  2.1203
  906TP3      O14536   4.163   1.860   7.349 -0.4364  0.4819  0.8709
  906TP3     H114537   4.111   1.840   7.271 -0.2156  0.4269  0.7352
  906TP3     H214538   4.240   1.803   7.341  0.3112  1.5321  0.3659
  907TP3      O14539   2.879   3.570   8.111 -0.2048 -0.5748 -0.3866
  907TP3     H114540   2.883   3.615   8.195 -1.0375 -0.7465 -0.2569
  907TP3     H214541   2.971   3.550   8.091  0.2669  1.8945 -0.8402
  908TP3      O14542   2.560   4.622   8.921  0.0001 -0.1359  0.4902
  908TP3     H114543   2.484   4.680   8.919  1.1630  1.4506 -2.4061
  908TP3     H214544   2.630   4.677   8.957  0.6279 -0.3846 -0.3335
  909TP3      O14545   3.083   3.323   8.749  0.6171  0.0417  0.6533
  909TP3     H114546   3.173   3.291   8.746  0.5014 -0.1646 -1.3942
  909TP3     H214547   3.032   3.256   8.703 -0.3086  0.9983  0.2482
  910TP3      O14548   3.883   3.675   9.446  0.4535  0.0571  0.2629
  910TP3     H114549   3.879   3.582   9.469 -0.9161  0.2783  0.9223
  910TP3     H214550   3.857   3.678   9.354  1.1981 -0.2746  0.0294
  911TP3      O14551   3.199   3.247   6.894  0.0908  0.8502 -0.0870
  911TP3     H114552   3.164   3.175   6.842 -1.3337  1.4547  0.0191
  911TP3     H214553   3.238   3.205   6.970 -1.3955  0.2144  0.3476
  912TP3      O14554   4.065   1.963   0.463 -0.4349 -0.6232  0.4039
  912TP3     H114555   4.036   2.041   0.415  2.0529 -0.6317 -1.2045
  912TP3     H214556   4.069   1.894   0.396  0.2536 -1.3889  1.2201
  913TP3      O14557   4.536   2.255   8.204  0.3692  0.0009  0.3801
  913TP3     H114558   4.476   2.183   8.226  0.3677  0.3570  1.5763
  913TP3     H214559   4.519   2.273   8.112 -0.7034 -0.5270  0.4640
  914TP3      O14560   1.169   3.189   8.506 -0.0158 -0.3533 -0.3199
  914TP3     H114561   1.137   3.122   8.567 -3.0360 -0.3047 -1.7305
  914TP3     H214562   1.117   3.175   8.427  1.7821  1.4447 -1.8660
  915TP3      O14563   4.425   4.323   7.812 -0.5137  0.4024 -0.2505
  915TP3     H114564   4.492   4.324   7.880 -1.4327 -0.9988  0.6898
  915TP3     H214565   4.372   4.246   7.831 -1.3159  0.4803 -2.0471
  916TP3      O14566   0.886   4.133   9.234  0.3681 -0.5570 -0.1360
  916TP3     H114567   0.915   4.069   9.169 -0.4566 -0.4030 -0.6641
  916TP3     H214568   0.835   4.081   9.297 -1.3620 -0.2479 -1.2388
  917TP3      O14569   3.258   2.906   7.577  0.2027  0.0923 -0.0602
  917TP3     H114570   3.268   2.999   7.559  1.2144  0.4357  2.0972
  917TP3     H214571   3.181   2.900   7.633  1.1055 -0.1834  1.1584
  918TP3      O14572   1.750   2.962   9.176  0.2681  0.4450 -0.2576
  918TP3     H114573   1.779   3.038   9.125  4.5968 -0.7599  0.1687
  918TP3     H214574   1.795   2.888   9.136 -1.7716 -1.5174  1.0050
  919TP3      O14575   2.172   5.461   7.455 -0.4023  0.1514 -0.2167
  919TP3     H114576   2.190   5.369   7.475  0.2385 -0.1762 -2.1719
  919TP3     H214577   2.257   5.498   7.431 -0.4268  1.6253  1.8111
  920TP3      O14578   2.245   2.860   9.499  0.3854  0.1954  0.2820
  920TP3     H114579   2.166   2.885   9.451  1.7154  1.2198 -1.4501
  920TP3     H214580   2.240   2.912   9.580 -0.7532  0.1686  0.2465
  921TP3      O14581   4.692   2.442   9.146 -0.1616 -0.0181 -0.4799
  921TP3     H114582   4.613   2.387   9.150  0.3499 -0.7298  0.1149
  921TP3     H214583   4.671   2.519   9.199 -0.4551 -0.2106 -0.3174
  922TP3      O14584   0.550   2.272   9.149  0.3886  0.6868  0.0620
  922TP3     H114585   0.602   2.208   9.197 -0.2554 -0.4396 -0.7095
  922TP3     H214586   0.559   2.246   9.058  2.1419  3.2042 -0.5258
  923TP3      O14587   1.962   0.068  10.143  0.2737 -0.1228 -0.0552
  923TP3     H114588   1.986   0.030  10.058  1.3912 -0.7495  0.5348
  923TP3     H214589   1.996   0.158  10.139  0.1180 -0.0779 -0.3663
  924TP3      O14590   1.463   1.473   9.785  0.2623  0.0002  0.1245
  924TP3     H114591   1.464   1.435   9.872 -1.0981 -0.4675 -0.0483
  924TP3     H214592   1.376   1.452   9.751  0.2518  1.4436 -0.7834
  925TP3      O14593   2.712   0.799  10.222  0.1002 -0.4276  0.1767
  925TP3     H114594   2.802   0.766  10.231 -0.2865 -1.5426 -0.0375
  925TP3     H214595   2.696   0.846  10.304  1.6960  1.7838 -0.7349
  926TP3      O14596   3.845   2.126   7.964 -0.5748  0.5552 -0.3003
  926TP3     H114597   3.916   2.077   8.006 -1.4925 -0.3653  0.2105
  926TP3     H214598   3.768   2.071   7.977 -1.4615  1.7402 -0.4882
  927TP3      O14599   2.109   2.563   8.013 -0.4232 -0.4931 -0.4388
  927TP3     H114600   2.118   2.539   8.106  0.7454  1.3556 -0.0475
  927TP3     H214601   2.061   2.646   8.015  0.0322 -0.2010 -1.4659
  928TP3      O14602   2.396   0.599   8.390  0.2767 -0.1564  0.0803
  928TP3     H114603   2.430   0.674   8.438  2.6575 -1.0254 -0.1844
  928TP3     H214604   2.415   0.620   8.298 -1.3845  0.0572 -0.2335
  929TP3      O14605   5.129   3.148   2.215 -0.2593 -0.0310  0.0637
  929TP3     H114606   5.051   3.113   2.256  0.0066 -1.6651 -0.8175
  929TP3     H214607   5.134   3.105   2.129  0.2115  1.9460 -0.9370
  930TP3      O14608   5.319   1.350   1.718  0.0328 -0.1371 -0.1722
  930TP3     H114609   5.366   1.356   1.801  0.0599  1.0789 -0.2698
  930TP3     H214610   5.275   1.434   1.709 -0.0017 -0.2757 -1.3741
  931TP3      O14611   1.202   1.093   7.002 -0.3076  0.2681  0.7590
  931TP3     H114612   1.149   1.136   7.070 -0.4269  0.6551  0.4291
  931TP3     H214613   1.234   1.166   6.948 -0.8025 -0.0765 -0.0195
  932TP3      O14614   4.030   4.532   1.528  0.2279 -1.2586 -0.1074
  932TP3     H114615   4.009   4.440   1.539 -3.4623 -0.6222 -1.0422
  932TP3     H214616   4.031   4.545   1.433  1.1825 -0.4366  0.0070
  933TP3      O14617   2.112   3.471   7.710 -0.3494  0.5206  0.0024
  933TP3     H114618   2.132   3.562   7.685 -0.6674  0.3136 -1.0439
  933TP3     H214619   2.071   3.434   7.632  0.8290 -0.8593  0.0286
  934TP3      O14620   1.393   0.662   7.828  0.0043 -0.1858  0.1450
  934TP3     H114621   1.384   0.676   7.733 -0.3728  0.8686  0.3230
  934TP3     H214622   1.481   0.693   7.848 -0.6031  1.4277  0.4359
  935TP3      O14623   3.594   1.361   7.559  0.1409  0.0606 -0.6848
  935TP3     H114624   3.605   1.298   7.630 -2.8613  1.0367  0.7687
  935TP3     H214625   3.632   1.442   7.593  0.8044 -0.0595 -1.1349
  936TP3      O14626   1.513   3.208   8.132 -0.2439 -0.2372  0.4579
  936TP3     H114627   1.545   3.248   8.213 -0.2135  1.3429 -0.3201
  936TP3     H214628   1.555   3.258   8.062  0.7103 -2.3668 -0.5637
  937TP3      O14629   4.310   4.209   8.249  0.1006  0.6343 -0.2519
  937TP3     H114630   4.260   4.288   8.228 -0.6929  0.8548  2.3191
  937TP3     H214631   4.243   4.141   8.259  0.4608  0.4858  1.2588
  938TP3      O14632   5.048   3.330   0.271 -0.3536 -0.3499  0.0663
  938TP3     H114633   4.978   3.389   0.239  0.5901  1.0288  0.4930
  938TP3     H214634   5.122   3.388   0.288  0.7409 -1.7367  0.1255
  939TP3      O14635   3.996   3.137   1.361 -0.4645  0.6751  0.1031
  939TP3     H114636   4.067   3.083   1.327 -0.1809  0.5880  0.8206
  939TP3     H214637   4.028   3.227   1.353 -0.2833  0.6372  0.4064
  940TP3      O14638   2.838   1.148   7.711 -0.6058 -0.0946  0.2237
  940TP3     H114639   2.769   1.097   7.670  0.5106 -2.1406  0.7802
  940TP3     H214640   2.917   1.126   7.662 -0.1375  1.2704  0.3469
  941TP3      O14641   3.337   1.639   7.396  0.0190 -0.1171 -0.1293
  941TP3     H114642   3.419   1.688   7.388  0.6126 -1.1381 -0.3802
  941TP3     H214643   3.365   1.548   7.407 -1.1089 -0.6192 -1.3631
  942TP3      O14644   4.441   0.542   8.549  0.1737  0.0398 -0.0380
  942TP3     H114645   4.495   0.566   8.473 -3.6115  0.6577 -2.6457
  942TP3     H214646   4.414   0.452   8.532 -2.0955  0.7417 -0.3716
  943TP3      O14647   4.645   2.946   9.740 -0.0377  0.7940 -0.2527
  943TP3     H114648   4.626   2.852   9.730 -0.8179  0.9417 -0.2282
  943TP3     H214649   4.712   2.950   9.807 -1.2556  0.3397  1.0240
  944TP3      O14650   2.048   3.969   8.397 -0.6361  0.3060  0.4660
  944TP3     H114651   1.980   4.026   8.359 -0.3410  0.5241  0.2547
  944TP3     H214652   2.119   3.971   8.332 -1.1191 -1.2904 -0.1274
  945TP3      O14653   2.438   3.263   7.439 -0.2175  0.3876 -0.0667
  945TP3     H114654   2.391   3.311   7.371  0.3707  1.6417  0.4002
  945TP3     H214655   2.402   3.295   7.521 -0.0361 -0.1933  0.2417
  946TP3      O14656   2.980   5.319   1.910  0.1557  0.0134 -0.8913
  946TP3     H114657   3.074   5.325   1.893  0.6052  0.5040  1.6147
  946TP3     H214658   2.945   5.404   1.885  0.6171  0.3368 -0.4419
  947TP3      O14659   3.357   2.940   9.002 -0.5717  0.5134 -0.2708
  947TP3     H114660   3.364   3.026   9.043  1.2275  0.0459  0.4427
  947TP3     H214661   3.446   2.906   9.002 -0.8484 -0.3134 -2.8356
  948TP3      O14662   2.618   1.809   8.533  0.1689  0.0315 -0.2358
  948TP3     H114663   2.556   1.877   8.507  0.3149  0.0882 -0.4389
  948TP3     H214664   2.564   1.741   8.573 -0.0098  0.1343 -0.3022
  949TP3      O14665   5.158   1.564   1.391  0.0247  0.0043  0.2909
  949TP3     H114666   5.117   1.482   1.366 -2.1033  1.3259 -0.7120
  949TP3     H214667   5.139   1.573   1.484 -0.3701 -0.2737  0.2373
  950TP3      O14668   2.492   1.760   1.553 -0.3016 -0.1976  0.3886
  950TP3     H114669   2.459   1.751   1.464  0.9173  1.8510 -0.3108
  950TP3     H214670   2.457   1.845   1.583  0.1161 -0.4004  1.4937
  951TP3      O14671   4.600   5.034   1.362 -0.5987 -0.2069 -0.9321
  951TP3     H114672   4.582   5.123   1.392  0.8977 -0.1801 -0.0547
  951TP3     H214673   4.649   4.994   1.434 -1.0859 -1.6768 -1.3972
  952TP3      O14674   3.288   1.964   6.899 -0.3337 -0.1663 -0.0714
  952TP3     H114675   3.235   1.916   6.963 -2.1400  0.9258 -0.7314
  952TP3     H214676   3.373   1.976   6.942 -1.0047 -0.8673  1.4658
  953TP3      O14677   1.868   5.022   9.390  0.0484  0.3668  0.4603
  953TP3     H114678   1.955   5.035   9.353 -0.3119  1.1264 -0.1328
  953TP3     H214679   1.811   5.079   9.338 -0.9162 -0.6259  0.3995
  954TP3      O14680   1.197   4.297   9.221 -0.0800  0.0427  0.1621
  954TP3     H114681   1.102   4.299   9.235  0.0636 -1.5011  1.4737
  954TP3     H214682   1.210   4.229   9.154  0.0284  0.9350 -0.7335
  955TP3      O14683   1.298   4.388   9.646  0.1317 -0.2935 -0.1790
  955TP3     H114684   1.324   4.456   9.584  1.1828 -0.4421  0.1045
  955TP3     H214685   1.327   4.306   9.605 -1.6394 -0.6395 -0.7975
  956TP3      O14686   3.411   1.843   9.157  0.1186 -0.1267  0.1099
  956TP3     H114687   3.429   1.788   9.081 -1.1843  0.0952 -0.3540
  956TP3     H214688   3.318   1.863   9.152 -0.0109 -0.2010  1.8243
  957TP3      O14689   4.730   2.042   7.704 -0.1697 -0.4866 -0.4226
  957TP3     H114690   4.646   2.086   7.695 -1.0313 -2.3001 -1.6833
  957TP3     H214691   4.749   2.043   7.798 -0.7365  1.4654 -0.3216
  958TP3      O14692   2.150   0.634   9.108 -0.3349  0.7437 -0.2895
  958TP3     H114693   2.071   0.592   9.141 -0.9549  1.5564 -0.7306
  958TP3     H214694   2.129   0.728   9.105 -0.1707  0.7357 -2.6428
  959TP3      O14695   0.530   3.570   7.394 -0.3461  0.0094 -0.5141
  959TP3     H114696   0.611   3.550   7.348 -0.1901  0.6249 -0.5152
  959TP3     H214697   0.555   3.635   7.460 -1.1951  1.7252 -1.8342
  960TP3      O14698   3.612   2.861   9.038 -0.5384  0.1766 -0.6833
  960TP3     H114699   3.652   2.777   9.060 -0.8863  0.3085  0.4622
  960TP3     H214700   3.662   2.893   8.963 -0.4462 -1.0802 -1.1637
  961TP3      O14701   0.747   3.898   7.811  0.8058 -0.1275 -0.2291
  961TP3     H114702   0.673   3.895   7.871  0.3287 -1.4200 -0.8818
  961TP3     H214703   0.775   3.807   7.802  1.3338  0.1418 -1.3859
  962TP3      O14704   1.014   4.868   8.062 -0.2224  0.2135  0.1704
  962TP3     H114705   0.944   4.815   8.024 -0.3970 -0.0888  0.9028
  962TP3     H214706   1.070   4.890   7.988 -1.5198  1.1268 -0.5732
  963TP3      O14707   5.042   2.083   8.177 -0.1293  0.2689 -0.8529
  963TP3     H114708   5.122   2.081   8.123 -0.1369 -0.5531 -0.8297
  963TP3     H214709   5.073   2.106   8.264 -0.0846  1.3335 -1.1348
  964TP3      O14710   2.264   4.298   7.348  0.1316 -0.3416  0.1851
  964TP3     H114711   2.209   4.376   7.343 -0.7630 -0.8772  1.3917
  964TP3     H214712   2.225   4.236   7.287 -0.1580 -0.4424  0.4705
  965TP3      O14713   3.476   4.816   9.276 -0.7216 -0.0690 -0.2227
  965TP3     H114714   3.547   4.843   9.219  0.3533 -1.0159  0.6283
  965TP3     H214715   3.436   4.898   9.306 -0.0194  0.4662 -0.7459
  966TP3      O14716   0.372   5.093   9.490 -0.1658 -0.5896  0.4475
  966TP3     H114717   0.411   5.020   9.537  3.8389  0.8049 -0.5190
  966TP3     H214718   0.380   5.068   9.397 -3.2625 -1.0315  0.2474
  967TP3      O14719   2.238   1.331   7.602  0.4183  0.2008  0.2423
  967TP3     H114720   2.218   1.425   7.603 -3.4128 -0.5613 -0.5766
  967TP3     H214721   2.204   1.298   7.684  1.7584 -0.5272  0.5273
  968TP3      O14722   3.911   0.911   0.251  0.2354  0.4256 -0.0110
  968TP3     H114723   3.915   0.860   0.170 -1.8011  0.5919 -0.2284
  968TP3     H214724   3.871   0.994   0.226  1.4829  1.2881  0.7762
  969TP3      O14725   4.658   4.418   8.602  0.4187  0.0333 -0.5820
  969TP3     H114726   4.734   4.366   8.576  0.1771 -0.4541 -0.3158
  969TP3     H214727   4.602   4.357   8.651  0.4674  0.7295  0.3434
  970TP3      O14728   3.523   3.772   7.567  0.4968 -0.5816 -0.6676
  970TP3     H114729   3.552   3.693   7.614 -1.2661 -0.9449 -0.1761
  970TP3     H214730   3.591   3.785   7.500  0.8836 -2.4349 -0.6828
  971TP3      O14731   3.351   2.121   8.201 -0.1057 -0.5292 -0.0680
  971TP3     H114732   3.354   2.117   8.297 -0.2306 -2.9188 -0.1212
  971TP3     H214733   3.278   2.063   8.178 -0.2380  0.2314 -1.6029
  972TP3      O14734   2.974   2.397   8.511 -0.4952  0.1690 -0.0064
  972TP3     H114735   3.048   2.390   8.571  0.0165  0.1810 -0.6291
  972TP3     H214736   2.953   2.490   8.509 -0.2496  0.2188 -0.1694
  973TP3      O14737   2.484   1.560   8.050 -0.0022 -0.2277 -0.9091
  973TP3     H114738   2.572   1.533   8.078  0.0186  1.2432  0.5385
  973TP3     H214739   2.436   1.477   8.039  0.8474 -0.9818  0.7822
  974TP3      O14740   2.540   4.299   9.971 -0.4192  0.6007 -0.6488
  974TP3     H114741   2.571   4.263  10.054  0.1280  0.1044 -1.0655
  974TP3     H214742   2.564   4.391   9.975 -1.3183  0.8037  0.1831
  975TP3      O14743   1.880   1.544   6.874  0.4722 -0.2337  0.5396
  975TP3     H114744   1.855   1.568   6.963 -0.0940  0.8497  0.0866
  975TP3     H214745   1.798   1.521   6.831  0.5870  0.5797 -0.1113
  976TP3      O14746   4.046   5.036   8.548 -0.5316 -0.1262  0.0371
  976TP3     H114747   4.035   5.081   8.464 -2.8261  0.0666  0.4329
  976TP3     H214748   4.133   5.063   8.578 -0.9147  2.1581 -0.8497
  977TP3      O14749   1.236   2.290   1.069  0.5672  0.3258  0.6271
  977TP3     H114750   1.266   2.271   0.980 -1.3260 -1.8050  0.4117
  977TP3     H214751   1.305   2.255   1.126  1.6942  1.5290  0.0454
  978TP3      O14752   3.282   1.331   8.575 -0.0677  0.2066  0.6026
  978TP3     H114753   3.337   1.306   8.650  1.2883  0.5133 -0.2716
  978TP3     H214754   3.255   1.248   8.537  2.0884  0.0215 -0.6003
  979TP3      O14755   1.759   4.284   7.119 -0.0896  0.5237  0.1663
  979TP3     H114756   1.751   4.222   7.046 -0.3446  0.3260  0.3629
  979TP3     H214757   1.678   4.336   7.115 -0.7121 -0.3641  1.1201
  980TP3      O14758   2.659   4.518   8.251 -0.0559 -1.0997 -0.3868
  980TP3     H114759   2.702   4.552   8.172  0.5203 -0.1499  0.3388
  980TP3     H214760   2.574   4.561   8.253 -0.5002 -1.9177 -1.0493
  981TP3      O14761   3.038   3.707   7.102  0.4286 -0.6188 -0.3810
  981TP3     H114762   2.955   3.730   7.145  2.0187 -1.5263  3.2823
  981TP3     H214763   3.104   3.759   7.148  1.8627  1.0343 -4.0603
  982TP3      O14764   4.054   2.377   7.844 -0.6974 -0.3649  0.1930
  982TP3     H114765   4.094   2.307   7.896 -1.0550 -1.0335 -0.4110
  982TP3     H214766   4.061   2.346   7.753  1.1355  1.3921 -0.2989
  983TP3      O14767   0.763   1.446   7.288  0.0325 -0.2256 -0.1676
  983TP3     H114768   0.756   1.505   7.213 -0.7420 -1.6454 -1.2394
  983TP3     H214769   0.759   1.358   7.249 -0.2022 -0.9728  1.5299
  984TP3      O14770   0.336   2.221   0.278 -0.3531 -0.0462 -0.1259
  984TP3     H114771   0.273   2.291   0.295 -1.3472 -0.9732  0.0780
  984TP3     H214772   0.351   2.225   0.183 -0.2879  0.5233 -0.0970
  985TP3      O14773   0.868   2.670   0.837  0.7917  0.1822  0.4362
  985TP3     H114774   0.890   2.740   0.898 -0.1579  0.1293  0.8491
  985TP3     H214775   0.785   2.635   0.869  0.1214  0.3549 -1.0406
  986TP3      O14776   3.939   2.788  10.056  0.5350 -0.1517 -0.3437
  986TP3     H114777   3.955   2.854   9.988 -0.7520  0.2126 -0.3067
  986TP3     H214778   4.002   2.719  10.038  0.6385  0.2396 -1.5155
  987TP3      O14779   4.049   1.510   8.717 -0.3304 -0.0201 -0.5240
  987TP3     H114780   3.967   1.559   8.718 -0.5507 -0.3712  1.6851
  987TP3     H214781   4.080   1.516   8.626 -2.0273  1.3721 -1.0358
  988TP3      O14782   4.326   2.149   7.979 -0.2847 -0.4087  0.2591
  988TP3     H114783   4.239   2.114   8.002 -0.9436  0.4960 -0.8626
  988TP3     H214784   4.325   2.156   7.884  0.7795  0.2528  0.2919
  989TP3      O14785   1.962   3.000   7.492 -0.1579  0.5084 -0.4352
  989TP3     H114786   1.943   2.916   7.450  0.3003  0.4183 -0.4577
  989TP3     H214787   1.880   3.023   7.535 -0.1132 -0.2384  0.0678
  990TP3      O14788   1.580   4.234   9.602 -0.2100  0.3504 -0.5764
  990TP3     H114789   1.634   4.210   9.677  1.0753 -0.7392 -1.8063
  990TP3     H214790   1.514   4.165   9.597 -1.0931  1.1333  0.3306
  991TP3      O14791   4.884   3.040   8.997  0.3453 -0.1145 -0.3636
  991TP3     H114792   4.901   2.968   8.936  1.6967 -1.0774  1.1182
  991TP3     H214793   4.805   3.012   9.044  0.7262 -0.5084  0.0397
  992TP3      O14794   4.012   2.106   7.418 -0.0431 -0.1891  0.0362
  992TP3     H114795   3.928   2.083   7.378  1.2828 -0.2508 -2.8560
  992TP3     H214796   4.076   2.048   7.376  1.6877  0.9416  1.0157
  993TP3      O14797   1.177   4.807   9.562  0.0114 -0.3240  0.2783
  993TP3     H114798   1.181   4.830   9.469 -2.3011  0.6247  0.3916
  993TP3     H214799   1.096   4.756   9.570  0.0443 -0.1465  1.8286
  994TP3      O14800   5.503   1.988   7.593  0.0373 -0.3529 -0.0156
  994TP3     H114801   5.588   2.018   7.563  1.4160 -3.3166  0.6737
  994TP3     H214802   5.485   2.040   7.672  0.4894  1.2975 -0.9850
  995TP3      O14803   5.009   0.606   8.040 -0.4688 -0.0291  0.2058
  995TP3     H114804   4.951   0.630   7.968 -0.3553 -0.1930  0.0589
  995TP3     H214805   5.045   0.521   8.014 -0.5603 -0.1705  0.5325
  996TP3      O14806   4.180   0.813   8.886  0.0211 -0.1197  0.3186
  996TP3     H114807   4.085   0.811   8.878  0.1866  1.0157 -2.2059
  996TP3     H214808   4.210   0.739   8.833  0.6221  0.3938 -0.0523
  997TP3      O14809   4.567   3.418   7.857  0.4879 -0.0111 -0.5720
  997TP3     H114810   4.504   3.411   7.929  0.3922  0.0391 -0.6498
  997TP3     H214811   4.640   3.362   7.883  0.8209  0.6585 -0.0544
  998TP3      O14812   0.065   3.185   7.797 -0.0310  0.0786  0.1265
  998TP3     H114813   0.002   3.257   7.789 -1.0920 -0.6258  1.9468
  998TP3     H214814   0.051   3.150   7.885  2.3592 -0.6201  0.2591
  999TP3      O14815   3.824   4.594   8.590  0.1790  0.1940  0.1732
  999TP3     H114816   3.903   4.539   8.594  0.7909  1.0386 -0.1792
  999TP3     H214817   3.828   4.648   8.669  0.3847  0.8087 -0.2512
 1000TP3      O14818   4.989   3.183   7.017 -0.2439 -0.2051  0.1555
 1000TP3     H114819   4.939   3.145   6.944 -1.7986 -1.9671  2.0641
 1000TP3     H214820   5.050   3.114   7.043  0.2465  0.3797  0.5673
 1001TP3      O14821   5.432   0.105   8.402  0.6923  0.6707 -0.2451
 1001TP3     H114822   5.369   0.174   8.382  0.5462  0.3434 -0.9536
 1001TP3     H214823   5.385   0.045   8.459  1.2839  1.8935  1.5476
 1002TP3      O14824   3.897   2.919   9.031  0.0070  0.8879 -0.6476
 1002TP3     H114825   3.872   3.008   9.005  0.5404  0.8714 -1.2224
 1002TP3     H214826   3.915   2.927   9.125  1.7508  1.7851 -1.0262
 1003TP3      O14827   1.136   1.389   2.071 -0.3652  0.2180  0.5142
 1003TP3     H114828   1.231   1.398   2.058 -0.3269 -2.0061 -1.2715
 1003TP3     H214829   1.125   1.298   2.100 -2.0749 -0.1111 -1.0704
 1004TP3      O14830   4.441   3.507   8.283 -0.1996  0.2130 -0.2029
 1004TP3     H114831   4.432   3.443   8.212  0.3373  1.4294 -1.3688
 1004TP3     H214832   4.412   3.459   8.361 -2.6777 -0.5274 -1.5307
 1005TP3      O14833   1.830   3.730   0.794  0.3085  0.5848  0.6458
 1005TP3     H114834   1.826   3.786   0.716  0.9530  2.3976  1.9002
 1005TP3     H214835   1.784   3.780   0.861 -1.0833 -1.3884  1.2075
 1006TP3      O14836   2.155   4.878   0.035  0.1208 -0.3095  0.3930
 1006TP3     H114837   2.196   4.794   0.054 -0.8550 -0.5048  1.7042
 1006TP3     H214838   2.117   4.867  -0.052  2.6928 -0.1634 -0.7910
 1007TP3      O14839   4.194   3.167   7.124 -0.0445  0.2599  0.7825
 1007TP3     H114840   4.265   3.224   7.153 -0.5250  0.5658  1.3638
 1007TP3     H214841   4.141   3.221   7.066  2.1318 -0.9816 -2.4671
 1008TP3      O14842   0.596   4.134   1.358  0.0502 -0.4018  0.4538
 1008TP3     H114843   0.578   4.221   1.396  2.9162  0.0561  0.8513
 1008TP3     H214844   0.585   4.146   1.264  0.2268  0.3407  0.5233
 1009TP3      O14845   2.489   5.466   9.602 -0.0972 -0.0666  0.0276
 1009TP3     H114846   2.575   5.508   9.602 -0.5170  0.8101  0.5028
 1009TP3     H214847   2.451   5.491   9.686 -1.1062  0.1687 -0.4940
 1010TP3      O14848   4.858   1.050   8.115  0.5370 -0.2969 -0.3669
 1010TP3     H114849   4.931   0.991   8.130  0.6438  0.0370  0.4570
 1010TP3     H214850   4.786   1.013   8.167  0.7471  0.5631  0.5470
 1011TP3      O14851   0.643   2.203   8.582 -0.1346  0.1755 -0.0835
 1011TP3     H114852   0.662   2.116   8.547  0.8578  0.3959 -0.1166
 1011TP3     H214853   0.612   2.254   8.507  0.7724  0.2863 -0.3934
 1012TP3      O14854   5.419   4.487   8.345 -0.7045 -0.0208 -0.1033
 1012TP3     H114855   5.378   4.412   8.302 -0.0170 -0.3520 -0.1911
 1012TP3     H214856   5.346   4.544   8.368 -1.3126 -1.0724  0.6570
 1013TP3      O14857   5.153   4.223   6.948 -0.1066  0.1652  0.3425
 1013TP3     H114858   5.064   4.255   6.933  0.0036 -1.1159 -3.3040
 1013TP3     H214859   5.145   4.128   6.947  1.1481  0.0348  1.2581
 1014TP3      O14860   4.743   1.415   7.614 -0.0731  0.0052 -0.0329
 1014TP3     H114861   4.787   1.349   7.561  1.8596  0.1163  1.3390
 1014TP3     H214862   4.771   1.499   7.577  2.0801  0.1049  1.6656
 1015TP3      O14863   3.481   3.190   9.336 -0.3764  0.2345 -0.3516
 1015TP3     H114864   3.467   3.206   9.429  0.4321 -0.4420 -0.1126
 1015TP3     H214865   3.546   3.120   9.333 -0.9863 -0.2983 -1.4198
 1016TP3      O14866   1.911   2.497   9.335 -0.0918  0.4504  0.1371
 1016TP3     H114867   2.004   2.510   9.356  0.5871  0.5855 -2.6869
 1016TP3     H214868   1.904   2.404   9.316 -0.5860  0.4101  0.5142
 1017TP3      O14869   3.965   2.834   8.007  0.0357 -0.2749 -0.1055
 1017TP3     H114870   3.978   2.860   8.099 -2.8941 -1.3547  0.6912
 1017TP3     H214871   4.053   2.824   7.972  1.2189  0.5225  2.4979
 1018TP3      O14872   4.155   0.715  10.085  0.0795  0.1617  0.0483
 1018TP3     H114873   4.171   0.620  10.089  0.3979  0.2591  1.1092
 1018TP3     H214874   4.060   0.724  10.086  0.0460 -0.1541 -0.2267
 1019TP3      O14875   0.043   3.130  10.005  0.0657 -0.6682 -0.9026
 1019TP3     H114876   0.030   3.049   9.956  0.2304 -1.7672  0.8410
 1019TP3     H214877  -0.039   3.145  10.051  0.9210 -1.3324  0.9099
 1020TP3      O14878   0.477   3.456   7.741  0.0814  0.2683  0.3330
 1020TP3     H114879   0.450   3.548   7.748  0.5228  0.7162 -2.8735
 1020TP3     H214880   0.406   3.414   7.691  1.0679 -0.5783 -0.3637
 1021TP3      O14881   1.844   3.874   9.122 -0.2130 -0.0402  0.4418
 1021TP3     H114882   1.781   3.806   9.100 -0.1931  0.0321  0.1619
 1021TP3     H214883   1.927   3.842   9.087  0.0234 -0.4052  1.3118
 1022TP3      O14884   0.575   4.202   6.751 -0.3508 -0.0084  0.4571
 1022TP3     H114885   0.666   4.230   6.757 -0.3482 -0.0337  0.5282
 1022TP3     H214886   0.562   4.146   6.828 -0.4874  0.1665  0.5590
 1023TP3      O14887   5.025   2.630   0.045 -0.4756  0.3210 -0.7070
 1023TP3     H114888   4.956   2.668  -0.009 -0.3476  2.1113  0.3526
 1023TP3     H214889   5.102   2.684   0.028  0.5090 -1.2701 -1.3912
 1024TP3      O14890   0.291   3.638   7.280  0.1509  0.1239 -0.1656
 1024TP3     H114891   0.320   3.688   7.203  1.7765  1.3130  1.1677
 1024TP3     H214892   0.372   3.622   7.329 -1.0817  0.9336  2.1918
 1025TP3      O14893   2.829   2.848   7.990  0.2031  0.5651 -0.3062
 1025TP3     H114894   2.809   2.824   7.900 -0.0484 -2.7506  0.5840
 1025TP3     H214895   2.744   2.871   8.028  0.3514  2.2968 -0.9489
 1026TP3      O14896   2.375   0.627  10.280 -0.1149  0.3622 -0.0608
 1026TP3     H114897   2.310   0.691  10.310 -1.8238 -1.4884  0.3019
 1026TP3     H214898   2.439   0.622  10.351 -0.4048  1.0677  0.2538
 1027TP3      O14899   1.875   3.710   8.524 -0.1690 -0.2771  0.3563
 1027TP3     H114900   1.917   3.782   8.477 -1.9467  0.8772  0.4900
 1027TP3     H214901   1.855   3.747   8.610  0.3565 -1.4516  0.9926
 1028TP3      O14902   5.054   0.950   8.930  0.0553  0.0625  0.0182
 1028TP3     H114903   5.002   1.014   8.980 -0.1695  0.2344 -0.4330
 1028TP3     H214904   5.127   0.929   8.988  0.8274  1.6861 -0.3427
 1029TP3      O14905   4.445   3.981   8.897 -0.3496  0.4697 -0.4464
 1029TP3     H114906   4.461   4.015   8.985 -2.1388  0.3195 -0.0386
 1029TP3     H214907   4.356   3.946   8.901 -1.5158  2.9531 -3.0851
 1030TP3      O14908   4.798   4.541   9.377 -0.4386 -0.0234 -0.4347
 1030TP3     H114909   4.744   4.581   9.309 -0.5200 -0.0023 -0.3580
 1030TP3     H214910   4.836   4.464   9.335 -0.8009 -0.2310 -0.3911
 1031TP3      O14911   0.474   4.174   7.839  0.0957  0.2313  0.2878
 1031TP3     H114912   0.476   4.124   7.758 -1.4740  1.1629 -0.3691
 1031TP3     H214913   0.527   4.252   7.820  0.0306  0.2720  0.2734
 1032TP3      O14914   4.671   1.517   8.157 -0.2126  0.5574 -0.0078
 1032TP3     H114915   4.690   1.601   8.115  3.0535  0.7823  1.8024
 1032TP3     H214916   4.676   1.453   8.086  1.2445  1.4079 -0.7017
 1033TP3      O14917   0.453   1.529   7.886 -0.1853  0.3891  0.0687
 1033TP3     H114918   0.524   1.592   7.899 -0.3750  0.6290 -0.0550
 1033TP3     H214919   0.391   1.548   7.956 -0.4473  0.6222 -0.2285
 1034TP3      O14920   4.722   3.235   7.422 -0.3232  0.1954 -0.3016
 1034TP3     H114921   4.692   3.211   7.334 -1.7553  2.8815 -0.6052
 1034TP3     H214922   4.698   3.161   7.477  1.1441 -1.8092 -2.2355
 1035TP3      O14923   4.188   4.577   9.800 -0.5136  0.4556 -0.5304
 1035TP3     H114924   4.092   4.581   9.792 -0.7218 -0.3422  1.3320
 1035TP3     H214925   4.212   4.498   9.751 -0.8730  0.3362 -0.5215
 1036TP3      O14926   1.204   2.683   9.550  0.3960  0.2463  0.1908
 1036TP3     H114927   1.259   2.742   9.601 -0.4445  0.9710  0.2672
 1036TP3     H214928   1.147   2.642   9.615  0.3085  0.0891  0.0155
 1037TP3      O14929   3.956   0.319   0.819 -0.2814 -0.3912 -0.0175
 1037TP3     H114930   4.011   0.243   0.802 -0.2682 -0.3602 -0.1179
 1037TP3     H214931   3.866   0.285   0.813 -0.2676 -0.5018  0.4412
 1038TP3      O14932   4.639   1.573   0.866 -0.3368 -0.6191 -0.3153
 1038TP3     H114933   4.714   1.629   0.884 -0.5921 -1.1144  2.4802
 1038TP3     H214934   4.677   1.493   0.831  0.2724 -0.0578 -0.9447
 1039TP3      O14935   0.099   0.031   8.242  0.3116 -0.3711 -0.2962
 1039TP3     H114936   0.046  -0.009   8.173 -0.0386 -0.8379  0.2293
 1039TP3     H214937   0.035   0.065   8.305  0.6275 -0.5318  0.1183
 1040TP3      O14938   3.332   1.282   8.108  0.6012 -0.1827 -0.0725
 1040TP3     H114939   3.294   1.218   8.168 -0.4894  0.4447 -0.0747
 1040TP3     H214940   3.419   1.248   8.089 -0.0206 -1.7728 -0.2225
 1041TP3      O14941   3.753   2.411   0.522  0.6675  0.0361  0.3855
 1041TP3     H114942   3.749   2.474   0.594  0.9736  0.2891  0.1864
 1041TP3     H214943   3.829   2.440   0.470 -0.1083  0.4171 -0.5481
 1042TP3      O14944   4.466   4.042   8.420  0.2084 -0.1874 -0.2443
 1042TP3     H114945   4.409   4.093   8.363 -1.1317 -1.1737  0.1889
 1042TP3     H214946   4.499   4.104   8.484  2.9017  1.2803 -2.9014
 1043TP3      O14947   0.698   4.882   8.092  0.5779 -0.2934  0.2162
 1043TP3     H114948   0.605   4.864   8.080  0.7077 -0.8544  0.0502
 1043TP3     H214949   0.741   4.838   8.019  0.8336  1.3727 -0.6725
 1044TP3      O14950   2.749   5.433   7.643 -0.0662 -0.0951  0.4334
 1044TP3     H114951   2.803   5.508   7.617 -1.9639  1.5170  1.0461
 1044TP3     H214952   2.795   5.396   7.719  0.3053  1.1368  0.8170
 1045TP3      O14953   0.474   1.296   8.760 -0.1200 -0.2754  0.1998
 1045TP3     H114954   0.505   1.246   8.835  1.2000 -0.5387 -0.5035
 1045TP3     H214955   0.444   1.229   8.698  1.6708 -0.2327 -0.7532
 1046TP3      O14956   2.942   2.922   9.754  0.7460  0.4809 -0.4236
 1046TP3     H114957   2.957   2.963   9.669  0.5400 -0.0416 -0.7177
 1046TP3     H214958   3.026   2.928   9.799  1.3022 -0.6266 -1.2731
 1047TP3      O14959   5.023   4.700  10.172 -1.1459  0.5512 -0.1855
 1047TP3     H114960   5.082   4.742  10.234 -1.2061 -2.4490  1.9760
 1047TP3     H214961   5.080   4.650  10.114 -1.3282  0.3153 -0.1652
 1048TP3      O14962   3.275   2.883   8.117  0.0707 -0.1580 -0.0431
 1048TP3     H114963   3.327   2.814   8.158 -0.8152 -0.9422 -0.2232
 1048TP3     H214964   3.184   2.861   8.139 -0.2203  0.9386 -0.1159
 1049TP3      O14965   4.316   1.495   6.775 -0.4487 -0.1869  0.2498
 1049TP3     H114966   4.335   1.588   6.775  0.5363 -0.3704 -1.4462
 1049TP3     H214967   4.226   1.488   6.806 -1.2645  1.4919 -1.6712
 1050TP3      O14968   4.526   2.104   7.382 -0.3992 -0.6942 -0.3249
 1050TP3     H114969   4.490   2.030   7.432 -1.2132  0.3028  0.6063
 1050TP3     H214970   4.572   2.064   7.309 -3.3579 -2.0496 -1.5184
 1051TP3      O14971   4.987   3.588   9.327 -0.1827  0.1604  1.1201
 1051TP3     H114972   5.054   3.533   9.367 -0.2067 -0.7791 -0.0926
 1051TP3     H214973   4.905   3.540   9.339  0.0193 -0.8869 -1.3385
 1052TP3      O14974   4.347   1.481   7.470  0.2103  0.0766  0.7097
 1052TP3     H114975   4.341   1.564   7.424  0.0506 -0.2012  0.2248
 1052TP3     H214976   4.257   1.463   7.499 -0.1912 -1.0413 -1.1651
 1053TP3      O14977   3.068   2.435   8.927 -0.3046  0.2144 -0.3487
 1053TP3     H114978   3.005   2.504   8.907  0.4476  0.5565 -1.6034
 1053TP3     H214979   3.082   2.442   9.022 -2.8923 -0.5288  0.1215
 1054TP3      O14980   1.344   1.533   8.121  0.1826 -0.0593 -1.1198
 1054TP3     H114981   1.277   1.473   8.088  0.6333 -1.3062  0.1866
 1054TP3     H214982   1.297   1.615   8.137 -1.7314 -1.7617  2.5778
 1055TP3      O14983   3.967   2.555   8.198 -0.2404 -0.6133 -0.3061
 1055TP3     H114984   3.935   2.631   8.248 -1.3178 -0.9886 -0.4022
 1055TP3     H214985   3.890   2.523   8.151  0.1936 -1.7691 -0.2648
 1056TP3      O14986   5.175   1.516   7.134  0.3909  0.4042 -0.2428
 1056TP3     H114987   5.271   1.518   7.131  0.4004 -0.3583 -0.6406
 1056TP3     H214988   5.150   1.604   7.162  1.1579  1.0403 -1.5023
 1057TP3      O14989   2.967   3.691   0.464  0.5325 -0.2076 -0.2082
 1057TP3     H114990   2.892   3.658   0.514 -1.7607 -1.5965 -4.2957
 1057TP3     H214991   2.953   3.786   0.460  0.6530 -0.0984  1.5562
 1058TP3      O14992   4.314   1.784   7.988  0.2746 -0.1620  0.1391
 1058TP3     H114993   4.380   1.854   7.986 -1.0899  1.1375 -0.6518
 1058TP3     H214994   4.338   1.727   7.916 -1.0427  1.8329 -1.9435
 1059TP3      O14995   1.311   2.387   7.216 -0.2978 -0.1661  0.1727
 1059TP3     H114996   1.390   2.422   7.258 -0.6199  1.7578 -0.7689
 1059TP3     H214997   1.279   2.459   7.162 -1.1117 -1.8609 -1.6844
 1060TP3      O14998   5.119   1.411   8.424 -0.4760 -0.4216 -0.1739
 1060TP3     H114999   5.049   1.461   8.381  0.5103  0.1710 -1.1089
 1060TP3     H215000   5.090   1.320   8.415 -1.3904 -0.1460 -0.0885
 1061TP3      O15001   1.979   3.738   9.713  0.2344 -0.0793  0.0254
 1061TP3     H115002   1.912   3.760   9.777  2.1049  0.3328  1.8769
 1061TP3     H215003   2.032   3.671   9.755  0.7483 -0.6960 -1.5785
 1062TP3      O15004   5.461   3.543   8.708 -0.4548 -0.1283  0.1440
 1062TP3     H115005   5.392   3.484   8.677 -0.6637 -0.3570  1.0117
 1062TP3     H215006   5.534   3.528   8.648 -1.3495  0.5289 -1.1239
 1063TP3      O15007   0.554   2.909   7.224 -0.2682  0.3438 -0.3513
 1063TP3     H115008   0.469   2.901   7.268 -0.5727 -0.1507 -1.0289
 1063TP3     H215009   0.533   2.921   7.132  0.4233 -1.8773 -0.8340
 1064TP3      O15010   5.498   3.633   7.239 -0.0459  0.5193  0.5066
 1064TP3     H115011   5.593   3.640   7.253  0.2054  1.2458 -1.3719
 1064TP3     H215012   5.478   3.541   7.259  1.0575  0.3502  0.9057
 1065TP3      O15013   1.843   3.848   7.555 -0.6756  0.0908 -0.6215
 1065TP3     H115014   1.814   3.787   7.486 -1.0588 -0.3884 -0.0438
 1065TP3     H215015   1.906   3.904   7.511 -0.5299 -0.5402 -1.2443
 1066TP3      O15016   0.154   0.102   7.596 -0.1807 -0.1458 -0.3467
 1066TP3     H115017   0.125   0.193   7.585  0.3637 -0.2308 -2.9208
 1066TP3     H215018   0.098   0.053   7.536  1.1109 -1.1614 -0.7395
 1067TP3      O15019   3.775   2.415   8.905 -0.6161  0.1771 -0.7218
 1067TP3     H115020   3.697   2.424   8.849  0.1737  0.7199 -1.7519
 1067TP3     H215021   3.835   2.361   8.854  0.2844  1.0374 -0.5772
 1068TP3      O15022   3.646   2.984   9.322  0.1218 -0.0673  0.0281
 1068TP3     H115023   3.624   2.901   9.364 -0.1517 -0.3197 -0.6133
 1068TP3     H215024   3.623   2.972   9.230 -0.8199  1.0455  0.1031
 1069TP3      O15025   5.415   0.255   7.508  0.1396  0.1214 -0.7435
 1069TP3     H115026   5.464   0.335   7.525  0.2432  0.0376 -0.6443
 1069TP3     H215027   5.459   0.216   7.432 -1.1064  1.1419 -2.0338
 1070TP3      O15028   3.904   2.742   6.794  0.0754  0.0649 -0.3486
 1070TP3     H115029   3.863   2.770   6.712  0.9177 -0.5462 -0.9803
 1070TP3     H215030   3.863   2.798   6.860 -0.4807  0.6944 -1.1983
 1071TP3      O15031   0.914   4.306   9.461 -0.2288 -0.0352 -0.5238
 1071TP3     H115032   0.916   4.394   9.424 -1.6183  0.1888 -0.0830
 1071TP3     H215033   0.953   4.250   9.393 -1.6951  0.5410 -1.8711
 1072TP3      O15034   0.726   1.873   9.042 -0.1793 -0.4912  0.0236
 1072TP3     H115035   0.639   1.834   9.045 -0.0573 -0.6840  1.8904
 1072TP3     H215036   0.780   1.808   8.997 -0.5445 -1.3376  0.7862
 1073TP3      O15037   1.457   5.283   7.309  0.0270  0.1029 -0.1399
 1073TP3     H115038   1.380   5.305   7.256  0.0327 -0.8581 -0.5523
 1073TP3     H215039   1.433   5.308   7.398 -1.4407 -1.8308  0.0294
 1074TP3      O15040   3.856   3.221   7.089 -0.2005 -0.3106  0.5421
 1074TP3     H115041   3.843   3.312   7.064  0.1573 -0.2163  0.6891
 1074TP3     H215042   3.768   3.184   7.096 -0.3109 -0.2346 -0.4614
 1075TP3      O15043   5.319   3.480   7.969  0.3951  0.0192  0.2103
 1075TP3     H115044   5.400   3.524   7.947  0.9753 -0.5888  1.0944
 1075TP3     H215045   5.339   3.431   8.049 -0.8057 -0.2184  0.3772
 1076TP3      O15046   3.842   4.209   8.105 -0.2897  0.0030  0.5829
 1076TP3     H115047   3.822   4.219   8.198 -2.5791 -0.9117  0.2310
 1076TP3     H215048   3.928   4.249   8.095  0.9049 -1.6420  3.4775
 1077TP3      O15049   3.252   3.042   8.807 -0.2875 -0.1555 -0.3043
 1077TP3     H115050   3.273   2.984   8.734  2.5975  0.9497 -0.4214
 1077TP3     H215051   3.284   2.997   8.885  2.5987  1.4880 -0.4674
 1078TP3      O15052   3.686   3.850   9.725  0.6369  0.9152  0.2443
 1078TP3     H115053   3.674   3.761   9.759  1.4187  0.8374  0.3299
 1078TP3     H215054   3.618   3.860   9.659  0.9323  0.0296 -0.2038
 1079TP3      O15055   1.351   3.217   9.951 -0.3234  0.5602 -0.1182
 1079TP3     H115056   1.301   3.267   9.887  0.3813  1.5694  0.1078
 1079TP3     H215057   1.439   3.213   9.915 -0.1341  0.3689  0.3587
 1080TP3      O15058   2.042   2.184   7.686  0.1672 -0.4518 -0.2627
 1080TP3     H115059   2.062   2.230   7.768 -0.3733 -0.1820 -0.2786
 1080TP3     H215060   2.128   2.168   7.646  0.3791  0.2881 -0.1145
 1081TP3      O15061   0.947   3.165   8.770  0.2935  0.2352 -0.1175
 1081TP3     H115062   0.990   3.164   8.855  0.0145  1.1752  0.0414
 1081TP3     H215063   0.970   3.081   8.730  1.7845  0.4827  0.1951
 1082TP3      O15064   0.953   1.479   8.179 -0.0805 -0.1673 -0.5301
 1082TP3     H115065   1.001   1.442   8.254  0.0522 -0.9636 -1.0051
 1082TP3     H215066   0.863   1.450   8.192  0.0669 -0.8776 -1.0258
 1083TP3      O15067   1.068   1.730   9.706  0.5536 -0.5590 -0.1126
 1083TP3     H115068   1.008   1.689   9.768  0.2277  1.2043  0.7555
 1083TP3     H215069   1.061   1.676   9.627  0.2762 -2.2716  1.0537
 1084TP3      O15070   2.880   0.350   9.153  0.4584  0.4744 -0.0147
 1084TP3     H115071   2.787   0.371   9.156 -0.1729 -1.9164 -1.5606
 1084TP3     H215072   2.922   0.431   9.124 -1.3637  1.0473 -1.1400
 1085TP3      O15073   0.237   1.180   7.486 -0.9416  0.2227 -0.6564
 1085TP3     H115074   0.329   1.208   7.479 -0.9817  0.1473 -1.4893
 1085TP3     H215075   0.193   1.253   7.529 -0.8134  0.9526 -1.7575
 1086TP3      O15076   4.528   2.004   7.950  0.0428  0.3082  0.5801
 1086TP3     H115077   4.475   2.084   7.945  1.2540  0.9999 -1.7068
 1086TP3     H215078   4.593   2.023   8.017 -0.1891  0.9345  0.6379
 1087TP3      O15079   2.014   4.197   8.142 -0.1934  0.8609 -0.0999
 1087TP3     H115080   2.008   4.251   8.063 -0.3962  1.5376  0.3682
 1087TP3     H215081   2.092   4.228   8.186 -1.0457  1.7056  0.8433
 1088TP3      O15082   3.524   2.225   8.997  0.2376  0.4307 -0.0441
 1088TP3     H115083   3.611   2.248   8.964  0.0668  1.2765  0.0787
 1088TP3     H215084   3.494   2.154   8.940  1.7388 -1.0977  1.0182
 1089TP3      O15085   1.936   2.730   8.293 -0.5845 -0.0412  0.2961
 1089TP3     H115086   1.920   2.754   8.202 -1.0782  0.5622  0.5339
 1089TP3     H215087   1.849   2.732   8.334 -0.0187  2.6371  1.4681
 1090TP3      O15088   2.283   2.997   9.962  0.1240  0.2416  0.1817
 1090TP3     H115089   2.196   2.980   9.996 -0.1753  0.1480 -0.6155
 1090TP3     H215090   2.340   2.994  10.039 -0.6693  1.0155  0.8166
 1091TP3      O15091   4.274   4.778   7.176 -0.0167  0.8084 -0.0563
 1091TP3     H115092   4.284   4.718   7.102 -1.9064 -0.2350  0.5091
 1091TP3     H215093   4.198   4.831   7.154 -0.1892  0.9352  0.8200
 1092TP3      O15094   5.511   5.182   8.707 -0.0742  0.5083 -0.0426
 1092TP3     H115095   5.474   5.102   8.671  0.6566  1.0528 -2.0744
 1092TP3     H215096   5.490   5.178   8.801 -2.5221 -0.6697 -0.5975
 1093TP3      O15097   4.751   1.769   8.974 -0.9660 -0.2676 -0.8912
 1093TP3     H115098   4.732   1.756   9.067  1.0878 -1.7589 -0.6528
 1093TP3     H215099   4.755   1.681   8.937  1.7903  0.1325 -1.6486
 1094TP3      O15100   3.800   3.078   7.982 -0.4454 -0.6094  0.6376
 1094TP3     H115101   3.853   3.150   7.948 -0.0842 -1.1957 -0.0534
 1094TP3     H215102   3.860   3.004   7.988 -0.5357 -0.5742  2.4347
 1095TP3      O15103   1.233   4.851   1.141  0.1388  0.2428  0.2341
 1095TP3     H115104   1.178   4.924   1.113  0.7850  1.4880  2.1450
 1095TP3     H215105   1.315   4.891   1.167  0.3913 -1.1212  1.6232
 1096TP3      O15106   3.694   0.622   0.053  0.5955  0.1634 -0.2383
 1096TP3     H115107   3.658   0.710   0.038 -1.8516 -0.7782 -0.1696
 1096TP3     H215108   3.748   0.631   0.131 -1.7264  1.0758  1.3122
 1097TP3      O15109   3.862   3.648   3.209  0.1461 -0.0253 -0.3609
 1097TP3     H115110   3.875   3.738   3.178 -0.1009  1.6599  4.1450
 1097TP3     H215111   3.770   3.629   3.190 -0.0274  0.9768 -0.5333
 1098TP3      O15112   5.323   4.079   0.352  0.2563 -0.0510  0.8742
 1098TP3     H115113   5.373   4.090   0.433  0.9198  1.6981  0.2390
 1098TP3     H215114   5.349   3.993   0.319  0.4025 -0.5396  2.2197
 1099TP3      O15115   3.110   5.227   0.719 -0.0605  0.4618  0.2305
 1099TP3     H115116   3.022   5.211   0.684  0.8704 -1.1835 -1.4418
 1099TP3     H215117   3.141   5.141   0.746  0.3125  1.3167  2.6194
 1100TP3      O15118   5.198   2.790   9.017  0.3098 -0.4975  0.9792
 1100TP3     H115119   5.193   2.871   9.067 -4.5003 -1.6190  2.6489
 1100TP3     H215120   5.145   2.807   8.938  0.6963 -1.4387  0.5116
 1101TP3      O15121   1.291   0.001   8.454 -0.5932 -0.6288 -0.1953
 1101TP3     H115122   1.286  -0.006   8.359 -2.1832 -0.2658 -0.1534
 1101TP3     H215123   1.379  -0.031   8.476 -0.4745 -1.3855 -1.7094
 1102TP3      O15124   3.630   1.129   7.707  0.3750  0.3065 -0.0600
 1102TP3     H115125   3.645   1.042   7.672 -1.9468 -0.9109  1.8470
 1102TP3     H215126   3.689   1.135   7.782 -0.3137 -0.0653  0.5094
 1103TP3      O15127   4.797   4.712   0.309  0.2208  0.4269 -0.0937
 1103TP3     H115128   4.724   4.732   0.368  1.0661  0.5308  0.9211
 1103TP3     H215129   4.808   4.791   0.256 -1.2257 -0.0469 -1.1285
 1104TP3      O15130   5.479   2.829   7.836 -0.1417  0.1220  0.4738
 1104TP3     H115131   5.489   2.739   7.803 -0.7046 -0.2277  1.2357
 1104TP3     H215132   5.540   2.880   7.783  0.3900 -0.7554  0.2121
 1105TP3      O15133   3.213   2.319   8.077 -0.5139  0.1176  0.7396
 1105TP3     H115134   3.273   2.264   8.129 -0.1181 -0.0946  0.0686
 1105TP3     H215135   3.137   2.332   8.134 -0.7304 -1.3493  0.8105
 1106TP3      O15136   5.267   2.169   8.054 -0.2106  0.0458  0.7423
 1106TP3     H115137   5.290   2.239   8.115 -2.3808  0.1120  1.5427
 1106TP3     H215138   5.240   2.215   7.974  1.8578 -0.0173 -0.0220
 1107TP3      O15139   3.962   3.283   8.008  0.1875  0.5951  0.3141
 1107TP3     H115140   4.053   3.257   7.992  0.4519  0.9232  1.2048
 1107TP3     H215141   3.959   3.298   8.103 -0.9261  0.1030  0.3539
 1108TP3      O15142   0.390   2.563   8.206 -0.0425  0.5115 -0.3850
 1108TP3     H115143   0.481   2.534   8.203  0.2185  1.0371  1.6681
 1108TP3     H215144   0.340   2.483   8.190  0.7623  0.0976 -0.8724
 1109TP3      O15145   1.112   2.004   3.013  0.2054 -0.0257 -0.2209
 1109TP3     H115146   1.066   1.934   3.060  0.7241 -1.0063 -1.1483
 1109TP3     H215147   1.093   2.083   3.063 -0.4669 -0.8175  0.7932
 1110TP3      O15148   0.079   1.993   7.212 -0.0510  0.0869 -1.2700
 1110TP3     H115149   0.130   1.923   7.253 -0.2346  0.1941 -0.8553
 1110TP3     H215150   0.141   2.066   7.205  0.2440 -0.2319 -2.0336
 1111TP3      O15151   1.636   0.672   0.716 -0.4710  0.0107 -0.2656
 1111TP3     H115152   1.664   0.732   0.647  0.4225 -0.4085 -0.2761
 1111TP3     H215153   1.620   0.727   0.792  1.8598  0.0833  0.1788
 1112TP3      O15154   1.485   5.126   8.526  0.1439 -1.0190 -0.0104
 1112TP3     H115155   1.520   5.134   8.437 -0.9249 -0.7936 -0.4128
 1112TP3     H215156   1.390   5.130   8.515  0.0432  0.3171  1.2720
 1113TP3      O15157   5.395   2.173   8.842 -0.2049  0.3442  0.3618
 1113TP3     H115158   5.309   2.142   8.816 -0.8562  0.9663  1.7259
 1113TP3     H215159   5.452   2.097   8.832 -1.5520 -1.0234  2.5904
 1114TP3      O15160   3.739   2.822   6.991 -0.1093 -0.2938 -0.1808
 1114TP3     H115161   3.683   2.900   6.994 -0.9613 -0.9679  1.4654
 1114TP3     H215162   3.690   2.755   7.038  2.0252 -0.9280  1.1944
 1115TP3      O15163   4.794   5.301   0.534 -0.1379 -0.5342  0.0875
 1115TP3     H115164   4.717   5.352   0.559  0.4700  0.8131 -0.7285
 1115TP3     H215165   4.867   5.347   0.576  0.4244 -0.6506 -0.7577
 1116TP3      O15166   3.139   0.400   8.834  0.3970  0.2479 -0.6057
 1116TP3     H115167   3.157   0.344   8.759 -1.6216  0.1262 -1.0247
 1116TP3     H215168   3.152   0.489   8.801  0.9521  0.1435 -0.6797
 1117TP3      O15169   1.679   0.613   9.100  0.3168  0.0709  0.3874
 1117TP3     H115170   1.607   0.676   9.110  0.3417  0.9461 -3.8621
 1117TP3     H215171   1.637   0.528   9.101 -0.6993  0.5340 -0.9941
 1118TP3      O15172   2.147   1.561   9.027  0.1287 -0.1143 -0.2404
 1118TP3     H115173   2.136   1.656   9.030  0.9512 -0.0246  0.0213
 1118TP3     H215174   2.238   1.546   9.053 -0.1374 -1.0110  0.1913
 1119TP3      O15175   5.128   3.920   6.984 -0.1799  0.0475 -0.2313
 1119TP3     H115176   5.036   3.912   7.006  0.0049  1.1221  1.0273
 1119TP3     H215177   5.169   3.843   7.023 -0.2498  0.6328  1.0496
 1120TP3      O15178   3.184   2.964   9.913 -0.5836  0.3891  0.0244
 1120TP3     H115179   3.138   3.040   9.947  0.2217  0.4103  1.0858
 1120TP3     H215180   3.249   2.943   9.980 -1.6213 -2.0065  0.3430
 1121TP3      O15181   4.786   3.257   8.809 -0.2221  0.3193 -0.1003
 1121TP3     H115182   4.816   3.183   8.862 -1.3887  0.3739  0.6561
 1121TP3     H215183   4.852   3.324   8.823  0.2608 -0.1899  0.0955
 1122TP3      O15184   3.150   2.768   8.974  0.1934 -0.1840 -0.1762
 1122TP3     H115185   3.223   2.830   8.983  0.4155 -0.1103 -2.2585
 1122TP3     H215186   3.083   2.817   8.927 -0.2310 -1.0344 -0.4691
 1123TP3      O15187   1.057   1.049   7.756 -0.1047 -0.3448 -0.3005
 1123TP3     H115188   1.128   1.114   7.753  0.3184 -0.8563 -2.0231
 1123TP3     H215189   1.091   0.979   7.812  0.7952 -0.6137 -1.1680
 1124TP3      O15190   0.802   0.051   8.432  0.4193 -0.0428  0.0395
 1124TP3     H115191   0.803  -0.045   8.441 -0.9857  0.1330  2.5769
 1124TP3     H215192   0.892   0.077   8.451  0.5890 -0.8070  0.3200
 1125TP3      O15193   3.318   2.724   9.763  0.1120 -0.3539 -0.5401
 1125TP3     H115194   3.287   2.815   9.764 -1.7629 -0.9588 -0.1946
 1125TP3     H215195   3.400   2.726   9.811 -0.9491  0.8265  1.2778
 1126TP3      O15196   1.676   2.948   8.821 -0.4532 -0.2158 -0.0259
 1126TP3     H115197   1.739   2.880   8.798  0.6622  0.9456 -0.5127
 1126TP3     H215198   1.618   2.954   8.745 -1.1502 -1.2882  0.4207
 1127TP3      O15199   3.462   2.185   9.249  0.6861  0.3047  0.5135
 1127TP3     H115200   3.486   2.197   9.158 -0.9808  3.4973  0.4468
 1127TP3     H215201   3.533   2.132   9.286  0.9101 -1.8495 -2.8094
 1128TP3      O15202   3.892   5.317   7.865  0.4069 -0.1670  0.2174
 1128TP3     H115203   3.880   5.404   7.826 -0.7893 -0.5347 -0.2679
 1128TP3     H215204   3.973   5.284   7.827 -0.5342 -0.3530 -1.6909
 1129TP3      O15205   2.304   0.314   9.596  0.7714 -0.7005 -0.3561
 1129TP3     H115206   2.266   0.354   9.518  0.0024 -0.6716  0.0342
 1129TP3     H215207   2.359   0.383   9.633 -0.4517 -0.0368  0.2468
 1130TP3      O15208   2.748   3.344   8.395 -0.1175 -0.2683  0.6294
 1130TP3     H115209   2.760   3.438   8.408 -1.2618  0.0557 -0.5327
 1130TP3     H215210   2.687   3.318   8.464  0.9296 -0.3577  1.5379
 1131TP3      O15211   4.353   1.066   7.211  0.0695  0.4446  0.1162
 1131TP3     H115212   4.432   1.013   7.205  0.1511  0.6638 -0.6795
 1131TP3     H215213   4.348   1.090   7.304 -0.0072 -1.0131  0.5132
 1132TP3      O15214   4.893   5.131   8.429  0.5472  0.0880 -0.2866
 1132TP3     H115215   4.961   5.078   8.387  0.9393  1.0011 -0.8219
 1132TP3     H215216   4.817   5.122   8.371  0.7876  0.5576 -0.6836
 1133TP3      O15217   5.115   3.977   8.025  0.1708 -0.4567 -0.0565
 1133TP3     H115218   5.176   4.047   8.048  1.1187 -0.4803 -2.2967
 1133TP3     H215219   5.029   4.019   8.025  0.5420  0.3159  0.2214
 1134TP3      O15220   3.860   1.953   7.635 -0.5698  0.2084 -0.4243
 1134TP3     H115221   3.832   1.901   7.710  1.4357  1.9371  1.5748
 1134TP3     H215222   3.955   1.941   7.632 -0.5290  0.8294 -2.1890
 1135TP3      O15223   3.795   2.819   7.521 -0.6302 -0.1573 -0.0978
 1135TP3     H115224   3.792   2.805   7.616  0.8557 -0.5928 -0.0990
 1135TP3     H215225   3.745   2.747   7.484 -1.5555  0.2383  0.3762
 1136TP3      O15226   0.707   1.638   7.114  0.3473  0.2255  0.3810
 1136TP3     H115227   0.657   1.668   7.038 -0.7120 -0.6475  0.7196
 1136TP3     H215228   0.797   1.664   7.095 -0.2485  1.9889 -0.1560
 1137TP3      O15229   2.017   3.388   9.418  0.0118  0.0105  0.9423
 1137TP3     H115230   2.005   3.386   9.513 -1.1390  1.9419  0.8499
 1137TP3     H215231   1.930   3.402   9.382  0.1203 -2.6291 -0.5365
 1138TP3      O15232   3.519   4.482   8.934  0.7317  0.4386  0.2045
 1138TP3     H115233   3.474   4.559   8.901 -0.6372  0.0023  1.0193
 1138TP3     H215234   3.588   4.516   8.991 -1.3243  1.0630  2.4342
 1139TP3      O15235   4.080   1.472   7.556 -0.2508 -0.1870 -0.5125
 1139TP3     H115236   4.068   1.385   7.595  0.0594 -0.0558 -0.1214
 1139TP3     H215237   4.008   1.480   7.493 -0.5236 -0.5597 -0.2518
 1140TP3      O15238   3.671   1.225   9.440 -0.7639 -0.4235 -0.2660
 1140TP3     H115239   3.659   1.312   9.402 -2.0832 -1.4764 -2.4453
 1140TP3     H215240   3.651   1.236   9.533  3.0141  2.3598  0.3011
 1141TP3      O15241   3.752   3.702   1.109  0.0498  0.3343 -0.3616
 1141TP3     H115242   3.739   3.781   1.057  1.0079  0.3590 -0.5791
 1141TP3     H215243   3.722   3.631   1.052  0.8922  0.3814 -0.8829
 1142TP3      O15244   3.419   0.016   8.042  0.1089  0.3596  0.5840
 1142TP3     H115245   3.393  -0.057   7.986  0.8492  0.5045  0.0538
 1142TP3     H215246   3.465   0.077   7.983  0.9840  0.4620  1.3664
 1143TP3      O15247   0.336   5.441   8.718 -0.5272 -0.0754 -0.1862
 1143TP3     H115248   0.355   5.504   8.648 -0.4985  1.4935  1.2000
 1143TP3     H215249   0.240   5.438   8.722 -0.5504 -1.4323 -1.3867
 1144TP3      O15250   0.125   3.100   7.364 -0.4531 -0.2419  0.3438
 1144TP3     H115251   0.091   3.030   7.307 -0.1741 -0.6309  0.6544
 1144TP3     H215252   0.126   3.177   7.308 -3.9480  0.3270  0.9025
 1145TP3      O15253   0.992   3.155   0.311  0.2387 -0.0061  0.2815
 1145TP3     H115254   1.034   3.193   0.389 -0.6734 -0.3799  0.9550
 1145TP3     H215255   1.027   3.207   0.238  1.1983  0.2658  0.9176
 1146TP3      O15256   1.930   0.832   8.565 -0.7093 -0.1520  0.3613
 1146TP3     H115257   1.834   0.839   8.558 -0.4783  1.5941 -1.7091
 1146TP3     H215258   1.962   0.915   8.529  1.5594 -0.2453  2.1003
 1147TP3      O15259   1.876   0.054   9.291 -0.1913 -0.0176  0.1968
 1147TP3     H115260   1.845  -0.008   9.357 -0.0136  1.2208  1.4599
 1147TP3     H215261   1.815   0.044   9.219  0.2515 -2.1817  0.0800
 1148TP3      O15262   1.146   4.482   6.822 -0.5037  0.1507  0.1020
 1148TP3     H115263   1.067   4.523   6.858 -0.0741  0.4872  0.6602
 1148TP3     H215264   1.207   4.480   6.895  0.6144  1.4435 -0.7920
 1149TP3      O15265   0.041   1.398   1.560 -0.1579  0.3753 -0.6876
 1149TP3     H115266  -0.054   1.389   1.558 -0.2911  1.6035 -0.5234
 1149TP3     H215267   0.073   1.311   1.584 -1.2660  0.1213 -0.0744
 1150TP3      O15268   0.521   0.799   0.527 -0.6350 -0.5663 -0.1471
 1150TP3     H115269   0.496   0.880   0.483  0.5450  0.1398  0.4442
 1150TP3     H215270   0.548   0.826   0.615  0.8301 -1.4452 -0.3021
 1151TP3      O15271   1.840   3.112   7.940  0.0889  0.4326 -0.2616
 1151TP3     H115272   1.870   3.148   8.023 -1.8357 -0.9870  1.0912
 1151TP3     H215273   1.919   3.076   7.900  1.1586  1.7660  0.6149
 1152TP3      O15274   3.411   0.727   8.429 -0.3691  0.1545  0.9157
 1152TP3     H115275   3.481   0.733   8.365 -0.6139  1.2560  0.7540
 1152TP3     H215276   3.451   0.683   8.504  0.0258 -0.7770  0.1738
 1153TP3      O15277   3.946   2.325   7.152  0.3723 -0.4146  0.1469
 1153TP3     H115278   3.897   2.247   7.177 -0.8852  0.5052  0.5882
 1153TP3     H215279   3.902   2.356   7.072  1.3289 -0.5680 -0.4478
 1154TP3      O15280   0.279   4.647   7.558  0.2081 -0.4352 -0.1437
 1154TP3     H115281   0.272   4.705   7.482  0.9881 -3.3544 -2.5299
 1154TP3     H215282   0.195   4.601   7.560  0.9241 -1.7722 -0.4428
 1155TP3      O15283   1.375   3.079   0.973 -0.1870  0.0235  0.7882
 1155TP3     H115284   1.319   3.004   0.950 -0.4165  0.5981 -0.5662
 1155TP3     H215285   1.314   3.147   1.000 -0.1818  0.8125 -1.1560
 1156TP3      O15286   3.563   2.245   7.159  0.4867  0.4377 -0.3299
 1156TP3     H115287   3.494   2.279   7.217 -0.1517  0.9213 -1.3640
 1156TP3     H215288   3.526   2.165   7.121  1.7147 -1.0839  1.5406
 1157TP3      O15289   4.405   2.562   8.403 -0.4502 -0.1083  0.8662
 1157TP3     H115290   4.388   2.483   8.352 -1.8423  1.2036 -0.7492
 1157TP3     H215291   4.372   2.542   8.490  2.1764 -2.4687  1.4181
 1158TP3      O15292   5.402   2.954   7.287  0.1613 -0.0979 -0.1624
 1158TP3     H115293   5.463   2.900   7.335 -0.2128 -0.8031 -0.4732
 1158TP3     H215294   5.316   2.917   7.306 -0.1278  0.5747 -0.1297
 1159TP3      O15295   0.816   4.687   7.939 -0.0446 -0.2571 -0.1602
 1159TP3     H115296   0.819   4.599   7.976 -1.9050  0.3912  1.6489
 1159TP3     H215297   0.768   4.677   7.857 -3.0275 -0.5074  1.5197
 1160TP3      O15298   2.004   0.764   7.485 -0.5707  0.5334  0.7545
 1160TP3     H115299   2.039   0.693   7.431 -0.9240  0.5156  0.5498
 1160TP3     H215300   1.949   0.815   7.426  1.6878  2.4688  0.2452
 1161TP3      O15301   5.223   3.186   8.758  0.0510 -0.2660  0.0102
 1161TP3     H115302   5.252   3.271   8.726 -1.3583 -0.3359 -1.5555
 1161TP3     H215303   5.300   3.150   8.803  0.6807  1.7786  0.6183
 1162TP3      O15304   2.328   3.753   7.808  0.1047  0.0859  0.1255
 1162TP3     H115305   2.414   3.711   7.808 -0.3024 -0.7732  0.9787
 1162TP3     H215306   2.285   3.722   7.728  0.8879  1.1720 -0.7300
 1163TP3      O15307   1.751   4.409   7.374 -0.2353  0.3559 -0.0302
 1163TP3     H115308   1.801   4.485   7.343  0.9127 -0.8619 -1.2386
 1163TP3     H215309   1.705   4.378   7.297 -0.0711 -0.6482  0.2685
 1164TP3      O15310   0.693   4.632   7.292  0.3841 -0.1504 -0.0752
 1164TP3     H115311   0.719   4.634   7.200  1.7112 -1.6523  0.2244
 1164TP3     H215312   0.635   4.556   7.299 -0.4627  0.5209  0.1322
 1165TP3      O15313   1.398   4.547   8.275 -0.2335  0.2749 -0.6090
 1165TP3     H115314   1.335   4.618   8.269  2.2515  2.3211 -3.8457
 1165TP3     H215315   1.482   4.591   8.293  0.4934 -2.3213  3.0295
 1166TP3      O15316   1.506   4.738   7.223  0.3750 -0.2687 -0.5258
 1166TP3     H115317   1.526   4.647   7.201  1.8412 -0.1250  0.1507
 1166TP3     H215318   1.462   4.773   7.145 -0.7907 -1.7300 -0.5410
 1167TP3      O15319   1.650   0.049   9.143 -0.4972  0.3372  0.5868
 1167TP3     H115320   1.572   0.008   9.182  0.3844 -1.8485  0.0916
 1167TP3     H215321   1.665   0.000   9.062  0.0720  2.2334 -0.4907
 1168TP3      O15322   4.157   1.658   0.013  0.4120 -0.5737  0.2498
 1168TP3     H115323   4.124   1.608  -0.061 -0.8948 -1.9132  1.6877
 1168TP3     H215324   4.249   1.675  -0.008  0.2865 -1.7288 -1.2498
 1169TP3      O15325   1.072   3.604   0.138 -0.0484 -0.3143  0.2781
 1169TP3     H115326   1.028   3.673   0.088 -1.0072  0.1282  1.6898
 1169TP3     H215327   1.139   3.651   0.188 -0.0658 -0.5441  0.5154
 1170TP3      O15328   5.277   2.317   7.809 -0.3170 -0.1397  0.2469
 1170TP3     H115329   5.340   2.337   7.741  0.2010 -1.4614  0.3199
 1170TP3     H215330   5.241   2.402   7.835  1.4702  0.6292  0.2471
 1171TP3      O15331   2.048   5.445   8.359  0.2536  0.6013 -0.0086
 1171TP3     H115332   2.064   5.521   8.304 -1.2682  0.8912 -0.0704
 1171TP3     H215333   2.081   5.371   8.308  0.4620  1.0628 -0.5465
 1172TP3      O15334   3.272   5.228   1.213 -0.7719  0.0863  0.2930
 1172TP3     H115335   3.231   5.286   1.277 -0.0466 -0.0440  0.8863
 1172TP3     H215336   3.297   5.150   1.263  2.7281  1.2936  0.6186
 1173TP3      O15337   2.652   2.409   8.795 -0.5918  0.5719 -0.1232
 1173TP3     H115338   2.567   2.441   8.827 -1.4321  0.3014 -2.0053
 1173TP3     H215339   2.673   2.336   8.853 -1.1136  1.3329  1.0499
 1174TP3      O15340   2.290   2.108   9.453  0.4260 -0.1677 -0.3824
 1174TP3     H115341   2.269   2.015   9.447 -0.1630 -0.0943  0.3918
 1174TP3     H215342   2.335   2.117   9.538 -0.2288  0.3735 -0.0868
 1175TP3      O15343   1.205   4.937   9.321 -0.2274 -0.0464 -0.5855
 1175TP3     H115344   1.226   4.876   9.250  0.7735  2.0697 -2.1345
 1175TP3     H215345   1.197   5.022   9.279 -0.6294  1.0760  1.6946
 1176TP3      O15346   5.471   0.077   8.758  0.0495  0.2166  1.3836
 1176TP3     H115347   5.530   0.102   8.686  0.3393 -1.9966  0.8076
 1176TP3     H215348   5.398   0.032   8.715 -2.4162  3.3979  2.0384
 1177TP3      O15349   4.584   2.949   7.870  0.0767 -0.1290  0.2521
 1177TP3     H115350   4.622   2.863   7.855  0.7102  0.1380  0.3413
 1177TP3     H215351   4.505   2.951   7.815  0.6470 -0.3539 -0.5741
 1178TP3      O15352   0.689   3.763   7.501  0.0760  0.0071  0.1767
 1178TP3     H115353   0.670   3.712   7.580  0.2503  0.5602  0.5715
 1178TP3     H215354   0.784   3.771   7.500  0.0052  0.8465  0.4322
 1179TP3      O15355   1.714   2.331   0.007  0.0591 -0.5806  0.4738
 1179TP3     H115356   1.622   2.358   0.005 -0.9492 -3.6884  2.6963
 1179TP3     H215357   1.740   2.340   0.098  1.4265 -1.5054  0.1910
 1180TP3      O15358   3.237   1.837   8.066  0.1897 -0.2407  0.2143
 1180TP3     H115359   3.201   1.793   7.989 -0.3639 -1.0908  0.9608
 1180TP3     H215360   3.324   1.798   8.077 -0.6736 -1.8323  1.4401
 1181TP3      O15361   2.201   4.822   7.584  0.3233 -0.0929  0.5346
 1181TP3     H115362   2.204   4.738   7.629  1.1657  0.1367  0.9146
 1181TP3     H215363   2.264   4.877   7.631  0.7121  0.3545 -0.4990
 1182TP3      O15364   2.955   3.659   8.807  0.2178  0.1956 -0.1391
 1182TP3     H115365   2.989   3.700   8.886  0.3018  2.0721 -1.1095
 1182TP3     H215366   2.895   3.592   8.838  1.6187 -0.3174  1.5265
 1183TP3      O15367   0.709   4.362   8.384  0.1852  0.2137  0.8137
 1183TP3     H115368   0.665   4.291   8.431 -2.0834  0.6858 -0.5118
 1183TP3     H215369   0.692   4.440   8.436 -1.0663  0.4923 -0.0000
 1184TP3      O15370   2.093   2.333   7.895  0.1153 -0.8146 -0.0782
 1184TP3     H115371   2.090   2.414   7.946  0.2386 -0.4096 -0.7209
 1184TP3     H215372   2.169   2.286   7.931  0.9105 -0.0074 -0.6716
 1185TP3      O15373   1.434   2.057   9.721 -0.5955  0.1294 -0.1527
 1185TP3     H115374   1.388   2.042   9.638  0.3638 -1.8554 -0.3753
 1185TP3     H215375   1.372   2.030   9.788 -1.0676  0.9169 -0.2752
 1186TP3      O15376   3.274   4.359   9.004 -0.6270  0.0353  0.0122
 1186TP3     H115377   3.280   4.295   8.933 -2.1979 -0.1443  0.0077
 1186TP3     H215378   3.341   4.424   8.984 -0.2943 -0.6153 -1.0135
 1187TP3      O15379   1.811   0.209   8.433 -0.2609 -0.0184  0.1811
 1187TP3     H115380   1.789   0.294   8.472  2.8925  0.9344  0.0098
 1187TP3     H215381   1.877   0.172   8.492 -0.7153 -1.8340 -0.4108
 1188TP3      O15382   4.472   4.925   7.634  0.1573  0.9776 -0.3774
 1188TP3     H115383   4.384   4.963   7.638 -0.4690 -0.3948 -0.6827
 1188TP3     H215384   4.476   4.882   7.549  0.4871 -0.4590  0.3455
 1189TP3      O15385   1.539   2.929  10.240  0.0850  0.2096 -0.1674
 1189TP3     H115386   1.568   2.843  10.268  0.5585  0.2232 -0.6015
 1189TP3     H215387   1.507   2.971  10.319  0.3131 -0.1844  0.1344
 1190TP3      O15388   0.813   3.141   7.994 -0.0178  0.2927 -0.3067
 1190TP3     H115389   0.763   3.223   7.991  0.4219  0.6267  1.1001
 1190TP3     H215390   0.747   3.074   8.010 -0.1514  0.5976  0.4293
 1191TP3      O15391   1.624   4.071  10.187  0.1304 -0.2776  0.5378
 1191TP3     H115392   1.641   3.977  10.181 -1.9524 -0.5794 -1.2390
 1191TP3     H215393   1.658   4.095  10.273  2.3781 -2.2664  0.2896
 1192TP3      O15394   3.284   3.946   9.247  0.4479  0.0483  0.2305
 1192TP3     H115395   3.231   3.980   9.175  1.9184  3.4556  0.6825
 1192TP3     H215396   3.369   3.927   9.207  0.5238 -0.3839  0.5915
 1193TP3      O15397   1.154   1.401   7.980 -0.2484  0.4387  0.2886
 1193TP3     H115398   1.088   1.426   8.044  2.0269  2.0111  2.1021
 1193TP3     H215399   1.159   1.306   7.986 -1.1741  0.4460  1.2838
 1194TP3      O15400   0.126   1.935   8.167  0.5685 -0.1267 -0.3543
 1194TP3     H115401   0.085   1.992   8.232 -1.5882 -1.6078 -0.3691
 1194TP3     H215402   0.176   1.872   8.219  0.3884 -0.1604 -0.2219
 1195TP3      O15403   3.622   4.708   7.485  0.4488 -0.1792 -0.1637
 1195TP3     H115404   3.670   4.728   7.405 -1.2601  0.3633 -1.0817
 1195TP3     H215405   3.530   4.708   7.458 -0.0690 -1.3212  1.5208
 1196TP3      O15406   2.862   2.194   9.159 -0.2243 -0.0912  0.5252
 1196TP3     H115407   2.851   2.124   9.223 -3.3243  2.4137  2.9086
 1196TP3     H215408   2.925   2.254   9.200  0.7880 -0.4162 -0.5458
 1197TP3      O15409   0.429   3.485   9.126  0.1580 -0.0566  0.2481
 1197TP3     H115410   0.449   3.477   9.033  1.0436  0.6303  0.3773
 1197TP3     H215411   0.508   3.523   9.165  0.2531 -1.4759  1.4732
 1198TP3      O15412   0.143   5.040   0.551  0.1268  0.4703 -0.2157
 1198TP3     H115413   0.200   4.963   0.554  0.5714  0.7205 -2.0609
 1198TP3     H215414   0.055   5.004   0.565  0.6891  0.1230  2.9750
 1199TP3      O15415   1.729   4.926   8.844  0.1831 -0.1009 -0.3597
 1199TP3     H115416   1.795   4.936   8.911 -1.2842  0.5266  1.0348
 1199TP3     H215417   1.754   4.988   8.775  1.1202  0.0074  0.0851
 1200TP3      O15418   3.363   4.957   1.305 -0.0163 -0.0595 -0.0106
 1200TP3     H115419   3.314   4.887   1.261  1.4982 -1.4157  0.3855
 1200TP3     H215420   3.432   4.910   1.353  0.9597  1.7148  0.3400
 1201TP3      O15421   1.153   4.306   0.197  0.7823  0.1441 -0.7825
 1201TP3     H115422   1.110   4.386   0.228  0.6621 -0.7742  1.4822
 1201TP3     H215423   1.241   4.310   0.235  0.3989 -1.3603  0.2848
 1202TP3      O15424   1.616   0.454   7.252  0.1838  0.2107 -0.2408
 1202TP3     H115425   1.704   0.489   7.258  0.1441  0.2733 -0.0157
 1202TP3     H215426   1.616   0.402   7.172  1.2170 -2.0350  1.1514
 1203TP3      O15427   3.338   1.767   8.685  0.1080  0.3450  0.3903
 1203TP3     H115428   3.252   1.790   8.721 -1.0126 -0.8910 -1.4409
 1203TP3     H215429   3.319   1.711   8.611  2.4688  1.0832 -0.8307
 1204TP3      O15430   5.063   5.194   8.944 -0.2651 -0.4184 -0.3001
 1204TP3     H115431   4.972   5.177   8.966 -0.4497 -0.4157 -1.0344
 1204TP3     H215432   5.099   5.109   8.922  0.1339 -0.5307  0.8027
 1205TP3      O15433   4.727   0.005   7.660 -0.0018 -0.0127 -0.0907
 1205TP3     H115434   4.816   0.017   7.626 -0.5728 -1.5407 -2.2668
 1205TP3     H215435   4.671   0.043   7.593 -1.0501 -0.6201  0.4385
 1206TP3      O15436   2.133   5.004   0.856  0.1936 -0.3887 -0.6913
 1206TP3     H115437   2.059   5.020   0.915 -0.0174 -0.9202 -0.8159
 1206TP3     H215438   2.097   4.951   0.786  0.8486 -1.2012 -0.4165
 1207TP3      O15439   1.749   0.175   9.575  0.1064 -0.1968  0.0117
 1207TP3     H115440   1.835   0.189   9.615  1.3395 -1.4179 -2.1091
 1207TP3     H215441   1.743   0.080   9.565 -0.5984  0.0235 -1.7662
 1208TP3      O15442   2.873   4.625   6.817 -0.4965 -0.5697  0.2464
 1208TP3     H115443   2.847   4.603   6.906 -0.5946 -1.0306  0.1081
 1208TP3     H215444   2.850   4.547   6.766 -3.6107  0.9688 -0.8249
 1209TP3      O15445   2.206   5.303   9.186  0.6285  0.0015  0.1560
 1209TP3     H115446   2.166   5.371   9.132  0.7890 -0.2326 -0.2572
 1209TP3     H215447   2.300   5.311   9.169  0.6993  0.1036  0.6036
 1210TP3      O15448   1.990   3.399   7.476 -0.4380 -0.2819  0.3667
 1210TP3     H115449   1.995   3.488   7.442 -0.6475 -0.0661  0.8970
 1210TP3     H215450   1.904   3.394   7.518  0.1953 -0.2568  1.6868
 1211TP3      O15451   1.983   3.276   8.804  0.1072  0.1659 -0.3076
 1211TP3     H115452   2.057   3.321   8.846 -1.1713  0.5908  1.5730
 1211TP3     H215453   1.948   3.340   8.743  2.9707 -1.0062 -3.3294
 1212TP3      O15454   0.411   0.472   1.221  0.1064 -0.1998 -0.1007
 1212TP3     H115455   0.477   0.472   1.291  1.5996 -0.1301 -1.4685
 1212TP3     H215456   0.352   0.544   1.243  2.3700  1.8594 -0.5670
 1213TP3      O15457   0.277   4.811   0.545 -0.1151  0.1564  0.4472
 1213TP3     H115458   0.243   4.793   0.457  1.5630  0.4079 -0.2808
 1213TP3     H215459   0.240   4.741   0.600  0.6151 -1.3348 -0.9215
 1214TP3      O15460   1.474   0.424   7.513 -0.5505 -0.3605 -0.0370
 1214TP3     H115461   1.530   0.407   7.589 -1.4394 -0.6148  0.5715
 1214TP3     H215462   1.535   0.450   7.444  0.4540 -2.0531  0.1873
 1215TP3      O15463   4.987   2.846   7.864 -0.2464  0.0807  0.0247
 1215TP3     H115464   4.962   2.783   7.796  3.2858 -0.7115 -0.6633
 1215TP3     H215465   4.985   2.795   7.945  0.3139 -0.3003 -0.1987
 1216TP3      O15466   4.820   4.718   8.984  1.0890 -0.6835 -0.4807
 1216TP3     H115467   4.793   4.719   8.892 -0.4201 -1.8515 -0.0666
 1216TP3     H215468   4.797   4.805   9.016  0.6388 -0.6242 -0.9485
 1217TP3      O15469   4.979   1.839   8.016  1.1314  0.0150  0.1273
 1217TP3     H115470   4.962   1.919   8.066 -0.6516  0.0825 -0.5650
 1217TP3     H215471   5.047   1.864   7.954  1.6469  0.5769  0.9058
 1218TP3      O15472   0.500   4.720   7.089 -0.4636  0.8181  0.5035
 1218TP3     H115473   0.487   4.815   7.089  0.2003  0.9117  1.1099
 1218TP3     H215474   0.591   4.709   7.063 -0.6264  0.3326  0.1402
 1219TP3      O15475   2.955   4.646   8.416  0.8694  0.0660  0.2747
 1219TP3     H115476   3.026   4.709   8.402  0.1427  0.8082 -0.1031
 1219TP3     H215477   2.882   4.680   8.364 -0.0678 -0.1727  1.4032
 1220TP3      O15478   2.345   2.806   7.806  0.1790  0.2944 -0.1936
 1220TP3     H115479   2.310   2.887   7.769  0.0188 -0.1522 -1.0346
 1220TP3     H215480   2.392   2.834   7.885 -1.3774  0.9868  0.4946
 1221TP3      O15481   0.545   4.108   6.997 -0.4151 -0.3943 -0.6032
 1221TP3     H115482   0.540   4.012   7.003  2.3073 -0.6109 -1.3408
 1221TP3     H215483   0.466   4.138   7.041 -0.8694 -2.9555  0.4422
 1222TP3      O15484   3.554   4.173   9.179  0.1565  0.2911 -0.6721
 1222TP3     H115485   3.583   4.083   9.191 -0.0799  0.4067  0.7968
 1222TP3     H215486   3.610   4.207   9.109 -0.1895 -1.1878 -1.6975
 1223TP3      O15487   3.809   3.407   9.126 -0.2835  0.0425  0.7705
 1223TP3     H115488   3.905   3.404   9.124 -0.2115 -1.5858  3.7236
 1223TP3     H215489   3.789   3.499   9.146  0.7054  0.1522  1.2917
 1224TP3      O15490   5.495   2.906   0.486 -0.2410 -0.5041  0.5315
 1224TP3     H115491   5.582   2.874   0.513 -0.4667 -0.3710  1.4405
 1224TP3     H215492   5.496   2.999   0.509 -1.0812 -0.7781  1.7358
 1225TP3      O15493   4.775   2.974   8.073 -0.1925  0.4925  0.1088
 1225TP3     H115494   4.796   2.924   7.994  0.7143  1.8852 -0.5701
 1225TP3     H215495   4.682   2.998   8.062 -0.3829 -0.2848  0.0186
 1226TP3      O15496   2.059   0.661   7.732  0.2585 -0.1228 -0.1389
 1226TP3     H115497   1.979   0.678   7.781 -0.1215 -0.6303 -0.5845
 1226TP3     H215498   2.055   0.722   7.658 -0.4761 -1.2272 -1.0210
 1227TP3      O15499   1.084   5.359   7.361 -0.3678 -0.4888 -0.0983
 1227TP3     H115500   1.148   5.341   7.293 -0.6113  1.0005 -0.7508
 1227TP3     H215501   0.999   5.356   7.316 -0.5513  0.2675  0.1805
 1228TP3      O15502   3.166   5.309   8.293 -0.5021  0.2472  0.5222
 1228TP3     H115503   3.260   5.324   8.300 -0.4047  0.7104 -1.4122
 1228TP3     H215504   3.127   5.393   8.316 -0.5068 -0.2905  2.5288
 1229TP3      O15505   5.009   5.321   9.451  0.5679  0.3094  0.5566
 1229TP3     H115506   5.037   5.325   9.359  0.0283  1.0022  0.4083
 1229TP3     H215507   5.039   5.236   9.482 -0.0112 -0.3107 -0.5278
 1230TP3      O15508   5.498   0.433   7.833  0.0841  0.3070 -0.3018
 1230TP3     H115509   5.489   0.527   7.816  1.8002 -0.0150 -3.3513
 1230TP3     H215510   5.592   0.417   7.828 -0.2000 -1.5881  0.1921
 1231TP3      O15511   2.756   2.056   8.372 -0.8017 -0.5917 -0.2524
 1231TP3     H115512   2.812   2.017   8.439  0.5042  1.2663 -0.2283
 1231TP3     H215513   2.761   2.150   8.389 -0.5688 -0.1065 -2.8427
 1232TP3      O15514   1.468   5.254   9.605  0.5018  0.1001  0.0789
 1232TP3     H115515   1.466   5.293   9.692 -0.5712  0.6142 -0.1617
 1232TP3     H215516   1.547   5.200   9.604  1.5234  1.5595  0.7341
 1233TP3      O15517   3.217   5.103   8.981 -0.4146 -0.1832  0.1547
 1233TP3     H115518   3.205   5.197   8.997  2.6216  0.4570 -1.0300
 1233TP3     H215519   3.299   5.097   8.933  0.3367 -3.6041  1.6895
 1234TP3      O15520   1.783   3.124   7.660  0.0960  0.5733 -0.1700
 1234TP3     H115521   1.787   3.219   7.648 -3.6113  0.9406  0.7114
 1234TP3     H215522   1.793   3.112   7.755  0.8618  0.0539 -0.3165
 1235TP3      O15523   1.285   4.810  10.072  0.1328  0.3842  0.5201
 1235TP3     H115524   1.366   4.772  10.039  0.2717  0.5127  0.7129
 1235TP3     H215525   1.266   4.761  10.151  0.0300  0.3642  0.4835
 1236TP3      O15526   1.670   4.800   6.872  0.2642  0.5212  0.5462
 1236TP3     H115527   1.581   4.766   6.879  0.8957 -1.1417  0.7575
 1236TP3     H215528   1.717   4.761   6.946  1.7474 -0.5042 -0.9124
 1237TP3      O15529   0.877   1.943   6.927 -0.2341  0.2575  0.3010
 1237TP3     H115530   0.960   1.969   6.967 -0.1234 -0.3747  0.4749
 1237TP3     H215531   0.884   1.976   6.837 -0.2232  1.1156  0.6080
 1238TP3      O15532   5.436   1.693   7.798 -0.1230 -0.4631 -0.2337
 1238TP3     H115533   5.512   1.732   7.841  0.6113 -3.2118  1.0659
 1238TP3     H215534   5.456   1.695   7.705  1.8524 -1.6972  0.1427
 1239TP3      O15535   3.493   4.251   9.841  0.7821 -0.4075  0.2187
 1239TP3     H115536   3.517   4.182   9.903  0.0920 -1.5695 -0.7960
 1239TP3     H215537   3.562   4.249   9.774  1.2033  0.4498  0.6076
 1240TP3      O15538   4.520   3.718   8.411 -0.0904 -0.5448  0.5383
 1240TP3     H115539   4.491   3.652   8.348  0.8852 -2.2526  1.8500
 1240TP3     H215540   4.522   3.799   8.360 -0.3804 -1.6804 -1.3542
 1241TP3      O15541   1.886   4.954   8.006 -0.0007  0.4943 -0.0612
 1241TP3     H115542   1.920   4.865   7.998  0.8538  0.6880  1.2784
 1241TP3     H215543   1.825   4.962   7.934  0.4995 -0.9187 -0.6726
 1242TP3      O15544   1.708   4.032   7.015  0.2351  0.5371  0.5446
 1242TP3     H115545   1.640   4.012   6.951  0.1248 -0.0619  0.8538
 1242TP3     H215546   1.758   3.951   7.024  1.0278  0.9875  0.2778
 1243TP3      O15547   0.280   1.719   7.560 -0.6623 -0.5777 -0.7170
 1243TP3     H115548   0.309   1.659   7.629  4.5305  0.9012 -1.3898
 1243TP3     H215549   0.264   1.801   7.607 -0.7067 -0.5563 -0.7707
 1244TP3      O15550   1.261   4.091   9.035  0.2633 -0.3838 -0.5042
 1244TP3     H115551   1.251   4.013   9.090  1.2441  0.3432  0.7250
 1244TP3     H215552   1.192   4.082   8.968 -2.6148 -0.0272  2.2985
 1245TP3      O15553   4.074   0.270   8.820 -0.7380 -0.3692  0.6604
 1245TP3     H115554   3.982   0.263   8.848  0.0532  0.6485  3.7856
 1245TP3     H215555   4.071   0.328   8.744 -2.7081 -0.3444  0.7237
 1246TP3      O15556   4.464   3.593   7.086  0.0449  0.0001  0.4847
 1246TP3     H115557   4.452   3.618   6.995 -1.2387 -0.3658  0.5540
 1246TP3     H215558   4.534   3.651   7.117  1.8646 -1.1798 -1.2537
 1247TP3      O15559   3.415   0.596   8.030 -0.4361  0.2855  0.5283
 1247TP3     H115560   3.488   0.596   8.093 -0.0058  0.4813  0.0285
 1247TP3     H215561   3.411   0.686   7.998 -1.0791  0.3426  0.7602
 1248TP3      O15562   1.796   4.595   8.008  0.0031 -0.2881  0.6757
 1248TP3     H115563   1.817   4.561   7.921 -1.9227  0.2369 -0.0189
 1248TP3     H215564   1.870   4.651   8.030  1.9563 -2.7749  0.6989
 1249TP3      O15565   1.667   4.867   9.705  0.2656 -0.3363 -0.0370
 1249TP3     H115566   1.711   4.806   9.765 -1.8277 -2.0026 -0.1471
 1249TP3     H215567   1.706   4.848   9.620  0.4667 -0.7003  0.1326
 1250TP3      O15568   0.309   4.130   8.602  0.1451  0.2786  0.0750
 1250TP3     H115569   0.339   4.128   8.511  1.1830 -0.0882  0.4109
 1250TP3     H215570   0.368   4.070   8.647 -1.9542 -1.4699  0.5335
 1251TP3      O15571   2.107   1.389   6.806 -0.5296  0.0584  0.5133
 1251TP3     H115572   2.014   1.409   6.792  0.0861  1.4079 -1.9465
 1251TP3     H215573   2.124   1.414   6.897 -3.0720 -2.3247  1.7298
 1252TP3      O15574   2.686   4.876   7.072 -0.2190  0.0545 -1.0152
 1252TP3     H115575   2.731   4.852   6.991  0.1124  0.2298 -0.8809
 1252TP3     H215576   2.755   4.903   7.131 -0.3777 -0.9067 -0.3748
 1253TP3      O15577   4.815   4.042   7.668 -0.2439 -0.0845  0.6494
 1253TP3     H115578   4.820   3.956   7.625  2.9411 -1.7801  4.2075
 1253TP3     H215579   4.767   4.025   7.749  0.4145  1.4898  1.3716
 1254TP3      O15580   1.305   3.809   7.663 -0.2447  0.0411 -0.3038
 1254TP3     H115581   1.250   3.734   7.686 -1.0773  0.7984  0.1831
 1254TP3     H215582   1.269   3.882   7.713  0.8314  0.6818 -0.4406
 1255TP3      O15583   2.705   2.164   9.623 -1.0764  0.4336 -0.1083
 1255TP3     H115584   2.774   2.186   9.686 -1.1315 -0.4840  0.2795
 1255TP3     H215585   2.673   2.248   9.593  2.3328  0.9515 -2.6207
 1256TP3      O15586   0.855   5.319   6.852  0.2271  0.3265  0.6614
 1256TP3     H115587   0.922   5.296   6.916 -0.2814  0.7786  1.3600
 1256TP3     H215588   0.773   5.290   6.891  0.0105 -0.2625 -0.2120
 1257TP3      O15589   2.420   1.246   9.117 -0.4683 -0.1093  0.2250
 1257TP3     H115590   2.346   1.198   9.153  0.0310 -0.2708  1.0406
 1257TP3     H215591   2.467   1.182   9.064 -1.2831  0.1656 -0.8764
 1258TP3      O15592   2.375   5.012   9.129 -0.7819  0.2906  0.7069
 1258TP3     H115593   2.436   5.082   9.106  0.5218 -0.0490  2.9830
 1258TP3     H215594   2.302   5.056   9.173 -0.5687  0.3610  0.9921
 1259TP3      O15595   0.959   0.364   7.666 -0.2648 -0.4910 -0.4991
 1259TP3     H115596   0.921   0.344   7.580  0.3201 -2.1935 -0.3764
 1259TP3     H215597   1.046   0.326   7.662  0.1983  0.4520  0.4492
 1260TP3      O15598   4.637   1.836   1.206  0.1724  0.2201 -0.5499
 1260TP3     H115599   4.675   1.907   1.258  1.0519  1.0676 -2.3331
 1260TP3     H215600   4.601   1.776   1.272  1.4499  1.1580  1.0558
 1261TP3      O15601   1.393   5.119   0.268 -0.4205 -0.4957  0.5903
 1261TP3     H115602   1.432   5.192   0.220 -1.1567 -0.3607  0.1924
 1261TP3     H215603   1.315   5.157   0.310 -0.5421 -0.9389  0.7663
 1262TP3      O15604   0.020   0.209   8.977 -0.4018 -0.2200  0.1459
 1262TP3     H115605  -0.061   0.251   9.007 -0.4378 -0.2427  0.0807
 1262TP3     H215606  -0.001   0.176   8.890 -0.4326 -0.5436  0.2756
 1263TP3      O15607   1.603   4.929  10.216  0.0710 -0.0195 -0.1867
 1263TP3     H115608   1.559   5.003  10.173  2.0647  3.0752  2.8219
 1263TP3     H215609   1.531   4.872  10.244 -1.6849  2.0170 -0.3689
 1264TP3      O15610   0.679   0.062   7.518  0.4677 -0.4817 -0.2076
 1264TP3     H115611   0.590   0.063   7.553  0.3591 -1.9031 -0.4201
 1264TP3     H215612   0.677   0.125   7.446 -0.0234  0.4346  0.5960
 1265TP3      O15613   1.132   4.604   7.173 -0.1612  0.2982  0.0768
 1265TP3     H115614   1.065   4.588   7.106 -1.0202 -2.6042  1.5472
 1265TP3     H215615   1.215   4.586   7.128 -0.7290 -1.7053 -0.2091
 1266TP3      O15616   1.240   0.029   7.113 -0.3028  0.1955  0.0078
 1266TP3     H115617   1.290   0.037   7.032 -0.8143  0.8645 -0.2489
 1266TP3     H215618   1.224  -0.065   7.122 -1.0039  0.1973 -1.1400
 1267TP3      O15619   0.585   1.365   7.661 -0.1887 -0.5526  0.1999
 1267TP3     H115620   0.599   1.450   7.620  1.4437 -0.2309  1.3911
 1267TP3     H215621   0.538   1.384   7.742  0.9794 -0.6837  0.9137
 1268TP3      O15622   1.246   4.759   6.488  0.1814  0.2478 -0.0883
 1268TP3     H115623   1.293   4.704   6.550  1.4640  0.6582 -0.6694
 1268TP3     H215624   1.170   4.708   6.463 -0.1824 -0.0490  1.5743
 1269TP3      O15625   3.488   2.346   9.509  0.0147  0.8670  0.1962
 1269TP3     H115626   3.482   2.308   9.421  0.6327  0.2370  0.4153
 1269TP3     H215627   3.566   2.402   9.505 -0.5433  1.6406  0.0495
 1270TP3      O15628   0.600   5.178   9.635  0.0498 -0.2482  0.7941
 1270TP3     H115629   0.510   5.182   9.604  0.3119 -0.3415  0.0131
 1270TP3     H215630   0.652   5.160   9.557  0.8045  0.3772  1.1454
 1271TP3      O15631   3.733   4.106   8.885  0.2441  0.1251  0.1084
 1271TP3     H115632   3.657   4.151   8.851 -0.1026  0.2081  0.9894
 1271TP3     H215633   3.733   4.022   8.839  1.2375  1.2166 -1.9903
 1272TP3      O15634   3.785   1.991   8.366 -0.1264 -0.0302  0.1390
 1272TP3     H115635   3.720   1.995   8.437  0.0807 -0.5839  0.3612
 1272TP3     H215636   3.809   2.082   8.351 -1.7203  0.2760 -0.6445
 1273TP3      O15637   2.616   4.599   9.483  0.2127 -0.7446 -0.2165
 1273TP3     H115638   2.549   4.608   9.414 -0.8250  0.2011  0.8985
 1273TP3     H215639   2.595   4.516   9.525 -0.7573 -0.0820  0.6351
 1274TP3      O15640   0.286   4.187   1.415  0.6384 -0.0547  0.1877
 1274TP3     H115641   0.337   4.136   1.353  0.5589  0.2488 -0.1232
 1274TP3     H215642   0.242   4.253   1.362  2.2451  1.5608  0.8466
 1275TP3      O15643   1.171   2.801   8.373 -0.3359  0.2864 -0.0514
 1275TP3     H115644   1.079   2.820   8.353  0.1775  1.8023 -1.0599
 1275TP3     H215645   1.171   2.775   8.465 -1.4693  2.5905  0.6288
 1276TP3      O15646   4.784   3.290  10.174 -0.9534  0.1636 -0.1754
 1276TP3     H115647   4.724   3.356  10.210 -1.4641 -1.2336  1.5636
 1276TP3     H215648   4.758   3.209  10.216  0.9647 -0.8116 -0.8410
 1277TP3      O15649   1.856   0.249   7.818  0.2567  0.3427 -0.7758
 1277TP3     H115650   1.912   0.293   7.881  1.0496 -0.4031 -0.9414
 1277TP3     H215651   1.779   0.305   7.809 -0.1377  0.1581  1.3029
 1278TP3      O15652   5.190   1.549   7.836  0.3829  0.8929 -0.1333
 1278TP3     H115653   5.272   1.596   7.822 -0.0670  2.1175  1.2239
 1278TP3     H215654   5.154   1.586   7.917 -1.3626  0.1740 -0.5455
 1279TP3      O15655   2.239   3.682   0.522 -0.1823 -0.8555  0.4272
 1279TP3     H115656   2.233   3.772   0.552  1.4693 -0.8564  0.8318
 1279TP3     H215657   2.154   3.664   0.481 -0.3931  0.9974  0.0015
 1280TP3      O15658   1.739   4.424   7.663  0.1886  0.4568 -0.7911
 1280TP3     H115659   1.741   4.421   7.568  1.5267 -2.2787 -0.7113
 1280TP3     H215660   1.830   4.411   7.690 -0.5825 -1.7587  0.8825
 1281TP3      O15661   0.198   4.172   7.939 -0.1791 -0.1805  0.1306
 1281TP3     H115662   0.293   4.170   7.929 -0.0661 -1.6160  1.2742
 1281TP3     H215663   0.175   4.264   7.936  1.3277  0.2200  0.5753
 1282TP3      O15664   1.552   4.720   7.963 -0.0117  0.4096  0.4216
 1282TP3     H115665   1.598   4.795   7.924  0.8265 -0.2449  0.1416
 1282TP3     H215666   1.608   4.694   8.037 -0.5512  0.3636  0.8171
 1283TP3      O15667   2.358   4.109   8.794 -0.0547 -0.5135 -0.0177
 1283TP3     H115668   2.364   4.051   8.870  0.3729 -1.2090 -0.5664
 1283TP3     H215669   2.302   4.061   8.732  0.3915 -0.3873 -0.5229
 1284TP3      O15670   3.385   1.296   8.825  0.1757  0.1902 -0.0257
 1284TP3     H115671   3.306   1.347   8.844 -0.3638 -1.1345  1.3363
 1284TP3     H215672   3.411   1.260   8.910  1.3867 -0.6116 -0.7321
 1285TP3      O15673   0.385   4.080   7.352 -0.6214 -0.4962 -0.6055
 1285TP3     H115674   0.474   4.044   7.356  0.1495  1.4136  0.0881
 1285TP3     H215675   0.367   4.089   7.259  0.8835  1.4083 -0.7291
 1286TP3      O15676   4.455   2.313   9.162 -0.2539  0.3350  0.4105
 1286TP3     H115677   4.449   2.350   9.250 -1.7099 -0.0162  0.4644
 1286TP3     H215678   4.371   2.269   9.148  0.1528 -0.0391 -0.9650
 1287TP3      O15679   2.352   0.797   9.597  0.1293 -0.3454 -0.1099
 1287TP3     H115680   2.360   0.852   9.518 -2.1088  1.6543  0.9832
 1287TP3     H215681   2.438   0.756   9.606  0.4416 -0.6719 -3.6044
 1288TP3      O15682   1.218   4.007   9.587 -0.5919 -0.1002  0.4977
 1288TP3     H115683   1.286   3.939   9.585 -1.3642 -0.8815 -0.5022
 1288TP3     H215684   1.136   3.958   9.586 -1.1962  0.8136  2.5652
 1289TP3      O15685   2.283   1.504   8.264 -0.0917  0.6315  0.2729
 1289TP3     H115686   2.303   1.551   8.183  1.4488  1.0791  0.8918
 1289TP3     H215687   2.229   1.564   8.314  0.9483  1.3354  0.5863
 1290TP3      O15688   1.052   3.100   8.247  0.0632 -0.7678  0.4647
 1290TP3     H115689   1.067   3.043   8.172 -1.0997 -1.5359  0.7839
 1290TP3     H215690   0.971   3.066   8.286  0.8313 -0.6036  2.2487
 1291TP3      O15691   1.258   1.020   9.129 -0.3382  0.2475  0.0873
 1291TP3     H115692   1.264   1.095   9.188 -0.1755  0.1647  0.1761
 1291TP3     H215693   1.278   1.056   9.043 -1.3477  0.5250 -0.0374
 1292TP3      O15694   3.177   2.469  10.115  0.0206 -0.1809  0.2184
 1292TP3     H115695   3.090   2.477  10.076  0.3395  1.0515 -0.2812
 1292TP3     H215696   3.162   2.438  10.204 -0.9260  0.0382  0.1335
 1293TP3      O15697   0.971   3.904   7.595 -0.0227 -0.2071 -0.3886
 1293TP3     H115698   1.029   3.901   7.672  2.4778  2.0008 -2.0779
 1293TP3     H215699   0.919   3.983   7.609 -0.8289 -0.7769 -0.1348
 1294TP3      O15700   5.229   3.118   9.249 -0.0991 -0.1812 -0.6368
 1294TP3     H115701   5.178   3.137   9.171  0.1709  0.3790 -0.6824
 1294TP3     H215702   5.181   3.048   9.293 -0.5749 -0.0768 -0.9880
 1295TP3      O15703   2.911   0.446   9.702 -0.4860  0.1938  0.4724
 1295TP3     H115704   2.895   0.534   9.734  0.1558  1.0471 -1.4400
 1295TP3     H215705   2.917   0.456   9.607 -0.4326 -1.9153  0.2199
 1296TP3      O15706   1.512   4.442   7.904  0.1425  0.3851 -0.3673
 1296TP3     H115707   1.604   4.427   7.927 -0.2900 -0.1626  1.0530
 1296TP3     H215708   1.502   4.538   7.907  0.3421  0.3827  0.8295
 1297TP3      O15709   2.251   4.545   7.843 -0.0794  0.5549 -0.0759
 1297TP3     H115710   2.291   4.508   7.922 -1.1236 -1.8759 -0.6432
 1297TP3     H215711   2.325   4.566   7.787  0.5378 -2.9513 -0.7009
 1298TP3      O15712   5.459   1.102   9.590 -0.9942  0.5911 -0.2603
 1298TP3     H115713   5.454   1.040   9.517 -0.3876 -0.4903  0.5972
 1298TP3     H215714   5.408   1.061   9.660 -0.8315  1.2011  0.2187
 1299TP3      O15715   3.106   4.494   7.425  0.2445  0.1913 -0.0247
 1299TP3     H115716   3.020   4.474   7.464  0.1189  2.4963  0.9407
 1299TP3     H215717   3.099   4.461   7.335 -1.1272 -0.9553  0.4795
 1300TP3      O15718   3.183   2.730  10.230  0.0979 -0.6821 -0.6424
 1300TP3     H115719   3.223   2.687  10.305 -2.0630 -0.9877  0.3608
 1300TP3     H215720   3.194   2.669  10.157  1.0737 -0.9322 -0.2834
 1301TP3      O15721   2.524   5.021   7.876 -1.3028  0.2131 -0.1229
 1301TP3     H115722   2.569   5.011   7.960 -2.5584  0.7928  0.6313
 1301TP3     H215723   2.587   5.067   7.820 -0.7071  0.4101  0.7113
 1302TP3      O15724   2.563   4.941  10.084 -0.0632  0.1619  0.0209
 1302TP3     H115725   2.557   4.881  10.010  0.4170  0.2095 -0.0618
 1302TP3     H215726   2.652   4.976  10.078 -0.3788  0.9527  0.0168
 1303TP3      O15727   1.661   5.451   9.469 -0.1729 -0.0697 -0.1484
 1303TP3     H115728   1.568   5.461   9.486  0.2535 -0.5754  2.8891
 1303TP3     H215729   1.689   5.384   9.532  3.2154  3.8658  2.8249
 1304TP3      O15730   3.712   5.101   8.409 -0.5185  0.0838  0.2165
 1304TP3     H115731   3.726   5.181   8.359  1.0349 -0.4671 -0.2617
 1304TP3     H215732   3.617   5.092   8.414 -0.7566 -0.0536 -3.0137
 1305TP3      O15733   4.919   4.974   8.637 -0.3832 -0.0890  0.1082
 1305TP3     H115734   4.905   5.062   8.603 -0.2270  0.8623  2.3978
 1305TP3     H215735   4.865   4.971   8.716 -3.1453 -3.2561 -1.7767
 1306TP3      O15736   0.430   4.692   8.266 -0.8776  0.0616 -0.4180
 1306TP3     H115737   0.483   4.619   8.235 -1.7509 -0.8410  0.1860
 1306TP3     H215738   0.485   4.734   8.333 -0.8400 -0.7679  0.0867
 1307TP3      O15739   1.186   2.210   0.612 -0.2908  0.4091 -0.4211
 1307TP3     H115740   1.154   2.292   0.648 -1.0485 -0.6980  1.4874
 1307TP3     H215741   1.107   2.158   0.596  0.2411 -0.3315 -0.6850
 1308TP3      O15742   0.880   4.447   8.022  0.1983 -0.2201  0.1826
 1308TP3     H115743   0.928   4.383   7.970  0.5921 -0.3521  0.7026
 1308TP3     H215744   0.924   4.446   8.107  0.7284  1.3401 -0.0585
 1309TP3      O15745   1.658   0.729   9.449 -0.6424 -0.0913  0.0871
 1309TP3     H115746   1.695   0.668   9.513  0.0603  1.0159  0.7662
 1309TP3     H215747   1.595   0.677   9.400  0.7624 -1.6620 -0.1182
 1310TP3      O15748   1.320   2.009   9.254  0.3163  0.6445 -0.8486
 1310TP3     H115749   1.327   2.014   9.349  0.9588  0.5219 -0.8856
 1310TP3     H215750   1.226   2.017   9.236 -0.2170 -2.7392 -0.0012
 1311TP3      O15751   5.088   3.593   0.910 -0.2940  0.1897  0.5550
 1311TP3     H115752   5.035   3.574   0.987 -1.6047  0.0266 -0.3630
 1311TP3     H215753   5.054   3.534   0.843  1.1407  0.0123 -0.0209
 1312TP3      O15754   3.803   2.361   8.075 -0.0173  0.4145  0.5670
 1312TP3     H115755   3.807   2.279   8.026 -0.8218 -0.7440  2.4038
 1312TP3     H215756   3.819   2.429   8.009 -0.4973 -1.1362 -1.1834
 1313TP3      O15757   1.381   4.713   6.861 -0.0875  0.3666 -0.3048
 1313TP3     H115758   1.383   4.686   6.770  2.9617 -1.3367  0.1788
 1313TP3     H215759   1.344   4.638   6.907  0.8802  0.1429  0.1318
 1314TP3      O15760   4.107   3.442   8.399 -0.4268  0.0244 -0.3312
 1314TP3     H115761   4.084   3.482   8.482 -1.0337  2.2740 -1.5525
 1314TP3     H215762   4.132   3.515   8.343  0.0975 -1.4618 -2.0965
 1315TP3      O15763   2.644   1.265   7.937  0.1878  0.6303 -0.2324
 1315TP3     H115764   2.698   1.313   8.000 -1.1065  0.2366  1.1997
 1315TP3     H215765   2.701   1.253   7.861  2.2815 -0.1795  1.4203
 1316TP3      O15766   0.846   1.355   8.703  0.0875 -0.0104 -0.0309
 1316TP3     H115767   0.780   1.406   8.655  1.7091  2.4756  0.2945
 1316TP3     H215768   0.805   1.270   8.716 -3.3040  1.6500  0.6642
 1317TP3      O15769   1.922   4.134   7.277 -0.3961 -0.5411 -0.1205
 1317TP3     H115770   2.001   4.136   7.222 -0.3338  0.7631 -0.0067
 1317TP3     H215771   1.860   4.192   7.232 -0.2618  0.7348  1.2842
 1318TP3      O15772   4.400   0.226   8.548 -0.0440  0.8806 -0.4874
 1318TP3     H115773   4.324   0.199   8.498  0.1515  1.7529 -1.2824
 1318TP3     H215774   4.386   0.190   8.636 -1.1709  0.7085 -0.7357
 1319TP3      O15775   4.039   1.384  10.294 -0.0507 -0.0550  0.1226
 1319TP3     H115776   3.981   1.434  10.352 -0.3213 -1.7418  1.3590
 1319TP3     H215777   4.042   1.435  10.213  0.7932  2.6780  1.8138
 1320TP3      O15778   0.607   4.216   8.824  0.1712 -0.4552 -0.3711
 1320TP3     H115779   0.598   4.154   8.752  0.6920  0.6852 -1.4302
 1320TP3     H215780   0.542   4.284   8.805 -0.3852 -0.6541  0.7685
 1321TP3      O15781   3.929   4.421   9.599 -0.3474 -0.8249 -0.1026
 1321TP3     H115782   3.976   4.453   9.522 -0.9220 -1.0592 -0.5566
 1321TP3     H215783   3.891   4.500   9.638 -0.2207 -0.7327 -0.1666
 1322TP3      O15784   3.282   0.234   7.678 -0.2519 -0.0377  0.6170
 1322TP3     H115785   3.278   0.207   7.587 -1.2367  1.8249  0.0819
 1322TP3     H215786   3.190   0.236   7.706 -0.1198  1.6006  0.9668
 1323TP3      O15787   4.842   4.061   8.927 -0.0125  0.1120  0.0312
 1323TP3     H115788   4.938   4.062   8.917 -0.0176  0.2927 -0.0037
 1323TP3     H215789   4.825   4.116   9.003 -0.1062  0.3005 -0.1238
 1324TP3      O15790   4.883   3.501   9.807 -0.3663  0.1582 -0.0294
 1324TP3     H115791   4.933   3.435   9.855  0.1079 -0.2561 -1.0663
 1324TP3     H215792   4.877   3.576   9.867  2.1868  0.5070 -0.1749
 1325TP3      O15793   2.386   0.090   7.399  0.0166  0.3635  0.4952
 1325TP3     H115794   2.356   0.121   7.485 -0.6936  1.4137 -0.1206
 1325TP3     H215795   2.480   0.110   7.398  0.4314 -1.3536  1.7455
 1326TP3      O15796   1.268   5.150   0.620  0.3711 -0.4824 -0.1457
 1326TP3     H115797   1.274   5.057   0.598  2.9101 -0.2730 -0.5138
 1326TP3     H215798   1.181   5.160   0.656 -0.3638 -2.7889 -1.1489
 1327TP3      O15799   4.337   4.615   8.225  0.0073  0.6193  0.1018
 1327TP3     H115800   4.407   4.605   8.290  0.9250  1.3908 -0.7531
 1327TP3     H215801   4.367   4.687   8.169 -1.0865  0.3939 -0.7749
 1328TP3      O15802   0.479   1.733   6.914  0.0748 -0.6538 -0.0600
 1328TP3     H115803   0.444   1.795   6.978  0.2584 -0.5420 -0.0683
 1328TP3     H215804   0.402   1.702   6.866  0.0750  0.2387 -0.6541
 1329TP3      O15805   3.456   4.713   8.784  0.3176 -0.4102 -0.3854
 1329TP3     H115806   3.518   4.781   8.761  2.3093 -2.0928 -0.1072
 1329TP3     H215807   3.405   4.750   8.856  1.9236  0.4947  0.3027
 1330TP3      O15808   2.358   2.754   1.246 -0.1199  0.0515  0.3388
 1330TP3     H115809   2.363   2.679   1.305 -0.6391  0.4053  0.8323
 1330TP3     H215810   2.344   2.715   1.159 -1.2583 -0.3898  0.7146
 1331TP3      O15811   4.403   4.623   7.856 -0.3250 -0.2770 -0.0187
 1331TP3     H115812   4.317   4.621   7.899 -0.2350 -0.3881  0.1575
 1331TP3     H215813   4.429   4.531   7.849 -0.0501 -0.2230  0.2755
 1332TP3      O15814   0.535   2.218   7.258 -0.3586 -0.0623 -0.3261
 1332TP3     H115815   0.446   2.197   7.229 -0.5443  1.3688 -0.8616
 1332TP3     H215816   0.592   2.175   7.195 -0.7232  1.0590 -1.4360
 1333TP3      O15817   5.163   3.238   7.864 -0.4105 -0.1522 -0.2924
 1333TP3     H115818   5.213   3.164   7.898 -0.2918  0.1252  0.1417
 1333TP3     H215819   5.199   3.315   7.909 -0.7367  0.1338 -0.5130
 1334TP3      O15820   1.663   4.921   1.316 -0.0764  0.0414 -0.0545
 1334TP3     H115821   1.729   4.969   1.266 -1.5745  0.3319 -1.8081
 1334TP3     H215822   1.700   4.833   1.328 -0.1339 -0.3585 -2.6281
 1335TP3      O15823   3.928   4.433   7.850 -0.2714  1.0824 -0.1716
 1335TP3     H115824   3.890   4.520   7.860  0.3512  1.1225  2.3005
 1335TP3     H215825   3.853   4.375   7.835 -0.7765  1.9155 -0.8612
 1336TP3      O15826   3.115   5.497   7.932  0.5002 -0.1867  0.1116
 1336TP3     H115827   3.048   5.432   7.952 -1.7533  2.4512  1.3624
 1336TP3     H215828   3.179   5.489   8.003 -0.6467  0.0846  1.1885
 1337TP3      O15829   1.001   4.616   6.416 -0.0669  0.3896 -0.1395
 1337TP3     H115830   0.912   4.647   6.435 -0.6147 -1.0659 -0.2508
 1337TP3     H215831   1.007   4.532   6.461  1.3544  0.5875  0.0717
 1338TP3      O15832   2.892   1.561   7.894  0.9137  1.0958  0.9561
 1338TP3     H115833   2.917   1.469   7.902  2.1689  1.3096 -0.3359
 1338TP3     H215834   2.856   1.583   7.980  0.2339 -0.6985  1.1580
 1339TP3      O15835   1.497   1.396   0.446  0.2841  0.3253  0.0580
 1339TP3     H115836   1.502   1.478   0.397 -1.2390 -0.4613 -1.4600
 1339TP3     H215837   1.586   1.361   0.442  0.6852  1.3607 -0.2604
 1340TP3      O15838   4.683   1.497   8.608  0.5963 -0.0898 -0.8693
 1340TP3     H115839   4.771   1.526   8.585  0.4949 -0.5413 -1.8923
 1340TP3     H215840   4.629   1.526   8.534 -0.1690  0.4488 -0.1086
 1341TP3      O15841   0.983   3.619  10.071 -0.1309 -0.0179  0.0361
 1341TP3     H115842   1.005   3.526  10.067 -0.1927 -0.0429  0.2566
 1341TP3     H215843   1.035   3.652  10.144  1.4267  0.5430 -1.2843
 1342TP3      O15844   1.875   4.391   8.961 -0.0729 -0.3045 -0.6708
 1342TP3     H115845   1.963   4.359   8.978 -0.1572 -1.8658 -2.9830
 1342TP3     H215846   1.818   4.315   8.977 -1.1908  1.0092  2.0576
 1343TP3      O15847   2.079   2.646   8.685  0.3025  0.0946  0.3656
 1343TP3     H115848   2.170   2.664   8.663 -0.3780  2.8509 -0.4501
 1343TP3     H215849   2.041   2.613   8.604  0.4858 -0.6319  0.5793
 1344TP3      O15850   0.332   4.051   9.462 -0.0857  0.1014 -0.0841
 1344TP3     H115851   0.412   4.089   9.497 -0.3043  0.0655  0.4662
 1344TP3     H215852   0.276   4.038   9.539 -0.0489 -1.2324 -0.2633
 1345TP3      O15853   1.593   1.342   8.711 -0.0983  0.1275  0.1050
 1345TP3     H115854   1.653   1.356   8.784  1.5203  0.4761 -1.2328
 1345TP3     H215855   1.602   1.422   8.658 -0.4246 -0.5626 -1.0030
 1346TP3      O15856   1.638   0.752   7.894 -0.4188 -0.2246 -0.2631
 1346TP3     H115857   1.613   0.796   7.975 -1.4819  0.0748 -0.7387
 1346TP3     H215858   1.731   0.734   7.904 -0.5701 -0.3075  1.0730
 1347TP3      O15859   4.418   2.813   9.312 -0.0708 -0.3738 -0.1047
 1347TP3     H115860   4.333   2.797   9.271 -0.7751  0.3101  1.0691
 1347TP3     H215861   4.430   2.908   9.304  0.8252 -0.5380 -0.7339
 1348TP3      O15862   3.007   4.099   8.151  0.3321  0.0235  0.2968
 1348TP3     H115863   3.101   4.098   8.135  0.3718 -1.2887  0.6092
 1348TP3     H215864   2.989   4.189   8.180  1.5477  0.1679  0.6290
 1349TP3      O15865   4.795   3.871   8.575  0.2214 -0.3714  0.3117
 1349TP3     H115866   4.709   3.830   8.570  1.3388 -3.0708  1.8386
 1349TP3     H215867   4.818   3.888   8.484 -1.2417 -1.1502 -0.2270
 1350TP3      O15868   3.448   5.061  10.311  0.5415  0.2244 -0.1902
 1350TP3     H115869   3.362   5.020  10.317  0.4252  0.3733 -0.8580
 1350TP3     H215870   3.509   4.991  10.337  0.3610 -0.4549 -1.5617
 1351TP3      O15871   2.974   3.926  10.275 -0.1870 -0.1664 -0.3679
 1351TP3     H115872   3.004   4.017  10.282 -1.1734  0.1531 -0.1330
 1351TP3     H215873   2.949   3.915  10.184 -0.1110 -0.1871 -0.3858
 1352TP3      O15874   3.660   3.929   7.022  0.5047  0.0214  0.1093
 1352TP3     H115875   3.591   3.899   7.083  1.6569  1.2617  2.0668
 1352TP3     H215876   3.728   3.863   7.030  1.4609  1.1533  1.6335
 1353TP3      O15877   3.277   4.897   7.243 -0.6035 -0.1745  0.2711
 1353TP3     H115878   3.222   4.967   7.210 -0.1606 -0.3297 -0.7976
 1353TP3     H215879   3.274   4.829   7.176  2.6453  0.7127 -0.8576
 1354TP3      O15880   3.851   0.236   8.454  0.5664 -0.7037 -0.3931
 1354TP3     H115881   3.838   0.173   8.526 -0.8944  0.2144  0.1539
 1354TP3     H215882   3.763   0.268   8.434  1.0195 -0.6239 -2.3165
 1355TP3      O15883   2.585   4.267   8.331 -0.3592 -0.3567  0.1206
 1355TP3     H115884   2.609   4.351   8.292  0.8360  0.0224  1.6378
 1355TP3     H215885   2.498   4.248   8.295 -0.4523  1.3152 -0.5731
 1356TP3      O15886   0.015   3.447   7.557 -0.4638  0.0029 -0.4281
 1356TP3     H115887   0.003   3.541   7.570  0.5284  0.2818 -1.4300
 1356TP3     H215888   0.104   3.439   7.524 -0.8580 -1.1941 -1.2340
 1357TP3      O15889   2.655   3.403   1.303  0.0407  0.0188  0.4806
 1357TP3     H115890   2.715   3.477   1.312 -1.3437  1.3666 -1.0466
 1357TP3     H215891   2.701   3.342   1.245  0.5098  0.4407  0.4025
 1358TP3      O15892   3.092   3.440   7.094 -0.6646 -0.0878 -0.3233
 1358TP3     H115893   3.123   3.412   7.008 -1.1641 -0.5706 -0.3524
 1358TP3     H215894   3.078   3.534   7.085 -0.9460 -0.1780 -0.8424
 1359TP3      O15895   2.768   0.218   8.359  0.3296  0.2642  0.0633
 1359TP3     H115896   2.740   0.127   8.364  0.6452  0.2032  0.8583
 1359TP3     H215897   2.688   0.269   8.373  0.0281  0.1134 -1.1196
 1360TP3      O15898   2.428   4.933   7.111  0.3905  0.3152 -0.6670
 1360TP3     H115899   2.412   4.895   7.197 -0.3206  1.2898 -0.3632
 1360TP3     H215900   2.520   4.914   7.093  0.5394  0.1044  0.3086
 1361TP3      O15901   5.019   0.849   8.182  0.1509 -0.1577 -0.1647
 1361TP3     H115902   5.010   0.768   8.133 -0.6804 -0.2338  0.1077
 1361TP3     H215903   5.103   0.841   8.227  0.2462 -0.7007 -0.4455
 1362TP3      O15904   5.395   4.429   8.009 -0.2741 -0.1516  0.3342
 1362TP3     H115905   5.313   4.444   7.963 -1.0369 -1.4422  1.2430
 1362TP3     H215906   5.383   4.345   8.053  1.3111 -0.0691  0.9646
 1363TP3      O15907   3.030   1.608   9.164 -0.4058  0.4219  0.4871
 1363TP3     H115908   3.067   1.693   9.138  0.0686  0.4579  1.2643
 1363TP3     H215909   2.936   1.625   9.174 -0.4545  0.6327 -0.2416
 1364TP3      O15910   3.226   1.159   9.237  0.1096 -0.4307  0.2407
 1364TP3     H115911   3.197   1.219   9.169  0.8198  0.4875  0.7433
 1364TP3     H215912   3.294   1.106   9.196 -2.4246 -2.8143 -1.0447
 1365TP3      O15913   2.534   4.969   0.051  0.1146  0.0157  0.5760
 1365TP3     H115914   2.555   4.943  -0.039  0.8122 -0.9031  1.0020
 1365TP3     H215915   2.473   5.042   0.041 -1.3710 -1.3787 -0.6306
 1366TP3      O15916   5.249   2.395  10.172 -0.3233  0.0274  0.6388
 1366TP3     H115917   5.326   2.453  10.169 -0.8611  0.7099 -0.5285
 1366TP3     H215918   5.282   2.314  10.210  1.4863 -0.4315 -1.7880
 1367TP3      O15919   2.705   2.777   0.250 -0.2084 -0.6355  0.5966
 1367TP3     H115920   2.628   2.834   0.247  0.3351  0.0696 -0.0870
 1367TP3     H215921   2.774   2.827   0.207  0.1138 -2.0630 -0.6193
 1368TP3      O15922   3.113   0.231   7.408  0.1173  0.5414  0.3148
 1368TP3     H115923   3.186   0.257   7.352 -0.5165 -0.2460 -0.8765
 1368TP3     H215924   3.058   0.309   7.412 -0.9328 -0.0379 -1.9239
 1369TP3      O15925   4.266   3.347   8.853  0.0436 -0.0418 -0.2088
 1369TP3     H115926   4.359   3.346   8.831 -0.1646  0.4214 -1.1553
 1369TP3     H215927   4.228   3.410   8.791 -1.2294 -1.7171 -1.1779
 1370TP3      O15928   0.948   1.146   8.272  0.1496  0.2527 -0.1376
 1370TP3     H115929   1.002   1.209   8.320  1.6416 -0.6407 -0.6145
 1370TP3     H215930   0.970   1.061   8.311 -2.3288  0.0392  0.9514
 1371TP3      O15931   5.340   1.802   8.291  0.1097  0.0605  0.6684
 1371TP3     H115932   5.363   1.895   8.288 -0.9603  0.3123 -0.0925
 1371TP3     H215933   5.383   1.764   8.215 -0.7641  0.2558  0.0627
 1372TP3      O15934   2.768   0.918   8.320  0.4058 -0.0176 -0.0844
 1372TP3     H115935   2.738   0.973   8.392  0.0258  0.7168 -0.7901
 1372TP3     H215936   2.726   0.955   8.243  1.8511  0.0204 -0.8745
 1373TP3      O15937   2.976   5.227   9.879  0.0727  0.0266 -0.2214
 1373TP3     H115938   2.933   5.279   9.947  1.5786  0.4494  0.4152
 1373TP3     H215939   3.016   5.292   9.821  1.5818 -0.3921  0.3245
 1374TP3      O15940   1.168   4.352   7.604 -0.3167 -0.5230  0.4820
 1374TP3     H115941   1.256   4.366   7.637 -0.4844  0.7490  0.4233
 1374TP3     H215942   1.155   4.422   7.540 -0.8135 -1.6001 -0.6216
 1375TP3      O15943   1.465   4.838   8.545  0.3895  0.0904  0.3321
 1375TP3     H115944   1.537   4.786   8.581  1.8580  0.9307 -1.3044
 1375TP3     H215945   1.498   4.928   8.548 -1.4821  0.7701  1.6065
 1376TP3      O15946   1.578   4.040   8.829  0.5246  0.5996 -0.2658
 1376TP3     H115947   1.529   4.093   8.766  0.4619  0.8323 -0.0151
 1376TP3     H215948   1.572   4.087   8.912 -2.2837 -1.4138  0.7370
 1377TP3      O15949   5.093   5.343   9.197  0.4821  0.5115 -0.0573
 1377TP3     H115950   5.119   5.294   9.120  0.2550  0.5661 -0.1689
 1377TP3     H215951   5.111   5.435   9.175 -1.3144  0.7083 -0.7518
 1378TP3      O15952   4.648   0.292   1.355  0.3437 -0.3230 -0.4021
 1378TP3     H115953   4.680   0.327   1.273  1.3141  0.7306  0.4085
 1378TP3     H215954   4.621   0.369   1.405 -0.1379 -0.9387  0.3041
 1379TP3      O15955   3.605   1.038   8.112  0.4592  0.0902  0.0673
 1379TP3     H115956   3.643   1.051   8.199 -1.7935  0.6010  1.0133
 1379TP3     H215957   3.644   1.107   8.058  2.9957 -1.1336  0.2677
 1380TP3      O15958   2.974   3.386   0.756  0.8015  0.0088  0.3096
 1380TP3     H115959   3.048   3.379   0.695  0.4103  0.4857 -0.2226
 1380TP3     H215960   2.986   3.472   0.798 -0.2145  0.7151 -0.7960
 1381TP3      O15961   1.914   3.051   8.468 -0.1135 -0.3326 -0.4612
 1381TP3     H115962   1.982   2.999   8.511 -0.8885 -0.3020  0.8261
 1381TP3     H215963   1.917   3.136   8.511 -0.5882 -0.1500 -0.7807
 1382TP3      O15964   2.083   2.509   8.416  0.0229  0.0955 -0.4881
 1382TP3     H115965   2.001   2.469   8.444  0.1633  1.2955  1.7093
 1382TP3     H215966   2.057   2.583   8.361 -0.4670  1.5381  1.6155
 1383TP3      O15967   3.040   5.134   8.128  0.6499 -0.1560  0.0880
 1383TP3     H115968   3.105   5.200   8.152 -0.3623  1.4732 -1.4535
 1383TP3     H215969   2.976   5.137   8.199 -0.2466  1.7510 -0.7543
 1384TP3      O15970   0.146   4.919   9.210 -0.2146  0.0445 -0.2986
 1384TP3     H115971   0.236   4.915   9.178 -0.0090  1.0913  0.1073
 1384TP3     H215972   0.151   4.887   9.300 -0.2251  0.1800 -0.2492
 1385TP3      O15973   2.145   3.594   7.080  0.3353 -0.9220 -0.0298
 1385TP3     H115974   2.156   3.688   7.094 -1.1078 -0.3398 -2.4712
 1385TP3     H215975   2.066   3.571   7.128 -1.2131 -0.1591 -2.1249
 1386TP3      O15976   1.351   0.958   7.219 -0.0038  0.1577 -0.4278
 1386TP3     H115977   1.322   1.004   7.141  2.9196  1.4931 -0.7746
 1386TP3     H215978   1.385   0.875   7.187 -0.2738  0.0226 -0.3726
 1387TP3      O15979   3.259   4.456   0.540 -0.0911 -0.5879  0.1011
 1387TP3     H115980   3.218   4.508   0.471 -0.7584 -0.7206  0.3943
 1387TP3     H215981   3.327   4.406   0.495  1.2096  1.2510 -0.0322
 1388TP3      O15982   2.391   3.577   0.196  0.0539  0.0572 -0.3981
 1388TP3     H115983   2.372   3.668   0.221 -0.0713  0.6510 -2.5357
 1388TP3     H215984   2.480   3.562   0.226 -0.2556  0.5775  0.8084
 1389TP3      O15985   3.478   5.523   8.883 -0.0272  0.1207  0.0397
 1389TP3     H115986   3.481   5.554   8.974  0.9580 -0.7099  0.2986
 1389TP3     H215987   3.555   5.563   8.842  0.1570 -0.4099 -0.1321
 1390TP3      O15988   3.853   0.352   7.439 -0.6845  0.2604  0.1906
 1390TP3     H115989   3.773   0.384   7.397 -0.7897  0.3630  0.4676
 1390TP3     H215990   3.874   0.271   7.393  1.4084  2.3584 -2.7115
 1391TP3      O15991   3.902   3.933   7.563 -0.2577 -0.2193  0.3970
 1391TP3     H115992   3.836   3.907   7.499  0.0259 -2.1762  0.8515
 1391TP3     H215993   3.862   3.912   7.648 -0.0744  1.0397  0.8079
 1392TP3      O15994   3.087   5.220   7.428 -0.8475 -0.0905  0.5930
 1392TP3     H115995   3.084   5.156   7.358  1.5465 -2.0074  2.1381
 1392TP3     H215996   3.083   5.305   7.384 -1.3181 -1.2692 -1.6765
 1393TP3      O15997   2.170   3.242   9.249 -0.0690 -0.2693 -0.6063
 1393TP3     H115998   2.107   3.281   9.309  0.5357 -0.2320  0.0032
 1393TP3     H215999   2.117   3.187   9.191 -0.4585 -1.5387  0.9494
 1394TP3      O16000   2.826   2.620   8.862  0.0711 -1.2890  0.3589
 1394TP3     H116001   2.782   2.547   8.818 -1.9430 -0.8239  1.5312
 1394TP3     H216002   2.795   2.698   8.816 -0.3249 -0.9573  1.1785
 1395TP3      O16003   0.172   3.672   8.844  0.3069  0.4998  0.8432
 1395TP3     H116004   0.176   3.583   8.878  0.1043  0.4287  0.6852
 1395TP3     H216005   0.230   3.672   8.768  0.0606  0.4185  0.6551
 1396TP3      O16006   3.484   5.346   6.810  0.1558  0.0263  0.3581
 1396TP3     H116007   3.558   5.307   6.763 -1.4659 -3.4988  0.6301
 1396TP3     H216008   3.417   5.359   6.743 -0.3153 -0.2530  0.7709
 1397TP3      O16009   1.664   4.955   7.804 -0.2844 -0.1049  0.5982
 1397TP3     H116010   1.686   4.869   7.769 -1.2984 -1.0470  2.2027
 1397TP3     H216011   1.627   5.002   7.730  1.6479 -0.5152 -0.6652
 1398TP3      O16012   2.336   5.209   7.229  0.2428 -0.2744 -0.0699
 1398TP3     H116013   2.380   5.125   7.243  0.5008  0.0482  1.1588
 1398TP3     H216014   2.379   5.246   7.152  1.9585 -0.1023  0.9424
 1399TP3      O16015   1.904   1.701   0.046 -0.5287  0.3049  0.1509
 1399TP3     H116016   1.986   1.693   0.095 -0.4517 -0.7828 -0.1556
 1399TP3     H216017   1.911   1.786   0.001  0.7474 -0.1200 -0.4707
 1400TP3      O16018   2.388   4.841   8.937  0.3313  0.3907  0.2101
 1400TP3     H116019   2.409   4.907   8.871 -2.9505  0.7103 -0.6201
 1400TP3     H216020   2.397   4.888   9.020  2.2594  0.6276 -0.1070
 1401TP3      O16021   1.996   2.953   0.259  0.2107  1.1774  1.0010
 1401TP3     H116022   2.020   2.906   0.179  1.2685  1.1937  1.2979
 1401TP3     H216023   1.913   2.997   0.237 -0.3297 -0.0864  0.4273
 1402TP3      O16024   3.660   3.043   8.203  0.1811  0.0052  0.0906
 1402TP3     H116025   3.655   3.131   8.241  3.3917 -0.0246  0.7116
 1402TP3     H216026   3.708   3.055   8.121  0.9018 -1.2045  0.3266
 1403TP3      O16027   2.999   3.070   8.877  0.1507 -0.1900 -0.1753
 1403TP3     H116028   3.092   3.058   8.857 -0.0784 -0.9163 -0.8295
 1403TP3     H216029   2.997   3.146   8.935  0.8728  1.7078 -2.5775
 1404TP3      O16030   0.234   3.735  10.280  0.5115 -0.8106 -0.2941
 1404TP3     H116031   0.258   3.682  10.356  1.4407 -1.5466 -1.0933
 1404TP3     H216032   0.312   3.736  10.225 -0.4466 -1.0891 -1.6956
 1405TP3      O16033   3.329   3.696   9.864  0.7904 -0.7370 -0.2366
 1405TP3     H116034   3.289   3.632   9.805  1.4250  0.1636 -1.6701
 1405TP3     H216035   3.277   3.690   9.945 -1.7629 -0.1535 -1.7684
 1406TP3      O16036   2.646   4.252   0.760 -0.3457 -0.2568  0.1680
 1406TP3     H116037   2.714   4.280   0.822  0.3173  3.6616 -2.1497
 1406TP3     H216038   2.572   4.228   0.815  0.9387  0.9969  2.5325
 1407TP3      O16039   0.438   5.170   8.550  0.0294 -0.1301 -0.4506
 1407TP3     H116040   0.380   5.169   8.626  1.5333 -0.1304  0.7028
 1407TP3     H216041   0.379   5.160   8.475 -1.6165  1.3742  0.6020
 1408TP3      O16042   2.569   4.268   9.695 -0.2922 -0.2269 -0.5169
 1408TP3     H116043   2.525   4.292   9.776  3.5007 -0.0186  1.5881
 1408TP3     H216044   2.599   4.178   9.709 -0.9890 -0.7840 -2.3593
 1409TP3      O16045   4.179   2.126   8.310 -0.3062 -0.2874 -0.5001
 1409TP3     H116046   4.194   2.218   8.288  0.9531 -0.1452  0.9029
 1409TP3     H216047   4.163   2.084   8.226 -1.4690  1.3137 -1.1071
 1410TP3      O16048   5.075   2.707   8.092 -0.0116 -0.4788 -0.9354
 1410TP3     H116049   5.083   2.628   8.145  1.8956  0.4864  0.2391
 1410TP3     H216050   5.089   2.779   8.153  0.0438  0.7232 -2.3344
 1411TP3      O16051   1.374   5.492   9.164  0.2246  0.5271  0.9089
 1411TP3     H116052   1.367   5.403   9.198  1.5006  0.3556  0.7519
 1411TP3     H216053   1.347   5.486   9.073 -2.3036  0.8133  1.6138
 1412TP3      O16054   4.360   0.309   7.740  0.4422  0.1410  0.3356
 1412TP3     H116055   4.377   0.390   7.693 -0.8587 -0.0327 -0.4735
 1412TP3     H216056   4.420   0.310   7.814  2.3307  0.5415 -1.1852
 1413TP3      O16057   3.375   4.122   1.786  0.1183 -0.3388 -0.1242
 1413TP3     H116058   3.436   4.123   1.860  0.5096  0.1808 -0.4493
 1413TP3     H216059   3.290   4.142   1.825  0.0706 -1.5244  0.4005
 1414TP3      O16060   3.612   1.242   9.703  0.0052 -0.0300  0.2872
 1414TP3     H116061   3.598   1.193   9.784 -0.9713  2.0882  1.4666
 1414TP3     H216062   3.537   1.302   9.698  0.3940  0.3178 -1.8431
 1415TP3      O16063   2.001   3.502   7.977 -0.0982  0.1712 -0.3852
 1415TP3     H116064   1.931   3.566   7.970  0.2190  0.5461 -0.1402
 1415TP3     H216065   2.033   3.491   7.888  0.3783  0.9499 -0.3103
 1416TP3      O16066   3.295   5.266   0.359  0.2795  0.4379 -0.5416
 1416TP3     H116067   3.263   5.217   0.435  0.4054 -0.5103 -1.1006
 1416TP3     H216068   3.229   5.252   0.292  0.5707  0.6197 -0.8688
 1417TP3      O16069   2.156   1.786   8.282  0.0626 -0.0186 -0.0096
 1417TP3     H116070   2.251   1.793   8.284  0.0285  0.6382 -0.5898
 1417TP3     H216071   2.127   1.835   8.358  0.2305 -1.0647  0.7392
 1418TP3      O16072   4.320   0.390  10.296  0.7996  0.4157  0.6941
 1418TP3     H116073   4.407   0.351  10.299  2.0147  2.6991 -2.4848
 1418TP3     H216074   4.329   0.473  10.342 -0.5594 -0.7136  3.1247
 1419TP3      O16075   1.772   0.571   7.548  0.4648  0.0941  0.1230
 1419TP3     H116076   1.865   0.594   7.543  0.2443  0.7266 -1.4418
 1419TP3     H216077   1.727   0.643   7.504 -0.6604 -0.8095 -0.2380
 1420TP3      O16078   4.691   4.959   8.827  0.1599  0.0227  0.0054
 1420TP3     H116079   4.627   4.889   8.838  0.5555 -0.5405 -1.2678
 1420TP3     H216080   4.654   5.014   8.758  0.7411  0.0661 -0.2689
 1421TP3      O16081   1.271   0.988   7.468  0.5048  0.4768 -0.4054
 1421TP3     H116082   1.194   1.045   7.470  0.9646  1.0827  1.0789
 1421TP3     H216083   1.290   0.977   7.375 -1.7421 -0.2029 -0.8160
 1422TP3      O16084   2.002   0.294   9.335 -0.2801  0.2241  0.0490
 1422TP3     H116085   2.067   0.269   9.269 -0.9005 -0.3663 -0.3331
 1422TP3     H216086   1.944   0.219   9.343  0.1273  0.0460  1.7084
 1423TP3      O16087   3.378   4.171   8.368  0.2725  0.3039  0.5538
 1423TP3     H116088   3.402   4.263   8.377  0.6102  0.1704  1.0272
 1423TP3     H216089   3.451   4.123   8.407  0.6005 -0.2015 -0.6717
 1424TP3      O16090   1.487   3.702   9.790 -0.0937  0.1421  0.4502
 1424TP3     H116091   1.392   3.715   9.791  0.0576  1.3972 -0.2498
 1424TP3     H216092   1.503   3.636   9.857 -1.4630 -0.0875  0.5599
 1425TP3      O16093   2.329   3.351   7.806  0.0176  0.0641  0.4038
 1425TP3     H116094   2.290   3.319   7.887  0.7865 -1.6011  0.1397
 1425TP3     H216095   2.262   3.408   7.768 -1.2731 -0.9839  1.0494
 1426TP3      O16096   2.311   0.492   1.530  0.0299  0.3251  0.1873
 1426TP3     H116097   2.254   0.418   1.550 -0.6978  0.5396 -1.0108
 1426TP3     H216098   2.253   0.569   1.540  0.2772  0.5911 -0.3956
 1427TP3      O16099   4.759   1.799   8.342  0.2941 -0.2088  0.2510
 1427TP3     H116100   4.711   1.859   8.286 -0.3118  0.6665  1.6664
 1427TP3     H216101   4.850   1.806   8.313  0.0789  0.6658 -0.2322
 1428TP3      O16102   2.737   0.498   7.808  0.3557  0.3401  0.1073
 1428TP3     H116103   2.697   0.442   7.874 -0.4063 -1.2118 -1.6237
 1428TP3     H216104   2.736   0.446   7.728  0.3205  2.5398 -1.3970
 1429TP3      O16105   3.551   1.736   0.663  0.4868 -0.2858 -0.0045
 1429TP3     H116106   3.613   1.788   0.612  1.8228 -1.0537  0.7939
 1429TP3     H216107   3.553   1.650   0.623 -0.9363 -0.0333 -0.6705
 1430TP3      O16108   2.354   3.693  10.264  0.4046  0.1609  0.0540
 1430TP3     H116109   2.337   3.657  10.350  3.4287 -0.1256  0.6099
 1430TP3     H216110   2.374   3.617  10.209 -0.8981  0.3881 -0.7573
 1431TP3      O16111   3.101   5.457   8.704 -0.0942 -0.7212  0.5345
 1431TP3     H116112   3.056   5.539   8.724 -3.0743 -1.5003 -2.4018
 1431TP3     H216113   3.184   5.484   8.664 -0.3881  0.8297  0.9385
 1432TP3      O16114   2.012   0.983   9.705 -0.3096 -0.6056 -0.0644
 1432TP3     H116115   1.984   1.073   9.690 -0.1010 -0.8281 -1.9433
 1432TP3     H216116   1.994   0.938   9.622  1.6130 -1.7537  0.1050
 1433TP3      O16117   0.694   5.445   9.132  0.1276 -0.2545  0.2577
 1433TP3     H116118   0.744   5.518   9.096  0.0018  1.0606  2.6349
 1433TP3     H216119   0.759   5.375   9.144  0.6452  0.1464 -0.2224
 1434TP3      O16120   0.801   0.061   1.125 -0.1948  0.3029 -0.1549
 1434TP3     H116121   0.848   0.118   1.065  0.7670  0.7984  1.0332
 1434TP3     H216122   0.862   0.047   1.197 -1.9691  1.2166  1.5860
 1435TP3      O16123   2.900   3.870   8.639  0.1489  0.3355  0.1492
 1435TP3     H116124   2.920   3.849   8.548 -0.1638  1.6091 -0.2221
 1435TP3     H216125   2.916   3.788   8.686 -0.6592 -0.6264 -1.1903
 1436TP3      O16126   2.834   4.350   6.722 -0.2402  0.3669 -0.4917
 1436TP3     H116127   2.748   4.308   6.726 -0.7832  1.4600 -0.5231
 1436TP3     H216128   2.877   4.324   6.803 -1.1787  1.0467  0.2389
 1437TP3      O16129   2.358   5.273   7.809 -0.3306  0.2423  0.0297
 1437TP3     H116130   2.406   5.194   7.834  1.8845  1.8650  1.1035
 1437TP3     H216131   2.296   5.287   7.880  0.3046  0.2792  0.5843
 1438TP3      O16132   3.790   3.826   8.416 -0.8389  0.0558  0.1201
 1438TP3     H116133   3.869   3.862   8.457 -1.7417  1.2316  0.8496
 1438TP3     H216134   3.742   3.903   8.386 -1.6355 -0.6686 -0.4682
 1439TP3      O16135   3.452   0.862   7.956  0.5634 -0.0196 -0.1915
 1439TP3     H116136   3.498   0.931   8.005 -0.5477  0.0695  0.7497
 1439TP3     H216137   3.371   0.903   7.927  0.3806 -0.6172 -0.5370
 1440TP3      O16138   0.956   1.492  10.181  0.1624 -0.5802 -0.1531
 1440TP3     H116139   0.961   1.579  10.140  0.8067 -1.1996 -1.4181
 1440TP3     H216140   1.008   1.436  10.124 -0.1500 -1.7829  0.7281
 1441TP3      O16141   1.169   0.827   7.906  0.2306  0.5056 -0.1528
 1441TP3     H116142   1.095   0.775   7.875  1.2603  0.0863 -1.9602
 1441TP3     H216143   1.243   0.767   7.906  0.4611  0.6992  2.4496
 1442TP3      O16144   2.481   5.506   7.697  0.1195  0.1819 -0.7032
 1442TP3     H116145   2.572   5.479   7.691 -0.5360 -2.0184 -1.0216
 1442TP3     H216146   2.434   5.430   7.731 -1.9878  0.3864 -2.9685
 1443TP3      O16147   2.080   0.067   0.263 -0.0013  0.1747  0.1080
 1443TP3     H116148   2.034   0.137   0.216  1.1489  0.7264 -0.2068
 1443TP3     H216149   2.039  -0.014   0.232 -1.0190  0.6825  0.1212
 1444TP3      O16150   2.038   4.951   8.573 -0.4204  0.2217  0.2854
 1444TP3     H116151   2.095   4.976   8.645  0.9066  1.4019 -1.1444
 1444TP3     H216152   1.988   5.030   8.554  0.2052  0.3335 -0.9642
 1445TP3      O16153   4.445   4.362   8.774  0.1872  0.0473  0.4124
 1445TP3     H116154   4.429   4.348   8.867 -0.5195  0.2341  0.3181
 1445TP3     H216155   4.375   4.420   8.746 -1.5016 -2.5306 -0.9244
 1446TP3      O16156   3.837   2.372   7.412  0.3058 -0.1293  0.2410
 1446TP3     H116157   3.886   2.339   7.337 -1.2300 -1.3258 -0.2651
 1446TP3     H216158   3.867   2.320   7.486  0.4531 -0.2458  0.1007
 1447TP3      O16159   4.244   4.368   7.335 -0.4156 -0.4683  0.1206
 1447TP3     H116160   4.305   4.400   7.268  0.1760 -2.2616 -0.2116
 1447TP3     H216161   4.300   4.331   7.402 -1.0572  0.3865  1.1388
 1448TP3      O16162   0.677   5.052  10.263  0.5942 -0.1860  0.2030
 1448TP3     H116163   0.581   5.060  10.263  0.6377  0.3446 -0.4153
 1448TP3     H216164   0.697   5.007  10.346 -0.2013 -0.4873  0.2347
 1449TP3      O16165   2.677   5.036   7.410  0.2241 -0.2713  0.0962
 1449TP3     H116166   2.665   4.941   7.401 -3.2804  0.3559 -2.8196
 1449TP3     H216167   2.739   5.058   7.341 -2.1156  0.0913 -1.9267
 1450TP3      O16168   3.226   4.661   7.139 -0.2213 -0.3068  0.1787
 1450TP3     H116169   3.321   4.647   7.142  0.0164  1.3983  0.9220
 1450TP3     H216170   3.190   4.574   7.120  1.5433 -0.7640 -1.1729
 1451TP3      O16171   4.662   4.005   7.914  0.0041 -0.4976 -0.0157
 1451TP3     H116172   4.588   4.037   7.967  0.7019 -1.1230  1.3810
 1451TP3     H216173   4.739   4.031   7.964  0.6519 -1.8158 -0.3186
 1452TP3      O16174   2.680   5.498   8.387 -0.3370  0.2455 -0.0424
 1452TP3     H116175   2.714   5.412   8.409 -0.2892 -0.7412 -3.6867
 1452TP3     H216176   2.596   5.480   8.345 -2.0321  2.2363  2.3008
 1453TP3      O16177   3.572   3.038   9.806  0.3069  0.2435 -0.3777
 1453TP3     H116178   3.666   3.043   9.792  0.2772  0.9172 -0.3765
 1453TP3     H216179   3.559   2.960   9.859  1.2642  2.2182  2.8897
 1454TP3      O16180   4.969   1.799   9.311  0.0035 -0.3608  0.1432
 1454TP3     H116181   5.009   1.819   9.226 -1.3202 -0.0773 -0.4317
 1454TP3     H216182   4.884   1.760   9.288 -0.0270 -1.0084  1.3369
 1455TP3      O16183   1.856   5.084   0.631  0.1938 -0.4926  0.8928
 1455TP3     H116184   1.930   5.070   0.572  0.1088  0.6003  0.5194
 1455TP3     H216185   1.857   5.178   0.649 -0.6034 -0.6037  1.5525
 1456TP3      O16186   3.627   4.929   6.929 -0.1404  0.0639  0.2484
 1456TP3     H116187   3.588   4.845   6.905 -1.4381  0.4662  0.9173
 1456TP3     H216188   3.689   4.907   6.999 -1.3239 -0.2031  1.2399
 1457TP3      O16189   2.243   2.958   8.111 -0.0964  0.0689 -0.3188
 1457TP3     H116190   2.172   2.938   8.051  0.1895 -0.7969 -0.3823
 1457TP3     H216191   2.254   2.878   8.162 -1.5877  1.4069  2.1970
 1458TP3      O16192   0.368   4.749   1.575  0.0313 -0.3785 -0.2174
 1458TP3     H116193   0.361   4.654   1.573  0.5212 -0.5568  2.9681
 1458TP3     H216194   0.410   4.768   1.659 -0.5963  2.6830 -0.5202
 1459TP3      O16195   1.487   1.784   2.106 -0.4446 -0.0518  0.4403
 1459TP3     H116196   1.512   1.856   2.048  2.0533 -0.5309  0.8687
 1459TP3     H216197   1.414   1.819   2.157  0.2940  1.9508  0.1898
 1460TP3      O16198   4.111   4.862   8.177 -0.0536  0.0666 -0.2966
 1460TP3     H116199   4.145   4.774   8.160 -0.0447 -0.1840  0.9103
 1460TP3     H216200   4.131   4.876   8.270 -2.5955  0.2131  0.2480
 1461TP3      O16201   4.599   1.547   0.017  0.1840  0.4052  0.4304
 1461TP3     H116202   4.557   1.468   0.050  1.4493 -0.0899  0.8738
 1461TP3     H216203   4.680   1.554   0.067  1.0465  0.8672 -1.0087
 1462TP3      O16204   1.594   5.442   7.577 -0.4391 -0.0567 -0.0066
 1462TP3     H116205   1.545   5.500   7.519 -0.7149  0.3816  0.6677
 1462TP3     H216206   1.570   5.469   7.665  3.3406  2.1874  0.4252
 1463TP3      O16207   5.130   5.415   8.798  0.7168  0.4816  0.3090
 1463TP3     H116208   5.064   5.399   8.731  1.0428  1.0929 -0.1670
 1463TP3     H216209   5.128   5.337   8.853 -0.8895  0.8139  0.7209
 1464TP3      O16210   2.469   3.394   8.139  0.0335 -0.5760 -0.2071
 1464TP3     H116211   2.381   3.393   8.101 -0.0842 -1.3094  0.0741
 1464TP3     H216212   2.453   3.392   8.234  0.3588 -1.2983 -0.1664
 1465TP3      O16213   2.141   5.127   9.367 -0.3974  0.2161  0.1123
 1465TP3     H116214   2.194   5.168   9.435  1.6785  0.2996 -1.4963
 1465TP3     H216215   2.150   5.186   9.292 -2.1540 -0.1853 -0.4191
 1466TP3      O16216   4.474   3.739   9.384 -0.4997 -0.0266  0.6215
 1466TP3     H116217   4.564   3.769   9.370 -0.0761 -0.7298  1.7416
 1466TP3     H216218   4.422   3.819   9.386 -0.0362  0.3244 -0.9928
 1467TP3      O16219   4.003   1.620   9.656 -0.8250  0.1143  0.0615
 1467TP3     H116220   3.937   1.551   9.654  0.2063 -0.8742 -0.6375
 1467TP3     H216221   3.961   1.692   9.703 -2.1407 -0.7529  0.2452
 1468TP3      O16222   1.082   4.791   9.888  0.1680  0.0307 -0.5421
 1468TP3     H116223   1.018   4.790   9.960 -0.0488  2.0147 -0.6864
 1468TP3     H216224   1.167   4.787   9.932 -0.0021 -0.9207 -0.2777
 1469TP3      O16225   2.277   4.010   8.184 -0.8705 -0.3447 -0.3073
 1469TP3     H116226   2.251   3.926   8.147  0.9682 -0.2812 -1.7869
 1469TP3     H216227   2.356   4.034   8.137 -0.7549  1.7047  0.8640
 1470TP3      O16228   0.062   2.309   0.655 -0.0238 -0.5886 -0.2017
 1470TP3     H116229   0.068   2.219   0.687  0.7284 -1.2462 -2.1503
 1470TP3     H216230   0.146   2.349   0.681 -0.5155 -0.3094  1.0095
 1471TP3      O16231   4.774   3.234   0.325  0.1766 -0.0112 -0.3411
 1471TP3     H116232   4.857   3.282   0.327 -0.4476  1.1758 -2.0361
 1471TP3     H216233   4.791   3.160   0.267 -0.1669  0.6678 -1.3178
 1472TP3      O16234   2.591   2.973   8.078  0.0154 -0.3077  0.8430
 1472TP3     H116235   2.634   3.029   8.142  1.2403 -0.0109 -0.2222
 1472TP3     H216236   2.499   3.000   8.080  0.6429  1.9999  0.1197
 1473TP3      O16237   2.312   4.480   9.468  0.2978  0.1163  0.0208
 1473TP3     H116238   2.233   4.478   9.414  0.6432  1.4686 -0.5726
 1473TP3     H216239   2.280   4.498   9.557 -0.1602 -0.6331  0.0037
 1474TP3      O16240   4.068   2.254   0.785  0.0662 -0.4652  0.8335
 1474TP3     H116241   4.078   2.321   0.853 -2.2364  0.0977  0.6718
 1474TP3     H216242   4.096   2.298   0.704 -1.3420  0.3119  0.7439
 1475TP3      O16243   4.256   3.068   1.307 -0.4898  0.2730 -0.5948
 1475TP3     H116244   4.278   3.161   1.295  1.0181  0.0895  0.4559
 1475TP3     H216245   4.301   3.023   1.236  2.3608 -0.0581  1.3188
 1476TP3      O16246   2.292   4.674   9.795  0.0078  0.1925 -0.3444
 1476TP3     H116247   2.265   4.709   9.709 -1.1398 -0.2112 -0.1571
 1476TP3     H216248   2.284   4.579   9.786  0.0732  0.1400  0.1502
 1477TP3      O16249   2.646   1.711   9.868  0.7573  0.0663 -0.6914
 1477TP3     H116250   2.607   1.705   9.956  2.1038  2.3294  0.1037
 1477TP3     H216251   2.586   1.663   9.812 -0.3347 -1.1012  1.4165
 1478TP3      O16252   2.290   3.094   7.716  0.0463  0.3403 -0.0350
 1478TP3     H116253   2.310   3.164   7.778  1.8262  0.7331 -1.0261
 1478TP3     H216254   2.249   3.139   7.642 -0.8103  0.0491  0.2599
 1479TP3      O16255   4.522   5.368  10.098 -0.4883 -0.0808  0.1390
 1479TP3     H116256   4.437   5.403  10.125 -0.6810 -0.1536 -0.3754
 1479TP3     H216257   4.546   5.308  10.168 -0.8893 -0.1059  0.2555
 1480TP3      O16258   1.733   1.396   9.096  0.0085 -0.2316  0.3477
 1480TP3     H116259   1.809   1.412   9.040 -0.7947 -0.6856 -0.8843
 1480TP3     H216260   1.771   1.369   9.180  1.2047 -0.7256 -0.3407
 1481TP3      O16261   3.676   4.283   7.870 -0.1485  0.5371 -0.3245
 1481TP3     H116262   3.589   4.244   7.863 -1.1965  2.5855  0.9090
 1481TP3     H216263   3.700   4.271   7.962  0.2329  1.2964 -0.3218
 1482TP3      O16264   2.340   3.631   8.413 -0.4900  0.1374 -0.5229
 1482TP3     H116265   2.268   3.638   8.350 -2.7207  1.0115  2.0219
 1482TP3     H216266   2.357   3.537   8.420 -1.9490 -0.1323 -0.5242
 1483TP3      O16267   4.480   0.866   7.638 -0.3102 -0.2013  0.1920
 1483TP3     H116268   4.514   0.950   7.607  0.8272 -0.3750  0.9303
 1483TP3     H216269   4.495   0.806   7.564 -1.1726  0.2373 -0.3566
 1484TP3      O16270   1.491   2.449   8.636  0.4220  0.3352  0.2536
 1484TP3     H116271   1.396   2.438   8.632  0.4366 -0.9449  2.5203
 1484TP3     H216272   1.505   2.516   8.703  1.1515 -0.8735  1.3434
 1485TP3      O16273   4.316   2.649   7.582  0.3092 -0.2931 -0.1026
 1485TP3     H116274   4.380   2.625   7.515  1.7557  1.1739  0.7086
 1485TP3     H216275   4.232   2.627   7.544  1.3568 -3.4767 -0.6917
 1486TP3      O16276   4.449   4.028   7.670  0.3646  0.5538 -0.3720
 1486TP3     H116277   4.529   4.020   7.721  1.0803 -1.0035 -1.7002
 1486TP3     H216278   4.381   3.988   7.724 -0.1676  4.4363  2.0334
 1487TP3      O16279   3.512   4.625   7.098  0.1504 -0.2919 -0.9257
 1487TP3     H116280   3.536   4.644   7.007  0.7253  0.9567 -0.5180
 1487TP3     H216281   3.576   4.673   7.151 -0.4322 -0.6668  0.1441
 1488TP3      O16282   3.630   3.194   0.347  0.7925 -0.5210 -0.0553
 1488TP3     H116283   3.638   3.174   0.440  0.9496 -1.4338 -0.2612
 1488TP3     H216284   3.662   3.284   0.339 -2.4940  0.8140  1.2957
 1489TP3      O16285   4.797   4.534   7.954 -0.2838  0.1560  0.4474
 1489TP3     H116286   4.884   4.555   7.990 -0.3657 -0.1819  0.8470
 1489TP3     H216287   4.785   4.597   7.883 -0.2741  1.0660  1.2478
 1490TP3      O16288   0.476   0.353   7.868  0.4122  0.6830  0.0197
 1490TP3     H116289   0.571   0.365   7.864  0.1510  2.5585 -1.1823
 1490TP3     H216290   0.458   0.339   7.961  1.6251  2.7351  0.6071
 1491TP3      O16291   0.904   3.837  10.309 -0.4220  0.0997  0.5906
 1491TP3     H116292   0.896   3.892  10.231 -0.4877 -0.4114  0.2335
 1491TP3     H216293   0.969   3.882  10.363 -1.5699  1.3178  0.9853
 1492TP3      O16294   3.374   1.463   9.169  0.0420 -0.6033  0.6456
 1492TP3     H116295   3.332   1.507   9.095  0.6711 -0.6120  0.2788
 1492TP3     H216296   3.319   1.485   9.244 -0.4081 -0.3072  0.2340
 1493TP3      O16297   1.798   5.512   7.920  0.0226 -0.5656  0.5555
 1493TP3     H116298   1.842   5.588   7.883 -1.1198  0.3111  0.9870
 1493TP3     H216299   1.802   5.526   8.015 -0.4601 -0.8961  0.6236
 1494TP3      O16300   4.844   0.057   8.697 -0.0268  0.6380 -0.1100
 1494TP3     H116301   4.885  -0.027   8.673 -0.9466  0.3337 -0.6250
 1494TP3     H216302   4.833   0.051   8.792 -2.2983 -0.8549 -0.4144
 1495TP3      O16303   5.468   4.682   0.865 -0.1179  0.2477  0.6469
 1495TP3     H116304   5.442   4.652   0.778  0.4801 -0.4894  0.7104
 1495TP3     H216305   5.563   4.694   0.859 -0.0974  0.3609  1.1461
 1496TP3      O16306   4.588   4.472   0.026  0.0414 -0.1345 -0.9289
 1496TP3     H116307   4.580   4.568   0.029 -0.0687 -0.1714  0.3073
 1496TP3     H216308   4.655   4.452   0.091 -0.1456 -0.9189 -0.9800
 1497TP3      O16309   3.210   2.376   7.536 -0.3364  0.2492 -0.3089
 1497TP3     H116310   3.175   2.465   7.545 -0.5336  0.2222 -0.8036
 1497TP3     H216311   3.225   2.347   7.626 -1.5026  0.2958 -0.0871
 1498TP3      O16312   2.189   4.571   8.857 -0.0509  0.0771 -0.1717
 1498TP3     H116313   2.233   4.652   8.830 -0.8841  0.1361 -1.3726
 1498TP3     H216314   2.124   4.599   8.921 -2.8222  0.8692 -3.2252
 1499TP3      O16315   2.845   2.689   9.867 -0.0948  0.6355 -0.1447
 1499TP3     H116316   2.869   2.778   9.840  1.0179  0.3763 -0.0396
 1499TP3     H216317   2.904   2.633   9.817 -0.7404 -0.0422 -0.1456
 1500TP3      O16318   4.507   1.508   9.629  0.2594 -0.7506 -0.0386
 1500TP3     H116319   4.567   1.524   9.556 -2.1612  2.8542 -1.4083
 1500TP3     H216320   4.544   1.557   9.702  2.4249 -3.9630  1.0885
 1501TP3      O16321   0.039   1.528   0.422 -0.0961  0.0037 -0.3365
 1501TP3     H116322   0.042   1.452   0.480  0.8007 -0.0259 -0.4292
 1501TP3     H216323   0.070   1.601   0.475  1.2259 -0.1162 -0.9190
 1502TP3      O16324   0.320   3.122   9.910  0.3718 -0.0455 -0.8551
 1502TP3     H116325   0.235   3.082   9.930  0.8152 -0.7862 -0.4558
 1502TP3     H216326   0.314   3.210   9.948  0.1133 -0.4173 -0.0125
 1503TP3      O16327   2.736   5.206   8.150 -0.2032  0.8715 -0.5036
 1503TP3     H116328   2.664   5.143   8.144  0.2456  0.4851 -1.9005
 1503TP3     H216329   2.762   5.203   8.242 -0.0856 -1.1093 -0.5810
 1504TP3      O16330   3.134   3.491   9.459  0.9207  0.2059  0.0363
 1504TP3     H116331   3.109   3.407   9.421  1.7018 -0.0145  0.0140
 1504TP3     H216332   3.185   3.535   9.391  0.7419  0.5893  0.1458
 1505TP3      O16333   1.968   5.292   8.032  0.5083 -0.2882  0.6725
 1505TP3     H116334   1.951   5.199   8.050  1.1911 -0.7130 -0.8481
 1505TP3     H216335   1.887   5.323   7.991  1.0021 -0.7143 -0.6451
 1506TP3      O16336   2.703   3.570   8.948 -0.4018  0.6153 -0.1505
 1506TP3     H116337   2.728   3.480   8.970  0.2568  0.3086 -2.0725
 1506TP3     H216338   2.693   3.613   9.033  1.3360 -0.7175  0.7809
 1507TP3      O16339   3.325   4.821   8.084 -0.2547 -0.1788  0.0411
 1507TP3     H116340   3.297   4.795   7.997 -0.2995 -1.6885  0.4887
 1507TP3     H216341   3.386   4.893   8.070 -0.4374 -0.2701 -1.2201
 1508TP3      O16342   3.462   3.200   9.591 -0.1243  0.0678 -0.4502
 1508TP3     H116343   3.476   3.139   9.664 -2.2934  0.7877  0.6243
 1508TP3     H216344   3.529   3.267   9.602 -0.9741  0.6415  1.4405
 1509TP3      O16345   5.246   1.844   9.449 -0.0240 -0.4145 -0.5125
 1509TP3     H116346   5.179   1.805   9.394  0.1193  0.6688 -1.4920
 1509TP3     H216347   5.215   1.832   9.539 -0.8259 -1.1800 -0.8947
 1510TP3      O16348   4.291   1.663   9.587  0.0188  0.4038  0.1355
 1510TP3     H116349   4.200   1.637   9.602 -0.0969  0.4440 -0.4677
 1510TP3     H216350   4.341   1.583   9.603 -0.1354  0.3468  0.3417
 1511TP3      O16351   4.350   3.384   8.061  0.1731 -0.2638  0.4867
 1511TP3     H116352   4.301   3.459   8.027 -0.2738 -0.0713  1.5248
 1511TP3     H216353   4.315   3.309   8.013  1.5008  0.3341 -1.4528
 1512TP3      O16354   0.365   3.584   8.214  0.0821  0.4017 -0.1646
 1512TP3     H116355   0.299   3.535   8.263  0.5512 -0.8519 -0.7727
 1512TP3     H216356   0.439   3.592   8.275 -0.6788  1.9866  0.5925
 1513TP3      O16357   3.013   3.642   8.363 -0.6639 -0.1017  0.3414
 1513TP3     H116358   3.042   3.641   8.454  0.3284  2.5084  0.1039
 1513TP3     H216359   3.082   3.691   8.317  0.0816 -3.4281 -2.2586
 1514TP3      O16360   4.229   4.046   7.259 -0.6299  0.0178  0.0597
 1514TP3     H116361   4.319   4.077   7.249 -0.6174  0.1710  0.6114
 1514TP3     H216362   4.176   4.107   7.208 -0.3873 -0.2730 -0.5446
 1515TP3      O16363   1.682   5.187   8.318 -0.1939  0.1205  0.2177
 1515TP3     H116364   1.739   5.116   8.287  2.1243  2.2166 -0.4517
 1515TP3     H216365   1.632   5.213   8.241 -1.9851 -1.5760  0.7583
 1516TP3      O16366   2.314   3.687   8.750  0.1080  0.2907  0.3288
 1516TP3     H116367   2.284   3.776   8.728 -0.2246  0.5959  1.9630
 1516TP3     H216368   2.367   3.661   8.675 -2.4159  0.6097 -1.6424
 1517TP3      O16369   3.203   0.973   7.872 -0.2494 -0.8481  0.4731
 1517TP3     H116370   3.147   0.995   7.946 -0.4826 -1.1959  0.4024
 1517TP3     H216371   3.216   1.056   7.826 -1.1962 -0.8601  0.1526
 1518TP3      O16372   2.467   0.205   9.380  0.1997 -0.0431 -0.0817
 1518TP3     H116373   2.434   0.203   9.470  1.9326  2.1359  0.6418
 1518TP3     H216374   2.512   0.121   9.369 -2.6939 -1.6710 -0.0158
 1519TP3      O16375   1.827   2.668  10.207 -0.0424 -0.2205 -0.2242
 1519TP3     H116376   1.789   2.696  10.124 -0.4069 -0.5114 -0.1551
 1519TP3     H216377   1.877   2.744  10.237 -0.4184  0.0955 -0.4027
 1520TP3      O16378   5.145   1.333   9.012 -0.0183  0.5905 -0.0411
 1520TP3     H116379   5.099   1.266   9.063  1.9032 -2.3064 -1.9068
 1520TP3     H216380   5.202   1.376   9.076  1.6581 -2.3434  0.5866
 1521TP3      O16381   1.148   4.588   7.458 -0.8211 -0.0561 -0.3361
 1521TP3     H116382   1.130   4.592   7.364  0.4162 -2.6950 -0.7262
 1521TP3     H216383   1.234   4.628   7.469 -0.1642 -1.3453 -0.6139
 1522TP3      O16384   2.758   1.197  10.020  0.0536  0.2423 -0.0214
 1522TP3     H116385   2.714   1.118   9.989  0.8845 -0.2225 -0.0276
 1522TP3     H216386   2.723   1.211  10.108  0.8269 -0.8568  0.4761
 1523TP3      O16387   5.382   4.833   7.600  0.4111 -0.0960  0.5209
 1523TP3     H116388   5.447   4.901   7.617  1.3057 -0.5990 -0.8159
 1523TP3     H216389   5.306   4.859   7.653  1.2123  1.2149  1.0548
 1524TP3      O16390   4.939   3.949   7.300  0.4818  0.0477 -0.4154
 1524TP3     H116391   4.953   3.944   7.206  0.5986 -2.3197 -0.2955
 1524TP3     H216392   4.848   3.923   7.313  0.6808 -0.3534  0.1919
 1525TP3      O16393   5.241   4.669   7.443 -0.0854 -0.1050 -0.2151
 1525TP3     H116394   5.293   4.723   7.502  1.3489 -2.4512  0.7500
 1525TP3     H216395   5.151   4.679   7.473  0.2167  1.3830  0.2137
 1526TP3      O16396   4.357   0.558   7.577 -0.2959  0.8818  0.0734
 1526TP3     H116397   4.268   0.533   7.552 -0.4208  1.9761 -0.6048
 1526TP3     H216398   4.385   0.620   7.509  1.5695 -0.6126 -0.5947
 1527TP3      O16399   3.425   5.110   6.953  0.1033  0.2740  0.1864
 1527TP3     H116400   3.485   5.037   6.937  0.3695  0.5952 -0.2758
 1527TP3     H216401   3.440   5.170   6.880  1.1242  1.6152  1.4765
 1528TP3      O16402   4.010   3.918   8.543  0.5865 -0.2778  0.4120
 1528TP3     H116403   4.042   3.989   8.598 -0.3666 -0.2130  0.8894
 1528TP3     H216404   3.987   3.848   8.604 -3.9287  1.1049  0.4880
 1529TP3      O16405   3.308   3.808   8.589  0.2342  0.3794 -0.7975
 1529TP3     H116406   3.340   3.778   8.504 -1.7478  0.6117 -1.6392
 1529TP3     H216407   3.249   3.738   8.619  1.0969  0.1844  0.5164
 1530TP3      O16408   4.187   1.841   8.418 -0.0808  0.3073 -0.1636
 1530TP3     H116409   4.110   1.821   8.471  1.0076 -0.6757  1.0809
 1530TP3     H216410   4.193   1.936   8.419 -1.0513  0.3659  0.0546
 1531TP3      O16411   4.702   2.045   8.975 -0.4690  0.0035  0.0560
 1531TP3     H116412   4.635   2.046   8.906 -1.7653 -1.3427  1.2671
 1531TP3     H216413   4.731   1.953   8.979 -0.3328  0.0941  1.2385
 1532TP3      O16414   5.250   0.240   8.282 -0.4538 -0.7835 -0.1986
 1532TP3     H116415   5.202   0.320   8.304  1.1282  0.1142  0.0993
 1532TP3     H216416   5.279   0.253   8.191  0.8972 -0.4278  0.2630
 1533TP3      O16417   4.085   2.507   7.494 -0.0760  0.4041  0.0097
 1533TP3     H116418   3.995   2.493   7.463 -0.4425  1.8350  0.4133
 1533TP3     H216419   4.106   2.427   7.542 -1.7650  0.7711  1.4035
 1534TP3      O16420   4.911   4.131   8.391  1.1666  0.2399  0.1556
 1534TP3     H116421   4.886   4.111   8.481  1.2089 -0.9333 -0.0861
 1534TP3     H216422   4.996   4.175   8.400  1.1822  0.1120  0.6850
 1535TP3      O16423   5.089   3.649   8.066 -0.0956  0.0736 -0.6211
 1535TP3     H116424   5.081   3.744   8.080 -2.9462 -0.1738 -0.2884
 1535TP3     H216425   5.161   3.640   8.004  1.9156  2.2850  1.3170
 1536TP3      O16426   1.826   5.163   0.913  0.2574  0.7038  0.3660
 1536TP3     H116427   1.768   5.239   0.914 -0.9846 -0.2626  2.0648
 1536TP3     H216428   1.806   5.119   0.830 -0.9803  0.7236  0.6469
 1537TP3      O16429   4.989   3.162   8.619  0.1565  0.3500  1.1760
 1537TP3     H116430   5.061   3.171   8.680  0.7156 -1.9896  0.9072
 1537TP3     H216431   5.028   3.181   8.533  0.4080 -0.7156  1.0534
 1538TP3      O16432   4.249   4.937   8.953  0.0487  0.0140 -0.5842
 1538TP3     H116433   4.317   4.871   8.968  0.6075  0.7643  0.3300
 1538TP3     H216434   4.296   5.009   8.911 -0.2177  0.4586 -0.1201
 1539TP3      O16435   1.888   0.661   7.993 -0.3012 -0.2592 -0.5315
 1539TP3     H116436   1.961   0.698   8.043  1.9384 -2.6957 -1.8543
 1539TP3     H216437   1.856   0.589   8.048  1.2495 -2.0352 -1.8681
 1540TP3      O16438   0.131   0.720   7.683 -0.3483  0.3239 -0.1089
 1540TP3     H116439   0.163   0.668   7.758  0.4056  0.8123 -0.0869
 1540TP3     H216440   0.149   0.811   7.707 -0.9408  0.5479 -0.4964
 1541TP3      O16441   3.892   5.179   0.478  0.0647 -0.3224  0.8734
 1541TP3     H116442   3.975   5.131   0.482  0.2748  0.1231  1.9449
 1541TP3     H216443   3.826   5.115   0.507 -0.2896 -1.3574 -2.0474
 1542TP3      O16444   5.523   5.201   8.998  0.2106  0.0945  0.1439
 1542TP3     H116445   5.492   5.184   9.087  1.7452 -1.7950  0.3334
 1542TP3     H216446   5.552   5.293   9.001 -2.8424  1.1132  0.6454
 1543TP3      O16447   0.996   1.233   0.017 -0.1701  0.4415 -0.1278
 1543TP3     H116448   1.077   1.261   0.059 -0.3829 -1.8134  1.8748
 1543TP3     H216449   0.998   1.274  -0.069  2.7952  0.8916  0.1171
 1544TP3      O16450   5.427   2.064   2.101 -0.6328  0.3937  0.0781
 1544TP3     H116451   5.342   2.025   2.122  0.3148 -0.9009  1.6276
 1544TP3     H216452   5.447   2.030   2.013 -0.6197 -1.2430  0.6922
 1545TP3      O16453   0.125   0.112   0.229 -0.5362 -0.3397  0.5069
 1545TP3     H116454   0.132   0.064   0.312  1.0423 -1.5587 -0.3155
 1545TP3     H216455   0.177   0.191   0.242  2.4614 -2.0849 -0.3874
 1546TP3      O16456   4.779   2.927  10.009 -0.5108 -0.3386 -0.0307
 1546TP3     H116457   4.865   2.939  10.051 -0.5154  1.1083 -0.3864
 1546TP3     H216458   4.717   2.960  10.074 -0.5332  1.7289 -1.0626
 1547TP3      O16459   4.306   5.293   7.154 -0.1159  0.2386 -0.8159
 1547TP3     H116460   4.312   5.352   7.230  1.8535 -0.0494 -0.7441
 1547TP3     H216461   4.217   5.257   7.160 -0.5506  1.4514  0.4281
 1548TP3      O16462   2.291   1.819   9.360  0.0774 -0.1502 -0.0958
 1548TP3     H116463   2.266   1.729   9.381 -0.6106 -0.0782 -0.6025
 1548TP3     H216464   2.375   1.831   9.404 -0.0531 -0.8871  0.3622
 1549TP3      O16465   1.071   0.488   8.137 -0.0728  0.1152 -0.1626
 1549TP3     H116466   1.133   0.499   8.066 -1.4038 -0.0692 -1.3891
 1549TP3     H216467   1.083   0.398   8.167 -0.1128 -0.0942 -0.7663
 1550TP3      O16468   5.153   4.847   8.548 -0.5469  0.3192  0.5163
 1550TP3     H116469   5.101   4.921   8.582 -0.7357 -0.1421  1.2535
 1550TP3     H216470   5.117   4.770   8.593 -0.8133 -0.3132 -0.7603
 1551TP3      O16471   5.223   4.083   7.673 -0.0292  0.6160  0.3693
 1551TP3     H116472   5.161   4.102   7.743 -0.8102 -1.5434  0.2820
 1551TP3     H216473   5.293   4.148   7.686 -1.0126  1.3873  2.0453
 1552TP3      O16474   0.030   5.521   7.396  0.5477 -0.3511  0.5814
 1552TP3     H116475   0.037   5.556   7.307 -1.4830 -0.8137  0.2259
 1552TP3     H216476   0.001   5.430   7.384 -1.4390  0.1021  1.7794
 1553TP3      O16477   2.743   4.644   8.041 -0.4406  0.3530  0.1325
 1553TP3     H116478   2.807   4.715   8.038 -0.1848  0.0872 -0.7746
 1553TP3     H216479   2.723   4.626   7.950  0.2958 -1.4713  0.3165
 1554TP3      O16480   0.507   5.306   7.844 -0.0886 -0.3999 -0.2575
 1554TP3     H116481   0.443   5.235   7.848 -0.8409  0.2560 -0.5346
 1554TP3     H216482   0.569   5.287   7.914 -1.1029 -0.5577  0.6063
 1555TP3      O16483   2.662   2.710   7.493  0.2617  0.3522  0.6566
 1555TP3     H116484   2.590   2.759   7.452 -1.0996 -2.0005  0.0957
 1555TP3     H216485   2.635   2.618   7.485  2.4778 -0.4619  2.1359
 1556TP3      O16486   3.930   4.859   0.179  0.2860 -0.4221  0.2082
 1556TP3     H116487   3.965   4.948   0.186 -1.4901  0.2650  0.7230
 1556TP3     H216488   4.006   4.802   0.193  1.3105  1.0143  0.5920
 1557TP3      O16489   5.133   3.525   9.092  0.2228 -0.6381  0.2694
 1557TP3     H116490   5.114   3.432   9.084 -0.8902 -0.3573 -0.5672
 1557TP3     H216491   5.091   3.552   9.173  0.6911 -0.8911  0.5997
 1558TP3      O16492   1.278   3.384   9.323  0.2883  0.3786  1.3056
 1558TP3     H116493   1.364   3.402   9.359  0.9036 -1.1133  0.6506
 1558TP3     H216494   1.253   3.299   9.360  1.2234 -1.5250 -2.1354
 1559TP3      O16495   4.423   5.085   6.941 -0.0656  0.1629  0.3887
 1559TP3     H116496   4.353   5.033   6.901 -0.9526  0.1251  1.9313
 1559TP3     H216497   4.377   5.159   6.981  0.9031  0.7487  0.4229
 1560TP3      O16498   1.253   1.317   9.210  0.0082 -0.0953 -0.2565
 1560TP3     H116499   1.336   1.296   9.167  1.3044  1.1824  1.5584
 1560TP3     H216500   1.264   1.407   9.242 -1.6225 -0.3345  1.0762
 1561TP3      O16501   4.042   4.958   9.748 -0.5637  0.7015 -0.5666
 1561TP3     H116502   4.017   4.907   9.671 -0.3753 -0.0013 -0.1610
 1561TP3     H216503   4.131   4.988   9.729 -0.3488  0.1522 -0.4298
 1562TP3      O16504   5.502   2.754   8.819 -0.0628 -0.3013  0.1839
 1562TP3     H116505   5.499   2.762   8.914  3.6257  0.2791  0.3006
 1562TP3     H216506   5.498   2.660   8.802  0.0883 -0.4404  0.9227
 1563TP3      O16507   5.256   2.800   0.028 -0.5235  0.5055 -0.9083
 1563TP3     H116508   5.206   2.871  -0.013 -2.3508 -0.3000 -0.0992
 1563TP3     H216509   5.250   2.817   0.122  0.9414  0.5314 -0.8111
 1564TP3      O16510   4.406   2.960   8.908  0.7229 -0.0488  0.1973
 1564TP3     H116511   4.427   3.024   8.839 -2.3127  1.2643  0.4162
 1564TP3     H216512   4.417   3.009   8.990  1.5260 -0.7780  0.5358
 1565TP3      O16513   4.337   5.144   8.041 -0.5982 -0.7794  0.3030
 1565TP3     H116514   4.395   5.138   7.966 -2.4919  0.6671 -1.3275
 1565TP3     H216515   4.333   5.055   8.076 -0.1553 -1.5891 -1.6614
 1566TP3      O16516   1.678   0.454   7.802 -0.6493 -0.2797 -0.7960
 1566TP3     H116517   1.615   0.514   7.843 -0.3854 -0.5611  0.0455
 1566TP3     H216518   1.714   0.503   7.729 -1.8981 -0.1364 -1.3379
 1567TP3      O16519   1.685   0.978   7.650  0.1698  0.4675  0.3035
 1567TP3     H116520   1.642   0.929   7.580  0.2670 -1.5953  1.6406
 1567TP3     H216521   1.760   0.925   7.674 -0.7527  0.3409  3.0459
 1568TP3      O16522   5.059   4.650   8.720  0.3238 -0.4394 -0.0095
 1568TP3     H116523   5.049   4.681   8.810 -0.5773 -0.8795  0.0424
 1568TP3     H216524   5.009   4.569   8.716  0.0076 -0.2074 -1.0175
 1569TP3      O16525   4.724   5.379   9.136 -0.2739  0.8367  0.1851
 1569TP3     H116526   4.765   5.296   9.111 -0.5347  0.3119  1.4834
 1569TP3     H216527   4.632   5.368   9.113 -0.8014 -0.1998  2.6599
 1570TP3      O16528   5.307   4.151   8.693  0.1014 -0.0105  0.1791
 1570TP3     H116529   5.399   4.163   8.716 -0.2406 -1.3144  2.4135
 1570TP3     H216530   5.304   4.066   8.649 -0.0484  0.0053  0.1586
 1571TP3      O16531   1.290   1.137   8.884 -0.3567  0.3024  0.5230
 1571TP3     H116532   1.289   1.156   8.791 -0.0604  1.1680  0.6959
 1571TP3     H216533   1.350   1.201   8.921 -0.0094 -0.4179  1.2265
 1572TP3      O16534   3.712   2.596   9.083  0.2432  0.0841 -0.0937
 1572TP3     H116535   3.749   2.533   9.021  0.0827  0.7197 -0.8321
 1572TP3     H216536   3.785   2.618   9.141  0.1743 -1.1686  0.4897
 1573TP3      O16537   3.111   5.191   2.517 -0.1234  0.0445  0.1580
 1573TP3     H116538   3.120   5.113   2.573  1.0040 -0.8875 -1.2936
 1573TP3     H216539   3.160   5.170   2.438 -0.5493  1.8999 -0.6317
 1574TP3      O16540   4.721   2.435   8.429 -0.0639  0.5185  0.1229
 1574TP3     H116541   4.628   2.412   8.431  0.4137 -1.5480 -0.3476
 1574TP3     H216542   4.755   2.404   8.513  0.9410 -2.1218 -1.2160
 1575TP3      O16543   4.185   4.374   0.411 -0.2375 -0.0530  0.7208
 1575TP3     H116544   4.177   4.279   0.419 -0.1947 -0.1527 -0.3356
 1575TP3     H216545   4.248   4.399   0.480 -1.3226 -0.5991  1.9267
 1576TP3      O16546   4.175   3.596   7.976 -0.2576 -0.3258 -0.1693
 1576TP3     H116547   4.086   3.632   7.973 -0.3535 -0.6158 -0.7048
 1576TP3     H216548   4.217   3.644   8.049 -1.6567 -2.0458  1.8197
 1577TP3      O16549   5.010   5.444   7.406  0.4540  0.4321  0.0521
 1577TP3     H116550   4.964   5.465   7.325  1.8628 -0.3618 -0.9802
 1577TP3     H216551   5.088   5.396   7.378 -0.8646 -3.1229  2.0757
 1578TP3      O16552   4.215   4.560   8.580 -0.0868 -0.3690  0.5299
 1578TP3     H116553   4.134   4.601   8.549 -0.2586 -1.9021 -1.0766
 1578TP3     H216554   4.279   4.578   8.511  1.5504  2.5470  2.6569
 1579TP3      O16555   0.550   0.633   8.166  0.1368 -0.2180 -0.0014
 1579TP3     H116556   0.508   0.694   8.105  0.2890  0.2841  0.3914
 1579TP3     H216557   0.641   0.662   8.170  0.5308 -1.3257 -0.8734
 1580TP3      O16558   1.984   3.466   0.068  0.0955 -0.0213  0.3902
 1580TP3     H116559   2.072   3.429   0.069  0.5602  1.0398  1.9399
 1580TP3     H216560   1.930   3.402   0.115  0.3073 -0.0721  0.5648
 1581TP3      O16561   4.532   0.519  10.057 -0.8564 -1.0494  0.4880
 1581TP3     H116562   4.475   0.535   9.981  1.0332  0.3313 -0.6719
 1581TP3     H216563   4.561   0.428  10.046  1.2666 -0.1514 -1.7740
 1582TP3      O16564   4.921   4.862   7.708 -0.4498  0.8126 -0.0626
 1582TP3     H116565   4.931   4.945   7.754  2.2302 -0.5704  1.9865
 1582TP3     H216566   4.831   4.835   7.727 -0.0901  1.3252  2.6141
 1583TP3      O16567   2.909   3.032   6.984 -0.1319 -0.0360 -0.0518
 1583TP3     H116568   2.870   2.947   7.003  0.8161 -0.4934 -0.1251
 1583TP3     H216569   2.984   3.012   6.928  1.5153  0.6093  1.8631
 1584TP3      O16570   1.013   5.295   8.844 -0.4248  0.4030  0.5688
 1584TP3     H116571   0.926   5.330   8.861 -1.3290 -1.0137 -1.0099
 1584TP3     H216572   1.000   5.201   8.833  1.1033  0.3308 -0.9198
 1585TP3      O16573   3.557   4.168   6.909 -0.5323  1.0311 -0.3743
 1585TP3     H116574   3.474   4.133   6.877 -1.6721  1.3264  2.1595
 1585TP3     H216575   3.602   4.093   6.947  1.4168  0.4012 -3.6973
 1586TP3      O16576   4.840   1.677   7.531  0.0510 -0.4278 -1.0601
 1586TP3     H116577   4.863   1.732   7.456  0.2076  0.4484 -0.3828
 1586TP3     H216578   4.922   1.661   7.577 -0.2359  0.2421 -0.2853
 1587TP3      O16579   5.514   0.828   8.652  0.1423  0.0132  0.3530
 1587TP3     H116580   5.435   0.780   8.677  0.2417  0.5602  1.7590
 1587TP3     H216581   5.583   0.762   8.647 -0.5181 -0.5514 -1.4236
 1588TP3      O16582   5.319   1.447   8.623 -0.4880  0.1453  0.6653
 1588TP3     H116583   5.256   1.424   8.555 -1.6457 -1.3527  2.1904
 1588TP3     H216584   5.362   1.526   8.591 -0.2652 -1.1032 -2.2658
 1589TP3      O16585   2.706   4.040   8.918  0.3476  0.1646 -0.4636
 1589TP3     H116586   2.752   3.982   8.858 -0.0902 -2.6582  1.7854
 1589TP3     H216587   2.614   4.034   8.892  0.3122 -0.0831 -0.2791
 1590TP3      O16588   3.080   5.190  10.224 -0.5069 -0.7290 -0.9608
 1590TP3     H116589   3.006   5.237  10.186 -0.1905  1.8985  1.4953
 1590TP3     H216590   3.141   5.178  10.151 -2.1997 -0.6333 -2.4334
 1591TP3      O16591   1.359   4.672   9.714 -0.3217  0.0078 -0.1299
 1591TP3     H116592   1.415   4.640   9.644  0.2163  0.4311  0.1069
 1591TP3     H216593   1.285   4.712   9.669  0.0158  0.2638 -0.4598
 1592TP3      O16594   3.097   3.760   9.012  0.0177 -0.4631  0.8611
 1592TP3     H116595   3.083   3.855   9.012  0.1761 -0.4389  0.0957
 1592TP3     H216596   3.191   3.749   9.027  0.2698 -0.4566 -0.7070
 1593TP3      O16597   4.706   2.141   9.396 -0.4651 -0.8648 -0.2786
 1593TP3     H116598   4.742   2.157   9.309 -0.5931  0.0361 -0.1633
 1593TP3     H216599   4.751   2.061   9.425  1.2124  0.0672 -0.2615
 1594TP3      O16600   1.316   0.450   8.634 -0.1984 -0.5328 -0.6258
 1594TP3     H116601   1.375   0.523   8.617  1.9757 -2.1212 -0.1976
 1594TP3     H216602   1.241   0.490   8.679  0.5053  1.5452 -1.2309
 1595TP3      O16603   4.813   1.624   7.179 -0.4405  0.2574 -0.2607
 1595TP3     H116604   4.734   1.678   7.181 -1.0958 -0.6708 -0.5109
 1595TP3     H216605   4.885   1.686   7.187 -1.2505  0.9657  2.0513
 1596TP3      O16606   4.067   1.229   7.670 -0.4628 -0.4308 -0.0178
 1596TP3     H116607   4.161   1.212   7.674 -0.3078  0.4422  0.0581
 1596TP3     H216608   4.031   1.180   7.744  0.0052 -0.2503  0.3274
 1597TP3      O16609   2.219   5.516   8.988 -0.3590  0.0976 -0.0129
 1597TP3     H116610   2.249   5.590   9.040 -0.5133 -0.2738  0.6098
 1597TP3     H216611   2.167   5.556   8.918 -0.9220  0.5464  0.6475
 1598TP3      O16612   3.821   5.270  10.290  0.2338  0.2025 -0.2031
 1598TP3     H116613   3.799   5.207  10.221  1.0560 -1.3447  0.9028
 1598TP3     H216614   3.834   5.353  10.244 -1.1689 -0.3594 -1.6617
 1599TP3      O16615   4.164   3.966   8.881  0.3319  0.1535  0.0710
 1599TP3     H116616   4.096   3.907   8.914  0.1708  0.0187 -0.4900
 1599TP3     H216617   4.117   4.047   8.860  0.4812  0.3390  0.4339
 1600TP3      O16618   3.675   5.521   7.184 -0.4228 -0.0948  0.5958
 1600TP3     H116619   3.590   5.515   7.140 -0.3647  2.4335  0.1026
 1600TP3     H216620   3.711   5.433   7.176 -1.0114 -0.0846 -3.2259
 1601TP3      O16621   0.216   4.954   7.031 -0.2792  0.4370 -0.2975
 1601TP3     H116622   0.310   4.971   7.044 -0.2193  0.5883 -0.9121
 1601TP3     H216623   0.176   4.978   7.114  0.1977  0.6221 -0.1173
 1602TP3      O16624   5.154   0.608   7.090 -0.0737  0.6722  0.8615
 1602TP3     H116625   5.150   0.612   6.994 -2.3517  0.0222  0.9010
 1602TP3     H216626   5.231   0.554   7.108 -1.1215 -1.4397 -0.6936
 1603TP3      O16627   2.576   0.074   8.865  0.0001 -0.3332 -0.3131
 1603TP3     H116628   2.631   0.079   8.787 -0.6752  0.1097 -0.7616
 1603TP3     H216629   2.488   0.095   8.834 -0.0823  0.9488  0.7551
 1604TP3      O16630   2.401   5.356   8.315 -0.7554 -0.2193 -0.4190
 1604TP3     H116631   2.375   5.303   8.239  1.1481  0.8358 -1.8467
 1604TP3     H216632   2.364   5.443   8.297 -1.2177 -0.2428  0.3944
 1605TP3      O16633   3.195   1.476   0.077  0.4016 -0.2281  0.4245
 1605TP3     H116634   3.105   1.457   0.051  0.7422 -0.3942 -0.6761
 1605TP3     H216635   3.229   1.531   0.006  0.9257  0.4763  1.2113
 1606TP3      O16636   4.246   4.935   6.846 -0.1368 -0.0536  0.0503
 1606TP3     H116637   4.292   4.853   6.864 -0.3820 -0.3806 -0.8236
 1606TP3     H216638   4.168   4.931   6.901  0.4246  0.1053  0.8672
 1607TP3      O16639   0.897   1.650   8.928 -0.3051 -0.4791  0.3377
 1607TP3     H116640   0.880   1.610   9.013  1.5375 -1.2290  0.3748
 1607TP3     H216641   0.874   1.582   8.864 -0.3833 -0.3966  0.2773
 1608TP3      O16642   5.130   0.091   9.000 -0.1786  0.2843 -0.0751
 1608TP3     H116643   5.044   0.131   8.989 -0.6219 -0.3531  1.0011
 1608TP3     H216644   5.140   0.033   8.925 -0.2621  1.1023 -0.7250
 1609TP3      O16645   4.185   4.580   7.992  0.0131 -0.7618 -0.4035
 1609TP3     H116646   4.119   4.511   8.000  0.0400 -0.5348  2.3326
 1609TP3     H216647   4.224   4.585   8.079  0.9848  1.7709 -0.9522
 1610TP3      O16648   4.153   3.532   8.669 -0.1052  0.3561 -0.7224
 1610TP3     H116649   4.092   3.594   8.710  2.0214  2.4023 -0.5493
 1610TP3     H216650   4.233   3.583   8.654  1.4269 -2.1349 -1.3609
 1611TP3      O16651   4.212   0.776   7.439 -0.1942  0.3350  0.0967
 1611TP3     H116652   4.148   0.743   7.376 -0.4695  0.4743  0.3014
 1611TP3     H216653   4.175   0.754   7.525 -0.5835  1.5462  0.2463
 1612TP3      O16654   0.911   2.633  10.086 -0.0074 -0.2051 -0.4257
 1612TP3     H116655   0.836   2.685  10.058  1.0065  1.2836 -0.4315
 1612TP3     H216656   0.873   2.550  10.115 -1.7155  0.7226  0.0887
 1613TP3      O16657   1.815   4.107   8.295  0.1306 -0.5066  0.1310
 1613TP3     H116658   1.752   4.176   8.313  0.9903  0.0293  1.2021
 1613TP3     H216659   1.875   4.145   8.231  0.0667 -0.5780  0.0301
 1614TP3      O16660   3.986   4.596   8.888 -0.5017 -0.5907  0.1406
 1614TP3     H116661   4.011   4.510   8.855  0.8729 -0.0533 -0.2575
 1614TP3     H216662   3.936   4.578   8.967 -0.8193 -1.7786 -0.3332
 1615TP3      O16663   1.026   3.370  10.041  0.0515  0.5563 -0.4029
 1615TP3     H116664   1.010   3.275  10.042  1.0743  0.3821  0.4412
 1615TP3     H216665   1.087   3.383   9.969  2.1327  0.1806  1.2566
 1616TP3      O16666   4.376   1.956   7.609  0.1999 -0.1651 -0.0759
 1616TP3     H116667   4.304   1.906   7.647  1.1072 -0.9327  0.6585
 1616TP3     H216668   4.437   1.890   7.576  1.2839  0.4407  0.6578
 1617TP3      O16669   3.787   2.753   9.704  0.3002  0.0085  0.7567
 1617TP3     H116670   3.730   2.784   9.633  1.9897 -0.1325 -0.7082
 1617TP3     H216671   3.834   2.832   9.732  0.8611 -0.2452  0.5456
 1618TP3      O16672   2.846   0.514   0.489  0.3211 -0.4150  0.0147
 1618TP3     H116673   2.853   0.435   0.543  1.6081 -0.9017 -0.8338
 1618TP3     H216674   2.838   0.480   0.400 -0.1992  0.4055 -0.2496
 1619TP3      O16675   3.293   4.060   8.124 -0.7248  1.0068  0.4175
 1619TP3     H116676   3.314   4.136   8.070 -3.1364  2.0544  0.8912
 1619TP3     H216677   3.333   4.078   8.209  0.8163  0.5733 -0.1957
 1620TP3      O16678   4.515   4.147   8.666  0.0488  0.3068 -0.1162
 1620TP3     H116679   4.496   4.236   8.696  1.5603  0.3507  0.7527
 1620TP3     H216680   4.480   4.091   8.736  3.4823  0.4065  1.7639
 1621TP3      O16681   0.703   0.127   0.023  0.2977  0.7523  0.4939
 1621TP3     H116682   0.783   0.162   0.062  0.1654  1.3346  0.2522
 1621TP3     H216683   0.664   0.074   0.092 -0.5737  2.7775  1.5864
 1622TP3      O16684   5.118   5.088   7.197 -0.5473  0.0660 -0.6973
 1622TP3     H116685   5.095   5.180   7.180  1.7518  0.9778  0.8917
 1622TP3     H216686   5.207   5.092   7.232 -0.7268 -2.7227  0.1612
 1623TP3      O16687   4.237   0.179   9.012  0.0904 -0.2621  0.0622
 1623TP3     H116688   4.179   0.215   8.945  2.6549  0.6975 -1.7523
 1623TP3     H216689   4.213   0.225   9.093 -1.1399  0.6586 -0.8265
 1624TP3      O16690   3.295   4.920   8.632 -0.6008 -0.1533  0.2033
 1624TP3     H116691   3.271   4.842   8.682 -0.4912 -0.7152 -0.6019
 1624TP3     H216692   3.391   4.914   8.624 -0.6514 -0.2457 -0.3537
 1625TP3      O16693   0.024   1.301   2.355 -0.0439  0.6810  0.2355
 1625TP3     H116694   0.036   1.281   2.262 -0.4394  0.8786  0.1373
 1625TP3     H216695   0.053   1.392   2.364 -1.6832  1.2576 -0.0634
 1626TP3      O16696   2.000   0.579   9.542  0.4189  0.0858  0.3724
 1626TP3     H116697   1.907   0.558   9.551  0.8654 -1.4414  1.5985
 1626TP3     H216698   2.013   0.588   9.447 -0.7934 -0.5523  0.1305
 1627TP3      O16699   3.511   1.987   8.865 -0.0254 -0.0492  0.2658
 1627TP3     H116700   3.543   1.911   8.914  0.6482 -0.6565 -1.0938
 1627TP3     H216701   3.422   1.962   8.839 -0.2732  0.1516  0.9096
 1628TP3      O16702   4.142   2.400   0.539 -0.1647  0.2653  0.2013
 1628TP3     H116703   4.088   2.428   0.465  0.1125 -1.2661 -0.5989
 1628TP3     H216704   4.201   2.473   0.554 -0.8506  0.9735 -0.4831
 1629TP3      O16705   3.901   5.493  10.179  0.1793 -0.1759 -0.4835
 1629TP3     H116706   3.972   5.515  10.239 -0.7802  0.7728  0.3120
 1629TP3     H216707   3.885   5.574  10.130  1.5662 -1.1801 -2.6816
 1630TP3      O16708   5.441   4.705   9.236  0.0119  0.3163 -0.0448
 1630TP3     H116709   5.493   4.779   9.207  0.3137 -0.2448 -0.9526
 1630TP3     H216710   5.442   4.710   9.332  0.3437  1.2588 -0.1010
 1631TP3      O16711   2.012   1.478   7.893  0.7789 -0.1252  0.2697
 1631TP3     H116712   2.016   1.517   7.980  1.2291  0.0777  0.1575
 1631TP3     H216713   1.921   1.491   7.865  1.1883  1.8918 -0.2478
 1632TP3      O16714   4.500   4.160   7.216 -1.0400 -0.1018 -0.5112
 1632TP3     H116715   4.578   4.139   7.166 -1.8794 -0.4010 -1.7142
 1632TP3     H216716   4.491   4.255   7.210  0.6568  0.2604  1.8019
 1633TP3      O16717   1.053   1.278  10.013  0.4627  0.4569 -0.2535
 1633TP3     H116718   1.145   1.261   9.994  1.3191 -0.3234  4.1523
 1633TP3     H216719   1.015   1.192  10.027 -0.6432  0.8641 -0.6785
 1634TP3      O16720   1.812   0.378   9.914  0.2149  0.0963  0.3062
 1634TP3     H116721   1.890   0.325   9.897  1.0203  1.4544 -0.3669
 1634TP3     H216722   1.739   0.317   9.907  1.1489 -0.9759 -0.1909
 1635TP3      O16723   0.717   5.321   8.071  0.4917 -0.4749  0.1408
 1635TP3     H116724   0.685   5.400   8.114  2.9173  0.0855  0.9669
 1635TP3     H216725   0.735   5.260   8.142  0.0382 -1.2671 -0.4031
 1636TP3      O16726   2.100   2.094   8.142 -0.1672 -0.3078 -0.4680
 1636TP3     H116727   2.124   2.018   8.089  0.0868 -0.9787  0.6037
 1636TP3     H216728   2.178   2.149   8.142 -0.8305  0.6834 -2.4795
 1637TP3      O16729   3.513   4.516   9.725  0.3096  0.2354  0.1673
 1637TP3     H116730   3.548   4.428   9.713  0.5644  0.4796 -0.9016
 1637TP3     H216731   3.440   4.522   9.663  0.6194  0.9494 -0.1363
 1638TP3      O16732   3.581   4.100  10.067 -0.1313  0.3450  0.1503
 1638TP3     H116733   3.669   4.094  10.106  0.0903 -0.9526 -0.5266
 1638TP3     H216734   3.538   4.019  10.092 -0.1064 -0.3575 -2.0070
 1639TP3      O16735   3.954   5.206   9.951  0.0545  0.2800 -0.2192
 1639TP3     H116736   3.861   5.186   9.964  0.5922 -2.1655  0.0758
 1639TP3     H216737   3.963   5.214   9.856 -0.5532  0.9972 -0.2177
 1640TP3      O16738   0.356   4.233   9.086 -0.6124  0.4777  0.5339
 1640TP3     H116739   0.322   4.303   9.031  2.0464  2.0413  0.8051
 1640TP3     H216740   0.278   4.186   9.116 -2.2235  0.8984 -2.7641
 1641TP3      O16741   5.273   2.992   7.872  0.3214  0.6269 -0.7481
 1641TP3     H116742   5.190   2.945   7.878  0.3353  0.5198 -1.3588
 1641TP3     H216743   5.337   2.926   7.845  1.0570  0.2191  1.8312
 1642TP3      O16744   5.517   1.719   7.539  0.1178 -0.1722 -0.3522
 1642TP3     H116745   5.596   1.700   7.489  0.4750  0.3160  0.0252
 1642TP3     H216746   5.524   1.812   7.560  0.9648 -0.8205  2.3570
 1643TP3      O16747   4.338   3.834   8.071 -0.2998 -0.1090  0.6571
 1643TP3     H116748   4.431   3.813   8.065 -0.2041  0.5651 -0.1512
 1643TP3     H216749   4.328   3.870   8.160  0.3689  0.6313  0.4382
 1644TP3      O16750   3.353   2.331   7.307 -0.4285 -0.1313  0.5464
 1644TP3     H116751   3.306   2.320   7.390 -1.3651 -2.9527 -0.2712
 1644TP3     H216752   3.293   2.381   7.252 -0.3814  0.5716  1.1392
 1645TP3      O16753   3.479   0.639   2.348  0.2342 -0.1440  0.0763
 1645TP3     H116754   3.428   0.561   2.328 -0.8958  0.4336  0.6033
 1645TP3     H216755   3.569   0.617   2.324  0.5590 -2.8285  3.4613
 1646TP3      O16756   3.095   2.324   9.269 -0.5851  0.5685  0.5158
 1646TP3     H116757   3.150   2.291   9.340 -0.2483 -1.1003 -0.4767
 1646TP3     H216758   3.141   2.401   9.237  0.8215 -0.3856  0.1729
 1647TP3      O16759   2.527   4.775   9.868  0.2517  0.1078 -0.2336
 1647TP3     H116760   2.446   4.723   9.860 -0.8370  1.4254  1.7584
 1647TP3     H216761   2.547   4.803   9.779  0.8702 -3.7037 -1.3846
 1648TP3      O16762   1.482   0.789   8.159 -0.1624 -0.9267  0.2526
 1648TP3     H116763   1.394   0.825   8.150  0.3471  0.4182  0.5352
 1648TP3     H216764   1.471   0.715   8.219 -1.5812 -2.6375 -2.0196
 1649TP3      O16765   3.590   0.742   8.219 -0.1845 -0.0522 -0.0853
 1649TP3     H116766   3.676   0.700   8.215 -0.4534 -0.4724 -1.9144
 1649TP3     H216767   3.602   0.827   8.177 -0.8888 -0.5421 -1.3133
 1650TP3      O16768   4.047   3.722   8.978  0.5643  0.4630  0.0289
 1650TP3     H116769   4.033   3.746   9.070  2.1313  2.2816 -0.1851
 1650TP3     H216770   4.142   3.718   8.968  0.4019  0.2243 -1.5193
 1651TP3      O16771   4.670   3.562   1.207  0.4789 -0.9559 -0.3939
 1651TP3     H116772   4.655   3.470   1.186  0.5824 -1.0489 -0.0638
 1651TP3     H216773   4.606   3.582   1.275  0.7502 -0.9018 -0.1569
 1652TP3      O16774   4.247   0.936   7.723 -0.5354  0.2510 -0.2457
 1652TP3     H116775   4.286   1.000   7.781  0.0946 -0.7308  0.4321
 1652TP3     H216776   4.319   0.906   7.667 -0.4500 -1.0777  0.5642
 1653TP3      O16777   1.676   2.739   7.840 -0.4052  0.3820  0.9064
 1653TP3     H116778   1.622   2.806   7.883  1.5225  1.5553  1.5425
 1653TP3     H216779   1.654   2.747   7.747  0.8958  2.9655  0.7707
 1654TP3      O16780   4.080   4.946   7.072  0.0127  0.6333  0.0468
 1654TP3     H116781   3.991   4.911   7.062  0.5272 -0.9475  0.8532
 1654TP3     H216782   4.067   5.031   7.113 -1.1151  0.1869  0.6676
 1655TP3      O16783   1.039   2.954   8.639  0.6936  0.0668  0.1270
 1655TP3     H116784   1.098   2.879   8.640 -1.1151 -1.3983  0.1057
 1655TP3     H216785   0.981   2.938   8.565 -2.0516 -0.4336  2.2946
 1656TP3      O16786   3.464   2.536   7.526 -0.2665 -0.0060 -0.2234
 1656TP3     H116787   3.393   2.579   7.574 -1.4571 -1.7162 -0.3962
 1656TP3     H216788   3.485   2.458   7.578  2.6518  1.3147  0.6941
 1657TP3      O16789   1.075   4.369   6.588  0.7605  0.3335  0.1707
 1657TP3     H116790   1.124   4.413   6.657  1.4872  0.0326 -0.1524
 1657TP3     H216791   1.125   4.290   6.569  0.7468  0.5978 -0.9510
 1658TP3      O16792   4.556   0.824   9.014 -0.1492 -0.9592  0.1215
 1658TP3     H116793   4.582   0.874   9.091  2.2858  0.6275 -1.6651
 1658TP3     H216794   4.462   0.842   9.004 -0.1399  0.0973  1.7690
 1659TP3      O16795   3.754   3.528   7.389 -0.1910 -0.0978 -0.5227
 1659TP3     H116796   3.706   3.565   7.463 -0.1374  0.7546 -0.9026
 1659TP3     H216797   3.748   3.595   7.321  0.8258 -0.3326 -0.8573
 1660TP3      O16798   3.885   3.927   9.549  0.0668 -0.6003  0.2719
 1660TP3     H116799   3.902   3.837   9.519 -3.4159 -1.6471  1.2168
 1660TP3     H216800   3.820   3.917   9.619  0.0853  2.6386  0.8197
 1661TP3      O16801   0.391   4.801   7.757 -0.9569 -0.8101  0.0018
 1661TP3     H116802   0.359   4.732   7.699 -1.1751  0.1154 -1.0028
 1661TP3     H216803   0.429   4.866   7.698 -0.9309  0.0180  0.9177
 1662TP3      O16804   1.584   1.625   8.012  0.3322 -0.8074 -0.0814
 1662TP3     H116805   1.516   1.586   8.066  1.0217 -2.1814 -0.1695
 1662TP3     H216806   1.539   1.650   7.931 -0.8806  2.0518  1.4095
 1663TP3      O16807   4.421   4.302   7.536 -0.0022 -0.4018  0.0970
 1663TP3     H116808   4.436   4.211   7.509  1.7040  0.0154 -0.4174
 1663TP3     H216809   4.427   4.300   7.631 -1.8108 -1.1390  0.2099
 1664TP3      O16810   4.926   4.658   9.593 -0.5025 -0.5323  0.1294
 1664TP3     H116811   4.866   4.613   9.534 -1.6112 -1.3947  1.8766
 1664TP3     H216812   4.884   4.742   9.612  1.6048  1.4215 -3.1986
 1665TP3      O16813   2.776   0.504   0.205 -0.7864  0.1576  0.0566
 1665TP3     H116814   2.848   0.551   0.164 -0.6631  1.3511  1.5913
 1665TP3     H216815   2.763   0.427   0.150 -0.0129  1.2302 -1.6538
 1666TP3      O16816   4.300   4.712   9.347 -0.4746 -0.0955  0.3249
 1666TP3     H116817   4.264   4.801   9.343 -1.0196 -0.3585 -0.8564
 1666TP3     H216818   4.376   4.715   9.289 -1.6363 -0.9110 -1.2524
 1667TP3      O16819   4.596   4.561   8.393 -0.2763  0.2384  0.0990
 1667TP3     H116820   4.661   4.631   8.391 -0.1786  0.1661  0.7991
 1667TP3     H216821   4.622   4.505   8.466 -0.3111 -0.5736 -0.4916
 1668TP3      O16822   1.660   4.022   8.038 -0.5993 -0.2176  0.2806
 1668TP3     H116823   1.644   3.997   7.947  0.2259  2.0505 -0.5168
 1668TP3     H216824   1.755   4.034   8.043 -0.9885  3.0264  0.5267
 1669TP3      O16825   4.378   5.321   7.655 -1.0032  0.2654  0.4306
 1669TP3     H116826   4.401   5.398   7.706 -0.3874  0.2817  0.1357
 1669TP3     H216827   4.395   5.346   7.565 -0.0991 -0.4499  0.3903
 1670TP3      O16828   2.927   1.951   9.758 -0.1140  0.1926 -0.5013
 1670TP3     H116829   2.877   1.967   9.838  0.1571 -0.7020 -0.1466
 1670TP3     H216830   2.860   1.936   9.691 -0.3396 -1.0951 -0.0099
 1671TP3      O16831   4.641   0.125   7.437 -0.0412 -0.8018  0.9524
 1671TP3     H116832   4.662   0.130   7.343 -1.1635  0.7146  0.7628
 1671TP3     H216833   4.590   0.204   7.454  0.8177 -0.6731  3.0289
 1672TP3      O16834   2.716   0.351   7.124  0.2555  0.2442  0.1330
 1672TP3     H116835   2.645   0.316   7.071  1.2744 -0.0249 -1.0843
 1672TP3     H216836   2.786   0.286   7.116  0.8993  0.8687  0.6879
 1673TP3      O16837   4.265   5.038   0.132 -0.1923 -0.0024  0.4111
 1673TP3     H116838   4.176   5.074   0.143 -0.7065 -1.3495  0.7186
 1673TP3     H216839   4.261   4.991   0.049  0.4602  0.5998  0.0393
 1674TP3      O16840   2.856   2.441   7.592 -0.1146 -0.4877 -0.1293
 1674TP3     H116841   2.927   2.488   7.548  1.2601 -1.2257  1.2642
 1674TP3     H216842   2.805   2.402   7.520 -0.4912  1.9551 -1.2499
 1675TP3      O16843   0.610   3.821   7.043  0.3310 -0.2523 -0.2318
 1675TP3     H116844   0.650   3.834   6.957 -2.3167 -1.9292 -1.7687
 1675TP3     H216845   0.679   3.779   7.095  1.7958  0.3251 -1.6487
 1676TP3      O16846   1.542   4.339   0.712  0.0096  0.3727 -0.5203
 1676TP3     H116847   1.531   4.330   0.617 -0.6592  1.0522 -0.5144
 1676TP3     H216848   1.481   4.409   0.736 -0.9783 -0.8469  0.6329
 1677TP3      O16849   2.947   3.207   8.129 -0.3125  0.2235 -0.1605
 1677TP3     H116850   3.017   3.266   8.157 -0.1842 -0.4742  1.0734
 1677TP3     H216851   2.866   3.254   8.148 -0.2230 -0.1789  1.3319
 1678TP3      O16852   0.300   3.319   8.699 -0.0820 -0.1217 -0.0364
 1678TP3     H116853   0.249   3.282   8.627 -0.3086 -0.6009  0.3606
 1678TP3     H216854   0.351   3.245   8.733 -3.4521 -1.1090  3.2921
 1679TP3      O16855   1.982   1.621   8.115 -0.4017  0.2957 -0.1886
 1679TP3     H116856   1.895   1.644   8.147 -0.6739  0.8356 -1.2633
 1679TP3     H216857   2.042   1.668   8.173 -0.8062 -0.6318  0.9815
 1680TP3      O16858   4.938   4.391   8.725  0.2133 -0.2791 -0.6653
 1680TP3     H116859   4.916   4.300   8.703  1.4515 -0.5154 -0.9815
 1680TP3     H216860   5.024   4.386   8.766 -0.5376  0.5633  1.0651
 1681TP3      O16861   4.081   0.226   6.740 -0.0161 -0.3469  0.0472
 1681TP3     H116862   4.021   0.294   6.709 -1.0906 -1.0910  0.4656
 1681TP3     H216863   4.023   0.156   6.773  1.0762 -1.1209  0.3450
 1682TP3      O16864   3.672   3.792   7.346 -0.1592  0.5563  0.1908
 1682TP3     H116865   3.731   3.759   7.278  0.5229  0.2038  0.9507
 1682TP3     H216866   3.601   3.834   7.297  1.0547  1.5892 -0.7203
 1683TP3      O16867   4.611   3.852   7.299  0.2618 -0.2365  0.6771
 1683TP3     H116868   4.553   3.913   7.253  0.6743  0.4129  1.0120
 1683TP3     H216869   4.645   3.795   7.230  1.4063  1.1636  0.0694
 1684TP3      O16870   3.753   4.183   0.583 -0.8048 -0.7384 -0.5436
 1684TP3     H116871   3.846   4.167   0.599 -0.3457  3.2871  1.4683
 1684TP3     H216872   3.711   4.164   0.667 -1.1591  1.4682 -0.1917
 1685TP3      O16873   3.770   4.581   7.647  0.5807  0.7682  0.3490
 1685TP3     H116874   3.747   4.616   7.733 -1.5868  1.4884 -0.4930
 1685TP3     H216875   3.720   4.635   7.585  0.3268 -1.2083 -1.2186
 1686TP3      O16876   0.655   2.464   0.398  0.0767 -0.0421 -0.4539
 1686TP3     H116877   0.579   2.423   0.358 -0.0073  0.4192 -0.7667
 1686TP3     H216878   0.681   2.532   0.336 -0.3178  0.9676  0.4767
 1687TP3      O16879   3.617   1.454   6.489 -0.0770 -0.2843  0.2056
 1687TP3     H116880   3.613   1.531   6.547  0.6418 -0.3019  0.2804
 1687TP3     H216881   3.708   1.451   6.461 -0.2784 -0.6780 -0.3909
 1688TP3      O16882   2.291   4.251   8.285 -0.3737 -0.1648  0.2282
 1688TP3     H116883   2.306   4.259   8.379 -1.0781 -0.3424  0.3578
 1688TP3     H216884   2.300   4.158   8.267  0.1026 -0.0866  0.0614
 1689TP3      O16885   4.807   2.421   7.736  0.3519  0.5759  0.3549
 1689TP3     H116886   4.718   2.412   7.704  0.5377  0.5051 -0.1519
 1689TP3     H216887   4.813   2.360   7.809 -0.3324  1.3630  1.0759
 1690TP3      O16888   4.519   1.536   1.104  0.1183  0.0523 -0.2233
 1690TP3     H116889   4.547   1.506   1.017 -0.9655 -1.6841 -0.0062
 1690TP3     H216890   4.458   1.608   1.086 -1.2476 -1.2600 -0.9857
 1691TP3      O16891   2.097   1.217   7.807 -0.1192  0.1598 -0.1758
 1691TP3     H116892   2.022   1.172   7.768 -0.3243  2.9387 -3.1037
 1691TP3     H216893   2.058   1.285   7.862  0.2530  1.0264 -0.9851
 1692TP3      O16894   1.275   1.197   7.718 -0.1102  0.4307 -0.2390
 1692TP3     H116895   1.317   1.111   7.728 -2.0507 -0.4162  0.9323
 1692TP3     H216896   1.321   1.253   7.781 -1.0844 -0.6462  1.4862
 1693TP3      O16897   3.119   4.152   0.036 -0.0898 -0.0722  0.0114
 1693TP3     H116898   3.037   4.202   0.037  0.0198  0.1191 -0.6065
 1693TP3     H216899   3.178   4.203  -0.020  0.9649  0.6077  1.6750
 1694TP3      O16900   2.833   5.205   9.528 -0.0608 -0.7534  0.5821
 1694TP3     H116901   2.846   5.222   9.622 -0.5084  1.0664  0.3449
 1694TP3     H216902   2.918   5.224   9.489 -0.2732 -0.0159  0.4540
 1695TP3      O16903   0.606   0.861   7.303 -0.0060  0.2305 -0.5483
 1695TP3     H116904   0.623   0.806   7.226 -0.3230 -0.5949 -0.0261
 1695TP3     H216905   0.687   0.911   7.314  1.5976 -2.5816  1.0146
 1696TP3      O16906   2.727   1.466   8.146  0.1792 -0.3079  0.1609
 1696TP3     H116907   2.822   1.456   8.145  0.1999 -0.1346 -1.6325
 1696TP3     H216908   2.707   1.497   8.234  1.8480  0.2293  0.3740
 1697TP3      O16909   5.302   2.006   7.047  0.3263  0.1040  0.1548
 1697TP3     H116910   5.318   1.920   7.009  0.4026  0.3250 -0.3214
 1697TP3     H216911   5.383   2.027   7.093  0.3630 -0.0138  0.1422
 1698TP3      O16912   4.270   5.074   9.698  0.4103 -0.5522 -0.2196
 1698TP3     H116913   4.357   5.037   9.712  1.8164  2.8610  0.3568
 1698TP3     H216914   4.286   5.157   9.654 -2.4366  1.0677  1.6829
 1699TP3      O16915   2.818   2.719   9.474 -0.0966  0.0358 -0.0071
 1699TP3     H116916   2.906   2.749   9.455 -0.7271  1.0681 -1.3475
 1699TP3     H216917   2.807   2.640   9.420  0.4855 -0.9210  1.2330
 1700TP3      O16918   2.215   3.274   8.042  0.5256  0.0380 -0.2342
 1700TP3     H116919   2.122   3.261   8.025  0.6952  1.6448 -2.7444
 1700TP3     H216920   2.242   3.197   8.092 -1.7441 -1.3840 -1.1382
 1701TP3      O16921   2.679   0.155   1.440 -0.2105 -0.2682  0.9287
 1701TP3     H116922   2.714   0.074   1.404 -1.4329 -0.5140  0.3016
 1701TP3     H216923   2.689   0.219   1.370  2.7799  0.6948  2.1553
 1702TP3      O16924   4.593   4.370   8.032  0.0412  0.6829 -0.1195
 1702TP3     H116925   4.590   4.406   8.120 -0.3626  0.4660 -0.0455
 1702TP3     H216926   4.671   4.410   7.993  0.5223  0.3712  0.5073
 1703TP3      O16927   2.782   1.275   0.594  0.3544  0.2146  0.7073
 1703TP3     H116928   2.852   1.234   0.543 -0.7856  0.9896 -1.5813
 1703TP3     H216929   2.723   1.203   0.616 -0.5379  0.2367 -1.4497
 1704TP3      O16930   0.725   1.468   8.468 -0.0575  0.6018  0.2354
 1704TP3     H116931   0.677   1.498   8.391  2.2838  1.1343 -1.0507
 1704TP3     H216932   0.765   1.548   8.503 -0.2627  0.1956  1.4135
 1705TP3      O16933   1.895   0.250   2.308 -0.2619  0.1834 -0.2144
 1705TP3     H116934   1.982   0.282   2.285  0.3737 -1.4501 -0.1069
 1705TP3     H216935   1.903   0.220   2.398 -0.7464 -0.6459 -0.4440
 1706TP3      O16936   4.138   1.782   7.628  0.0959  0.0808 -0.3560
 1706TP3     H116937   4.160   1.689   7.629  0.1060  0.0070 -2.9147
 1706TP3     H216938   4.124   1.801   7.535 -1.2357  2.3208  0.2834
 1707TP3      O16939   4.855   5.437  10.229 -0.0320  0.7170 -0.2167
 1707TP3     H116940   4.769   5.450  10.270 -0.9159  0.6344 -1.9670
 1707TP3     H216941   4.855   5.497  10.155  2.0478  1.7903  0.6407
 1708TP3      O16942   4.753   0.666   8.803  0.3045  0.6737 -0.2340
 1708TP3     H116943   4.781   0.683   8.713  2.1145 -0.0301  0.1709
 1708TP3     H216944   4.671   0.715   8.812  0.2410  0.9770 -2.1697
 1709TP3      O16945   1.934   3.960   8.040  0.0057 -0.4421 -0.8244
 1709TP3     H116946   1.991   3.922   7.974  1.8850 -1.6780  1.4406
 1709TP3     H216947   1.985   4.031   8.078 -0.9342  0.0705 -0.5039
 1710TP3      O16948   3.793   1.900   0.541 -0.6703  0.0296 -0.5204
 1710TP3     H116949   3.884   1.871   0.549 -0.4002  1.3566  1.3384
 1710TP3     H216950   3.797   1.974   0.481 -0.3740  0.7396  0.3700
 1711TP3      O16951   3.377   1.945  10.069 -0.1335 -0.1789 -0.1794
 1711TP3     H116952   3.323   2.023  10.076 -1.1656 -0.8118 -0.8967
 1711TP3     H216953   3.397   1.921  10.160 -0.8405  0.2079  0.0803
 1712TP3      O16954   1.702   2.793   0.480 -0.5488 -0.5619 -0.0843
 1712TP3     H116955   1.766   2.724   0.499  0.5190 -0.9755 -4.6822
 1712TP3     H216956   1.746   2.873   0.508  0.5928 -1.1800 -0.0525
 1713TP3      O16957   2.993   2.913   8.176  0.4126 -0.4217  0.5609
 1713TP3     H116958   2.989   3.009   8.178 -0.2935 -0.4572  2.2691
 1713TP3     H216959   2.930   2.888   8.108  0.3326  0.3158  0.3571
 1714TP3      O16960   0.474   4.206   8.121 -0.1010  0.1833  0.0595
 1714TP3     H116961   0.541   4.274   8.122  1.2547 -1.1360  0.7903
 1714TP3     H216962   0.477   4.171   8.032 -0.1657  0.4573 -0.0507
 1715TP3      O16963   5.377   2.918   9.435  0.6266  0.0361  0.1439
 1715TP3     H116964   5.341   2.829   9.439 -0.9255  0.6413 -0.1363
 1715TP3     H216965   5.331   2.965   9.505  2.7717  0.1760  1.5221
 1716TP3      O16966   1.170   2.698  10.086  0.5079  0.0729 -0.5164
 1716TP3     H116967   1.170   2.730  10.177  0.1146  0.8318 -0.7775
 1716TP3     H216968   1.079   2.674  10.069  0.5545  0.0578 -0.7492
 1717TP3      O16969   0.915   4.029   8.451  0.5885  1.3215  0.1667
 1717TP3     H116970   0.938   4.059   8.363  0.1066  1.2578  0.0172
 1717TP3     H216971   0.964   3.948   8.462 -1.0949  0.1082 -0.9295
 1718TP3      O16972   0.463   2.782   8.795  0.1070  0.2873 -0.0108
 1718TP3     H116973   0.553   2.766   8.824 -0.1471  1.3836  1.4342
 1718TP3     H216974   0.419   2.818   8.872 -1.7753 -0.9307 -0.4782
 1719TP3      O16975   4.353   1.686   7.305 -0.1439  0.4052  0.0336
 1719TP3     H116976   4.438   1.707   7.266 -0.4076  2.2195  0.4210
 1719TP3     H216977   4.297   1.666   7.229 -0.5724  3.6293 -0.5941
 1720TP3      O16978   5.252   0.814   7.953 -0.2374 -0.0117  0.5100
 1720TP3     H116979   5.261   0.773   8.039  0.8003  0.2068  0.5035
 1720TP3     H216980   5.183   0.879   7.965 -0.3266 -0.2053  1.0851
 1721TP3      O16981   5.042   0.268   9.946 -0.4535 -0.2088 -0.2947
 1721TP3     H116982   4.992   0.349   9.957 -0.9965 -0.3785 -1.4462
 1721TP3     H216983   5.084   0.254  10.031 -0.7293  1.0281  0.0528
 1722TP3      O16984   4.882   3.500   0.150 -0.4252 -0.1385  0.3524
 1722TP3     H116985   4.949   3.557   0.112 -1.0181  0.9004  0.8558
 1722TP3     H216986   4.814   3.497   0.083  0.3167 -1.5802 -0.3629
 1723TP3      O16987   0.068   3.066   8.723 -0.4867  0.1062 -0.1372
 1723TP3     H116988   0.141   3.004   8.726 -0.8687 -0.3588 -0.3362
 1723TP3     H216989   0.036   3.059   8.633  1.1627  2.5620 -0.9740
 1724TP3      O16990   2.200   1.886   7.835  0.0148 -0.4595 -0.4866
 1724TP3     H116991   2.268   1.822   7.857  0.3957 -0.9966 -2.9898
 1724TP3     H216992   2.234   1.969   7.867 -0.3777 -1.4335  2.6031
 1725TP3      O16993   3.031   2.623   7.834  0.4576 -0.2825  0.5197
 1725TP3     H116994   2.938   2.598   7.840  0.7652 -1.1274  1.7974
 1725TP3     H216995   3.077   2.555   7.882  1.6394  0.8255  0.9735
 1726TP3      O16996   1.950   2.198   8.370 -0.0415  0.2876  0.2517
 1726TP3     H116997   2.004   2.176   8.294  1.8610  1.0116  1.3733
 1726TP3     H216998   1.869   2.232   8.333 -0.8666 -3.3287 -1.4940
 1727TP3      O16999   0.647   4.109   8.512 -0.5700  0.1769 -0.0763
 1727TP3     H117000   0.739   4.081   8.517  0.4190  2.9688 -1.5666
 1727TP3     H217001   0.605   4.044   8.455  1.0704  0.2333 -1.3997
 1728TP3      O17002   4.750   4.818   8.119 -0.2049 -0.8075  0.2964
 1728TP3     H117003   4.758   4.722   8.115  0.4814 -0.7998  1.3573
 1728TP3     H217004   4.836   4.848   8.146 -0.4481  0.1105  0.0440
 1729TP3      O17005   2.256   3.300   9.917  0.3226 -0.8547  0.0013
 1729TP3     H117006   2.293   3.216   9.889  0.5145 -0.7785  0.0194
 1729TP3     H217007   2.243   3.291  10.011 -0.2590 -1.0884 -0.1012
 1730TP3      O17008   0.585   0.248   8.424  0.2922  0.2507  0.5232
 1730TP3     H117009   0.650   0.265   8.357  2.1607  2.1262  2.7387
 1730TP3     H217010   0.608   0.161   8.458  0.3122 -0.0150 -0.1628
 1731TP3      O17011   4.740   4.799   8.475 -0.1662  1.0533  0.5899
 1731TP3     H117012   4.707   4.856   8.405 -0.0463  0.9028  0.4085
 1731TP3     H217013   4.806   4.852   8.519  1.2022  0.4435 -0.6875
 1732TP3      O17014   5.414   5.345   9.623  0.0776  0.2161 -0.1079
 1732TP3     H117015   5.486   5.317   9.567  1.3135  1.2384  0.9562
 1732TP3     H217016   5.381   5.426   9.583  1.3488  1.2718  0.9590
 1733TP3      O17017   1.877   4.875  10.138 -0.3339 -0.0117 -0.5350
 1733TP3     H117018   1.891   4.898  10.046 -1.6432 -0.3751 -0.8291
 1733TP3     H217019   1.789   4.904  10.158  0.7708  2.2194  1.3102
 1734TP3      O17020   1.261   2.120   9.497  0.0796  0.4207  0.2744
 1734TP3     H117021   1.181   2.117   9.550 -0.2273 -0.5409 -0.2345
 1734TP3     H217022   1.237   2.172   9.420 -0.8767 -2.0965 -1.1905
 1735TP3      O17023   2.309   1.946   2.231 -0.1594 -0.0890 -0.4612
 1735TP3     H117024   2.331   1.853   2.225 -1.5489 -0.5195  0.8396
 1735TP3     H217025   2.393   1.990   2.238  0.5495 -1.1870 -1.7149
 1736TP3      O17026   3.089   1.875   9.124 -0.0019  0.3680  0.9877
 1736TP3     H117027   3.110   1.863   9.217 -1.1116  1.6313  1.4145
 1736TP3     H217028   3.117   1.964   9.105  0.3772  0.0521  0.0502
 1737TP3      O17029   2.599   5.210  10.203  0.1823  0.3054  0.2670
 1737TP3     H117030   2.606   5.143  10.135  2.2336 -0.1512  0.9133
 1737TP3     H217031   2.531   5.270  10.170 -0.1638 -0.9149 -1.3021
 1738TP3      O17032   3.356   5.066   9.401 -0.1669  0.2100  0.0791
 1738TP3     H117033   3.385   5.156   9.411 -0.8044  0.5599 -1.2153
 1738TP3     H217034   3.267   5.073   9.368 -0.2239 -0.8955 -0.0142
 1739TP3      O17035   3.674   1.784   7.889  0.8282  0.2044  0.3202
 1739TP3     H117036   3.733   1.741   7.951 -1.2471 -0.4848  1.8504
 1739TP3     H217037   3.631   1.853   7.940  0.6989  1.0882 -0.9384
 1740TP3      O17038   5.168   3.378   7.592 -0.2203 -0.0364 -0.5016
 1740TP3     H117039   5.156   3.311   7.658  0.4402 -1.6766 -2.0095
 1740TP3     H217040   5.248   3.353   7.546  0.3616  2.1055 -0.7131
 1741TP3      O17041   0.875   1.351   7.490  0.9129  0.5332 -0.1192
 1741TP3     H117042   0.846   1.396   7.411 -1.4748 -0.2573  0.2742
 1741TP3     H217043   0.811   1.376   7.556 -0.1101 -2.9432  0.2722
 1742TP3      O17044   1.084   0.772   0.822 -0.2974 -0.4516 -0.0338
 1742TP3     H117045   1.139   0.850   0.811 -2.7081  1.3839  0.3806
 1742TP3     H217046   1.019   0.779   0.751  0.2660 -2.8328 -0.8363
 1743TP3      O17047   1.151   1.367   8.339 -0.2450  0.0033  0.1282
 1743TP3     H117048   1.207   1.289   8.347  0.0342  0.3254  1.5289
 1743TP3     H217049   1.179   1.423   8.411 -1.0563  1.0232 -0.3422
 1744TP3      O17050   1.978   1.098   1.342  0.0427  0.0532 -0.1588
 1744TP3     H117051   1.985   1.004   1.330 -1.2117 -0.1699  0.8352
 1744TP3     H217052   1.913   1.125   1.277 -0.4744  0.0573  0.3556
 1745TP3      O17053   2.228   4.211   0.475  0.5703  0.2289 -0.1430
 1745TP3     H117054   2.208   4.129   0.431 -0.2087 -1.0058  2.4381
 1745TP3     H217055   2.303   4.246   0.426 -0.9472 -0.4978 -3.1106
 1746TP3      O17056   0.772   3.754   8.647 -0.2038  0.2476 -0.0371
 1746TP3     H117057   0.776   3.683   8.711  2.2680  0.0615 -0.3678
 1746TP3     H217058   0.863   3.769   8.622 -0.9933  1.3334 -2.3940
 1747TP3      O17059   3.082   5.286   0.180  0.1604 -0.0894 -0.4986
 1747TP3     H117060   3.073   5.250   0.092 -1.8820 -2.4470  0.5947
 1747TP3     H217061   2.995   5.317   0.203  0.5365  0.0155  0.8588
 1748TP3      O17062   1.363   5.502   8.886  0.7735  0.0077 -0.2145
 1748TP3     H117063   1.311   5.442   8.833 -1.4386  0.6872  1.1462
 1748TP3     H217064   1.358   5.585   8.839  1.1135 -0.0657 -0.3826
 1749TP3      O17065   3.710   4.594   0.141 -0.0663 -0.4678  0.2861
 1749TP3     H117066   3.657   4.532   0.091 -0.1969 -0.4967  0.4653
 1749TP3     H217067   3.791   4.602   0.089 -1.2716  1.5841 -1.3814
 1750TP3      O17068   3.720   0.438   7.835 -0.0857  0.2908  0.0386
 1750TP3     H117069   3.795   0.423   7.892  1.1207  0.8924 -1.3354
 1750TP3     H217070   3.716   0.533   7.825 -0.2858  0.1967 -0.8587
 1751TP3      O17071   3.450   1.441   9.679 -0.1470  0.5227  0.3569
 1751TP3     H117072   3.410   1.423   9.594 -0.4434 -0.5801  0.7272
 1751TP3     H217073   3.471   1.535   9.676 -2.4567  1.0547  0.0304
 1752TP3      O17074   1.920   0.560   9.243 -0.1012 -0.2829 -0.0919
 1752TP3     H117075   1.837   0.562   9.196 -1.7701  0.5520  2.7973
 1752TP3     H217076   1.931   0.468   9.267 -0.3367 -0.3350 -0.1763
 1753TP3      O17077   1.400   1.191   8.343  0.0165  0.4897  0.5923
 1753TP3     H117078   1.456   1.266   8.323  0.5323 -0.0592 -0.0569
 1753TP3     H217079   1.439   1.119   8.294 -0.8386 -0.0602  0.7163
 1754TP3      O17080   3.113   2.690   8.498 -0.2437 -0.2550 -0.1802
 1754TP3     H117081   3.172   2.704   8.424  0.1860 -2.1522 -0.2290
 1754TP3     H217082   3.156   2.734   8.571  0.4059 -0.2059 -0.5846
 1755TP3      O17083   4.360   1.176   7.476  0.2684 -0.1558 -0.2039
 1755TP3     H117084   4.377   1.267   7.450  0.9819 -0.3980 -0.5896
 1755TP3     H217085   4.446   1.142   7.499 -0.2388 -0.2002  1.6807
 1756TP3      O17086   0.109   3.802   0.461 -0.5831 -0.4860 -0.3648
 1756TP3     H117087   0.092   3.717   0.503 -0.1207 -0.7029 -0.6227
 1756TP3     H217088   0.189   3.789   0.412  0.6543  0.6938  1.2755
 1757TP3      O17089   1.794   5.476   8.453 -0.4856  0.4709  0.0341
 1757TP3     H117090   1.888   5.467   8.440 -0.1329  0.2213  2.4037
 1757TP3     H217091   1.778   5.571   8.450  0.0288  0.5822  0.7467
 1758TP3      O17092   0.012   1.041   8.865  0.9296 -0.4876 -0.0836
 1758TP3     H117093  -0.028   0.980   8.803  0.7964 -0.3822 -0.1034
 1758TP3     H217094   0.098   1.005   8.883  2.0805  0.9438 -2.5255
 1759TP3      O17095   1.603   3.092   9.816 -0.2373  0.4068  0.3550
 1759TP3     H117096   1.679   3.046   9.780 -1.8779 -1.9447 -0.2017
 1759TP3     H217097   1.552   3.118   9.740 -0.4553  1.1685  0.7568
 1760TP3      O17098   1.994   3.596   0.421  0.0984  0.3756 -0.1600
 1760TP3     H117099   2.015   3.505   0.396 -0.9878 -0.0742  0.5243
 1760TP3     H217100   1.900   3.594   0.438  0.3949  1.2190  1.6269
 1761TP3      O17101   3.032   1.118   8.455 -0.0070 -0.1617  0.3415
 1761TP3     H117102   3.096   1.047   8.464  0.1114 -0.0174  0.6150
 1761TP3     H217103   3.011   1.143   8.544 -0.0909  0.1132  0.2438
 1762TP3      O17104   1.387   0.761   7.553  0.4294  0.6457 -0.1320
 1762TP3     H117105   1.468   0.756   7.502  0.4418  0.5800 -0.1055
 1762TP3     H217106   1.350   0.846   7.529 -0.3769 -0.0595 -1.4494
 1763TP3      O17107   2.077   0.134   8.129  0.1849 -0.0060  0.3273
 1763TP3     H117108   2.004   0.176   8.175  0.5588 -0.8668  1.7318
 1763TP3     H217109   2.107   0.200   8.067  0.5601  1.7080  2.2726
 1764TP3      O17110   4.298   2.919   8.027  0.0071  0.2702 -0.2581
 1764TP3     H117111   4.308   2.825   8.011 -0.7727 -0.2492  2.1486
 1764TP3     H217112   4.388   2.951   8.035  0.2470 -0.5245  0.2644
 1765TP3      O17113   1.132   4.450   8.194  0.7469  0.0659  0.2048
 1765TP3     H117114   1.221   4.419   8.176  0.7802 -0.2123  0.8202
 1765TP3     H217115   1.128   4.536   8.153  1.3909  0.1989  0.4112
 1766TP3      O17116   2.152   4.581  10.208  0.2091  0.0907  0.0471
 1766TP3     H117117   2.088   4.510  10.200 -0.4541  0.8542 -1.6449
 1766TP3     H217118   2.164   4.591  10.302 -1.2694 -0.8689  0.3582
 1767TP3      O17119   2.305   5.451   0.060 -0.6138 -0.4556 -0.1409
 1767TP3     H117120   2.278   5.366   0.026 -0.1967 -0.6991  0.1223
 1767TP3     H217121   2.234   5.478   0.117  0.4830 -1.9624  2.0250
 1768TP3      O17122   2.945   1.715   1.205 -0.2034  0.2229 -0.4390
 1768TP3     H117123   2.916   1.720   1.296  1.1917  0.6771 -0.0004
 1768TP3     H217124   2.883   1.769   1.157  0.1385  1.5265  0.5448
 1769TP3      O17125   1.908   1.497  10.003 -0.6127  0.5748 -0.8420
 1769TP3     H117126   1.931   1.406   9.980  0.6153 -0.1749  3.0350
 1769TP3     H217127   1.819   1.490  10.038 -0.9082  1.0453 -1.5003
 1770TP3      O17128   3.546   3.654   8.826  1.3447 -0.9007  0.1677
 1770TP3     H117129   3.579   3.660   8.736 -0.1254  2.0272 -0.2198
 1770TP3     H217130   3.525   3.561   8.837 -1.7199 -0.7972 -3.7448
 1771TP3      O17131   3.255   0.999   0.332  0.1753  0.0603  0.1107
 1771TP3     H117132   3.197   1.003   0.256  2.5300  0.2472 -1.7056
 1771TP3     H217133   3.234   0.915   0.373 -1.7532  0.3703 -0.1784
 1772TP3      O17134   4.355   2.916   1.725  0.3395 -0.3263  0.0259
 1772TP3     H117135   4.361   2.822   1.741  0.0794 -0.4131 -0.3686
 1772TP3     H217136   4.263   2.938   1.741  0.3065 -0.2216 -0.2826
 1773TP3      O17137   1.363   4.209   0.044 -0.1540 -0.0115 -0.4903
 1773TP3     H117138   1.351   4.225  -0.049  1.0330  1.5995 -0.4044
 1773TP3     H217139   1.274   4.206   0.080 -0.5968  3.7150 -1.0252
 1774TP3      O17140   3.613   0.615   9.352  0.5521 -0.1356  0.2616
 1774TP3     H117141   3.680   0.555   9.383 -0.6995 -2.5059 -1.3951
 1774TP3     H217142   3.584   0.661   9.430  1.9664 -1.2889  1.4973
 1775TP3      O17143   3.586   1.549   8.936  0.0419  0.2733  0.3833
 1775TP3     H117144   3.614   1.640   8.938  0.3197  0.3082 -2.9441
 1775TP3     H217145   3.661   1.500   8.971  0.3983  1.1739  0.8947
 1776TP3      O17146   4.107   0.456   0.347  0.6539 -0.0558 -0.0936
 1776TP3     H117147   4.039   0.402   0.386  1.0265 -0.8708 -0.5655
 1776TP3     H217148   4.059   0.521   0.295  0.2424 -0.6944 -0.5138
 1777TP3      O17149   0.576   5.381   9.803  0.4432 -1.0600  0.1113
 1777TP3     H117150   0.639   5.454   9.798 -1.3685  0.5332 -0.0936
 1777TP3     H217151   0.609   5.317   9.741  1.2569  0.2429 -0.8428
 1778TP3      O17152   2.432   0.580   9.117  0.0409 -0.3340  0.3095
 1778TP3     H117153   2.339   0.603   9.116  0.1319  0.0088 -0.3169
 1778TP3     H217154   2.467   0.617   9.036  1.0346  0.8041  1.2372
 1779TP3      O17155   0.653   1.104   8.325  0.4391  0.5025  0.0308
 1779TP3     H117156   0.683   1.016   8.347  0.6471  0.2195 -1.3293
 1779TP3     H217157   0.733   1.151   8.298  0.2055  0.8580 -0.0482
 1780TP3      O17158   2.264   1.176   1.636  0.0239 -0.4689 -0.3005
 1780TP3     H117159   2.276   1.152   1.544 -0.6560 -2.2103  0.0445
 1780TP3     H217160   2.297   1.265   1.642 -0.5088 -0.1026 -2.3764
 1781TP3      O17161   4.602   3.938   9.177 -0.3634  0.0836  0.1996
 1781TP3     H117162   4.532   4.001   9.196  0.6565  0.8704  1.4493
 1781TP3     H217163   4.681   3.991   9.172  0.1159 -0.7766 -1.4408
 1782TP3      O17164   3.574   1.666   9.713 -0.2826  0.2237  0.0518
 1782TP3     H117165   3.591   1.758   9.737 -1.2199  0.1644  1.0087
 1782TP3     H217166   3.534   1.671   9.626  2.0955  0.5279 -1.0639
 1783TP3      O17167   4.600   0.574   0.941 -0.3854  0.0728 -0.2114
 1783TP3     H117168   4.581   0.650   0.886 -1.0958 -0.9500 -1.4352
 1783TP3     H217169   4.519   0.522   0.937 -0.9719  0.6490  2.9716
 1784TP3      O17170   3.757   2.304  10.123  0.3601  0.1194  0.0068
 1784TP3     H117171   3.670   2.299  10.083  0.2464  0.5518  0.2016
 1784TP3     H217172   3.758   2.388  10.168  2.1793  1.8380 -3.0418
 1785TP3      O17173   5.278   3.038   8.260 -0.8870  0.2795  0.0038
 1785TP3     H117174   5.189   3.068   8.280 -0.7030  1.2650 -0.6215
 1785TP3     H217175   5.266   2.967   8.197 -1.3241 -0.9688  1.4598
 1786TP3      O17176   3.554   4.651   0.954  0.1584 -0.2460  0.0643
 1786TP3     H117177   3.621   4.661   1.021 -0.6435 -2.3522  1.2593
 1786TP3     H217178   3.491   4.721   0.972  0.6704  0.0668  0.6369
 1787TP3      O17179   5.242   3.649   8.880 -0.1758 -0.3880  0.1209
 1787TP3     H117180   5.184   3.642   8.804  0.2359 -0.9765 -0.1448
 1787TP3     H217181   5.194   3.608   8.951  0.2142 -1.5491 -0.2770
 1788TP3      O17182   2.958   3.067   9.471  0.0333 -0.2785  0.2744
 1788TP3     H117183   2.999   3.002   9.414 -1.4371  0.0972 -1.2293
 1788TP3     H217184   2.916   3.128   9.412  0.9085  1.7628  1.6831
 1789TP3      O17185   5.315   0.774   9.101  0.1173 -0.7793  0.3191
 1789TP3     H117186   5.316   0.727   9.017 -0.4434 -1.5097  0.7145
 1789TP3     H217187   5.270   0.714   9.161 -2.1506  0.9904  0.4093
 1790TP3      O17188   4.133   0.181   8.411 -0.3098 -0.0384 -0.2375
 1790TP3     H117189   4.156   0.211   8.322 -1.2099  0.0357 -0.4443
 1790TP3     H217190   4.045   0.214   8.425 -0.8078 -1.4859  0.0431
 1791TP3      O17191   3.602   2.367   7.856  0.3055 -0.3380  0.4340
 1791TP3     H117192   3.638   2.337   7.939 -0.0814  1.6704  1.3723
 1791TP3     H217193   3.666   2.430   7.824  0.5637 -1.2813 -0.9145
 1792TP3      O17194   4.633   1.126   9.480  0.1983 -0.0230 -0.3411
 1792TP3     H117195   4.546   1.135   9.519  0.2427  2.4041 -0.7342
 1792TP3     H217196   4.692   1.122   9.556 -0.0351  0.9700 -0.1027
 1793TP3      O17197   1.582   1.137   0.109 -0.0680 -0.2674 -0.2476
 1793TP3     H117198   1.628   1.150   0.026 -1.3418 -0.2316 -0.9512
 1793TP3     H217199   1.559   1.225   0.138 -0.1296 -0.3213 -0.1332
 1794TP3      O17200   3.200   1.397   7.773 -0.1005  0.8513  0.8203
 1794TP3     H117201   3.213   1.317   7.722 -0.2390  0.9319  0.6585
 1794TP3     H217202   3.140   1.372   7.843 -0.8208  1.0253  0.2678
 1795TP3      O17203   1.280   2.433   9.409  0.1367 -0.6260 -0.4712
 1795TP3     H117204   1.207   2.459   9.353  2.6432  0.8903 -3.1403
 1795TP3     H217205   1.281   2.499   9.479  0.0735  0.4428 -1.4621
 1796TP3      O17206   3.877   2.212   7.668  0.0006  0.3071  0.2953
 1796TP3     H117207   3.867   2.130   7.619  1.8705  1.5449 -2.2319
 1796TP3     H217208   3.889   2.183   7.759  0.3090 -2.2145 -0.4922
 1797TP3      O17209   1.303   3.924   8.748 -0.0789  0.4372 -0.1188
 1797TP3     H117210   1.369   3.892   8.809 -1.6031  2.6777  2.8837
 1797TP3     H217211   1.337   4.008   8.717 -0.2247  0.2574 -0.7767
 1798TP3      O17212   2.642   2.129   0.746  0.0901 -0.1139 -0.2544
 1798TP3     H117213   2.602   2.186   0.680 -0.3796 -0.0455  0.0893
 1798TP3     H217214   2.731   2.116   0.715 -0.6776 -1.6188 -1.9139
 1799TP3      O17215   2.530   0.630   0.210  0.7574 -0.0715  0.3111
 1799TP3     H117216   2.615   0.591   0.231  0.6938  0.0099  0.7207
 1799TP3     H217217   2.495   0.659   0.294 -0.5343 -1.8163  0.4192
 1800TP3      O17218   4.922   1.131   9.124 -0.8636  0.2605 -0.1314
 1800TP3     H117219   4.917   1.146   9.219  0.3770  1.3056 -0.2027
 1800TP3     H217220   4.845   1.176   9.089 -1.6780 -0.6787  0.4320
 1801TP3      O17221   3.393   3.317   8.778  0.5202 -0.2519 -0.5131
 1801TP3     H117222   3.451   3.331   8.852  1.1097 -1.9835 -0.6201
 1801TP3     H217223   3.349   3.234   8.797 -1.5555  0.7566 -0.6821
 1802TP3      O17224   0.368   1.422   7.353  0.2034 -0.0745  0.4140
 1802TP3     H117225   0.420   1.501   7.340  0.5497 -0.3946 -0.1847
 1802TP3     H217226   0.278   1.450   7.339  0.5033 -0.2713 -2.2773
 1803TP3      O17227   0.420   1.924   7.784  0.0705 -0.0550 -0.3297
 1803TP3     H117228   0.497   1.870   7.767 -0.5937 -1.0119 -0.3230
 1803TP3     H217229   0.446   1.981   7.856  0.1401 -1.6705  0.9343
 1804TP3      O17230   2.937   4.881   7.700 -0.2017 -1.4905 -0.1011
 1804TP3     H117231   2.980   4.945   7.756  1.1087 -1.1615 -1.4604
 1804TP3     H217232   2.969   4.900   7.612 -2.7974 -1.5139 -1.1014
 1805TP3      O17233   2.454   2.184   0.195  0.0792  0.1913  0.1458
 1805TP3     H117234   2.543   2.160   0.219  0.2217  1.4883  1.0378
 1805TP3     H217235   2.439   2.266   0.242 -1.1513  0.6245 -0.9739
 1806TP3      O17236   5.405   5.077   0.035  0.1040  0.4998  0.5980
 1806TP3     H117237   5.423   5.148  -0.027 -0.1770  1.7860  1.9666
 1806TP3     H217238   5.453   5.101   0.114 -1.7861  0.3004  1.8419
 1807TP3      O17239   5.482   1.551   9.543 -0.1935 -0.4609 -0.1013
 1807TP3     H117240   5.397   1.514   9.521 -0.3989  0.8056 -1.5468
 1807TP3     H217241   5.503   1.607   9.469  0.8729  0.9677  1.2496
 1808TP3      O17242   3.417   2.299   1.999 -0.1645 -0.0942 -0.3471
 1808TP3     H117243   3.479   2.356   1.953  0.7349 -0.6040  0.2309
 1808TP3     H217244   3.452   2.211   1.988  0.7269 -0.1173  2.3258
 1809TP3      O17245   1.322   3.066   0.101  0.0543 -0.2040  0.0419
 1809TP3     H117246   1.336   3.153   0.138  0.1899 -0.7926  1.3989
 1809TP3     H217247   1.297   3.083   0.010  2.2407  1.1691 -0.3402
 1810TP3      O17248   4.701   2.502   8.063 -0.2078 -0.0570  0.2939
 1810TP3     H117249   4.749   2.434   8.110  0.6171 -0.1414 -0.6722
 1810TP3     H217250   4.682   2.568   8.130  1.3434  0.0338  0.6508
 1811TP3      O17251   4.635   3.362   9.730  0.5817 -0.1395  0.4296
 1811TP3     H117252   4.722   3.401   9.737  0.2801  0.6210 -0.0836
 1811TP3     H217253   4.619   3.325   9.817  1.1200  0.3363  0.7390
 1812TP3      O17254   4.555   2.093   8.668  0.7714  0.5248  0.2540
 1812TP3     H117255   4.574   2.003   8.643  0.4704  0.8302 -1.1303
 1812TP3     H217256   4.467   2.110   8.634  0.3157  0.9519  1.6023
 1813TP3      O17257   3.318   2.676   9.484 -0.4182 -0.1070  0.7913
 1813TP3     H117258   3.330   2.689   9.578 -3.6160  2.7997  0.8688
 1813TP3     H217259   3.250   2.609   9.478 -0.1029 -0.4076  0.5302
 1814TP3      O17260   3.918   0.240   0.403 -0.3597 -0.1522  0.1887
 1814TP3     H117261   3.838   0.238   0.456  0.2873 -1.3067  1.1292
 1814TP3     H217262   3.896   0.187   0.326 -0.8024  0.2816  0.0148
 1815TP3      O17263   2.854   0.167   0.957  0.3853  0.2757  0.0697
 1815TP3     H117264   2.806   0.183   0.876  0.2632 -0.9666 -0.1244
 1815TP3     H217265   2.946   0.179   0.933  0.4854 -1.7850 -0.7252
 1816TP3      O17266   1.100   2.513   9.221 -0.2774 -0.0241 -0.1613
 1816TP3     H117267   1.115   2.571   9.147 -2.0115  1.4542  0.6174
 1816TP3     H217268   1.026   2.458   9.195 -0.4384  0.0199  0.1986
 1817TP3      O17269   2.936   3.203   7.868 -0.2644 -0.3073 -0.0358
 1817TP3     H117270   2.931   3.215   7.963  0.8815 -1.6668  0.2178
 1817TP3     H217271   2.846   3.183   7.841 -0.4572 -0.7104  0.8881
 1818TP3      O17272   0.148   1.004   7.673  0.5954  0.6048 -0.4081
 1818TP3     H117273   0.082   0.976   7.609  0.4198  0.0417  0.0111
 1818TP3     H217274   0.190   1.080   7.633 -0.0816  0.7623 -0.8307
 1819TP3      O17275   2.321   4.822   8.067  0.2069  0.4272 -0.0103
 1819TP3     H117276   2.352   4.807   7.978 -0.6492  1.3016 -0.4570
 1819TP3     H217277   2.226   4.833   8.059 -0.3228 -2.5379  1.3829
 1820TP3      O17278   4.335   4.332   0.056  0.4662  0.4039 -0.6800
 1820TP3     H117279   4.400   4.400   0.038 -0.2916  1.3472  0.0691
 1820TP3     H217280   4.302   4.307  -0.030 -0.7952  2.5309 -0.8540
 1821TP3      O17281   0.383   1.739   8.058  0.4354 -1.0073  0.1268
 1821TP3     H117282   0.353   1.763   8.146 -1.6280  0.3663 -0.9087
 1821TP3     H217283   0.455   1.799   8.041 -1.4221  1.1270 -0.4538
 1822TP3      O17284   3.804   2.133   7.236 -0.5170 -0.3319 -0.5876
 1822TP3     H117285   3.717   2.171   7.233 -0.6068 -0.5579 -0.9198
 1822TP3     H217286   3.793   2.045   7.200 -0.2595 -0.5645 -0.0949
 1823TP3      O17287   2.752   5.103   7.743  0.4270 -0.1186 -0.0587
 1823TP3     H117288   2.796   5.019   7.728 -1.9310 -1.2907 -0.8373
 1823TP3     H217289   2.748   5.144   7.656  1.4913  0.7573  0.3044
 1824TP3      O17290   1.351   5.474   0.480  0.0717  0.1929  0.3037
 1824TP3     H117291   1.370   5.380   0.471 -0.2681  0.1032  0.4946
 1824TP3     H217292   1.432   5.511   0.516 -0.0334 -0.1520  0.9140
 1825TP3      O17293   0.919   2.453   6.774 -0.1072 -0.3159 -0.5438
 1825TP3     H117294   0.922   2.504   6.855 -1.6337 -0.9850 -0.0339
 1825TP3     H217295   0.947   2.365   6.800 -0.6373 -0.5426 -0.7209
 1826TP3      O17296   3.576   2.423   8.263  0.1701 -0.3496 -0.3759
 1826TP3     H117297   3.584   2.353   8.328 -0.0304  0.6862  0.7928
 1826TP3     H217298   3.649   2.409   8.203  0.1320 -1.5532 -0.1455
 1827TP3      O17299   3.791   3.487   8.730 -0.4992 -0.5568  0.4002
 1827TP3     H117300   3.735   3.442   8.666 -0.3323 -1.5044  0.9087
 1827TP3     H217301   3.845   3.417   8.767  0.2619  0.1893  0.6883
 1828TP3      O17302   1.042   5.055   9.669  0.1285  0.1519  0.0161
 1828TP3     H117303   1.035   5.097   9.584  1.8107 -0.0058 -0.2292
 1828TP3     H217304   1.110   4.989   9.657  0.5016  0.2403  1.5104
 1829TP3      O17305   2.134   1.201   8.911 -0.0791 -0.3412  0.0428
 1829TP3     H117306   2.048   1.189   8.952 -0.0683 -2.4364 -0.5253
 1829TP3     H217307   2.194   1.212   8.985 -0.6847  0.1677  0.4670
 1830TP3      O17308   1.551   2.684   8.242  0.0097 -0.0557  0.3012
 1830TP3     H117309   1.541   2.779   8.244  1.2313  0.0612  1.4756
 1830TP3     H217310   1.591   2.662   8.326 -0.6748 -1.6647  0.2303
 1831TP3      O17311   4.742   0.286   9.079 -0.5092  0.3373  0.2469
 1831TP3     H117312   4.650   0.302   9.102 -0.0890  0.1982  2.1052
 1831TP3     H217313   4.791   0.350   9.130  0.3874  0.9147 -1.3226
 1832TP3      O17314   0.670   1.088   1.195  0.4376  0.0919  0.2606
 1832TP3     H117315   0.648   1.030   1.268  0.6118 -1.1718 -0.6758
 1832TP3     H217316   0.762   1.069   1.176  0.7510  1.3001  0.4851
 1833TP3      O17317   4.641   5.421   0.091  0.1483 -0.1166 -0.0755
 1833TP3     H117318   4.717   5.381   0.132  0.7206  1.3214  0.2888
 1833TP3     H217319   4.568   5.398   0.148  0.9536  1.9782  1.8532
 1834TP3      O17320   5.172   2.751   9.786 -0.2938 -0.7698 -0.1904
 1834TP3     H117321   5.205   2.802   9.712 -0.1158  1.6254  1.4633
 1834TP3     H217322   5.250   2.716   9.828 -0.1343  0.6775  0.7738
 1835TP3      O17323   0.547   2.123   7.991 -0.7338 -0.0240 -0.4341
 1835TP3     H117324   0.559   2.212   7.959 -0.5865  0.1517  0.1201
 1835TP3     H217325   0.624   2.105   8.044 -1.5074  0.0727  0.7242
 1836TP3      O17326   5.405   4.299   6.967  0.2077  0.0770 -0.4156
 1836TP3     H117327   5.323   4.250   6.965  0.7041 -0.7192 -1.2035
 1836TP3     H217328   5.464   4.245   7.020  0.2413  0.6388  0.1317
 1837TP3      O17329   2.022   3.083   1.265 -0.3722  0.2256 -0.6694
 1837TP3     H117330   2.063   3.164   1.297  1.2268 -0.3358 -1.2128
 1837TP3     H217331   1.994   3.038   1.344  1.8265 -0.2568 -0.1195
 1838TP3      O17332   3.411   4.563   1.925  0.0431 -0.5097  0.2938
 1838TP3     H117333   3.465   4.485   1.933  0.4415 -0.3067 -0.3943
 1838TP3     H217334   3.343   4.552   1.992  1.3348 -0.4340  1.6312
 1839TP3      O17335   1.592   0.210   9.960 -0.1285 -0.3293 -0.0300
 1839TP3     H117336   1.602   0.179  10.050 -0.5182  0.1550  0.1846
 1839TP3     H217337   1.503   0.186   9.935 -0.5933  0.9978  0.3003
 1840TP3      O17338   4.220   4.279   9.334 -0.0844 -0.3757 -0.4948
 1840TP3     H117339   4.173   4.358   9.360  2.7856  1.1690  0.0887
 1840TP3     H217340   4.249   4.296   9.245 -0.4004 -1.2475 -0.7745
 1841TP3      O17341   0.539   0.858   7.958  0.8562  0.2573 -0.2249
 1841TP3     H117342   0.602   0.900   8.016  0.8786  1.8225 -1.3501
 1841TP3     H217343   0.477   0.927   7.935 -0.9012 -1.0887  0.3252
 1842TP3      O17344   2.139   4.500   8.570  0.3013 -0.2866 -0.2100
 1842TP3     H117345   2.150   4.518   8.663  1.0911 -2.7856  0.2011
 1842TP3     H217346   2.216   4.449   8.545 -0.2096 -0.2054 -2.0929
 1843TP3      O17347   2.747   1.312   9.084 -0.0330  0.5139 -0.0021
 1843TP3     H117348   2.687   1.387   9.089  1.6774  1.9491 -0.6032
 1843TP3     H217349   2.821   1.337   9.139  0.9162 -0.4043 -0.8462
 1844TP3      O17350   3.338   5.494   0.143  0.1469  0.4127 -0.0516
 1844TP3     H117351   3.373   5.457   0.062  0.1164  0.0646  0.0907
 1844TP3     H217352   3.293   5.421   0.185  1.7109  0.1128  1.1441
 1845TP3      O17353   3.567   2.440   8.715 -0.2881  0.0625  0.3970
 1845TP3     H117354   3.494   2.500   8.726 -1.1107 -1.1416  1.5910
 1845TP3     H217355   3.543   2.386   8.640  0.3913  1.1176 -0.5939
 1846TP3      O17356   0.482   3.389   2.659 -0.0612 -0.2400 -0.2526
 1846TP3     H117357   0.430   3.309   2.650  0.2205 -0.4346 -0.1207
 1846TP3     H217358   0.573   3.360   2.657  0.0359 -0.0232  0.7266
 1847TP3      O17359   0.574   3.508   9.503 -0.0148 -0.2580  0.2476
 1847TP3     H117360   0.589   3.599   9.526 -0.3470 -0.0009 -0.5435
 1847TP3     H217361   0.483   3.505   9.476  0.0605 -0.7842  0.0498
 1848TP3      O17362   0.056   4.697   8.569 -0.5857  0.1591 -0.3327
 1848TP3     H117363   0.025   4.613   8.535  0.1009 -0.2383  0.0107
 1848TP3     H217364   0.121   4.727   8.505  0.9127 -0.7255  0.7562
 1849TP3      O17365   4.850   1.820   8.711 -0.7032  0.1542 -0.0577
 1849TP3     H117366   4.782   1.806   8.645 -0.8018 -0.3108  0.1421
 1849TP3     H217367   4.802   1.830   8.793 -0.5194 -0.3879  0.1171
 1850TP3      O17368   3.785   0.657   0.325  0.1119 -0.2982 -0.2040
 1850TP3     H117369   3.814   0.748   0.316 -1.2582  0.0990 -0.8700
 1850TP3     H217370   3.791   0.638   0.418  0.9607  0.2846 -0.1387
 1851TP3      O17371   4.410   4.012   1.193 -0.4162  0.4709  0.6233
 1851TP3     H117372   4.334   4.061   1.224 -1.9068 -1.1349 -0.3766
 1851TP3     H217373   4.473   4.079   1.165 -1.3392  1.8157  1.7133
 1852TP3      O17374   2.084   2.985   7.862 -0.1228  0.3300 -0.4923
 1852TP3     H117375   2.166   3.001   7.816 -0.7952  1.5180 -1.3097
 1852TP3     H217376   2.054   2.900   7.828 -0.0551  0.6719 -1.4260
 1853TP3      O17377   5.412   3.528   1.463 -0.0067 -0.0415  0.1905
 1853TP3     H117378   5.473   3.599   1.480  0.7732 -0.6040 -0.2058
 1853TP3     H217379   5.334   3.571   1.429 -0.1558  0.7569  1.5149
 1854TP3      O17380   3.222   0.365   8.573 -0.2296  0.5315  0.0809
 1854TP3     H117381   3.200   0.367   8.479 -3.1297 -2.2707  0.5785
 1854TP3     H217382   3.317   0.371   8.576 -0.0600  0.1897 -3.0901
 1855TP3      O17383   5.273   5.344   7.382  0.0139  0.6213  1.0429
 1855TP3     H117384   5.351   5.290   7.376 -0.0963  0.3923  1.5825
 1855TP3     H217385   5.280   5.406   7.310 -0.3664 -0.7613 -0.1893
 1856TP3      O17386   3.176   1.691   7.847  0.0178 -0.2659 -0.1913
 1856TP3     H117387   3.162   1.597   7.839  0.5014 -0.3243 -0.3503
 1856TP3     H217388   3.215   1.716   7.763 -1.8360  0.3934 -0.8942
 1857TP3      O17389   4.854   2.191   0.549  0.1615  0.4779  0.0135
 1857TP3     H117390   4.936   2.172   0.504  0.0526 -0.6194  0.2529
 1857TP3     H217391   4.787   2.177   0.482 -0.3394 -5.1552  1.4232
 1858TP3      O17392   4.024   3.271   8.696 -0.1362 -0.2200 -0.4015
 1858TP3     H117393   4.064   3.214   8.762 -1.4869  0.9724  1.5058
 1858TP3     H217394   4.089   3.340   8.682  0.3534 -0.7313 -0.6715
 1859TP3      O17395   0.885   0.481   8.819  0.1659  0.2738 -0.0029
 1859TP3     H117396   0.832   0.405   8.795 -0.1792  0.6480 -0.4333
 1859TP3     H217397   0.952   0.446   8.877  0.6145 -0.5461 -0.9952
 1860TP3      O17398   4.472   3.664   0.049 -0.5491 -0.5601  0.1974
 1860TP3     H117399   4.469   3.666   0.145  0.6094  1.2015  0.2053
 1860TP3     H217400   4.501   3.751   0.024 -3.2250 -0.2028 -1.8904
 1861TP3      O17401   5.129   3.210   9.785  0.0829 -0.2401  0.0385
 1861TP3     H117402   5.064   3.174   9.724  1.5425 -0.6276 -1.3344
 1861TP3     H217403   5.077   3.249   9.855 -1.7092  1.7661 -2.3038
 1862TP3      O17404   1.866   0.266   0.164  0.0770  0.0633 -0.2821
 1862TP3     H117405   1.802   0.323   0.206 -0.7580 -0.3658 -0.9700
 1862TP3     H217406   1.941   0.323   0.147  0.3083  0.3291  1.4812
 1863TP3      O17407   1.535   3.274   8.757  0.5977  0.6646  0.1276
 1863TP3     H117408   1.528   3.229   8.842  1.7537 -1.4568 -0.8719
 1863TP3     H217409   1.603   3.340   8.771  1.3540 -0.2083  0.6349
 1864TP3      O17410   4.078   5.287   1.458  0.3379  0.1578  0.1757
 1864TP3     H117411   4.117   5.371   1.432 -1.1053  0.5668 -0.7797
 1864TP3     H217412   4.054   5.299   1.550 -1.9616  1.6532 -0.5706
 1865TP3      O17413   1.609   2.960   0.261 -0.6782  0.2793 -0.0345
 1865TP3     H117414   1.652   2.896   0.317 -0.0953  0.1640 -0.6072
 1865TP3     H217415   1.565   3.019   0.321 -2.2706 -1.3841  0.4803
 1866TP3      O17416   3.224   5.478   1.107 -0.5849  0.6263 -0.2396
 1866TP3     H117417   3.130   5.468   1.121 -0.5615  0.1817 -0.4050
 1866TP3     H217418   3.257   5.389   1.099  0.0296  0.7399  0.9915
 1867TP3      O17419   1.370   3.759   2.300  0.0906 -0.0458 -0.0192
 1867TP3     H117420   1.461   3.731   2.290  0.0700 -0.1972  0.2306
 1867TP3     H217421   1.336   3.760   2.211 -0.0911 -1.4067  0.0222
 1868TP3      O17422   1.137   2.543   7.970 -0.2384  0.1180  0.4234
 1868TP3     H117423   1.219   2.593   7.977 -0.4356  0.4020  0.7428
 1868TP3     H217424   1.073   2.608   7.941  0.0202 -0.4874 -1.5705
 1869TP3      O17425   3.822   1.867   9.766 -0.1169  1.0509 -0.1824
 1869TP3     H117426   3.879   1.942   9.749 -0.0445  0.8607 -0.7736
 1869TP3     H217427   3.736   1.907   9.780  0.0006  1.2781 -0.1033
 1870TP3      O17428   2.902   0.652   8.598  0.1043  0.2998 -0.3319
 1870TP3     H117429   2.837   0.694   8.654  0.3073 -0.7902  0.7279
 1870TP3     H217430   2.986   0.677   8.636  0.3066  1.4821 -1.5392
 1871TP3      O17431   4.591   1.798   7.489 -0.3438  0.1422 -0.2009
 1871TP3     H117432   4.559   1.766   7.405  0.6868  0.3322 -0.6686
 1871TP3     H217433   4.684   1.778   7.489 -0.1408  1.0301  0.4794
 1872TP3      O17434   3.904   3.401   9.491  0.4006  0.1065 -0.0256
 1872TP3     H117435   3.976   3.390   9.553 -0.4184  0.7756  1.0580
 1872TP3     H217436   3.871   3.312   9.476 -0.4121  0.0883  1.7411
 1873TP3      O17437   3.712   1.754   1.211  0.6107  1.1985  0.4240
 1873TP3     H117438   3.781   1.722   1.153  1.7529  1.9803  1.3144
 1873TP3     H217439   3.760   1.794   1.284 -0.7909  2.3431  0.7326
 1874TP3      O17440   0.213   4.972   7.584  0.1478  0.2441 -0.1988
 1874TP3     H117441   0.181   4.923   7.508  0.5315 -3.6662  2.0444
 1874TP3     H217442   0.300   5.002   7.559  1.9041 -4.3324 -0.0735
 1875TP3      O17443   1.679   1.563  10.231 -0.0264 -0.1529 -0.2676
 1875TP3     H117444   1.770   1.579  10.255 -0.1900 -0.8567  0.8704
 1875TP3     H217445   1.635   1.647  10.247  0.6316  0.5304 -1.9396
 1876TP3      O17446   1.846   5.259   8.928  0.3785  0.6973  0.2588
 1876TP3     H117447   1.893   5.295   8.853  0.7587 -0.0022  0.1511
 1876TP3     H217448   1.890   5.175   8.945  0.4578  0.9610  1.4110
 1877TP3      O17449   1.622   1.058   9.116 -0.3900  0.4445  0.4541
 1877TP3     H117450   1.597   1.093   9.031  0.6865  0.0584 -0.0341
 1877TP3     H217451   1.585   0.969   9.117  0.3705  0.1121 -0.0011
 1878TP3      O17452   3.541   3.273  10.299  0.0891 -0.2936 -0.0665
 1878TP3     H117453   3.604   3.335  10.336 -2.2001  3.5670 -2.3062
 1878TP3     H217454   3.559   3.275  10.205 -1.8178 -0.9509 -0.4636
 1879TP3      O17455   0.272   2.761   0.546 -0.0217 -0.1216  0.1113
 1879TP3     H117456   0.268   2.842   0.598  0.5348 -0.1452  0.1914
 1879TP3     H217457   0.348   2.773   0.489 -0.1581 -0.4360 -0.1385
 1880TP3      O17458   1.826   4.395   8.273  0.0968  0.7702 -0.1879
 1880TP3     H117459   1.758   4.462   8.265 -0.7029 -0.2869 -2.8857
 1880TP3     H217460   1.869   4.394   8.187  2.4541  0.2748  0.9516
 1881TP3      O17461   0.659   1.957   8.478 -0.7888 -0.2455  0.6266
 1881TP3     H117462   0.604   1.892   8.523 -0.4495 -0.1230  1.2264
 1881TP3     H217463   0.642   1.942   8.385 -1.7819 -0.2585  0.8004
 1882TP3      O17464   1.936   4.996   8.972 -0.8484  0.6251 -0.3276
 1882TP3     H117465   2.012   5.028   8.923 -0.2138 -0.3484  0.0149
 1882TP3     H217466   1.973   4.957   9.051 -1.7644  0.8825  0.2399
 1883TP3      O17467   1.696   2.106   2.693 -0.5726  0.2530 -0.3140
 1883TP3     H117468   1.644   2.085   2.615 -2.5620 -1.3679  1.3757
 1883TP3     H217469   1.636   2.154   2.750  0.7633  1.1585  0.3581
 1884TP3      O17470   4.109   0.813   2.487 -0.1007 -0.3182  0.1472
 1884TP3     H117471   4.034   0.813   2.547 -0.9020 -1.2760 -0.8346
 1884TP3     H217472   4.149   0.899   2.499 -1.6165  0.3730  0.3607
 1885TP3      O17473   3.044   4.925   0.926  0.0165  0.1746 -0.0425
 1885TP3     H117474   2.980   4.904   0.994 -0.8782  0.6155 -0.7403
 1885TP3     H217475   3.065   5.017   0.940  0.6471 -0.0269  0.3139
 1886TP3      O17476   1.948   1.772   8.875  0.9481  0.0480 -0.8577
 1886TP3     H117477   1.970   1.804   8.963 -3.6198 -0.1284  0.5024
 1886TP3     H217478   1.915   1.684   8.890 -0.6698  0.3255 -2.5905
 1887TP3      O17479   3.416   3.874  10.206  0.4454  0.3959  0.2012
 1887TP3     H117480   3.429   3.814  10.279 -1.3326  1.6714  1.5897
 1887TP3     H217481   3.361   3.825  10.145 -1.7192  0.8656  1.7155
 1888TP3      O17482   1.221   4.025   8.277 -0.6210 -0.2294 -0.3746
 1888TP3     H117483   1.155   4.093   8.262  0.5982  1.2732  0.7923
 1888TP3     H217484   1.301   4.061   8.238 -0.1355 -1.3275 -0.3911
 1889TP3      O17485   3.414   5.344   7.828 -0.0415  0.7267 -0.4486
 1889TP3     H117486   3.491   5.386   7.788  0.3793  0.1589 -0.2478
 1889TP3     H217487   3.355   5.328   7.755  0.4534  0.2763 -0.7617
 1890TP3      O17488   1.375   5.389   7.945  0.0359  0.5453  0.0739
 1890TP3     H117489   1.447   5.356   7.891 -0.1475  0.3362 -0.0421
 1890TP3     H217490   1.339   5.463   7.895 -0.7853 -0.2821 -0.5726
 1891TP3      O17491   4.573   2.801   8.638  0.3416 -0.1002 -0.0074
 1891TP3     H117492   4.534   2.866   8.697  2.0252  1.0521 -0.1306
 1891TP3     H217493   4.530   2.817   8.554 -0.2284 -0.0538  0.2875
 1892TP3      O17494   5.353   4.777  10.016 -0.6287  0.2590  0.5187
 1892TP3     H117495   5.301   4.697  10.017 -0.4767  0.1645  2.0126
 1892TP3     H217496   5.293   4.845   9.984 -1.0936 -0.2156  0.3860
 1893TP3      O17497   3.613   5.385   9.729  0.5347  0.2113 -0.6740
 1893TP3     H117498   3.561   5.333   9.790  1.6274  1.9717  1.8484
 1893TP3     H217499   3.548   5.434   9.678 -0.3539 -0.1051  0.1373
 1894TP3      O17500   4.116   1.121   8.731 -0.4533 -0.3625 -0.0883
 1894TP3     H117501   4.165   1.203   8.740 -3.1276  1.3494 -0.4459
 1894TP3     H217502   4.089   1.100   8.821 -1.0484 -0.0309 -0.1900
 1895TP3      O17503   0.228   2.295   9.269  0.3473  0.1394  0.0310
 1895TP3     H117504   0.280   2.332   9.198  2.3795 -4.9109 -1.3193
 1895TP3     H217505   0.141   2.281   9.230  1.4064 -2.4602 -1.4712
 1896TP3      O17506   1.824   3.009   0.831  0.3461  0.1086  0.1774
 1896TP3     H117507   1.748   2.994   0.888 -0.8479  0.0755 -1.3739
 1896TP3     H217508   1.845   2.923   0.796  0.9321  0.1639  0.3909
 1897TP3      O17509   2.874   0.814   0.255 -0.1234 -0.0776 -0.7346
 1897TP3     H117510   2.802   0.876   0.269  1.1814  1.7054 -1.7413
 1897TP3     H217511   2.907   0.796   0.343 -0.7189  0.4064 -0.4057
 1898TP3      O17512   2.392   0.762   8.180  0.2145  0.1547  0.2891
 1898TP3     H117513   2.421   0.853   8.183 -1.8057  0.8301 -0.0076
 1898TP3     H217514   2.379   0.744   8.087  0.4339 -0.3854  0.3590
 1899TP3      O17515   0.618   4.975   8.660 -0.1621 -0.2003 -0.2448
 1899TP3     H117516   0.566   5.033   8.605 -0.2149  0.1884  0.2120
 1899TP3     H217517   0.576   4.978   8.745  0.5945  0.1006  0.1223
 1900TP3      O17518   2.365   4.491   3.036  0.1300 -0.2263  0.3309
 1900TP3     H117519   2.436   4.554   3.046  0.9128 -1.1497  0.6689
 1900TP3     H217520   2.323   4.488   3.122 -0.9254  1.0191 -0.1261
 1901TP3      O17521   5.037   2.754   1.905  0.1489  0.1103  0.3248
 1901TP3     H117522   5.033   2.806   1.825 -0.9482  1.4215  1.2165
 1901TP3     H217523   4.956   2.701   1.903  1.0282 -1.2440 -0.3423
 1902TP3      O17524   3.950   1.837   7.119 -0.2041  0.1778 -0.0004
 1902TP3     H117525   3.856   1.854   7.132 -0.1086  1.6287 -1.0865
 1902TP3     H217526   3.955   1.744   7.097 -1.5337  0.3961 -1.2820
 1903TP3      O17527   3.089   0.016   8.407 -0.1664 -0.1246 -0.9365
 1903TP3     H117528   3.107   0.080   8.476  1.9314 -0.5853 -1.0322
 1903TP3     H217529   3.068   0.069   8.330 -0.4499  0.4047 -0.4988
 1904TP3      O17530   4.999   0.623   7.736 -0.3087  0.5758  0.0411
 1904TP3     H117531   4.917   0.670   7.754  0.5554  1.8729  0.6576
 1904TP3     H217532   4.983   0.534   7.770 -1.0582  1.1432  1.2087
 1905TP3      O17533   1.658   5.195   8.014  0.0748  0.1210 -0.5846
 1905TP3     H117534   1.702   5.167   7.933 -0.5715 -0.6512 -0.6634
 1905TP3     H217535   1.581   5.139   8.021 -0.9476  1.5056 -0.4724
 1906TP3      O17536   0.535   3.611   2.160  0.6002  0.3378  0.2390
 1906TP3     H117537   0.440   3.598   2.152  0.8141 -0.9251 -0.2633
 1906TP3     H217538   0.566   3.536   2.210  1.5588 -0.0719 -0.9637
 1907TP3      O17539   0.821   4.144   7.684 -0.6115 -0.7127 -0.3899
 1907TP3     H117540   0.774   4.226   7.703  1.0630  0.4029 -0.8894
 1907TP3     H217541   0.776   4.078   7.735 -1.9341  0.5619  0.1321
 1908TP3      O17542   5.506   1.792   9.401 -0.5159  0.0604  0.2722
 1908TP3     H117543   5.552   1.849   9.462 -1.6126 -0.9953  2.1458
 1908TP3     H217544   5.415   1.821   9.406 -0.6935 -0.3522 -0.5025
 1909TP3      O17545   3.576   2.325   0.875  0.0231  0.0274 -0.9294
 1909TP3     H117546   3.540   2.236   0.879 -0.7636  0.3801  0.1916
 1909TP3     H217547   3.669   2.314   0.896 -0.2214 -0.4506 -0.0469
 1910TP3      O17548   1.603   2.795   9.623  0.0513  0.4003  0.1742
 1910TP3     H117549   1.641   2.750   9.548 -1.7584  2.5960 -2.1593
 1910TP3     H217550   1.676   2.845   9.660  0.8259 -0.1889 -0.5441
 1911TP3      O17551   5.001   0.015   7.652  0.4734  0.5206 -0.9796
 1911TP3     H117552   5.011  -0.039   7.573  2.3271 -0.1784 -0.2805
 1911TP3     H217553   5.089   0.047   7.671 -0.0271  1.0074  0.5981
 1912TP3      O17554   2.012   2.268   7.407 -0.2900 -0.2665  0.6853
 1912TP3     H117555   1.969   2.200   7.355 -3.5858  1.3932  1.1460
 1912TP3     H217556   1.993   2.245   7.498  1.5933 -0.6436  1.0093
 1913TP3      O17557   4.836   3.817   0.558  0.0057  0.6379  0.0827
 1913TP3     H117558   4.857   3.833   0.650 -0.4692 -0.9930  0.4899
 1913TP3     H217559   4.742   3.834   0.550  0.3735  2.5111 -0.5122
 1914TP3      O17560   1.588   0.638   2.564 -0.5851  0.1688 -0.3415
 1914TP3     H117561   1.521   0.571   2.548 -0.6897  0.1975 -0.0345
 1914TP3     H217562   1.635   0.606   2.641  1.2492 -1.0056 -1.9074
 1915TP3      O17563   4.542   3.547   1.628  0.3717  0.5324  0.0956
 1915TP3     H117564   4.569   3.461   1.596 -1.1085 -0.1227  0.5442
 1915TP3     H217565   4.452   3.534   1.657  0.8265  1.7082  2.1515
 1916TP3      O17566   1.414   2.413   7.825  0.8649  0.1280 -0.6340
 1916TP3     H117567   1.366   2.393   7.745 -0.8565 -0.6582  0.5576
 1916TP3     H217568   1.368   2.365   7.894  1.1676  2.2575  1.1372
 1917TP3      O17569   2.178   1.144   9.229  0.0896 -0.3852 -0.3619
 1917TP3     H117570   2.093   1.127   9.188  0.0789 -1.0530 -0.0654
 1917TP3     H217571   2.158   1.198   9.305 -0.0607 -0.4509 -0.3551
 1918TP3      O17572   4.533   4.527   9.593 -0.4910 -0.1390 -0.7075
 1918TP3     H117573   4.519   4.590   9.664  0.8370 -0.9622  0.3149
 1918TP3     H217574   4.617   4.552   9.555  0.4560 -1.7768  0.2513
 1919TP3      O17575   0.241   3.123   0.341  0.3434  0.2903  0.5020
 1919TP3     H117576   0.164   3.155   0.295 -0.2267 -1.7991 -0.0334
 1919TP3     H217577   0.282   3.202   0.377 -1.2332  1.5581 -0.4376
 1920TP3      O17578   0.374   1.073   7.903 -0.2791 -0.6120 -0.3069
 1920TP3     H117579   0.340   1.139   7.842  1.5702 -0.4906 -1.2500
 1920TP3     H217580   0.297   1.041   7.950 -1.4908  0.5975 -1.4417
 1921TP3      O17581   0.508   2.564   9.272 -0.1377 -0.1780 -0.0644
 1921TP3     H117582   0.540   2.498   9.211 -0.7512  1.3060 -2.0240
 1921TP3     H217583   0.435   2.606   9.227 -1.1185  0.4139  2.0041
 1922TP3      O17584   4.356   0.457   8.940  0.1158  0.1103 -0.0879
 1922TP3     H117585   4.420   0.427   8.875  0.6902  1.2783 -0.0864
 1922TP3     H217586   4.389   0.422   9.023  0.8950  0.8893 -0.0571
 1923TP3      O17587   2.668   3.233   9.605 -0.2524  0.2806 -0.4648
 1923TP3     H117588   2.581   3.272   9.591 -0.7506 -0.8999 -0.7361
 1923TP3     H217589   2.678   3.231   9.700  0.5798  2.7883 -0.4699
 1924TP3      O17590   4.674   1.518  10.083 -0.3470 -0.2680  0.4804
 1924TP3     H117591   4.756   1.568  10.090  0.6514 -1.7861 -0.1233
 1924TP3     H217592   4.633   1.526  10.169  1.6873 -1.6120  1.6124
 1925TP3      O17593   0.867   5.065   8.584 -0.1675 -0.2217 -0.8102
 1925TP3     H117594   0.790   5.025   8.627 -0.0203 -0.2483 -0.5699
 1925TP3     H217595   0.830   5.117   8.513 -0.3560 -0.9254 -1.2436
 1926TP3      O17596   0.983   3.420   8.681  0.2239  0.1425  0.3986
 1926TP3     H117597   0.963   3.329   8.701  2.7734 -0.6764 -0.6169
 1926TP3     H217598   0.915   3.470   8.726 -1.6928 -2.2830  0.2928
 1927TP3      O17599   0.535   2.959   8.043  0.2046  0.2103 -0.6912
 1927TP3     H117600   0.481   3.034   8.019  0.1173  1.3763  2.9416
 1927TP3     H217601   0.483   2.883   8.016 -0.8629  1.3977 -2.0462
 1928TP3      O17602   2.426   5.095   8.745 -0.1041 -0.7508 -0.2075
 1928TP3     H117603   2.411   5.154   8.671  0.8485  2.5364  2.0784
 1928TP3     H217604   2.520   5.076   8.742 -0.1820 -1.1235 -0.2447
 1929TP3      O17605   2.487   4.484   7.220 -0.4384  0.3177 -0.5965
 1929TP3     H117606   2.437   4.420   7.168  1.6177 -1.8018 -0.0369
 1929TP3     H217607   2.560   4.509   7.163 -0.4692  1.1224 -0.2848
 1930TP3      O17608   5.319   3.166   7.154  0.3987 -0.0865  0.4778
 1930TP3     H117609   5.373   3.103   7.201 -1.1992 -1.6495  0.3065
 1930TP3     H217610   5.234   3.122   7.145 -0.3852  1.6105 -0.7333
 1931TP3      O17611   1.552   3.721   7.512 -0.6719  0.3545 -0.1413
 1931TP3     H117612   1.615   3.675   7.457 -1.2215  1.7606 -1.9769
 1931TP3     H217613   1.473   3.667   7.507 -0.6104  0.2907 -0.4606
 1932TP3      O17614   1.469   5.369   0.134 -0.0411 -0.1997  0.3700
 1932TP3     H117615   1.415   5.351   0.057  1.2707 -0.5952 -0.4757
 1932TP3     H217616   1.427   5.444   0.176  0.6083  1.6402 -2.1138
 1933TP3      O17617   2.655   1.049   0.638  0.5555 -0.2110  0.1321
 1933TP3     H117618   2.562   1.073   0.643  0.7740  1.2247 -1.8458
 1933TP3     H217619   2.657   0.955   0.652 -1.2632 -0.3321 -0.3317
 1934TP3      O17620   0.560   4.267   9.838  0.2366  0.2515 -0.1055
 1934TP3     H117621   0.642   4.221   9.817  0.5248  0.6281  0.1847
 1934TP3     H217622   0.588   4.355   9.863 -0.3596  0.7386 -1.1447
 1935TP3      O17623   0.612   5.451   2.778  0.0018  0.0833 -0.1260
 1935TP3     H117624   0.650   5.533   2.747 -0.2016  0.0231 -0.5306
 1935TP3     H217625   0.685   5.403   2.817  0.5329 -0.4135 -1.6773
 1936TP3      O17626   4.696   0.769   9.546  0.2393  0.5166  0.0563
 1936TP3     H117627   4.741   0.808   9.621 -0.1380 -0.5741  0.8518
 1936TP3     H217628   4.608   0.806   9.549  0.8145  2.0135 -1.0221
 1937TP3      O17629   0.330   3.827   6.959  0.4267  0.3102 -0.1242
 1937TP3     H117630   0.423   3.804   6.961  0.3256 -0.2672 -1.6154
 1937TP3     H217631   0.326   3.909   7.008  1.2614 -1.1262  2.4432
 1938TP3      O17632   2.969   1.406   8.509 -0.1216 -0.6595  0.6643
 1938TP3     H117633   2.923   1.323   8.497  2.0173 -2.0553  1.9726
 1938TP3     H217634   3.052   1.395   8.462  0.3331  0.6075  1.1456
 1939TP3      O17635   4.198   4.094   7.846  0.1593 -0.1414 -0.0847
 1939TP3     H117636   4.205   3.999   7.852 -0.8989 -0.2250 -0.0505
 1939TP3     H217637   4.149   4.109   7.765 -0.6635  0.3257  0.4912
 1940TP3      O17638   4.819   2.211   9.164  0.0660  0.4950  0.2658
 1940TP3     H117639   4.774   2.156   9.100  1.6088 -2.0392  1.3038
 1940TP3     H217640   4.791   2.300   9.143 -0.1478 -0.3701 -3.3653
 1941TP3      O17641   2.502   1.566   9.686 -0.1367  0.0543 -0.0751
 1941TP3     H117642   2.459   1.499   9.740 -0.0669 -1.4227 -1.7767
 1941TP3     H217643   2.448   1.571   9.607 -0.1863  2.1070  0.0635
 1942TP3      O17644   3.581   4.541   8.424 -0.1377  0.3917 -0.1777
 1942TP3     H117645   3.640   4.515   8.353 -2.2859 -0.9065 -1.5351
 1942TP3     H217646   3.639   4.556   8.499  1.8788 -1.3684 -1.3276
 1943TP3      O17647   0.293   2.528   0.718  0.0594 -0.7649  0.3660
 1943TP3     H117648   0.381   2.492   0.707  0.2499 -0.5589  1.2476
 1943TP3     H217649   0.292   2.606   0.662  0.2942 -1.0103  0.0188
 1944TP3      O17650   3.610   1.394   8.035  0.6192 -0.5434 -0.4772
 1944TP3     H117651   3.701   1.416   8.012  0.0008  0.6144 -1.8840
 1944TP3     H217652   3.559   1.422   7.959 -1.1169  0.4974  1.0459
 1945TP3      O17653   3.920   3.818   9.846 -0.0413 -0.7374  0.1576
 1945TP3     H117654   3.982   3.791   9.778  0.0864 -0.2772  0.0886
 1945TP3     H217655   3.836   3.824   9.801  0.0927 -0.1678 -0.0269
 1946TP3      O17656   5.142   5.012   8.303 -0.4145 -0.1533 -0.1254
 1946TP3     H117657   5.176   4.946   8.363 -0.6859  0.1888  0.4082
 1946TP3     H217658   5.219   5.059   8.272 -0.1982 -0.8548 -0.6729
 1947TP3      O17659   4.937   3.826   0.797 -0.2787  0.8865  0.4340
 1947TP3     H117660   4.935   3.870   0.882 -0.8493 -2.9120  2.5193
 1947TP3     H217661   5.029   3.809   0.780 -0.3200 -0.5123  1.5299
 1948TP3      O17662   5.054   1.768   7.216 -0.3961  0.2311  0.3464
 1948TP3     H117663   4.984   1.810   7.266 -0.9824  3.0208 -2.6309
 1948TP3     H217664   5.135   1.800   7.255 -0.7972 -0.3797  1.7010
 1949TP3      O17665   1.934   3.613   8.902 -0.4048  0.2036  0.2949
 1949TP3     H117666   2.000   3.545   8.918 -2.2663 -1.5243  0.9332
 1949TP3     H217667   1.981   3.695   8.913  1.6325 -0.9795  0.7732
 1950TP3      O17668   1.741   1.101   8.671  0.2213 -0.6772  0.1308
 1950TP3     H117669   1.689   1.180   8.683 -0.1290 -0.7066 -1.0858
 1950TP3     H217670   1.830   1.133   8.660 -0.2013 -0.2835 -2.4072
 1951TP3      O17671   3.562   0.834   9.709 -0.5610 -0.0574 -0.6960
 1951TP3     H117672   3.564   0.742   9.681  0.9337 -0.5666  1.0209
 1951TP3     H217673   3.576   0.831   9.803  0.0462  1.9885 -0.6934
 1952TP3      O17674   2.098   4.813   2.941  0.1899 -0.5156 -0.8333
 1952TP3     H117675   2.181   4.848   2.908 -0.3274  0.7794 -0.7755
 1952TP3     H217676   2.031   4.864   2.895 -0.5926 -2.2638 -1.6722
 1953TP3      O17677   5.082   1.600   7.608  0.2472 -0.2854 -0.0282
 1953TP3     H117678   5.159   1.575   7.556  0.4818 -0.0627  0.2092
 1953TP3     H217679   5.103   1.570   7.697 -0.2694 -0.9116 -0.1081
 1954TP3      O17680   2.142   2.618  10.162 -0.0117 -0.0643 -0.0453
 1954TP3     H117681   2.192   2.637  10.082  0.0131  0.6755  0.1369
 1954TP3     H217682   2.094   2.538  10.142 -0.9553  0.7745 -1.2463
 1955TP3      O17683   3.811   1.139   7.927 -0.1867 -0.2171 -0.0679
 1955TP3     H117684   3.861   1.210   7.968 -2.0807  0.6026  0.9068
 1955TP3     H217685   3.876   1.072   7.907  1.3802  1.0766  0.6038
 1956TP3      O17686   4.475   4.444   9.162  0.4008 -0.5494 -0.0473
 1956TP3     H117687   4.415   4.443   9.088  1.6283 -0.6005 -1.0660
 1956TP3     H217688   4.426   4.485   9.233 -0.6433 -0.1031 -1.0199
 1957TP3      O17689   0.282   4.494   9.356 -0.2553  0.3657  0.3860
 1957TP3     H117690   0.355   4.492   9.294 -0.8935 -2.5153 -0.3807
 1957TP3     H217691   0.285   4.408   9.398 -0.2069  2.0365  3.9953
 1958TP3      O17692   0.991   4.207   8.265 -1.1198 -0.6525 -0.5068
 1958TP3     H117693   1.044   4.279   8.231 -1.6736 -0.8042 -1.7234
 1958TP3     H217694   0.922   4.249   8.316 -1.9858 -0.2595 -1.9771
 1959TP3      O17695   0.887   2.660   9.076 -0.7684 -0.0577 -0.3749
 1959TP3     H117696   0.834   2.694   9.148 -0.2611 -1.2734  0.5743
 1959TP3     H217697   0.912   2.572   9.103 -0.2440 -0.3833 -1.8662
 1960TP3      O17698   0.998   5.110   0.750  0.4425 -0.1216  0.7962
 1960TP3     H117699   0.977   5.074   0.664 -2.4394  1.3324  0.8179
 1960TP3     H217700   1.024   5.034   0.803  0.5103 -1.2628 -0.8537
 1961TP3      O17701   5.125   5.040   2.359  0.3164  0.2359  0.8390
 1961TP3     H117702   5.188   5.066   2.426 -0.8237  0.8159  1.6890
 1961TP3     H217703   5.134   4.945   2.353  2.4285  0.4578 -0.2186
 1962TP3      O17704   0.820   2.415   8.631 -0.3628  0.3857 -0.4607
 1962TP3     H117705   0.761   2.467   8.685  2.6071  1.1510  2.1378
 1962TP3     H217706   0.780   2.328   8.629 -1.3803  0.7883  1.5405
 1963TP3      O17707   4.520   5.137   7.848  0.1612 -0.5362 -0.1092
 1963TP3     H117708   4.501   5.212   7.792 -2.0490 -1.1422 -0.2285
 1963TP3     H217709   4.524   5.063   7.787  1.0370 -0.7319  0.1669
 1964TP3      O17710   4.473   4.315   3.201 -0.4549  0.0385 -0.4888
 1964TP3     H117711   4.413   4.388   3.189 -1.7619 -1.0713 -0.7961
 1964TP3     H217712   4.505   4.325   3.291 -0.7243  0.9088 -0.4898
 1965TP3      O17713   4.613   4.574   7.589  0.8597 -0.5847 -0.3304
 1965TP3     H117714   4.532   4.526   7.606  0.1781  1.0836  1.3316
 1965TP3     H217715   4.606   4.601   7.497 -0.2642 -0.8000 -0.3126
 1966TP3      O17716   4.238   2.413   8.208 -0.2522  0.0077 -0.0523
 1966TP3     H117717   4.295   2.474   8.161 -0.8722  1.0942  0.6051
 1966TP3     H217718   4.150   2.445   8.191 -0.4993  0.2421  1.6333
 1967TP3      O17719   2.519   2.175   1.954  0.1630 -0.0199  0.0314
 1967TP3     H117720   2.482   2.243   1.898 -1.8090 -1.3009 -0.2684
 1967TP3     H217721   2.569   2.223   2.020 -3.0161  1.8945  1.1866
 1968TP3      O17722   5.256   2.719   7.666 -0.4228  0.0438 -0.0545
 1968TP3     H117723   5.250   2.658   7.592 -1.1283 -0.1896  0.1988
 1968TP3     H217724   5.278   2.803   7.625  1.1076 -0.4810 -0.3588
 1969TP3      O17725   0.086   5.216   7.585 -0.2833 -0.5874 -0.2305
 1969TP3     H117726   0.139   5.137   7.594 -1.5644 -1.2211  2.2954
 1969TP3     H217727   0.044   5.207   7.499 -0.0548 -2.4255 -0.1689
 1970TP3      O17728   4.498   0.750   8.718 -0.6441  0.1446 -0.5553
 1970TP3     H117729   4.493   0.668   8.669 -1.4912 -0.6025  0.7235
 1970TP3     H217730   4.438   0.737   8.792  2.2674  0.3380  1.9524
 1971TP3      O17731   4.058   3.579  10.254  0.1259 -0.0790  0.1833
 1971TP3     H117732   4.126   3.600  10.191  0.5508 -0.5639  0.4713
 1971TP3     H217733   4.044   3.661  10.302 -0.2264  0.2977 -0.5622
 1972TP3      O17734   3.528   5.310  10.273 -0.4436 -0.0705  0.3035
 1972TP3     H117735   3.580   5.339  10.348 -0.8400 -0.4482  0.7260
 1972TP3     H217736   3.509   5.218  10.291  1.3041 -0.7918 -1.3135
 1973TP3      O17737   4.034   3.574   0.737  0.8264  0.6126 -0.5635
 1973TP3     H117738   3.948   3.569   0.778  0.2900  0.6091 -1.6900
 1973TP3     H217739   4.080   3.643   0.785 -0.0738  1.1454 -0.4770
 1974TP3      O17740   2.368   5.223   0.739 -0.1248 -0.0657 -0.3559
 1974TP3     H117741   2.300   5.167   0.776  1.0604 -1.3249 -0.0144
 1974TP3     H217742   2.329   5.310   0.736 -1.4777 -0.6224  0.5226
 1975TP3      O17743   3.909   2.356   0.089  0.7645 -0.0480  0.0510
 1975TP3     H117744   3.821   2.394   0.086  1.1820  0.8318 -1.1472
 1975TP3     H217745   3.947   2.392   0.170 -0.1413 -0.8315  0.8421
 1976TP3      O17746   4.310   0.697   0.860 -0.0059  0.4274 -0.6028
 1976TP3     H117747   4.367   0.699   0.783  1.9161 -0.6335  0.7575
 1976TP3     H217748   4.301   0.604   0.881  0.0594  0.7362  0.8572
 1977TP3      O17749   2.081   4.160  10.071 -0.3167 -0.5252  0.6215
 1977TP3     H117750   2.169   4.169  10.034 -0.6530  0.4242  0.0636
 1977TP3     H217751   2.044   4.084  10.026 -1.1019  1.2212 -1.7382
 1978TP3      O17752   1.754   1.260   8.317  0.1176 -0.2512  0.3575
 1978TP3     H117753   1.814   1.295   8.251 -0.3682  2.6347  1.3554
 1978TP3     H217754   1.745   1.330   8.382 -2.0947 -1.6934  1.7290
 1979TP3      O17755   1.883   0.911  10.212  0.0185 -0.0876  0.1928
 1979TP3     H117756   1.932   0.891  10.132 -0.5778  1.1554 -0.4892
 1979TP3     H217757   1.891   0.831  10.265 -1.0648 -1.6051 -1.8443
 1980TP3      O17758   2.306   2.340   2.733 -0.0188  0.0344  0.3337
 1980TP3     H117759   2.362   2.346   2.656  1.4700 -0.9886  1.3040
 1980TP3     H217760   2.363   2.368   2.806 -0.2111 -2.6101  1.5648
 1981TP3      O17761   5.409   0.344   0.504 -0.3333 -0.0696 -0.3584
 1981TP3     H117762   5.499   0.365   0.482 -0.1007  1.2088  1.7547
 1981TP3     H217763   5.358   0.380   0.431  0.7802 -0.0533 -1.1464
 1982TP3      O17764   3.536   4.782   1.432  0.1281 -0.3729  0.1506
 1982TP3     H117765   3.460   4.725   1.437  0.0200 -0.3013 -0.5690
 1982TP3     H217766   3.584   4.750   1.355  0.4990 -0.0273  0.2390
 1983TP3      O17767   3.517   3.952   7.803 -0.0679  0.3770  0.5800
 1983TP3     H117768   3.457   4.026   7.793 -3.2428 -2.0103  0.8322
 1983TP3     H217769   3.507   3.902   7.721  0.6527 -0.6904  1.1329
 1984TP3      O17770   1.649   3.347   8.318  0.0189 -0.4839  0.3280
 1984TP3     H117771   1.729   3.398   8.305 -1.1451  0.5320 -3.6179
 1984TP3     H217772   1.597   3.399   8.378  0.2823  1.3007 -0.9666
 1985TP3      O17773   3.047   4.916   7.466  0.6514 -0.2145  0.4662
 1985TP3     H117774   3.138   4.924   7.440  0.7566  0.9208  1.1572
 1985TP3     H217775   2.998   4.913   7.384  1.1855  0.7584  0.1098
 1986TP3      O17776   1.153   2.275  10.102  0.4543 -0.6611 -0.3210
 1986TP3     H117777   1.073   2.304  10.059  0.5862 -2.0632 -1.5257
 1986TP3     H217778   1.216   2.344  10.084 -0.4476  0.4497  0.6233
 1987TP3      O17779   0.635   4.480   9.985 -0.6239  0.0547  0.0276
 1987TP3     H117780   0.595   4.455  10.068  0.0162 -1.1956 -0.0185
 1987TP3     H217781   0.728   4.493  10.005 -0.4457 -0.3450 -0.4891
 1988TP3      O17782   1.992   4.095   7.539 -0.5220 -0.2845  0.1022
 1988TP3     H117783   2.011   4.183   7.571  2.4925 -0.8202 -0.0755
 1988TP3     H217784   1.983   4.105   7.445  0.1429 -0.1953  0.0436
 1989TP3      O17785   3.185   3.209   7.552  0.3131 -0.0664  0.2540
 1989TP3     H117786   3.096   3.181   7.533 -0.1081 -0.0527  2.1050
 1989TP3     H217787   3.210   3.261   7.476 -1.7251  0.9741  0.2525
 1990TP3      O17788   0.748   1.774   9.353 -0.0349  0.2011  0.1065
 1990TP3     H117789   0.679   1.730   9.403  0.7865 -0.4594  0.6609
 1990TP3     H217790   0.765   1.854   9.403 -0.8528  0.6971 -0.3865
 1991TP3      O17791   4.745   2.483   9.865  0.6868 -0.3584 -0.2886
 1991TP3     H117792   4.822   2.470   9.810  1.2895  1.6944  0.0167
 1991TP3     H217793   4.780   2.525   9.944 -0.5665 -0.6491  0.4252
 1992TP3      O17794   1.824   5.026   6.873 -0.6069  0.0567  0.0793
 1992TP3     H117795   1.766   4.950   6.863  1.8823 -1.8192 -0.7359
 1992TP3     H217796   1.784   5.094   6.818 -2.9172 -0.6008  0.8779
 1993TP3      O17797   2.621   2.324   8.542  0.0051 -0.3695  0.1469
 1993TP3     H117798   2.527   2.312   8.553 -0.4550  1.4739 -1.5637
 1993TP3     H217799   2.655   2.329   8.631 -2.0747  2.8631  0.8461
 1994TP3      O17800   2.404   5.016   7.478  0.1619  0.5706 -0.2235
 1994TP3     H117801   2.378   4.939   7.428 -0.4112  0.5143  0.1552
 1994TP3     H217802   2.497   5.029   7.456  0.4302 -0.5788  0.1708
 1995TP3      O17803   1.417   5.251   9.318 -0.1635  0.0160  0.4582
 1995TP3     H117804   1.429   5.259   9.413  0.7725 -2.8655  0.6245
 1995TP3     H217805   1.497   5.211   9.287 -0.6258  0.5985 -1.5400
 1996TP3      O17806   2.395   2.353   7.607  0.2844  0.3893  0.0718
 1996TP3     H117807   2.344   2.425   7.644  1.6145  0.8443  1.0583
 1996TP3     H217808   2.473   2.395   7.571  0.9294 -0.5118  0.4069
 1997TP3      O17809   4.070   0.100   8.008  0.7154  0.1825  0.1913
 1997TP3     H117810   4.072   0.103   7.912  1.8220 -0.2523  0.1917
 1997TP3     H217811   4.130   0.168   8.036 -0.7769  1.3590  0.6151
 1998TP3      O17812   4.242   1.365   8.843 -0.3389  0.5265  0.1137
 1998TP3     H117813   4.229   1.401   8.931 -0.3842  2.2820 -0.5900
 1998TP3     H217814   4.206   1.432   8.785  0.3160 -0.3201 -1.2724
 1999TP3      O17815   0.551   0.102   1.079 -0.0035  0.3460  0.1268
 1999TP3     H117816   0.553   0.197   1.087  0.2301  0.2393  1.4674
 1999TP3     H217817   0.640   0.074   1.099  0.4010 -0.0362 -2.1200
 2000TP3      O17818   4.102   4.119   7.575  0.3050 -0.0029 -0.8163
 2000TP3     H117819   4.032   4.054   7.564 -0.0161  0.1008  0.6201
 2000TP3     H217820   4.162   4.102   7.501  1.1792 -3.1276  0.5417
 2001TP3      O17821   3.550   3.911   8.686 -0.2800  0.3419 -0.2689
 2001TP3     H117822   3.471   3.894   8.635 -0.4860  0.4921  0.0051
 2001TP3     H217823   3.563   3.831   8.737 -0.4989  0.4846  0.0112
 2002TP3      O17824   3.183   3.520   9.737 -0.0649 -0.2455  0.5316
 2002TP3     H117825   3.138   3.435   9.731  2.4361 -1.6064  0.5911
 2002TP3     H217826   3.192   3.548   9.646 -1.2942  0.2224  0.5318
 2003TP3      O17827   2.385   0.484   7.345  0.1022  0.5161 -0.0124
 2003TP3     H117828   2.295   0.509   7.326  0.4883  2.9216  1.0812
 2003TP3     H217829   2.438   0.560   7.319  1.8509 -0.9640 -0.9130
 2004TP3      O17830   1.734   5.281   7.364  0.1326  0.1149  0.1062
 2004TP3     H117831   1.653   5.301   7.316 -0.3150 -1.5722  0.1303
 2004TP3     H217832   1.705   5.266   7.454  0.2430 -1.9438 -0.1739
 2005TP3      O17833   0.619   3.670   9.228 -0.0701 -0.9615  0.4053
 2005TP3     H117834   0.703   3.692   9.269 -0.3381 -0.6470  0.8001
 2005TP3     H217835   0.555   3.682   9.298 -0.6353  0.3763 -0.3197
 2006TP3      O17836   3.121   3.765   8.149 -0.0166 -0.1630 -0.3470
 2006TP3     H117837   3.146   3.836   8.090  1.1513 -0.2788 -0.0165
 2006TP3     H217838   3.136   3.685   8.098 -1.0876 -0.1801 -0.6323
 2007TP3      O17839   3.111   0.197   0.806 -0.0114 -0.0465  0.2297
 2007TP3     H117840   3.141   0.108   0.784 -3.3748 -0.9437 -0.9699
 2007TP3     H217841   3.107   0.242   0.721  0.5218  0.9148  0.7058
 2008TP3      O17842   2.256   0.297   9.859  0.4807 -0.4839  0.4348
 2008TP3     H117843   2.343   0.328   9.883  1.2038 -1.5942 -0.6993
 2008TP3     H217844   2.260   0.287   9.764 -1.4751  1.2553  0.1349
 2009TP3      O17845   0.074   2.955   9.312  0.1924 -0.3431  0.2587
 2009TP3     H117846  -0.013   2.956   9.352  0.1448 -1.3622  0.1775
 2009TP3     H217847   0.102   2.864   9.316  1.1396 -0.0721  0.0191
 2010TP3      O17848   2.742   0.445   8.857  0.4003  0.4142  0.3204
 2010TP3     H117849   2.770   0.354   8.870 -1.1038  0.0471  1.0945
 2010TP3     H217850   2.807   0.497   8.906  0.4820 -0.3278  1.0177
 2011TP3      O17851   3.698   4.166   0.190 -0.9736 -0.3014 -0.2692
 2011TP3     H117852   3.794   4.171   0.197 -1.0605 -1.0117  1.5919
 2011TP3     H217853   3.683   4.111   0.113  0.0861  0.6241 -1.1822
 2012TP3      O17854   3.100   4.860   2.357  0.3511 -0.5674 -0.0645
 2012TP3     H117855   3.042   4.855   2.433  0.3829 -1.0851 -0.0750
 2012TP3     H217856   3.045   4.836   2.282  0.6047 -1.1551 -0.0613
 2013TP3      O17857   5.039   1.598   9.111  0.1559 -0.2116  0.2035
 2013TP3     H117858   5.131   1.571   9.118 -0.0514 -0.6762  1.3813
 2013TP3     H217859   5.007   1.553   9.033  0.7967 -0.4633  0.0803
 2014TP3      O17860   4.867   2.865   8.605 -0.0502 -0.2690 -0.1929
 2014TP3     H117861   4.875   2.945   8.553  0.3080 -0.6228 -0.6966
 2014TP3     H217862   4.778   2.835   8.590 -0.4309  0.4481  0.6130
 2015TP3      O17863   3.421   0.477  10.063 -0.0084  0.1316  0.0852
 2015TP3     H117864   3.437   0.388  10.093  3.9339  0.3252 -1.1438
 2015TP3     H217865   3.393   0.467   9.972 -1.1257  0.0721  0.4364
 2016TP3      O17866   2.814   4.624   8.693  0.2958 -0.4462  0.1649
 2016TP3     H117867   2.862   4.618   8.610  0.5475 -1.2498  0.3661
 2016TP3     H217868   2.855   4.697   8.739  0.9652 -0.7783  0.0975
 2017TP3      O17869   2.221   4.451   1.965  0.3447  0.1109  0.4312
 2017TP3     H117870   2.134   4.491   1.970  0.2727 -0.0087  0.0900
 2017TP3     H217871   2.215   4.374   2.022 -0.1990 -0.7034 -0.7316
 2018TP3      O17872   1.047   4.270   7.823 -0.5169 -0.4431  0.1542
 2018TP3     H117873   0.972   4.235   7.774 -0.2824 -1.8039  0.7230
 2018TP3     H217874   1.093   4.325   7.761  0.1257 -2.6488 -1.3772
 2019TP3      O17875   0.863   0.998   7.297  0.2860 -0.1374 -0.4455
 2019TP3     H117876   0.839   1.066   7.234 -0.4657 -0.0980 -0.1236
 2019TP3     H217877   0.936   1.035   7.346  0.8695 -0.1658 -1.2954
 2020TP3      O17878   4.384   1.985   2.363 -0.2081  0.1121 -0.1226
 2020TP3     H117879   4.332   2.064   2.348  0.9710  0.8761 -0.2530
 2020TP3     H217880   4.383   1.940   2.279 -1.6157 -0.4768  0.1869
 2021TP3      O17881   0.260   2.346   8.095 -0.7845 -0.1389  0.2374
 2021TP3     H117882   0.336   2.287   8.087 -0.4090  0.4495 -0.6441
 2021TP3     H217883   0.201   2.317   8.026 -1.2248 -0.3799  0.7124
 2022TP3      O17884   1.634   4.083   9.925  0.2932  1.1362  0.2037
 2022TP3     H117885   1.613   4.058  10.015  2.6438  0.3486  0.5630
 2022TP3     H217886   1.551   4.072   9.878 -0.4712 -0.5031  1.8343
 2023TP3      O17887   1.343   2.257   2.104  0.0409 -0.2148  0.3692
 2023TP3     H117888   1.437   2.257   2.087  0.6812 -1.2730  3.6093
 2023TP3     H217889   1.328   2.334   2.159 -1.0311  0.0294 -0.2396
 2024TP3      O17890   3.926   3.667   1.475  0.1229  0.2780 -0.6072
 2024TP3     H117891   3.842   3.706   1.449  1.0434  2.4485 -0.4170
 2024TP3     H217892   3.986   3.741   1.477  1.6100 -0.9711  1.1607
 2025TP3      O17893   2.780   4.655   7.764  0.3761  0.6598  0.0358
 2025TP3     H117894   2.831   4.581   7.732  0.8134 -0.4455  3.1345
 2025TP3     H217895   2.817   4.731   7.720  4.3389 -0.1970  1.7298
 2026TP3      O17896   1.746   4.089   0.122  0.4919  1.1164  0.5192
 2026TP3     H117897   1.789   4.007   0.147  1.9266  1.3376 -1.0666
 2026TP3     H217898   1.813   4.156   0.136  0.0833  1.7049 -0.2860
 2027TP3      O17899   0.233   1.168   9.354  0.2811  0.2287  0.1225
 2027TP3     H117900   0.228   1.243   9.414  0.4133  1.5932 -1.5279
 2027TP3     H217901   0.157   1.178   9.297  1.8969  0.7584 -1.9748
 2028TP3      O17902   3.624   4.616   9.936 -0.6004  0.1716 -0.5202
 2028TP3     H117903   3.572   4.583   9.863  0.9482  1.3596 -2.2062
 2028TP3     H217904   3.601   4.709   9.941 -0.2656  0.2216  0.1112
 2029TP3      O17905   2.529   3.552  10.036 -0.0661 -0.1194 -0.6285
 2029TP3     H117906   2.574   3.502  10.104 -0.4246  0.6705  0.1949
 2029TP3     H217907   2.517   3.489   9.964  0.5667 -0.8767 -0.0795
 2030TP3      O17908   3.020   1.421   0.440 -0.2847 -0.1036 -0.4859
 2030TP3     H117909   2.973   1.444   0.360  1.9930  0.8570 -1.6035
 2030TP3     H217910   3.094   1.482   0.443  0.9796 -1.6429  1.1287
 2031TP3      O17911   3.198   0.776   1.670 -0.8181  0.0733  0.1042
 2031TP3     H117912   3.124   0.778   1.610  0.7569 -0.7185 -1.9068
 2031TP3     H217913   3.180   0.702   1.728 -1.3433 -0.4495 -0.7220
 2032TP3      O17914   4.719   1.992  10.297  0.1833 -0.0533 -0.4976
 2032TP3     H117915   4.662   1.955  10.230 -0.4099  0.5774 -0.3500
 2032TP3     H217916   4.745   1.917  10.350 -2.6797 -0.0484  1.0598
 2033TP3      O17917   2.971   1.445   1.956  0.0881 -0.2623  0.4077
 2033TP3     H117918   2.939   1.517   2.010 -0.3085 -0.2311  0.1349
 2033TP3     H217919   3.059   1.472   1.929 -0.3138  0.4181 -0.2365
 2034TP3      O17920   1.738   3.394   7.563 -0.4793 -0.2307  0.6256
 2034TP3     H117921   1.746   3.444   7.482  0.2766 -0.6971  0.4076
 2034TP3     H217922   1.658   3.427   7.604 -1.0333 -0.2138 -0.4591
 2035TP3      O17923   4.933   2.707   9.684 -0.1412 -0.6533  0.0220
 2035TP3     H117924   4.951   2.635   9.624 -2.0553 -0.0346 -1.3200
 2035TP3     H217925   5.018   2.726   9.725  0.8712 -2.0330 -1.4092
 2036TP3      O17926   4.326   1.204   1.459 -0.0062 -0.3611  0.0506
 2036TP3     H117927   4.380   1.228   1.384 -2.0989  0.9562 -1.1055
 2036TP3     H217928   4.289   1.119   1.436 -2.8174  1.2451 -1.7458
 2037TP3      O17929   1.460   2.169   1.201 -0.0742  0.3753  0.3144
 2037TP3     H117930   1.429   2.140   1.286  0.8869 -0.1532  0.5003
 2037TP3     H217931   1.486   2.260   1.213  1.0810 -0.0202  0.8697
 2038TP3      O17932   4.475   0.393   9.179 -0.2980  0.8397 -0.4477
 2038TP3     H117933   4.517   0.467   9.223 -0.7145  1.1479 -0.5573
 2038TP3     H217934   4.407   0.364   9.239  0.5034 -0.0820  0.0134
 2039TP3      O17935   4.858   1.898   7.359 -0.3017  0.5516  0.3465
 2039TP3     H117936   4.905   1.974   7.395 -0.2997  0.8555 -0.2986
 2039TP3     H217937   4.773   1.934   7.333 -0.1561  0.4128 -0.3255
 2040TP3      O17938   5.457   2.875   9.918 -0.0120  0.2185  0.5178
 2040TP3     H117939   5.417   2.789   9.928 -1.7388  1.0318  0.8122
 2040TP3     H217940   5.483   2.878   9.826  2.4600 -1.5957  1.1113
 2041TP3      O17941   1.005   1.598   0.102  0.6726 -0.5909 -0.4126
 2041TP3     H117942   0.936   1.579   0.165  1.6295  2.1142  1.5522
 2041TP3     H217943   0.988   1.539   0.028 -1.1471 -3.0386  1.8699
 2042TP3      O17944   4.483   2.187   7.725  0.2628 -0.0985 -0.2339
 2042TP3     H117945   4.478   2.244   7.649  2.6429  0.1027 -0.2633
 2042TP3     H217946   4.450   2.103   7.694 -0.8308  0.5591 -0.8857
 2043TP3      O17947   0.375   0.101   8.507  0.0546 -0.3317 -0.1071
 2043TP3     H117948   0.373   0.037   8.436  0.5723 -0.0919 -0.3482
 2043TP3     H217949   0.444   0.163   8.481 -2.1511  1.7722 -1.1451
 2044TP3      O17950   4.958   0.948   7.547 -0.3529  0.2802  0.2970
 2044TP3     H117951   4.912   0.947   7.631  1.3368 -0.8385  1.2213
 2044TP3     H217952   4.891   0.974   7.484 -2.6855 -2.8373  1.3651
 2045TP3      O17953   2.966   3.125   8.590 -0.0533 -0.2135 -0.3567
 2045TP3     H117954   2.905   3.078   8.533  1.0185 -0.0826 -1.6385
 2045TP3     H217955   3.007   3.056   8.642 -0.5405 -0.4101 -0.2343
 2046TP3      O17956   3.017   2.315   8.263 -0.2216 -0.3136  0.0398
 2046TP3     H117957   2.996   2.334   8.355 -2.6293 -2.5366 -0.0114
 2046TP3     H217958   3.049   2.225   8.263  1.9863  0.4160 -1.0457
 2047TP3      O17959   3.694   4.779   9.604 -0.6055  0.5894 -0.0886
 2047TP3     H117960   3.665   4.689   9.589  1.4819  0.1343 -1.5941
 2047TP3     H217961   3.613   4.830   9.608 -1.7878 -1.3093  0.5354
 2048TP3      O17962   0.116   4.350   8.989 -0.4985 -0.1711  0.0337
 2048TP3     H117963   0.080   4.368   9.076 -0.4357 -0.0289  0.0307
 2048TP3     H217964   0.079   4.418   8.933 -1.2753 -0.8172 -0.2467
 2049TP3      O17965   3.792   5.385   0.210 -0.1569  0.1310 -0.3498
 2049TP3     H117966   3.793   5.316   0.276 -1.8649  0.5601  0.1439
 2049TP3     H217967   3.783   5.339   0.127  1.8061 -0.4018 -0.2908
 2050TP3      O17968   1.785   4.878   8.403 -0.1365 -0.2331  0.3933
 2050TP3     H117969   1.875   4.898   8.429 -0.3819 -0.2853  1.3190
 2050TP3     H217970   1.746   4.839   8.482 -1.1744  0.4575  0.2313
 2051TP3      O17971   3.332   4.668   7.474  0.0324  0.2674  0.1903
 2051TP3     H117972   3.287   4.719   7.407 -0.7981 -0.6740  0.0130
 2051TP3     H217973   3.269   4.600   7.498  1.0655 -0.5894  0.5127
 2052TP3      O17974   3.000   1.050   7.520  0.9651  0.5457 -0.1261
 2052TP3     H117975   2.954   0.966   7.516  0.5851  0.7255  0.4554
 2052TP3     H217976   3.021   1.069   7.429  1.1253 -0.2188 -0.2578
 2053TP3      O17977   0.471   0.693   9.053 -0.2530 -0.1107 -0.1735
 2053TP3     H117978   0.458   0.682   8.959 -1.6114 -1.3355  0.1354
 2053TP3     H217979   0.518   0.614   9.080  0.3713  0.3611  0.1517
 2054TP3      O17980   5.292   2.861   8.699  0.0865 -0.0330  0.3848
 2054TP3     H117981   5.362   2.815   8.747  1.8387  1.9132 -0.2538
 2054TP3     H217982   5.318   2.953   8.701 -2.2815  0.6737 -0.2244
 2055TP3      O17983   5.038   4.400   2.157  0.1068 -0.2197 -0.0626
 2055TP3     H117984   5.034   4.339   2.084 -0.8010  1.2018 -1.2145
 2055TP3     H217985   4.956   4.387   2.204  1.0322 -1.7022  1.2010
 2056TP3      O17986   1.898   1.937  10.239  0.4103 -0.3648  0.4028
 2056TP3     H117987   1.819   1.959  10.188 -0.2114 -0.6257  1.2401
 2056TP3     H217988   1.922   2.020  10.282  0.4627 -0.3372  0.3196
 2057TP3      O17989   0.134   5.229   9.481 -0.5972  0.0219 -0.5280
 2057TP3     H117990   0.177   5.298   9.430 -0.2665 -0.5271 -0.9919
 2057TP3     H217991   0.204   5.166   9.499 -1.3066 -1.1201 -1.7037
 2058TP3      O17992   3.661   3.540   7.678 -0.2914 -0.3919  0.1723
 2058TP3     H117993   3.749   3.522   7.712  0.3781  0.2328 -1.1527
 2058TP3     H217994   3.602   3.506   7.744  0.9532  0.1476  1.6107
 2059TP3      O17995   1.632   0.897   8.787  0.4793 -0.1813  0.3786
 2059TP3     H117996   1.715   0.871   8.828  0.5263  0.1668  0.5155
 2059TP3     H217997   1.658   0.963   8.723  0.2527  0.3245  0.8019
 2060TP3      O17998   0.080   1.004   1.352  0.2858  0.1530 -0.0531
 2060TP3     H117999   0.061   0.910   1.352  0.4791  0.1133  0.1464
 2060TP3     H218000  -0.006   1.046   1.363  0.0677  0.0286 -1.2946
 2061TP3      O18001   3.543   0.660   1.835 -0.4989 -0.6863  0.3894
 2061TP3     H118002   3.528   0.675   1.929  0.7190 -1.0923  0.6529
 2061TP3     H218003   3.511   0.741   1.793  0.4287  0.1684  1.2969
 2062TP3      O18004   4.680   0.662  10.221 -0.6327  0.0277  0.3133
 2062TP3     H118005   4.644   0.602  10.155 -1.4907 -0.5974  1.3263
 2062TP3     H218006   4.715   0.604  10.289  1.1470  0.6544 -0.0561
 2063TP3      O18007   1.685   4.358  10.066  0.2933 -0.0496  0.1704
 2063TP3     H118008   1.656   4.275  10.105  1.2616 -0.0160  0.9848
 2063TP3     H218009   1.621   4.376   9.997 -0.8497 -0.6336  1.0754
 2064TP3      O18010   5.487   2.314   8.573  0.1714 -0.1697  0.4033
 2064TP3     H118011   5.519   2.327   8.484 -0.9011 -0.3325 -0.0217
 2064TP3     H218012   5.555   2.262   8.616  0.0537 -1.3355 -0.7609
 2065TP3      O18013   1.666   1.983   9.234 -0.5236  0.2697 -0.2407
 2065TP3     H118014   1.720   1.985   9.314  0.4372  0.7229 -0.8884
 2065TP3     H218015   1.604   2.055   9.246  0.0304  0.7416 -0.1802
 2066TP3      O18016   3.887   4.906   7.968  0.1103 -0.0613  0.1060
 2066TP3     H118017   3.851   4.994   7.967  1.7244  0.6188 -1.7814
 2066TP3     H218018   3.974   4.917   8.007  0.1988 -0.8806  0.1420
 2067TP3      O18019   1.745   1.676   8.215 -0.7296 -0.3954 -0.1016
 2067TP3     H118020   1.681   1.715   8.274  1.0537  0.3199  1.3852
 2067TP3     H218021   1.694   1.653   8.137 -2.7005  0.5687  0.8655
 2068TP3      O18022   2.103   2.321   9.465  0.0745 -0.0721  0.0533
 2068TP3     H118023   2.118   2.368   9.547 -2.4841 -0.2529  0.6724
 2068TP3     H218024   2.171   2.254   9.462  3.3306  3.1218 -0.4678
 2069TP3      O18025   1.766   4.486   8.721 -0.0492  0.5536  0.1072
 2069TP3     H118026   1.779   4.455   8.810 -0.4298  0.3043  0.0744
 2069TP3     H218027   1.811   4.422   8.666  0.1561  0.6893  0.1167
 2070TP3      O18028   0.215   3.272   8.388 -0.0049  0.0575  0.6640
 2070TP3     H118029   0.308   3.253   8.400 -0.0468 -0.2479  0.5035
 2070TP3     H218030   0.175   3.187   8.370 -0.3786  0.1343  1.1287
 2071TP3      O18031   3.676   3.962   0.365 -0.1416  0.1650  0.1987
 2071TP3     H118032   3.696   3.974   0.458  0.1651 -1.3076  0.3487
 2071TP3     H218033   3.665   4.050   0.330 -2.1036  0.6785  2.0395
 2072TP3      O18034   4.980   0.333   7.815 -0.6579  0.1872  0.1868
 2072TP3     H118035   4.954   0.243   7.838 -2.8933  0.5472 -0.7677
 2072TP3     H218036   5.065   0.324   7.774  0.1474 -1.2507  2.0656
 2073TP3      O18037   3.604   1.630   7.681  0.1902  0.0212 -0.3041
 2073TP3     H118038   3.616   1.694   7.751 -1.0766 -0.1799  0.0968
 2073TP3     H218039   3.647   1.670   7.605  1.8588  0.0953  0.6428
 2074TP3      O18040   1.186   4.632   7.945  0.5147 -0.0307 -0.5517
 2074TP3     H118041   1.142   4.572   7.886 -1.4436 -0.1606  0.9885
 2074TP3     H218042   1.218   4.703   7.889 -3.4132  1.0716 -1.5136
 2075TP3      O18043   0.926   3.354   1.025  0.1943 -0.0869  0.2900
 2075TP3     H118044   0.833   3.348   1.048  0.2869 -0.0215  0.6938
 2075TP3     H218045   0.931   3.325   0.934 -0.5153  1.9967 -0.4218
 2076TP3      O18046   3.640   3.428   9.560  0.1103  0.3246 -0.1432
 2076TP3     H118047   3.732   3.417   9.585  0.4142  2.3284 -0.3011
 2076TP3     H218048   3.643   3.454   9.468 -0.6947 -1.0099 -0.5548
 2077TP3      O18049   4.619   3.982   0.417 -0.2069 -0.7256  0.1491
 2077TP3     H118050   4.710   4.013   0.422  0.2402 -2.0429  0.4036
 2077TP3     H218051   4.602   3.974   0.323 -0.1717 -0.1785  0.0909
 2078TP3      O18052   1.941   1.283   9.685 -0.4155  0.0187  0.3671
 2078TP3     H118053   1.954   1.269   9.779  0.5058 -0.3927  0.1808
 2078TP3     H218054   1.857   1.328   9.680 -0.8644 -0.6728  1.3367
 2079TP3      O18055   3.891   4.604   9.816  0.0544 -0.7220  0.1652
 2079TP3     H118056   3.886   4.525   9.869 -2.4924 -1.4575 -1.0809
 2079TP3     H218057   3.806   4.646   9.826  1.3918  1.9712  0.9017
 2080TP3      O18058   4.746   4.479   9.084  0.2123  0.3840 -0.2553
 2080TP3     H118059   4.653   4.490   9.067  0.5433 -0.3359 -2.6795
 2080TP3     H218060   4.788   4.553   9.038  0.8200  0.9597  1.1842
 2081TP3      O18061   3.060   3.504   7.419 -0.2011  0.3513 -0.0977
 2081TP3     H118062   2.979   3.545   7.389  0.7929  3.3811  1.1354
 2081TP3     H218063   3.102   3.474   7.338 -2.2322 -0.6844 -0.7981
 2082TP3      O18064   1.483   0.708   7.226 -0.2618  0.3972 -0.1673
 2082TP3     H118065   1.468   0.696   7.132  1.0421  1.7895 -0.5785
 2082TP3     H218066   1.516   0.623   7.255 -3.3630 -0.9343 -0.3584
 2083TP3      O18067   0.842   2.583   8.403 -0.2370 -0.2766 -0.7239
 2083TP3     H118068   0.842   2.554   8.494  0.5392 -1.3830 -1.0810
 2083TP3     H218069   0.867   2.676   8.408  2.0519 -0.9156 -0.0032
 2084TP3      O18070   1.284   1.593   7.220  0.9143 -0.2324  0.3182
 2084TP3     H118071   1.265   1.685   7.201  0.1512 -0.5516 -0.5245
 2084TP3     H218072   1.228   1.572   7.295 -0.3451 -0.5139 -0.6714
 2085TP3      O18073   2.255   0.976   9.799  0.3627  0.0542 -0.6513
 2085TP3     H118074   2.164   0.966   9.769  0.2504  1.5034 -0.8020
 2085TP3     H218075   2.305   0.923   9.737 -0.2073  0.5765 -1.5755
 2086TP3      O18076   1.254   1.377   1.609  0.2210  0.1236  0.7531
 2086TP3     H118077   1.264   1.399   1.701 -1.5044  0.5016  0.8743
 2086TP3     H218078   1.170   1.417   1.584  0.6611  0.0160 -0.9678
 2087TP3      O18079   4.644   5.151   8.654  0.2307 -0.0136 -0.2423
 2087TP3     H118080   4.634   5.246   8.653 -0.4496 -0.0856 -2.4786
 2087TP3     H218081   4.650   5.127   8.561 -1.5943 -2.3505  0.2173
 2088TP3      O18082   0.351   4.115   8.334 -0.1434  0.2956 -0.5409
 2088TP3     H118083   0.393   4.164   8.263 -1.8320  3.2223  0.3847
 2088TP3     H218084   0.259   4.144   8.332 -1.1805 -2.7006  0.2220
 2089TP3      O18085   2.150   0.688   1.220 -0.3408  0.1110  0.0040
 2089TP3     H118086   2.137   0.612   1.163  0.4148  0.2364 -0.3456
 2089TP3     H218087   2.122   0.762   1.167  1.1394  0.3171 -0.5268
 2090TP3      O18088   1.337   4.478   9.930 -0.1566 -0.4727  0.1248
 2090TP3     H118089   1.331   4.460   9.837  0.3238 -0.1911  0.0337
 2090TP3     H218090   1.386   4.560   9.935  1.1017 -1.2460  0.6736
 2091TP3      O18091   1.969   0.837   1.368  0.3707 -0.5029  0.2353
 2091TP3     H118092   1.895   0.785   1.398  0.9185 -0.3720  1.8165
 2091TP3     H218093   2.025   0.775   1.323 -0.8309 -0.5497 -1.2595
 2092TP3      O18094   3.562   4.411   1.567 -0.0655  0.0068  0.0474
 2092TP3     H118095   3.501   4.397   1.494  1.0231 -1.2258 -0.6394
 2092TP3     H218096   3.596   4.324   1.586  1.1055  0.6220  0.7636
 2093TP3      O18097   3.277   4.063   9.503  0.1896 -0.2865  0.1851
 2093TP3     H118098   3.264   4.046   9.410 -0.0199 -0.5109  0.2581
 2093TP3     H218099   3.189   4.077   9.538  0.1007 -2.0419  0.7148
 2094TP3      O18100   2.044   1.571   1.615 -0.1652 -0.3823 -0.4474
 2094TP3     H118101   2.077   1.656   1.644  3.8139 -1.0661 -2.6135
 2094TP3     H218102   2.031   1.582   1.520 -2.3768 -1.3714 -0.2896
 2095TP3      O18103   1.759   2.413   9.632 -0.4274 -0.5630 -0.1530
 2095TP3     H118104   1.743   2.350   9.702 -4.6080  2.5738  1.9413
 2095TP3     H218105   1.697   2.388   9.563 -1.0366  0.3180  0.0693
 2096TP3      O18106   3.593   4.435   0.380 -0.0148 -0.1331 -0.3975
 2096TP3     H118107   3.514   4.388   0.351  0.2041 -0.0172 -1.1808
 2096TP3     H218108   3.634   4.465   0.299  0.9062 -0.2977  0.0071
 2097TP3      O18109   1.980   3.182   0.689 -0.0955  0.1364 -0.0116
 2097TP3     H118110   1.983   3.276   0.709 -1.4039  0.5350 -1.5605
 2097TP3     H218111   1.925   3.144   0.758 -1.1189  0.8257 -0.4289
 2098TP3      O18112   1.632   4.101   2.823  0.2407  0.0028 -0.1405
 2098TP3     H118113   1.665   4.153   2.896  0.0032  1.9094 -1.3727
 2098TP3     H218114   1.674   4.015   2.834 -1.8700 -0.6476  3.7648
 2099TP3      O18115   4.164   1.843   2.041  0.3514 -0.4129 -0.2881
 2099TP3     H118116   4.206   1.915   1.993 -0.2995 -0.0641 -0.3410
 2099TP3     H218117   4.180   1.766   1.987  0.2169 -0.1375 -0.7320
 2100TP3      O18118   3.854   0.685   8.045 -0.3838  0.6075 -0.3473
 2100TP3     H118119   3.774   0.679   7.994 -1.5705 -0.3109  1.5683
 2100TP3     H218120   3.911   0.617   8.009 -0.9346  0.4285 -0.8841
 2101TP3      O18121   2.044   4.731   7.885  0.1542  0.9584  0.5151
 2101TP3     H118122   2.073   4.794   7.819  1.5947 -0.3589 -0.1557
 2101TP3     H218123   2.124   4.683   7.908 -0.8756 -0.4789  1.1583
 2102TP3      O18124   1.991   3.900   0.206  0.4840 -0.1185 -0.6705
 2102TP3     H118125   1.987   3.817   0.254 -1.4448  0.0192 -0.5554
 2102TP3     H218126   2.079   3.934   0.224  1.4851 -2.3763 -1.1408
 2103TP3      O18127   3.128   4.437   8.445  0.6431 -0.4202 -0.0670
 2103TP3     H118128   3.070   4.513   8.435 -1.3489 -1.8134  0.6261
 2103TP3     H218129   3.190   4.464   8.514 -0.4108  0.3450  0.5949
 2104TP3      O18130   2.933   0.075  10.266  0.0995  0.3915 -0.4392
 2104TP3     H118131   2.993   0.128  10.317 -0.0529 -0.4571  0.6407
 2104TP3     H218132   2.917  -0.002  10.320 -4.4023  1.9863  0.7687
 2105TP3      O18133   5.376   5.310   0.326 -0.0358 -0.3348 -0.3829
 2105TP3     H118134   5.315   5.346   0.389  0.2211  1.0602 -0.9093
 2105TP3     H218135   5.449   5.277   0.379 -1.0542 -1.6773  0.2159
 2106TP3      O18136   0.548   0.638   9.589  0.4753 -0.0339 -0.4056
 2106TP3     H118137   0.473   0.647   9.530  0.6760 -1.6185 -0.9294
 2106TP3     H218138   0.624   0.650   9.532  0.7033 -2.8168 -0.7734
 2107TP3      O18139   1.719   0.733   1.404 -0.0633 -0.4765  0.2983
 2107TP3     H118140   1.710   0.693   1.490  1.0727  0.6177  0.9376
 2107TP3     H218141   1.698   0.826   1.417  1.6268  0.0083 -0.2708
 2108TP3      O18142   1.112   2.011  10.000 -0.5623  0.2134 -0.3927
 2108TP3     H118143   1.173   1.961  10.054 -0.8542  0.6421  0.3327
 2108TP3     H218144   1.139   2.102  10.012 -1.5351  0.4334  0.1761
 2109TP3      O18145   0.983   0.060   8.801  0.1897 -0.2474 -0.1778
 2109TP3     H118146   1.003   0.010   8.880  2.9505  4.1268  2.1004
 2109TP3     H218147   0.889   0.074   8.805 -0.3560 -3.5362  0.0939
 2110TP3      O18148   0.577   5.047   9.940 -0.6338 -0.0986 -0.1544
 2110TP3     H118149   0.659   5.002   9.920 -2.3118 -2.4094 -2.0505
 2110TP3     H218150   0.561   5.103   9.864  0.1047  1.8049  1.0456
 2111TP3      O18151   1.405   3.459   9.598 -0.3655 -0.3191 -0.3852
 2111TP3     H118152   1.465   3.384   9.603  0.6069  0.4558 -0.2507
 2111TP3     H218153   1.443   3.523   9.658 -0.4623  0.7931 -1.5008
 2112TP3      O18154   1.001   4.978   8.908  0.2711  0.4214 -0.4064
 2112TP3     H118155   0.987   4.970   8.814  1.0540 -0.7861 -0.4402
 2112TP3     H218156   1.093   4.956   8.920  0.2820  0.9962  0.5976
 2113TP3      O18157   2.361   4.783   7.341 -0.9132 -0.3184 -0.2409
 2113TP3     H118158   2.394   4.706   7.388  1.1579  1.1567  0.7937
 2113TP3     H218159   2.267   4.786   7.362 -0.1847 -0.1465  3.1808
 2114TP3      O18160   5.490   0.156   9.687  0.2353 -0.2410  0.3840
 2114TP3     H118161   5.527   0.086   9.741 -2.6039 -0.6002  1.9574
 2114TP3     H218162   5.482   0.231   9.747  1.2776  0.7875 -0.7404
 2115TP3      O18163   0.190   0.454   2.089  0.5171  0.2925 -0.5346
 2115TP3     H118164   0.238   0.383   2.046  0.5137  0.4896 -0.8680
 2115TP3     H218165   0.140   0.411   2.159  0.9001  0.0363 -0.4156
 2116TP3      O18166   0.722   1.016   1.713  0.3951 -0.2442  0.1410
 2116TP3     H118167   0.672   0.999   1.793 -0.0192  0.0691 -0.0478
 2116TP3     H218168   0.696   1.104   1.687 -1.8631 -1.5016 -2.0713
 2117TP3      O18169   4.537   4.540   2.423  0.3862 -0.2600 -0.0238
 2117TP3     H118170   4.541   4.508   2.513  0.7020  2.7128  1.0658
 2117TP3     H218171   4.628   4.540   2.393  0.3260 -0.8616 -0.2145
 2118TP3      O18172   1.378   3.691   8.061  0.4727 -0.1581 -0.8869
 2118TP3     H118173   1.414   3.764   8.111  1.5480 -0.9325 -0.4977
 2118TP3     H218174   1.453   3.659   8.010  0.1836 -1.4183 -0.5282
 2119TP3      O18175   1.078   3.316   0.063  0.5520 -0.2662 -0.5284
 2119TP3     H118176   1.050   3.402   0.093  1.5002 -0.5036  1.1009
 2119TP3     H218177   1.124   3.333  -0.019  3.0828  1.1471  1.1138
 2120TP3      O18178   0.964   4.685   9.655 -0.1086  0.0849 -0.0510
 2120TP3     H118179   1.003   4.727   9.732  1.8463 -0.1907 -0.8583
 2120TP3     H218180   0.962   4.592   9.677 -1.9281  0.2651  0.6560
 2121TP3      O18181   4.589   2.349   1.121  0.5085 -0.0794  0.1287
 2121TP3     H118182   4.649   2.358   1.046  1.9864  0.3265  1.3363
 2121TP3     H218183   4.607   2.426   1.174  0.0389 -0.7914  1.3204
 2122TP3      O18184   1.698   2.541   8.035 -0.0094 -0.4180  0.7955
 2122TP3     H118185   1.686   2.600   7.961 -0.8102 -2.2351 -0.5726
 2122TP3     H218186   1.659   2.587   8.109  1.3224  1.6666  0.2335
 2123TP3      O18187   2.734   4.850   1.424  0.3829 -0.0068 -0.4439
 2123TP3     H118188   2.672   4.879   1.491 -0.0278 -0.2448 -0.7194
 2123TP3     H218189   2.698   4.885   1.342  0.8937  0.3027 -0.5332
 2124TP3      O18190   3.462   2.916   1.880 -0.5314  0.0478  0.3885
 2124TP3     H118191   3.392   2.930   1.944 -0.7240 -0.9091  0.3970
 2124TP3     H218192   3.444   2.829   1.844  1.0920 -0.5273  0.9399
 2125TP3      O18193   1.444   2.715   9.246 -0.6161  0.0181  0.4719
 2125TP3     H118194   1.499   2.702   9.323  0.3040  0.3775 -0.1001
 2125TP3     H218195   1.422   2.627   9.216  0.9148 -0.1737 -0.1544
 2126TP3      O18196   3.029   1.453   8.139 -0.0658  0.1994  0.1032
 2126TP3     H118197   3.044   1.375   8.085 -0.8086  0.4262 -0.4468
 2126TP3     H218198   3.114   1.472   8.178  0.2381 -0.5907 -0.1579
 2127TP3      O18199   4.228   1.938   9.891  0.1656 -0.5808 -0.5157
 2127TP3     H118200   4.143   1.944   9.846 -1.0047  2.3580  1.9002
 2127TP3     H218201   4.283   2.002   9.846 -0.0739  0.1803  0.2549
 2128TP3      O18202   3.173   2.158  10.033 -0.4924 -0.1030 -0.0795
 2128TP3     H118203   3.080   2.173  10.047 -0.5888 -0.2480 -0.5663
 2128TP3     H218204   3.210   2.246  10.017 -1.0618 -0.3530 -2.9606
 2129TP3      O18205   4.871   4.546   1.927  0.1379 -0.0138  0.5500
 2129TP3     H118206   4.892   4.640   1.919  1.8969 -0.4175  0.2230
 2129TP3     H218207   4.879   4.527   2.020 -2.3950  0.6332  0.9290
 2130TP3      O18208   4.876   4.923   1.210 -0.1178  0.5990 -0.4525
 2130TP3     H118209   4.812   4.905   1.278  0.6595  0.6455  0.3041
 2130TP3     H218210   4.955   4.877   1.239 -0.0845 -0.2716 -1.8568
 2131TP3      O18211   1.242   2.482   0.237  0.0312  1.0147  0.4608
 2131TP3     H118212   1.226   2.433   0.157  0.0057  0.8714  0.5525
 2131TP3     H218213   1.311   2.544   0.214  0.5062  0.5136  0.5134
 2132TP3      O18214   1.550   1.375   1.324 -0.5101  0.5440  0.1997
 2132TP3     H118215   1.512   1.309   1.266 -2.2767  1.3013  0.4758
 2132TP3     H218216   1.616   1.419   1.271  1.6800 -2.3236  0.4141
 2133TP3      O18217   2.269   2.128   7.546  0.0680 -0.0970 -0.7342
 2133TP3     H118218   2.314   2.212   7.548  1.7767 -0.9865 -0.1814
 2133TP3     H218219   2.336   2.065   7.573 -2.0774 -1.2196  2.2954
 2134TP3      O18220   3.048   3.412   1.878  0.0174  0.4178  0.1780
 2134TP3     H118221   3.133   3.451   1.899  0.6863 -0.2185 -1.2741
 2134TP3     H218222   3.070   3.328   1.837 -1.3379 -0.1416  0.5869
 2135TP3      O18223   1.360   0.502   0.126  0.2174 -0.2655 -0.1373
 2135TP3     H118224   1.348   0.540   0.214 -1.7146  0.2392 -0.6045
 2135TP3     H218225   1.334   0.572   0.066 -1.6527 -1.6918 -1.0484
 2136TP3      O18226   3.091   5.079   7.825 -0.6455 -0.1098 -0.3658
 2136TP3     H118227   3.160   5.132   7.785 -2.3679  0.7801 -2.2635
 2136TP3     H218228   3.078   5.117   7.912  1.8225 -0.8514  0.3684
 2137TP3      O18229   4.872   3.644   8.348  0.2096 -0.6792 -0.4300
 2137TP3     H118230   4.927   3.715   8.381 -0.5633 -0.2605 -0.0586
 2137TP3     H218231   4.829   3.681   8.271  1.7404 -1.5405 -1.7331
 2138TP3      O18232   4.135   1.540   0.567 -0.4637  0.0584  0.2324
 2138TP3     H118233   4.140   1.634   0.546 -0.1874  0.7143  2.9622
 2138TP3     H218234   4.223   1.507   0.550 -0.3213  0.5033  0.0890
 2139TP3      O18235   4.564   2.201   1.737  0.6461 -0.1646 -0.1964
 2139TP3     H118236   4.489   2.238   1.784  0.7692  0.5789 -0.5852
 2139TP3     H218237   4.549   2.107   1.739 -1.8194  0.1071 -2.7728
 2140TP3      O18238   1.498   5.329   2.477 -0.0062 -0.0730 -0.1291
 2140TP3     H118239   1.448   5.262   2.431 -1.6091  0.6776  0.4841
 2140TP3     H218240   1.450   5.344   2.558  0.8361  1.1663  0.1589
 2141TP3      O18241   4.419   1.731  10.232 -0.0256  0.4909  0.1260
 2141TP3     H118242   4.484   1.667  10.262  1.0729  0.4243 -2.3364
 2141TP3     H218243   4.467   1.792  10.177 -1.3837  2.5477  1.1268
 2142TP3      O18244   4.120   1.513   8.430  0.3840  0.5368  0.0861
 2142TP3     H118245   4.179   1.583   8.400  1.0170  0.3611  0.9141
 2142TP3     H218246   4.162   1.432   8.400  1.2112  0.3330  1.7099
 2143TP3      O18247   0.126   5.255   0.372 -0.2134  0.0919  0.3493
 2143TP3     H118248   0.154   5.214   0.291  0.9408  2.1337 -0.3328
 2143TP3     H218249   0.154   5.195   0.441  1.5509 -0.2034 -0.6051
 2144TP3      O18250   2.227   2.263   1.544  0.3344  0.2445  0.1869
 2144TP3     H118251   2.162   2.226   1.604 -3.3673  0.0955 -3.6383
 2144TP3     H218252   2.265   2.186   1.501  0.0619  0.4576 -0.4486
 2145TP3      O18253   5.130   0.426   0.846 -0.1665 -0.5410  0.7182
 2145TP3     H118254   5.161   0.467   0.926 -0.2847  1.6402 -0.3246
 2145TP3     H218255   5.035   0.437   0.848 -0.1582 -0.3675  0.2299
 2146TP3      O18256   4.316   3.748   8.618 -0.8438  0.2915 -0.6471
 2146TP3     H118257   4.382   3.730   8.551 -0.6250  2.8054 -1.1420
 2146TP3     H218258   4.339   3.833   8.653 -3.0770  0.6327  0.1008
 2147TP3      O18259   3.153   3.774   1.812 -0.8635 -0.3732 -0.3243
 2147TP3     H118260   3.236   3.802   1.851 -1.5493 -2.4940  2.8990
 2147TP3     H218261   3.111   3.855   1.783  0.9358  1.0469  0.9255
 2148TP3      O18262   2.674   2.019  10.131  0.1365 -0.0475  0.4768
 2148TP3     H118263   2.605   2.077  10.163  0.8976  1.0776  0.1421
 2148TP3     H218264   2.662   2.017  10.036  1.0393  0.7894  0.3388
 2149TP3      O18265   2.044   2.491   0.344  0.4854  0.3842 -0.0647
 2149TP3     H118266   2.114   2.510   0.280  2.0507 -1.0079  1.1946
 2149TP3     H218267   2.030   2.397   0.336  0.1368  0.3432  1.0823
 2150TP3      O18268   3.356   1.411   0.282 -0.2997  0.2635 -0.3164
 2150TP3     H118269   3.290   1.446   0.222 -1.0384  1.0059  0.9019
 2150TP3     H218270   3.306   1.385   0.360  0.8206  0.7301  0.5705
 2151TP3      O18271   5.481   1.790  10.290 -0.6334  0.1274 -0.4348
 2151TP3     H118272   5.525   1.827  10.213 -0.0434 -0.8498 -0.5856
 2151TP3     H218273   5.464   1.699  10.265 -0.2044 -0.2680  0.6884
 2152TP3      O18274   1.768   4.623   7.066 -0.1060 -0.2766  0.0108
 2152TP3     H118275   1.706   4.555   7.094  3.1229 -2.7553  1.4950
 2152TP3     H218276   1.831   4.628   7.137  0.4879  3.4406 -0.6797
 2153TP3      O18277   2.410   3.141   8.791 -0.6048 -0.2505 -0.3469
 2153TP3     H118278   2.415   3.046   8.781  0.8253 -0.3634  1.2773
 2153TP3     H218279   2.405   3.155   8.886 -0.6468  1.3080 -0.5660
 2154TP3      O18280   1.610   1.820   0.045  0.1548 -0.6441 -0.2343
 2154TP3     H118281   1.583   1.906   0.013  0.3981 -0.1875  0.7657
 2154TP3     H218282   1.688   1.838   0.098 -1.2721 -1.1336  2.1074
 2155TP3      O18283   0.183   4.694   1.171 -0.2053 -0.2469 -0.4851
 2155TP3     H118284   0.216   4.666   1.085 -1.8124  0.0449 -1.2216
 2155TP3     H218285   0.260   4.730   1.215  0.4320  0.5829 -2.2055
 2156TP3      O18286   4.515   5.424   9.618  0.7158  0.6607 -0.0511
 2156TP3     H118287   4.595   5.428   9.565  1.2437  3.1756  0.8780
 2156TP3     H218288   4.486   5.515   9.624 -2.2487 -0.2142 -0.3798
 2157TP3      O18289   4.048   5.512   9.781 -0.0524  0.0518  0.1522
 2157TP3     H118290   4.030   5.423   9.750  0.4552  1.0033 -3.0983
 2157TP3     H218291   3.975   5.533   9.839 -1.6236 -1.5012 -1.2312
 2158TP3      O18292   5.299   0.526   8.394  0.4836  0.2455  0.7041
 2158TP3     H118293   5.377   0.530   8.340  0.6534 -0.4965  0.8777
 2158TP3     H218294   5.332   0.512   8.483  0.1503 -0.5031  0.7202
 2159TP3      O18295   3.195   0.795   0.827  0.0249 -0.5075 -0.1700
 2159TP3     H118296   3.179   0.711   0.784  0.3409 -0.7063  0.0961
 2159TP3     H218297   3.247   0.773   0.904 -0.1385 -0.0974  0.0568
 2160TP3      O18298   2.903   5.367   2.481 -0.3227  0.7752 -0.0705
 2160TP3     H118299   2.969   5.299   2.498 -0.2760  0.7745 -0.2570
 2160TP3     H218300   2.883   5.358   2.388 -0.0654  1.2472 -0.1693
 2161TP3      O18301   1.968   0.841   9.224 -0.0028 -0.1428  1.1340
 2161TP3     H118302   1.950   0.866   9.315  1.0319 -0.0944  1.3330
 2161TP3     H218303   1.948   0.748   9.221  0.0822 -0.1734  1.4471
 2162TP3      O18304   5.039   1.753   9.652  0.6572  0.0286 -0.0719
 2162TP3     H118305   5.096   1.686   9.613  0.3924  0.8795 -2.0016
 2162TP3     H218306   5.060   1.751   9.745  2.6444 -0.8213 -0.5049
 2163TP3      O18307   5.202   0.249   1.378 -0.1683  0.1927 -0.1043
 2163TP3     H118308   5.125   0.191   1.382  0.4424 -0.7992 -1.9319
 2163TP3     H218309   5.165   0.337   1.368 -1.0862 -0.0277  1.2525
 2164TP3      O18310   0.149   1.800   7.899 -0.7272  0.1826  0.1446
 2164TP3     H118311   0.147   1.811   7.994  0.0399  1.5246  0.0093
 2164TP3     H218312   0.241   1.782   7.879 -0.5436  1.7878 -0.5324
 2165TP3      O18313   0.724   2.798   8.134  0.4352  0.9607  0.0320
 2165TP3     H118314   0.679   2.879   8.111 -1.4383  0.3806  1.5035
 2165TP3     H218315   0.757   2.812   8.222  1.7967  0.8033 -0.4397
 2166TP3      O18316   1.786   2.547   9.903  0.3447 -0.3460  0.4788
 2166TP3     H118317   1.824   2.519   9.819 -0.0114  1.1846 -0.2294
 2166TP3     H218318   1.693   2.560   9.884  0.4435  0.9946  0.8170
 2167TP3      O18319   0.356   0.923  10.312 -0.3339  0.7353  0.3136
 2167TP3     H118320   0.431   0.895  10.259  0.3575  0.5268  1.3722
 2167TP3     H218321   0.396   0.973  10.384 -1.0747 -0.7621  1.7931
 2168TP3      O18322   4.567   0.994   9.233  0.7982 -0.4471  0.7164
 2168TP3     H118323   4.478   1.007   9.201  1.7597  2.8192 -0.8486
 2168TP3     H218324   4.570   1.042   9.316  1.0840 -0.6603  0.8322
 2169TP3      O18325   0.600   2.647   0.189  0.5037  0.1448  0.4324
 2169TP3     H118326   0.664   2.651   0.118  1.7656 -0.3578  1.5079
 2169TP3     H218327   0.627   2.717   0.249  0.1935 -0.2317  1.0168
 2170TP3      O18328   2.684   5.521   9.265  0.2710 -0.4929 -0.5351
 2170TP3     H118329   2.737   5.543   9.189 -0.0819 -2.5741 -1.4228
 2170TP3     H218330   2.746   5.484   9.327  0.5525  1.1705  0.1972
 2171TP3      O18331   0.674   2.381   2.446 -0.7335  1.1951  0.0611
 2171TP3     H118332   0.625   2.299   2.435 -0.5534  1.2013 -0.7972
 2171TP3     H218333   0.661   2.404   2.538 -0.8485  0.2443  0.2855
 2172TP3      O18334   5.168   4.224   2.883  0.1710  0.7419  0.7466
 2172TP3     H118335   5.249   4.182   2.853  0.0048  0.0242  1.2870
 2172TP3     H218336   5.150   4.184   2.968  0.6449  2.7603  1.8297
 2173TP3      O18337   2.684   3.192   9.873 -0.4981 -0.2757 -0.1057
 2173TP3     H118338   2.702   3.100   9.891 -2.1306 -0.1880  2.1949
 2173TP3     H218339   2.726   3.239   9.944  0.4881  0.8025 -1.3749
 2174TP3      O18340   0.884   4.209   8.875  0.1646  0.0793  0.0155
 2174TP3     H118341   0.895   4.122   8.914  1.2896 -1.6568 -3.9168
 2174TP3     H218342   0.790   4.215   8.857 -0.1200  0.2442  1.5243
 2175TP3      O18343   3.528   2.789   8.726 -0.5321 -0.6865 -0.2549
 2175TP3     H118344   3.599   2.735   8.693  1.5626  1.0568  1.2824
 2175TP3     H218345   3.484   2.735   8.792  1.6265 -0.5263  1.3730
 2176TP3      O18346   1.426   1.746   8.705 -0.2189  0.1391 -0.2602
 2176TP3     H118347   1.369   1.674   8.730 -0.4201  0.4916  0.3028
 2176TP3     H218348   1.372   1.801   8.648 -0.2877  0.2149 -0.1225
 2177TP3      O18349   1.370   5.113   7.610 -0.0667  0.2380  0.1579
 2177TP3     H118350   1.300   5.174   7.584  0.9128  1.0674 -0.5766
 2177TP3     H218351   1.369   5.046   7.542  1.1623  1.3327 -0.9842
 2178TP3      O18352   3.888   1.398   8.040 -0.0467 -0.0158  0.1490
 2178TP3     H118353   3.905   1.425   8.130  1.4465 -3.4151  0.9462
 2178TP3     H218354   3.946   1.453   7.987  0.3471  0.7738  1.3745
 2179TP3      O18355   1.405   1.931   8.417 -0.6536  0.0725 -0.1866
 2179TP3     H118356   1.336   1.987   8.453 -1.8804 -1.6053  0.1417
 2179TP3     H218357   1.447   1.984   8.350 -1.6433  1.4604  0.2757
 2180TP3      O18358   0.886   0.335   8.539 -0.7706  0.2308  0.5587
 2180TP3     H118359   0.955   0.270   8.526  0.0036  1.2979 -0.7258
 2180TP3     H218360   0.811   0.284   8.570  1.0245 -0.7479  3.5168
 2181TP3      O18361   0.335   0.199   0.470 -0.1720  0.2611 -0.3796
 2181TP3     H118362   0.373   0.193   0.558  2.4717 -0.7956 -1.5341
 2181TP3     H218363   0.268   0.131   0.468 -0.0672  0.1073  0.7367
 2182TP3      O18364   1.798   3.045   0.496  0.0874 -0.1176 -0.2388
 2182TP3     H118365   1.747   3.117   0.532  0.4401 -0.5367  1.1440
 2182TP3     H218366   1.887   3.059   0.529 -0.2627 -2.3154  1.8228
 2183TP3      O18367   0.027   4.073  10.130 -0.3395  0.0174 -0.1909
 2183TP3     H118368   0.070   4.137  10.073 -1.9498  0.4288 -0.9743
 2183TP3     H218369   0.084   4.068  10.207  0.3838  1.5904 -0.5885
 2184TP3      O18370   0.700   1.651   2.089 -0.5836  0.8165  0.3032
 2184TP3     H118371   0.723   1.567   2.049 -1.2537  0.6646  0.2272
 2184TP3     H218372   0.767   1.664   2.156  0.4802  1.0128 -0.7688
 2185TP3      O18373   3.835   0.272   2.536 -0.3909  0.0941  0.0475
 2185TP3     H118374   3.861   0.362   2.517 -0.7895  0.3435  0.6622
 2185TP3     H218375   3.778   0.248   2.463  1.1504 -0.2876 -1.0407
 2186TP3      O18376   2.373   1.682   8.616 -0.4067 -0.0730  0.3644
 2186TP3     H118377   2.281   1.706   8.631 -0.7822 -2.6479  2.5187
 2186TP3     H218378   2.414   1.692   8.702  1.0406 -0.2360 -0.2956
 2187TP3      O18379   3.973   0.618   8.834  0.8042  0.0899 -0.2878
 2187TP3     H118380   3.939   0.606   8.923 -1.1675 -0.0717 -1.0617
 2187TP3     H218381   3.936   0.546   8.784 -0.1770  1.6627 -1.8459
 2188TP3      O18382   2.743   3.040  10.111 -0.1019  0.5663 -0.0077
 2188TP3     H118383   2.818   2.987  10.138  0.2747  0.3407 -1.4338
 2188TP3     H218384   2.764   3.128  10.142  1.0508  0.6247 -0.9093
 2189TP3      O18385   1.315   5.281  10.215 -0.0651  0.2964  0.5714
 2189TP3     H118386   1.352   5.206  10.168  0.3257  1.8582 -1.6933
 2189TP3     H218387   1.224   5.257  10.231 -0.7149  0.4401 -2.6306
 2190TP3      O18388   4.937   3.802   9.627 -0.2462 -0.1013 -0.0322
 2190TP3     H118389   5.007   3.747   9.591 -1.2480 -0.4090 -1.5506
 2190TP3     H218390   4.979   3.888   9.639  0.6044 -0.4832 -0.1858
 2191TP3      O18391   1.264   5.264   8.746  0.7866  0.0941 -0.4197
 2191TP3     H118392   1.173   5.271   8.772  0.8117 -1.1253  0.0064
 2191TP3     H218393   1.261   5.227   8.657  0.8220  1.3815 -0.9731
 2192TP3      O18394   2.781   2.706   9.117  0.1053 -0.0815  0.1074
 2192TP3     H118395   2.821   2.664   9.041 -2.8215 -1.9142 -0.4910
 2192TP3     H218396   2.776   2.636   9.183 -0.2272  0.6577  0.8792
 2193TP3      O18397   0.627   1.319   0.539  0.5524  0.7472  0.1490
 2193TP3     H118398   0.581   1.364   0.610  0.3342 -0.3608  0.7154
 2193TP3     H218399   0.581   1.348   0.460 -0.0739  0.9346  0.5722
 2194TP3      O18400   1.318   3.362   7.564 -0.2423  0.1095 -0.0221
 2194TP3     H118401   1.394   3.388   7.616  1.5846 -0.5088 -2.3216
 2194TP3     H218402   1.292   3.441   7.517 -0.4142  0.0811  0.0247
 2195TP3      O18403   2.106   5.160   1.768  0.1729 -0.4857 -0.0609
 2195TP3     H118404   2.150   5.224   1.823  0.3944  0.6217 -1.4919
 2195TP3     H218405   2.014   5.167   1.791 -0.1287  2.0033 -1.7870
 2196TP3      O18406   2.906   2.276   9.806  0.1454  0.3446 -0.2888
 2196TP3     H118407   2.995   2.250   9.781 -0.1971 -0.6134 -0.5337
 2196TP3     H218408   2.901   2.258   9.900  0.2764  0.6044 -0.2302
 2197TP3      O18409   0.509   3.913   8.701  0.4604  0.0018 -0.1375
 2197TP3     H118410   0.497   3.884   8.791 -0.6457  1.9708  0.3723
 2197TP3     H218411   0.579   3.858   8.667  0.8095 -0.8277  1.8943
 2198TP3      O18412   4.677   2.927   9.143 -0.0747 -0.5247  0.5673
 2198TP3     H118413   4.609   2.993   9.126 -0.0476 -0.3501  1.1360
 2198TP3     H218414   4.642   2.847   9.103  0.4501  0.1157 -1.2006
 2199TP3      O18415   0.415   1.577   1.855 -0.8732 -0.0080 -0.0934
 2199TP3     H118416   0.398   1.598   1.946  3.3403 -1.5160  1.1473
 2199TP3     H218417   0.443   1.659   1.816  0.7490 -0.0817  0.8882
 2200TP3      O18418   3.306   0.219   0.399  0.5961 -0.3131 -0.7087
 2200TP3     H118419   3.325   0.164   0.323 -0.8738 -2.0050  0.1097
 2200TP3     H218420   3.345   0.171   0.473 -0.8766 -0.3698  0.0360
 2201TP3      O18421   4.241   0.526   0.579  0.4585  0.3307 -0.6717
 2201TP3     H118422   4.238   0.448   0.634  1.3001  0.4841 -0.4003
 2201TP3     H218423   4.194   0.500   0.499  0.2750 -0.2813 -0.3709
 2202TP3      O18424   4.273   3.939  10.114  0.2109 -0.2144 -0.7868
 2202TP3     H118425   4.250   3.861  10.165 -1.7544 -1.2756 -3.1978
 2202TP3     H218426   4.358   3.918  10.075  1.1982  0.1644  1.1295
 2203TP3      O18427   1.634   3.966   8.462  0.6256  0.1203 -0.3154
 2203TP3     H118428   1.691   3.932   8.531  2.3794  2.4716 -0.5280
 2203TP3     H218429   1.693   4.015   8.405 -1.1008 -0.2478 -2.4848
 2204TP3      O18430   2.404   2.908   9.750  0.2021  0.4317 -0.3161
 2204TP3     H118431   2.366   2.957   9.822  0.3478  0.6383 -0.3794
 2204TP3     H218432   2.461   2.970   9.705 -0.4180  0.5010 -1.0234
 2205TP3      O18433   4.810   5.450   0.920  0.2113  0.5441 -0.3228
 2205TP3     H118434   4.829   5.501   0.999 -2.0680  2.5561 -1.0475
 2205TP3     H218435   4.754   5.379   0.951  2.2169 -0.7566  0.4392
 2206TP3      O18436   4.811   4.880   9.243  0.2617  0.0884  0.2191
 2206TP3     H118437   4.812   4.945   9.313  0.3307 -1.1566  1.3938
 2206TP3     H218438   4.879   4.818   9.266  0.4502 -0.2169 -1.0930
 2207TP3      O18439   3.433   0.580   0.110  0.2401  0.2607 -0.1354
 2207TP3     H118440   3.524   0.577   0.082  0.7458  2.4124  1.2078
 2207TP3     H218441   3.399   0.662   0.073 -1.2026 -0.5683 -0.7197
 2208TP3      O18442   2.417   2.643   1.899  0.6126  0.7177 -0.0728
 2208TP3     H118443   2.346   2.584   1.872 -0.7219  2.4362 -0.4015
 2208TP3     H218444   2.490   2.584   1.920 -1.6995 -1.2585  2.7993
 2209TP3      O18445   4.093   5.170   0.811  0.1957 -0.0118 -0.1487
 2209TP3     H118446   4.000   5.161   0.787  0.3428 -0.6841 -0.4915
 2209TP3     H218447   4.093   5.176   0.906 -0.1625 -0.6120 -0.1068
 2210TP3      O18448   4.804   0.972   1.251  0.2845 -0.1241  0.6009
 2210TP3     H118449   4.715   0.959   1.218  1.0034  1.5921 -2.1801
 2210TP3     H218450   4.796   1.045   1.313  0.0023  1.1953 -0.9558
 2211TP3      O18451   2.869   5.338   7.918  0.9810 -0.0719 -0.2957
 2211TP3     H118452   2.810   5.341   7.993  0.7041  0.4639 -0.5274
 2211TP3     H218453   2.857   5.250   7.881 -0.1286  0.2333 -0.6977
 2212TP3      O18454   1.438   0.820   1.338 -0.2160 -0.5419  0.2658
 2212TP3     H118455   1.438   0.790   1.247  0.9725  0.7167 -0.1727
 2212TP3     H218456   1.519   0.871   1.346 -1.2805  0.9995  1.4781
 2213TP3      O18457   2.147   0.308   9.049  0.2021  0.3396 -0.3895
 2213TP3     H118458   2.233   0.269   9.067  0.4449  0.6778 -0.7911
 2213TP3     H218459   2.165   0.401   9.039 -0.3509  0.5280  0.3871
 2214TP3      O18460   0.274   0.780   2.721  0.0523 -0.4178  0.4255
 2214TP3     H118461   0.239   0.807   2.806 -0.7609  1.0812 -0.3828
 2214TP3     H218462   0.361   0.821   2.717  0.1515 -0.6088  0.5865
 2215TP3      O18463   3.994   0.352  10.267 -0.6317 -0.1781  0.7887
 2215TP3     H118464   4.042   0.310  10.338  1.6034  1.6430  0.3983
 2215TP3     H218465   4.061   0.375  10.202 -2.4213 -0.3395 -1.1821
 2216TP3      O18466   2.471   1.963   8.329 -0.0049  0.2248  0.3326
 2216TP3     H118467   2.537   2.032   8.332 -1.5904  1.7757  0.4444
 2216TP3     H218468   2.492   1.913   8.251  0.7857  1.2429 -0.1164
 2217TP3      O18469   0.103   5.418   7.799 -0.1070  0.3310  0.7190
 2217TP3     H118470   0.115   5.339   7.746  0.0380  0.6939  0.2129
 2217TP3     H218471   0.128   5.490   7.742  0.8569  0.6657  1.5362
 2218TP3      O18472   3.939   4.287   7.394 -0.3622  0.9296  0.2014
 2218TP3     H118473   3.868   4.283   7.458 -1.9461 -1.0592 -1.5725
 2218TP3     H218474   4.017   4.258   7.442 -1.3458  0.2464  1.4082
 2219TP3      O18475   1.669   1.605   8.740 -0.9543  0.0993 -0.0863
 2219TP3     H118476   1.592   1.656   8.717 -0.5440  0.1294 -1.3871
 2219TP3     H218477   1.704   1.648   8.818 -1.1585  1.2282 -0.6114
 2220TP3      O18478   1.528   0.445   1.831  0.0478 -0.4644 -0.1431
 2220TP3     H118479   1.557   0.356   1.851 -0.6877 -0.8269 -0.6729
 2220TP3     H218480   1.433   0.440   1.828 -0.0531  0.5994  0.9816
 2221TP3      O18481   3.078   2.810   0.383  0.6829 -0.2921  0.1671
 2221TP3     H118482   3.152   2.756   0.411 -0.0559 -1.1920  0.4081
 2221TP3     H218483   3.015   2.804   0.456 -1.0894 -2.3308 -1.4475
 2222TP3      O18484   4.601   1.862  10.059 -0.0174  0.1044 -0.0150
 2222TP3     H118485   4.621   1.942  10.010 -0.0736 -0.4073 -0.8730
 2222TP3     H218486   4.610   1.792   9.995  1.9528 -0.7967  1.2101
 2223TP3      O18487   1.962   1.853   2.003  0.0769 -0.8975 -0.5249
 2223TP3     H118488   2.050   1.845   1.967  0.3697 -1.0435  0.2248
 2223TP3     H218489   1.959   1.789   2.074 -0.5351 -0.6909 -0.3622
 2224TP3      O18490   0.145   0.894   0.675  0.4599 -0.2314 -0.4752
 2224TP3     H118491   0.083   0.963   0.699  0.5789 -0.6754  1.1351
 2224TP3     H218492   0.094   0.836   0.617  0.0603  0.6334 -1.0097
 2225TP3      O18493   2.183   0.839   0.023  0.0650  0.2602 -0.8868
 2225TP3     H118494   2.125   0.767   0.043  0.9558  0.0030  0.8826
 2225TP3     H218495   2.149   0.876  -0.058 -1.5059 -0.9633 -0.7997
 2226TP3      O18496   0.559   0.602   0.062  0.2301  0.3544 -0.5230
 2226TP3     H118497   0.476   0.636   0.094  0.5654  0.5050  0.1825
 2226TP3     H218498   0.539   0.514   0.030 -0.0496  0.1284  0.2898
 2227TP3      O18499   5.459   3.018   8.492  0.0608  0.1076 -0.1472
 2227TP3     H118500   5.378   2.995   8.447 -0.3461 -1.0354  1.1279
 2227TP3     H218501   5.527   3.011   8.425 -1.1512  3.1802 -1.7686
 2228TP3      O18502   2.256   4.635   0.166  0.0088 -0.1268  0.5690
 2228TP3     H118503   2.302   4.558   0.132 -1.9804 -0.0886 -2.4171
 2228TP3     H218504   2.232   4.611   0.255  0.1399 -2.6565 -0.0268
 2229TP3      O18505   2.109   1.765   0.238  0.3976 -0.0971  0.3722
 2229TP3     H118506   2.065   1.811   0.308  2.1955 -0.4251  1.7746
 2229TP3     H218507   2.152   1.834   0.187  0.0252  0.0621  0.2775
 2230TP3      O18508   1.360   0.474   2.454  0.3844 -0.0176  0.6128
 2230TP3     H118509   1.356   0.443   2.545 -0.9574 -1.3550  0.1008
 2230TP3     H218510   1.363   0.395   2.401  0.3457  0.7565 -0.5656
 2231TP3      O18511   1.657   0.667   9.871  0.0623  0.0170  0.6144
 2231TP3     H118512   1.636   0.752   9.833  0.5436 -0.4737 -0.7534
 2231TP3     H218513   1.677   0.611   9.796  2.7746 -0.4903  1.6551
 2232TP3      O18514   2.407   0.284   8.642 -0.2513  0.5609  0.0104
 2232TP3     H118515   2.502   0.285   8.652 -0.2992  0.8328  0.4247
 2232TP3     H218516   2.381   0.377   8.645 -0.2787  0.6756 -2.4382
 2233TP3      O18517   3.940   0.426   7.979  0.1999 -0.4393 -0.3967
 2233TP3     H118518   4.000   0.408   7.906 -0.0982 -1.5701 -0.3725
 2233TP3     H218519   3.976   0.375   8.052  1.5616  2.1565  0.7941
 2234TP3      O18520   1.728   1.625   1.069 -0.2327  0.5789 -0.0478
 2234TP3     H118521   1.666   1.686   1.030 -0.0444  0.2442 -0.8873
 2234TP3     H218522   1.804   1.678   1.092  0.0422  0.6137 -1.0293
 2235TP3      O18523   0.583   1.017   0.119 -0.2120 -0.5293 -0.3628
 2235TP3     H118524   0.638   0.986   0.190  1.0736  3.1578  0.3954
 2235TP3     H218525   0.618   0.974   0.041  1.3249 -1.1131  0.6264
 2236TP3      O18526   3.741   1.126   8.333  0.2201  0.4321 -0.0375
 2236TP3     H118527   3.810   1.113   8.268  0.2693 -0.3898  0.1703
 2236TP3     H218528   3.787   1.154   8.412  0.2461  0.6034 -0.1162
 2237TP3      O18529   1.079   4.603   1.277  0.3465 -0.5584 -0.6342
 2237TP3     H118530   1.116   4.676   1.326  1.3946 -1.0249 -0.7292
 2237TP3     H218531   0.998   4.639   1.239  0.0185  0.0826  0.6252
 2238TP3      O18532   4.101   0.988   8.428 -0.2332  0.3455  0.0625
 2238TP3     H118533   4.123   0.911   8.481  0.7862  0.3718 -0.3115
 2238TP3     H218534   4.050   1.043   8.487 -0.3139 -0.2647  0.5775
 2239TP3      O18535   2.107   2.791   2.255  0.1503  0.1613  0.4727
 2239TP3     H118536   2.180   2.742   2.293  0.9977  0.3830 -0.8489
 2239TP3     H218537   2.075   2.846   2.327  0.5859 -0.7172  1.3540
 2240TP3      O18538   3.572   2.813   0.401  0.5085 -0.2043 -0.7452
 2240TP3     H118539   3.499   2.828   0.341  0.0756 -2.5547 -0.8346
 2240TP3     H218540   3.545   2.854   0.483 -0.3239  0.0896 -1.1655
 2241TP3      O18541   0.517   4.116   0.288  0.4573 -0.1311 -0.8482
 2241TP3     H118542   0.584   4.048   0.284 -0.8509 -1.4479 -0.4853
 2241TP3     H218543   0.497   4.125   0.381  0.0319  0.1869 -0.9696
 2242TP3      O18544   0.141   2.700   9.326  0.4495 -1.0195  0.0524
 2242TP3     H118545   0.143   2.690   9.421 -2.0260 -0.6891  0.1578
 2242TP3     H218546   0.062   2.653   9.298  1.4093 -1.5499 -1.9114
 2243TP3      O18547   0.935   0.455   1.492 -0.0344 -0.0120 -0.3805
 2243TP3     H118548   0.919   0.361   1.492  1.0158 -0.1985  0.5713
 2243TP3     H218549   1.029   0.464   1.480 -0.2199  0.9432 -1.2319
 2244TP3      O18550   1.539   0.071   2.778  0.0706 -0.1965 -0.1189
 2244TP3     H118551   1.498   0.136   2.835  0.1104  0.0277 -0.3455
 2244TP3     H218552   1.492   0.078   2.695  0.7165  0.2300 -0.4585
 2245TP3      O18553   1.546   3.519   9.013  0.6104  0.3467 -0.4154
 2245TP3     H118554   1.600   3.476   8.946  0.2663  0.0721 -0.5186
 2245TP3     H218555   1.498   3.447   9.055  1.2331  0.4627  0.4943
 2246TP3      O18556   2.592   0.997   9.948  0.3309  0.5625 -0.1845
 2246TP3     H118557   2.601   0.906   9.922 -1.5589  0.6980 -1.4146
 2246TP3     H218558   2.515   0.999  10.005  1.3753  1.1235  1.2505
 2247TP3      O18559   4.424   3.258   0.120  0.2967  0.2319 -0.4987
 2247TP3     H118560   4.447   3.168   0.143  2.5460  1.4324  2.2539
 2247TP3     H218561   4.329   3.259   0.118  0.2405 -2.0731 -0.0182
 2248TP3      O18562   0.506   1.553   8.267  0.0613  0.3137 -0.1323
 2248TP3     H118563   0.565   1.499   8.215  0.4473 -0.7031  1.3122
 2248TP3     H218564   0.422   1.507   8.263  0.6530 -1.0140  1.9729
 2249TP3      O18565   3.349   0.359   8.285  0.2303 -0.2503  0.2139
 2249TP3     H118566   3.308   0.337   8.202  2.0934  0.1365 -0.8408
 2249TP3     H218567   3.352   0.455   8.285 -0.5026 -0.2208  1.1097
 2250TP3      O18568   0.097   3.816  10.027  0.1040  0.2837 -0.5287
 2250TP3     H118569   0.130   3.783  10.110 -2.1011 -0.2312  0.1750
 2250TP3     H218570   0.063   3.903  10.049  1.4455  1.0252 -1.3497
 2251TP3      O18571   1.063   1.980   9.166  0.2084  0.0276 -0.2344
 2251TP3     H118572   1.033   2.071   9.175  0.6149  0.2523 -1.0058
 2251TP3     H218573   1.046   1.959   9.074  0.6031 -0.5057 -0.1864
 2252TP3      O18574   2.333   0.102   8.250 -0.3323  0.8594  0.2793
 2252TP3     H118575   2.255   0.133   8.202 -0.1685  0.3141 -0.3556
 2252TP3     H218576   2.383   0.182   8.268 -0.9654  1.1977  0.5549
 2253TP3      O18577   1.180   0.813  10.003 -0.1848  0.4099 -0.4918
 2253TP3     H118578   1.180   0.730   9.954 -0.0582 -1.5738  2.6981
 2253TP3     H218579   1.088   0.830  10.022 -0.0325 -0.4597  1.1282
 2254TP3      O18580   0.142   1.721   9.705 -0.2005  0.2720 -0.2377
 2254TP3     H118581   0.206   1.667   9.659  1.1945  2.1494 -0.5429
 2254TP3     H218582   0.058   1.698   9.666  0.2401 -2.2847  0.2247
 2255TP3      O18583   2.241   0.085   0.484  0.2858  0.2785 -0.2536
 2255TP3     H118584   2.181   0.143   0.531 -0.1025 -0.0509 -0.3385
 2255TP3     H218585   2.199   0.070   0.400  0.5737  0.1811 -0.3821
 2256TP3      O18586   2.030   1.916   0.449 -0.0293  0.1251  0.0184
 2256TP3     H118587   2.086   1.973   0.502  0.4946 -0.4897  0.1287
 2256TP3     H218588   1.946   1.916   0.494  0.5655 -0.8180  1.1613
 2257TP3      O18589   2.499   1.990   7.621  0.6967 -0.3440 -0.4593
 2257TP3     H118590   2.564   1.984   7.552  1.6052 -0.9768  0.4350
 2257TP3     H218591   2.544   2.033   7.694  0.7697 -2.6572  0.9040
 2258TP3      O18592   3.093   5.301   9.426  0.1433  0.0512 -0.8565
 2258TP3     H118593   3.074   5.220   9.379  1.3749 -1.5160  1.2651
 2258TP3     H218594   3.182   5.324   9.400  0.3611 -0.1287 -0.2760
 2259TP3      O18595   1.300   4.401   8.467  0.2930  1.1078 -0.1242
 2259TP3     H118596   1.211   4.435   8.467 -0.7445 -1.4878 -1.0458
 2259TP3     H218597   1.340   4.440   8.389 -1.0894 -0.3094 -1.5580
 2260TP3      O18598   1.242   0.135   1.901 -0.2956  0.3423 -0.2763
 2260TP3     H118599   1.293   0.105   1.825  0.1648  1.0493 -0.2512
 2260TP3     H218600   1.184   0.062   1.921 -0.2810  0.0666 -1.1911
 2261TP3      O18601   0.101   4.402   8.528  0.1170  0.6293  0.2772
 2261TP3     H118602   0.119   4.310   8.550 -0.8031  0.9713  2.5422
 2261TP3     H218603   0.036   4.397   8.458  1.1124 -0.4418 -0.6005
 2262TP3      O18604   0.352   1.540   8.549  0.3678 -0.2806 -0.5492
 2262TP3     H118605   0.406   1.479   8.599  0.3458  0.6972  0.7097
 2262TP3     H218606   0.306   1.486   8.485  3.0563 -1.0985 -1.8577
 2263TP3      O18607   1.770   0.500   0.324  0.0739  0.0428 -0.5422
 2263TP3     H118608   1.809   0.522   0.409  0.1246 -1.3787 -0.1808
 2263TP3     H218609   1.752   0.584   0.283  1.6905  0.7454  0.1380
 2264TP3      O18610   4.830   4.114   2.704  0.1249  0.2753 -0.0747
 2264TP3     H118611   4.835   4.153   2.792 -0.3110 -0.5078  0.3084
 2264TP3     H218612   4.898   4.046   2.704  0.0628  0.2134 -0.3044
 2265TP3      O18613   0.942   1.498   2.204 -0.1834 -0.2059 -0.1693
 2265TP3     H118614   0.949   1.452   2.288  1.0237  1.7273  0.8421
 2265TP3     H218615   1.020   1.472   2.155  0.3742  0.5478  0.3053
 2266TP3      O18616   5.054   1.592   8.066  0.4421 -0.4715  0.1551
 2266TP3     H118617   5.017   1.547   8.142 -1.4992 -1.0568 -1.0913
 2266TP3     H218618   5.007   1.676   8.063 -1.2263 -1.4105 -1.7027
 2267TP3      O18619   3.224   1.566   0.522  0.5091 -0.1875 -0.4337
 2267TP3     H118620   3.319   1.570   0.527  0.4017  0.5568  1.2952
 2267TP3     H218621   3.195   1.566   0.614 -1.1415 -0.7050 -0.9319
 2268TP3      O18622   0.898   1.268   0.958  0.0225 -0.7383 -0.2745
 2268TP3     H118623   0.875   1.347   0.909 -3.3463 -0.0642  2.1499
 2268TP3     H218624   0.959   1.298   1.025 -2.0051  0.0871  1.2583
 2269TP3      O18625   0.449   1.038   0.399  0.0366 -0.0551  0.1378
 2269TP3     H118626   0.432   1.072   0.487 -4.4552  1.4346 -1.1264
 2269TP3     H218627   0.478   1.114   0.349  2.8802 -0.9619  0.3471
 2270TP3      O18628   0.106   3.538   2.631 -0.3163 -0.0491 -0.2133
 2270TP3     H118629   0.138   3.609   2.686  1.1585  0.1096 -1.2337
 2270TP3     H218630   0.042   3.493   2.685  1.2315 -0.0132  1.7118
 2271TP3      O18631   4.571   2.033   2.651  0.0278  0.6619  0.7184
 2271TP3     H118632   4.590   2.013   2.560 -0.1967  0.6931  0.6650
 2271TP3     H218633   4.532   2.120   2.649  0.0684  0.6836  0.8488
 2272TP3      O18634   5.476   2.068   7.893  0.1735 -0.0786  0.0109
 2272TP3     H118635   5.529   2.004   7.941  0.9646 -1.8149 -3.0288
 2272TP3     H218636   5.411   2.098   7.956  1.3258 -2.0810  2.2185
 2273TP3      O18637   0.835   1.050   9.341 -0.0629  0.4686  0.2921
 2273TP3     H118638   0.741   1.064   9.355 -0.1033 -0.0317  0.5245
 2273TP3     H218639   0.839   0.989   9.267  0.1271  2.3117 -1.2609
 2274TP3      O18640   5.502   1.635   2.862  0.3624 -0.7151 -0.1017
 2274TP3     H118641   5.517   1.558   2.916  0.3155 -1.1553 -0.7095
 2274TP3     H218642   5.569   1.698   2.890 -0.6350 -0.3574  1.5440
 2275TP3      O18643   1.848   1.145   1.962  0.3794  0.2530  0.6245
 2275TP3     H118644   1.804   1.086   1.901  1.7665 -0.9828  0.8127
 2275TP3     H218645   1.898   1.204   1.905 -0.2146  0.6204  0.4779
 2276TP3      O18646   3.271   3.564   9.203 -0.3803  0.1056  0.3110
 2276TP3     H118647   3.262   3.470   9.184  0.5465  0.4496 -1.8898
 2276TP3     H218648   3.284   3.605   9.118  0.1872  2.1332  1.3465
 2277TP3      O18649   4.442   0.355   8.218 -0.0119 -0.1478 -0.2222
 2277TP3     H118650   4.485   0.441   8.214 -1.3331  0.5435  0.3001
 2277TP3     H218651   4.513   0.295   8.239  0.9215  0.8265 -0.5200
 2278TP3      O18652   1.794   3.882   2.540 -0.0534  0.6436  0.0661
 2278TP3     H118653   1.832   3.910   2.624  1.1177 -0.7968  0.0497
 2278TP3     H218654   1.729   3.817   2.563 -0.4042  0.9409 -0.0854
 2279TP3      O18655   0.997   0.628   9.721 -0.2283  0.4512  0.9121
 2279TP3     H118656   0.967   0.549   9.676  1.2767 -0.0279  0.7282
 2279TP3     H218657   1.090   0.632   9.702 -0.4582  2.8180  0.0758
 2280TP3      O18658   0.081   5.463   8.955  0.0578  0.2179  0.4274
 2280TP3     H118659   0.019   5.492   8.888  1.2345  0.2764 -0.6707
 2280TP3     H218660   0.075   5.529   9.024 -2.9031 -1.1108  1.5073
 2281TP3      O18661   4.611   2.735   8.931  0.0155 -0.1589 -0.3471
 2281TP3     H118662   4.601   2.775   8.845  2.4696  0.9554 -0.1630
 2281TP3     H218663   4.673   2.663   8.918 -0.1073 -0.3998  0.3570
 2282TP3      O18664   1.171   1.522   8.546  0.0972  0.2807 -0.5045
 2282TP3     H118665   1.205   1.534   8.634 -0.0453  1.1291 -0.5563
 2282TP3     H218666   1.076   1.524   8.556  0.0690 -0.5259 -0.5640
 2283TP3      O18667   1.518   5.175   0.744 -0.0990 -0.0456 -0.3325
 2283TP3     H118668   1.568   5.097   0.717 -0.8649 -0.4215 -0.6938
 2283TP3     H218669   1.445   5.178   0.682 -0.4966  0.5236  0.1688
 2284TP3      O18670   2.862   1.488   3.380 -0.3104 -0.8053 -0.3196
 2284TP3     H118671   2.889   1.540   3.304 -2.5761 -0.3173 -0.8449
 2284TP3     H218672   2.770   1.511   3.392 -0.1992 -1.5197  2.0791
 2285TP3      O18673   0.663   3.792   0.108  0.6860 -0.2822 -0.2880
 2285TP3     H118674   0.737   3.798   0.049 -0.0963 -1.3774 -1.4113
 2285TP3     H218675   0.691   3.838   0.187  3.1079 -1.9367 -0.1331
 2286TP3      O18676   0.934   5.253   9.470 -0.9412  0.7363 -0.3799
 2286TP3     H118677   0.920   5.287   9.558 -1.9204 -1.8369  0.4906
 2286TP3     H218678   0.861   5.193   9.455  1.9758 -2.8546 -0.9002
 2287TP3      O18679   0.537   4.394   7.186 -0.2847  0.4562  0.0188
 2287TP3     H118680   0.447   4.366   7.167 -0.2654 -1.2532  2.3222
 2287TP3     H218681   0.592   4.333   7.137 -0.3496  0.5224 -0.1369
 2288TP3      O18682   4.410   0.375   3.180  0.0630 -0.2799  0.9203
 2288TP3     H118683   4.486   0.338   3.224  0.8647  1.0789  0.7114
 2288TP3     H218684   4.435   0.465   3.159  0.1471 -1.1676 -3.2743
 2289TP3      O18685   0.582   3.939   8.285 -0.2220  0.2048  0.0100
 2289TP3     H118686   0.487   3.940   8.274 -0.2705 -0.0816  0.3612
 2289TP3     H218687   0.616   3.982   8.207 -0.5639 -1.4210 -1.0689
 2290TP3      O18688   2.098   0.688   8.729  0.2052 -0.2264  0.3191
 2290TP3     H118689   2.039   0.749   8.684  2.8188  3.2300  1.3032
 2290TP3     H218690   2.044   0.646   8.795 -1.8722  0.4408 -0.9098
 2291TP3      O18691   5.438   4.939   8.592 -0.3563 -0.2728 -0.3456
 2291TP3     H118692   5.480   4.854   8.575 -2.8900 -1.0713 -3.0257
 2291TP3     H218693   5.348   4.917   8.614 -0.7379  1.6921  0.1244
 2292TP3      O18694   0.055   3.992   1.617 -0.2305 -0.0601 -0.1448
 2292TP3     H118695  -0.013   4.059   1.608  1.3953  1.2642 -3.7174
 2292TP3     H218696   0.137   4.042   1.617  0.9141 -1.9085 -0.5128
 2293TP3      O18697   5.515   0.499   8.242 -0.2602  0.2612  0.3379
 2293TP3     H118698   5.494   0.524   8.152  1.0489  1.1865  0.2851
 2293TP3     H218699   5.554   0.412   8.234 -2.1824 -0.6182  0.2422
 2294TP3      O18700   2.941   4.848   2.575  0.1749  0.2373  0.0416
 2294TP3     H118701   2.854   4.816   2.600 -0.1801  1.4467  0.3495
 2294TP3     H218702   2.970   4.900   2.650  1.9155 -1.5597  0.6861
 2295TP3      O18703   4.782   4.802  10.215  0.0205  0.1760 -0.3362
 2295TP3     H118704   4.807   4.857  10.290  0.2775 -1.4145  0.7621
 2295TP3     H218705   4.856   4.742  10.204 -0.8783 -0.8890 -0.6249
 2296TP3      O18706   4.864   0.039   1.193 -0.5448  0.0007 -0.3639
 2296TP3     H118707   4.783   0.003   1.228  0.1635 -0.7496  0.5228
 2296TP3     H218708   4.933  -0.014   1.234  0.5166  2.3309  0.9318
 2297TP3      O18709   3.751   4.699   7.870 -0.3977 -0.0121 -0.5831
 2297TP3     H118710   3.807   4.758   7.921  1.3752 -1.2327 -1.0413
 2297TP3     H218711   3.685   4.668   7.933  0.3003  0.3605  0.3470
 2298TP3      O18712   4.034   0.861   0.500  0.5176  0.2457  0.7633
 2298TP3     H118713   4.122   0.852   0.462  0.3209 -0.1762  0.3939
 2298TP3     H218714   3.977   0.875   0.424  0.2676  0.5227  1.0034
 2299TP3      O18715   2.906   0.531   1.522  0.5525  0.1543 -0.4206
 2299TP3     H118716   2.825   0.511   1.476 -1.2514  1.2217  2.1828
 2299TP3     H218717   2.915   0.626   1.515 -1.0471  0.6639  3.3795
 2300TP3      O18718   4.306   3.231   2.364 -0.1594 -0.1766  0.4426
 2300TP3     H118719   4.255   3.158   2.400 -1.3637 -0.1125 -1.0899
 2300TP3     H218720   4.394   3.218   2.400 -0.5879 -1.8244  0.9663
 2301TP3      O18721   3.758   3.608   8.216  0.0447 -0.1344  0.3205
 2301TP3     H118722   3.752   3.679   8.280 -0.7721  0.0402  0.0561
 2301TP3     H218723   3.781   3.652   8.134  1.0482 -0.3534  0.4716
 2302TP3      O18724   0.970   5.246   1.010  0.0328  0.0392 -0.4014
 2302TP3     H118725   1.065   5.252   1.023  0.2401 -3.5157  0.3725
 2302TP3     H218726   0.960   5.192   0.932 -1.3362 -0.7344  0.2815
 2303TP3      O18727   4.461   2.475   0.569 -0.5598 -0.5199  0.1288
 2303TP3     H118728   4.547   2.444   0.595 -0.0051  0.9029  0.0507
 2303TP3     H218729   4.478   2.539   0.500 -1.7349 -0.9278 -0.5434
 2304TP3      O18730   0.738   2.146   1.901 -0.5480 -0.1246 -0.5141
 2304TP3     H118731   0.772   2.107   1.981  1.7106  2.6110 -0.0512
 2304TP3     H218732   0.808   2.132   1.836 -1.4638 -0.4592 -1.4496
 2305TP3      O18733   3.741   4.537   9.061  0.8700  0.2917 -0.3432
 2305TP3     H118734   3.747   4.581   9.145 -1.8252 -0.8541  0.5166
 2305TP3     H218735   3.795   4.458   9.072  0.9267  0.3951  0.1395
 2306TP3      O18736   4.848   0.048   9.986  0.2348 -0.6151  0.3569
 2306TP3     H118737   4.912   0.103   9.942  1.2479 -1.7934  0.3112
 2306TP3     H218738   4.868  -0.041   9.954 -0.6864 -1.1372  1.2170
 2307TP3      O18739   0.033   2.307   2.170 -0.3946  0.1652 -0.0954
 2307TP3     H118740  -0.011   2.222   2.171 -1.7574  0.8486 -0.5716
 2307TP3     H218741  -0.037   2.371   2.182  0.6467  1.2200  0.5588
 2308TP3      O18742   2.671   1.140   8.495  0.5373 -0.3037  0.5477
 2308TP3     H118743   2.615   1.110   8.567  2.0105 -0.9794  1.4247
 2308TP3     H218744   2.622   1.212   8.455 -1.3910 -1.4921  0.7002
 2309TP3      O18745   1.632   0.276   0.444 -0.9890  0.1148  0.1756
 2309TP3     H118746   1.693   0.343   0.412 -0.8946 -0.1570 -0.2190
 2309TP3     H218747   1.605   0.307   0.530 -0.8090  0.5752  0.0677
 2310TP3      O18748   1.875   4.011   9.345  0.0053 -0.3186 -0.2276
 2310TP3     H118749   1.793   4.056   9.325  1.2042  1.1212 -2.0624
 2310TP3     H218750   1.877   3.936   9.285  0.7347  0.5108 -1.2461
 2311TP3      O18751   3.795   2.676   0.332  0.4347 -0.0056 -0.0346
 2311TP3     H118752   3.708   2.696   0.367  0.7032  0.0154  0.6207
 2311TP3     H218753   3.851   2.746   0.365  0.5404  0.4336 -1.1251
 2312TP3      O18754   3.600   2.421   2.591 -0.2542  0.2486 -0.0637
 2312TP3     H118755   3.668   2.360   2.620 -1.3849 -0.8261  0.3940
 2312TP3     H218756   3.632   2.456   2.508 -0.1805 -1.9739 -0.9964
 2313TP3      O18757   2.786   5.140   0.077 -0.2607 -0.2666  0.5782
 2313TP3     H118758   2.804   5.047   0.088 -1.0355 -0.3335  1.2387
 2313TP3     H218759   2.698   5.144   0.041 -0.1937  0.2135  0.4593
 2314TP3      O18760   3.435   1.517   7.870 -0.6844  0.0479  0.2463
 2314TP3     H118761   3.475   1.552   7.790  0.5368 -0.1791  0.7399
 2314TP3     H218762   3.361   1.465   7.838  1.1991 -2.0289 -0.9723
 2315TP3      O18763   2.910   3.917  10.011  0.0292 -0.8368 -0.0217
 2315TP3     H118764   2.927   3.996   9.959 -1.2969  0.1109  0.9364
 2315TP3     H218765   2.824   3.887   9.980 -0.2907 -0.8621  0.8777
 2316TP3      O18766   2.757   2.489   9.335  0.8153 -0.0993  0.2711
 2316TP3     H118767   2.670   2.451   9.326  0.5032  0.7163 -0.2572
 2316TP3     H218768   2.814   2.415   9.356  0.0172 -0.6541  0.4926
 2317TP3      O18769   2.238   0.544   0.421 -0.2471 -0.1465  0.0161
 2317TP3     H118770   2.225   0.500   0.337  0.3150 -1.0802  0.4243
 2317TP3     H218771   2.270   0.631   0.397 -0.0750 -0.4117 -0.7363
 2318TP3      O18772   1.971   4.679   0.501 -0.5169  0.3633 -0.7657
 2318TP3     H118773   2.035   4.694   0.431  1.3276  0.0649  0.7991
 2318TP3     H218774   1.901   4.630   0.459  0.9548 -0.5387 -2.2343
 2319TP3      O18775   5.235   2.462   2.735 -0.4635  0.4228 -0.0860
 2319TP3     H118776   5.251   2.398   2.665 -2.8799  0.8071 -1.0331
 2319TP3     H218777   5.261   2.546   2.697  0.5307  0.3114  0.3442
 2320TP3      O18778   4.355   5.341   0.181 -0.3721  0.3983  0.7474
 2320TP3     H118779   4.373   5.331   0.274  1.1855 -0.5328  0.3672
 2320TP3     H218780   4.304   5.263   0.157  0.3484 -0.0144  0.5514
 2321TP3      O18781   4.974   3.907   9.270  0.1427 -0.3649 -0.5002
 2321TP3     H118782   4.984   3.857   9.188  1.7119 -0.0990 -0.4895
 2321TP3     H218783   5.064   3.924   9.298 -0.3835 -1.0849  1.6741
 2322TP3      O18784   2.191   5.417   8.027  0.2354  0.3499  0.3502
 2322TP3     H118785   2.165   5.508   8.041 -0.9262  0.3424 -1.6017
 2322TP3     H218786   2.109   5.370   8.020  0.8302 -0.6593  0.1356
 2323TP3      O18787   4.029   0.454   8.588  0.1288 -0.2782  0.1046
 2323TP3     H118788   3.959   0.405   8.545 -0.9765  0.0701  1.4802
 2323TP3     H218789   4.056   0.519   8.523 -0.7345 -0.4882 -0.4779
 2324TP3      O18790   2.572   4.257   3.238  0.1996 -0.1824  0.3127
 2324TP3     H118791   2.480   4.251   3.265 -0.3298  0.9912 -1.1896
 2324TP3     H218792   2.615   4.303   3.311 -0.7599  0.8814  0.2167
 2325TP3      O18793   1.677   2.843   9.971  0.2028 -0.7942  0.0112
 2325TP3     H118794   1.586   2.837  10.001 -0.2735  0.0378 -1.2346
 2325TP3     H218795   1.706   2.929   9.999  0.8585 -1.3526  1.0681
 2326TP3      O18796   4.338   5.186   2.484  0.1073 -0.3427  0.1737
 2326TP3     H118797   4.387   5.140   2.552  2.5933  1.9531  0.0011
 2326TP3     H218798   4.271   5.235   2.532  0.0897 -0.8635  0.6948
 2327TP3      O18799   1.252   2.295   8.800 -0.5351  0.4081 -0.6007
 2327TP3     H118800   1.319   2.276   8.865  0.1772  1.7691 -0.9177
 2327TP3     H218801   1.175   2.247   8.830  0.5434 -1.0715 -0.1762
 2328TP3      O18802   4.050   4.757   8.480 -0.1499  0.0291 -0.2248
 2328TP3     H118803   4.054   4.849   8.506 -0.2536 -0.5135  1.7802
 2328TP3     H218804   3.961   4.745   8.446 -0.9608  0.0931  1.8233
 2329TP3      O18805   3.647   4.935   1.845 -0.0135 -0.5877 -0.2695
 2329TP3     H118806   3.575   4.883   1.878 -0.1397  0.2656  0.8312
 2329TP3     H218807   3.673   4.990   1.919 -0.8012  1.9053 -1.7738
 2330TP3      O18808   1.857   1.080   7.978  0.4540 -0.7515  0.2451
 2330TP3     H118809   1.941   1.113   8.012  0.3375  0.1308 -0.2988
 2330TP3     H218810   1.862   0.986   7.989  2.0292 -0.8150 -0.8785
 2331TP3      O18811   3.184   4.670  10.305  0.0653  0.2911  0.1144
 2331TP3     H118812   3.120   4.662  10.234  2.9727 -0.1705 -2.5837
 2331TP3     H218813   3.204   4.764  10.310  0.8033  0.1794 -0.5933
 2332TP3      O18814   3.867   4.459   0.474  0.1208 -0.3090  0.6890
 2332TP3     H118815   3.958   4.434   0.490  0.4209  0.7319  0.5995
 2332TP3     H218816   3.870   4.512   0.395 -0.5693 -0.2488  0.6969
 2333TP3      O18817   2.133   0.411   8.197  0.6488  0.0896 -0.0223
 2333TP3     H118818   2.152   0.413   8.290 -2.4044 -0.3008  0.6632
 2333TP3     H218819   2.045   0.450   8.189  1.5825  1.7860 -2.9334
 2334TP3      O18820   5.192   1.022   2.592  0.2358  0.1055 -0.1626
 2334TP3     H118821   5.223   1.055   2.508  0.9000  0.4007  0.1979
 2334TP3     H218822   5.205   1.095   2.653 -0.4849 -0.0172  0.1422
 2335TP3      O18823   5.416   2.436   9.481  0.4587 -0.1326  0.0197
 2335TP3     H118824   5.510   2.436   9.501 -0.0536 -1.6859  2.5168
 2335TP3     H218825   5.393   2.344   9.475 -1.4521  0.1738  2.1286
 2336TP3      O18826   1.190   1.100   1.507 -0.0693  0.3441  0.3551
 2336TP3     H118827   1.217   1.182   1.465 -0.3290  0.3622  0.2248
 2336TP3     H218828   1.099   1.115   1.532 -0.0230  0.2047  0.6077
 2337TP3      O18829   2.220   4.419   9.736  0.5846  0.0045  0.6923
 2337TP3     H118830   2.240   4.344   9.793  0.4131  1.6341  2.9440
 2337TP3     H218831   2.129   4.407   9.712  1.4814 -2.3425 -1.8192
 2338TP3      O18832   4.218   0.814   1.584  0.1638 -0.2643 -0.5164
 2338TP3     H118833   4.282   0.834   1.515  0.9524 -0.0619  0.2689
 2338TP3     H218834   4.254   0.738   1.628  0.3373  0.4090  0.5214
 2339TP3      O18835   3.224   3.413   1.299 -0.4763 -0.0027  0.4550
 2339TP3     H118836   3.290   3.481   1.314 -1.9017  1.2141  1.2602
 2339TP3     H218837   3.141   3.455   1.319 -1.5515 -1.4225 -0.8916
 2340TP3      O18838   2.853   1.997   9.424 -0.3450 -0.5277 -0.3432
 2340TP3     H118839   2.773   2.020   9.471 -0.9025 -1.6809 -0.7212
 2340TP3     H218840   2.871   1.907   9.451  0.6643 -0.3756 -0.4898
 2341TP3      O18841   0.450   0.800   9.938 -0.0183 -0.3317  0.0993
 2341TP3     H118842   0.496   0.804  10.022  0.1144 -0.3750  0.0290
 2341TP3     H218843   0.368   0.756   9.957  0.7619 -1.8961 -0.1253
 2342TP3      O18844   4.150   5.122   1.106 -0.5622 -0.5878  0.5694
 2342TP3     H118845   4.145   5.098   1.198  1.6365 -0.8303  0.6518
 2342TP3     H218846   4.233   5.168   1.098 -2.1232  2.0801 -0.7133
 2343TP3      O18847   0.970   3.042   0.999 -0.5269  0.3485  0.1108
 2343TP3     H118848   0.998   3.020   0.910 -0.4080  2.1267 -0.3143
 2343TP3     H218849   0.874   3.045   0.994 -0.4680  1.6666 -0.2599
 2344TP3      O18850   4.123   1.418   1.947  0.6492 -0.8975 -0.0306
 2344TP3     H118851   4.108   1.363   2.024 -1.3206  0.4030  0.5631
 2344TP3     H218852   4.054   1.393   1.886  0.7242 -0.2214 -0.3932
 2345TP3      O18853   2.741   1.225   0.129  0.5968 -1.0388 -0.1192
 2345TP3     H118854   2.689   1.205   0.051  1.3427 -0.3393 -0.7977
 2345TP3     H218855   2.733   1.146   0.183 -0.5729 -1.2210 -0.5304
 2346TP3      O18856   4.987   0.004   8.400  0.1571 -0.0596 -0.0964
 2346TP3     H118857   5.077   0.015   8.369  1.0517 -2.2386  1.5780
 2346TP3     H218858   4.934   0.055   8.339  2.5024  1.1173 -1.2204
 2347TP3      O18859   0.516   1.360   1.731 -0.0847  0.2064  0.2279
 2347TP3     H118860   0.466   1.431   1.772 -0.9472 -0.0414 -0.4093
 2347TP3     H218861   0.572   1.327   1.802  1.0463  2.1740  0.2824
 2348TP3      O18862   4.641   1.254   0.186  0.1992  0.5022  0.1059
 2348TP3     H118863   4.660   1.217   0.099  1.7621  1.0579  0.1931
 2348TP3     H218864   4.725   1.252   0.231 -0.3767  1.2646  1.2149
 2349TP3      O18865   4.570   3.052   1.677  0.6620 -0.2981 -0.0771
 2349TP3     H118866   4.565   3.010   1.591  0.3698 -1.1622  0.3554
 2349TP3     H218867   4.501   3.009   1.728  0.9254  0.1161  0.6273
 2350TP3      O18868   2.722   4.326   0.319 -0.1925 -0.2217 -0.3921
 2350TP3     H118869   2.725   4.388   0.391 -0.4711 -0.4680 -0.1650
 2350TP3     H218870   2.807   4.335   0.276  0.2276 -0.5378  0.3618
 2351TP3      O18871   0.305   1.155   8.600  0.3668 -0.1417  0.3981
 2351TP3     H118872   0.378   1.182   8.544  0.6548  1.4016  1.4635
 2351TP3     H218873   0.234   1.136   8.539  1.0538  0.2804 -0.5553
 2352TP3      O18874   3.470   5.485   8.308 -0.1345  0.3265  0.4224
 2352TP3     H118875   3.558   5.453   8.290  0.1125  0.8402  0.6952
 2352TP3     H218876   3.440   5.521   8.225 -0.0396  0.2646  0.3596
 2353TP3      O18877   1.944   1.956   7.766  0.4818  0.1726 -0.8408
 2353TP3     H118878   1.963   2.047   7.743  1.2411  0.2464  0.0518
 2353TP3     H218879   2.030   1.918   7.785  0.2096 -0.8628 -1.6784
 2354TP3      O18880   4.651   4.297   0.583  0.5843  0.6330  0.1342
 2354TP3     H118881   4.583   4.301   0.515 -0.5509  1.1751  1.2604
 2354TP3     H218882   4.725   4.255   0.541 -0.3932  0.1962 -1.1913
 2355TP3      O18883   0.746   1.022   8.051  0.0155 -0.0184 -0.1588
 2355TP3     H118884   0.694   1.102   8.045 -2.2252 -1.3926  0.3154
 2355TP3     H218885   0.820   1.046   8.107 -2.5113  0.7959  3.0077
 2356TP3      O18886   3.632   0.971   0.905  0.0147  0.6193 -0.5606
 2356TP3     H118887   3.705   0.909   0.912 -0.9309 -0.2849  1.5870
 2356TP3     H218888   3.615   0.976   0.811  0.5306 -1.9360 -0.8431
 2357TP3      O18889   1.872   0.229   0.829  0.3360  0.1052  0.8923
 2357TP3     H118890   1.804   0.293   0.808  2.1598  1.3436 -1.4701
 2357TP3     H218891   1.911   0.261   0.911  0.5360  1.4619  0.2821
 2358TP3      O18892   2.339   2.747   8.570  0.0450 -0.5982 -0.3259
 2358TP3     H118893   2.393   2.679   8.530  1.2882 -0.1460  0.5534
 2358TP3     H218894   2.395   2.787   8.636 -0.6452  1.3370 -0.8737
 2359TP3      O18895   2.542   3.797   8.548  0.0584  0.4421 -0.3225
 2359TP3     H118896   2.576   3.881   8.516  0.6964  0.6105  0.7792
 2359TP3     H218897   2.512   3.752   8.469  2.5633  0.4132 -1.3091
 2360TP3      O18898   1.318   0.513  10.088  0.7705  0.0236  0.1789
 2360TP3     H118899   1.368   0.455  10.145  1.8291  0.2909 -0.4685
 2360TP3     H218900   1.342   0.601  10.115  0.7901  0.1556 -0.2543
 2361TP3      O18901   2.381   0.986   9.348  0.2379  0.2399 -0.0844
 2361TP3     H118902   2.406   1.077   9.333 -1.3821  1.2602  2.9748
 2361TP3     H218903   2.300   0.975   9.297  1.6056 -0.1697 -2.2049
 2362TP3      O18904   3.172   3.885   1.485  0.2618 -0.5293  0.2723
 2362TP3     H118905   3.212   3.830   1.418  1.0597  0.7320 -0.3129
 2362TP3     H218906   3.083   3.852   1.494 -0.0735 -0.2963 -1.8903
 2363TP3      O18907   5.175   1.169   1.590 -0.2858 -0.0308  0.6103
 2363TP3     H118908   5.230   1.228   1.642  0.1491  1.1383 -1.1388
 2363TP3     H218909   5.086   1.186   1.622  0.2375 -1.3756  2.9131
 2364TP3      O18910   4.297   2.530   0.959 -0.0480 -0.2778 -0.2821
 2364TP3     H118911   4.238   2.489   1.024  0.7505  1.8856  1.8835
 2364TP3     H218912   4.385   2.505   0.987  0.2635 -0.1090 -1.0979
 2365TP3      O18913   1.062   2.510   9.758  0.0015  0.2154  0.1970
 2365TP3     H118914   0.976   2.471   9.772 -0.7455  2.2268  1.3744
 2365TP3     H218915   1.090   2.538   9.845  1.1175  1.0837 -0.4326
 2366TP3      O18916   0.532   1.151   2.224 -0.1649 -0.2128  0.1908
 2366TP3     H118917   0.474   1.205   2.169 -0.4474  0.5481  1.2321
 2366TP3     H218918   0.577   1.214   2.280 -0.7686 -1.0783  1.6756
 2367TP3      O18919   2.928   4.453   0.200  0.1169 -0.7880  0.0995
 2367TP3     H118920   2.978   4.525   0.240 -2.2943  0.6632  0.6058
 2367TP3     H218921   2.924   4.477   0.107  1.0777 -1.3622 -0.0992
 2368TP3      O18922   3.717   2.599   7.399  0.6605  0.3503 -0.1833
 2368TP3     H118923   3.622   2.588   7.394  0.7529  0.0985 -1.8125
 2368TP3     H218924   3.751   2.510   7.406  0.7612  0.4715  0.9727
 2369TP3      O18925   2.375   3.902   9.804 -0.0553  0.1890 -0.2341
 2369TP3     H118926   2.322   3.845   9.860  1.2924 -0.3221  0.5643
 2369TP3     H218927   2.409   3.844   9.736  1.6254 -0.0736  0.7943
 2370TP3      O18928   4.809   0.571   1.999 -0.2468  0.8389  0.4044
 2370TP3     H118929   4.883   0.510   2.000  0.1620  1.3340  0.8515
 2370TP3     H218930   4.737   0.520   2.036 -0.0922  0.3974  0.1049
 2371TP3      O18931   1.239   1.352   0.090  0.1499  0.5900  0.7186
 2371TP3     H118932   1.291   1.309   0.159  0.2141 -0.4484  0.0380
 2371TP3     H218933   1.296   1.421   0.057  2.0589 -1.9833 -1.5803
 2372TP3      O18934   2.116   2.227   2.576  0.0139 -0.6086  0.0057
 2372TP3     H118935   2.149   2.240   2.487  0.8819 -1.5328  0.1951
 2372TP3     H218936   2.177   2.275   2.631 -1.1366  0.8768  0.0237
 2373TP3      O18937   0.820   4.433   0.975  0.2017  0.4607  0.4527
 2373TP3     H118938   0.831   4.421   0.881  1.4689 -1.7257  0.8505
 2373TP3     H218939   0.727   4.447   0.987  0.1493  1.7133 -1.2142
 2374TP3      O18940   1.698   1.324   0.730  0.9342 -0.6993  0.0821
 2374TP3     H118941   1.628   1.285   0.782 -0.4951  0.4367 -0.9515
 2374TP3     H218942   1.678   1.298   0.640  2.0122 -0.6054 -0.1891
 2375TP3      O18943   2.093   2.257   8.810 -0.3204 -0.1683  0.1039
 2375TP3     H118944   2.036   2.330   8.833 -0.7155  0.1514 -1.8186
 2375TP3     H218945   2.036   2.194   8.767  0.9576  0.7341 -3.0395
 2376TP3      O18946   4.284   0.119   7.557 -0.3552 -0.0999 -0.1104
 2376TP3     H118947   4.212   0.097   7.617  1.3642 -0.3032  1.9198
 2376TP3     H218948   4.339   0.179   7.606  1.5476 -0.9340 -1.1673
 2377TP3      O18949   0.319   2.836   7.316 -0.0677  0.0946 -0.4719
 2377TP3     H118950   0.280   2.753   7.344  1.2986 -1.2857 -2.4957
 2377TP3     H218951   0.255   2.873   7.255  0.1623 -0.4182 -1.0320
 2378TP3      O18952   4.881   2.684   7.466  0.8813  0.1619 -0.1168
 2378TP3     H118953   4.920   2.659   7.550  2.6814  0.4576 -0.8410
 2378TP3     H218954   4.951   2.668   7.402 -0.7099 -0.7688 -1.6591
 2379TP3      O18955   2.486   1.188   7.612 -0.6222 -0.4130  0.3550
 2379TP3     H118956   2.405   1.238   7.623  0.3354  1.0090  1.1182
 2379TP3     H218957   2.525   1.223   7.532 -0.9295 -1.3459 -0.2083
 2380TP3      O18958   2.154   5.082   8.818 -0.2776 -0.1789 -0.9365
 2380TP3     H118959   2.242   5.066   8.851 -0.9449 -1.2609  0.3881
 2380TP3     H218960   2.161   5.164   8.769  1.1768  0.4115  0.2219
 2381TP3      O18961   3.758   4.942  10.065 -0.8413  0.4731 -0.0561
 2381TP3     H118962   3.769   4.862  10.117 -1.1771 -0.1553 -0.9407
 2381TP3     H218963   3.841   4.951  10.019 -0.9019  0.4901 -0.1599
 2382TP3      O18964   0.414   0.329   8.123  0.0060  0.3126 -0.6362
 2382TP3     H118965   0.429   0.416   8.159 -1.6710 -0.1666  1.3616
 2382TP3     H218966   0.453   0.270   8.188 -0.6250 -0.4861 -0.9758
 2383TP3      O18967   3.867   4.084   0.865  0.2815 -0.1963 -0.0497
 2383TP3     H118968   3.901   4.064   0.777  0.7571 -0.9872  0.3063
 2383TP3     H218969   3.919   4.157   0.895 -0.4048  0.5898 -0.7355
 2384TP3      O18970   3.180   0.682   8.722  0.2198  0.1554 -0.1842
 2384TP3     H118971   3.263   0.685   8.674  0.5486 -0.3008  0.3644
 2384TP3     H218972   3.203   0.705   8.812 -0.1190 -0.7874  0.1455
 2385TP3      O18973   2.007   2.944   9.420 -0.0530 -0.0890  0.1621
 2385TP3     H118974   2.006   3.035   9.393  1.2504 -0.3489 -0.7855
 2385TP3     H218975   1.988   2.895   9.340 -1.4163 -0.6354  0.7957
 2386TP3      O18976   1.670   2.226   0.654  0.5399 -0.2735 -0.2604
 2386TP3     H118977   1.640   2.199   0.740 -1.8900  2.5886 -0.1355
 2386TP3     H218978   1.590   2.246   0.605  1.8350 -2.1346 -3.3264
 2387TP3      O18979   2.963   1.562   9.775 -0.1999 -0.0391 -0.0273
 2387TP3     H118980   2.955   1.467   9.777  0.6609 -0.1138  3.1024
 2387TP3     H218981   2.930   1.590   9.861 -0.2340  2.4738 -0.8231
 2388TP3      O18982   4.954   2.396   8.244 -0.5799  0.4060 -0.7083
 2388TP3     H118983   4.975   2.302   8.250  0.2259  0.6183 -0.0288
 2388TP3     H218984   4.898   2.413   8.319  0.7492  0.8324  0.2138
 2389TP3      O18985   4.915   4.465  10.281  0.0157 -0.2948 -0.9588
 2389TP3     H118986   4.941   4.532  10.219 -2.4560  1.3715 -0.2710
 2389TP3     H218987   4.924   4.506  10.367 -2.2058 -0.5540 -0.5664
 2390TP3      O18988   0.087   0.567   1.075 -0.0154 -0.1579 -0.1035
 2390TP3     H118989   0.143   0.644   1.086  0.0274 -0.2219  0.1184
 2390TP3     H218990   0.139   0.509   1.019  1.4248 -1.5050  2.5780
 2391TP3      O18991   4.212   3.862   0.220 -0.2462  0.5110  0.4362
 2391TP3     H118992   4.276   3.926   0.188  1.3196 -1.4149 -0.4293
 2391TP3     H218993   4.264   3.784   0.239 -2.3865 -1.2456 -0.6815
 2392TP3      O18994   5.485   4.270   0.490  0.4577 -0.1190 -0.2733
 2392TP3     H118995   5.504   4.183   0.523  0.9898 -0.5657 -1.7231
 2392TP3     H218996   5.542   4.328   0.540 -1.7637 -0.2544  2.5724
 2393TP3      O18997   1.394   3.250   2.643  0.1517 -0.0445  0.4334
 2393TP3     H118998   1.407   3.323   2.583 -0.4174 -0.0233  0.3304
 2393TP3     H218999   1.475   3.244   2.692 -0.3467  1.5912  1.4743
 2394TP3      O19000   3.716   0.201   9.728 -0.0183 -0.1152  0.2442
 2394TP3     H119001   3.750   0.140   9.793 -1.0855 -0.4703  0.4841
 2394TP3     H219002   3.754   0.285   9.752  1.8474 -0.7647 -0.3910
 2395TP3      O19003   5.390   0.074   0.509  0.1254 -0.2483  0.5469
 2395TP3     H119004   5.460   0.045   0.450 -0.9005 -1.2026 -0.2143
 2395TP3     H219005   5.411   0.165   0.527  1.2547 -0.3589 -0.1460
 2396TP3      O19006   4.045   3.657   8.260  0.2815  0.2375  0.2563
 2396TP3     H119007   3.982   3.692   8.323  0.6603 -0.2537  0.8977
 2396TP3     H219008   3.993   3.597   8.206  0.2485 -0.3719  0.9553
 2397TP3      O19009   1.521   1.134   9.711  0.3022  0.2386  0.3075
 2397TP3     H119010   1.523   1.154   9.805  0.5623  1.6657  0.0145
 2397TP3     H219011   1.431   1.154   9.685  0.3621  0.3156  0.1622
 2398TP3      O19012   4.291   1.649   8.242  0.5913  0.6348  0.1206
 2398TP3     H119013   4.247   1.714   8.297 -0.5529  0.1227 -0.1704
 2398TP3     H219014   4.283   1.683   8.153 -0.0683  0.0635 -0.0395
 2399TP3      O19015   4.042   5.138   8.297  0.0268  0.1251 -0.3941
 2399TP3     H119016   4.086   5.218   8.325 -1.0306  2.0033 -3.8207
 2399TP3     H219017   3.987   5.165   8.223 -0.9929 -3.5969 -1.1132
 2400TP3      O19018   4.697   4.564   1.525 -0.4822 -0.6064 -0.4605
 2400TP3     H119019   4.673   4.640   1.577  1.1348  0.3971 -1.1766
 2400TP3     H219020   4.633   4.562   1.454 -1.6770 -1.0258  0.6108
 2401TP3      O19021   1.837   2.078   8.848 -0.4791  0.1514 -0.3828
 2401TP3     H119022   1.869   1.988   8.840  1.2565  1.0094 -4.3757
 2401TP3     H219023   1.742   2.070   8.840 -0.2862 -1.3075 -1.5967
 2402TP3      O19024   4.016   0.668   7.682 -0.2451  0.2713 -0.0054
 2402TP3     H119025   3.949   0.675   7.614 -1.2631 -0.8457  0.8816
 2402TP3     H219026   4.015   0.754   7.724 -1.3402  0.1491  0.2201
 2403TP3      O19027   0.688   2.064   9.298 -0.0584  0.0604  0.1661
 2403TP3     H119028   0.732   2.042   9.381 -0.1989 -1.7888 -0.2258
 2403TP3     H219029   0.719   1.998   9.237 -0.3754  1.1076 -1.1385
 2404TP3      O19030   5.258   3.409   8.559  0.0956  0.3519 -0.1420
 2404TP3     H119031   5.224   3.495   8.534 -0.1882  0.0679 -0.7264
 2404TP3     H219032   5.291   3.371   8.478 -0.9678 -0.6297 -0.1208
 2405TP3      O19033   2.948   1.076   0.537  0.2699  0.4210 -0.6076
 2405TP3     H119034   2.954   0.980   0.534  0.6475  0.4652 -1.2680
 2405TP3     H219035   2.976   1.098   0.626  1.9555  0.0315 -1.0223
 2406TP3      O19036   2.477   0.479   9.743 -0.1432  0.0619 -0.3390
 2406TP3     H119037   2.516   0.538   9.679  0.2630 -1.2491 -1.3240
 2406TP3     H219038   2.502   0.516   9.828 -1.0201  2.0245 -0.9178
 2407TP3      O19039   4.381   1.281   8.097 -0.3601  0.0775  0.0109
 2407TP3     H119040   4.441   1.239   8.159 -1.7467 -0.2640  1.1535
 2407TP3     H219041   4.346   1.356   8.145 -0.8998  0.2355 -0.6261
 2408TP3      O19042   4.227   1.275   8.396 -0.1950  0.0275  0.0819
 2408TP3     H119043   4.229   1.234   8.482  0.1470 -0.7028 -0.2682
 2408TP3     H219044   4.306   1.243   8.352 -0.6113  0.0180 -0.6706
 2409TP3      O19045   3.285   1.618   3.003 -0.0372 -0.4166  0.6804
 2409TP3     H119046   3.344   1.550   3.038  0.3462 -0.3763  0.1133
 2409TP3     H219047   3.331   1.652   2.926  0.1619  1.0973  1.4633
 2410TP3      O19048   0.572   4.772   8.500  1.0905  0.5079 -0.4657
 2410TP3     H119049   0.582   4.847   8.559 -2.1550 -0.0477  0.8943
 2410TP3     H219050   0.560   4.698   8.559  2.6587 -0.8713 -1.8310
 2411TP3      O19051   5.014   3.367  10.000  0.1513 -0.5809 -0.0159
 2411TP3     H119052   5.085   3.404  10.054 -0.1475 -1.0578  0.7164
 2411TP3     H219053   4.943   3.351  10.063 -0.0473 -1.5442 -0.4835
 2412TP3      O19054   2.647   3.783   9.884 -0.0894  0.0743 -0.2575
 2412TP3     H119055   2.622   3.701   9.926  0.1858 -0.3903 -0.9969
 2412TP3     H219056   2.567   3.835   9.883 -0.0549  0.1624  1.0000
 2413TP3      O19057   0.778   0.886   8.438 -0.0294  0.3185 -0.2515
 2413TP3     H119058   0.715   0.829   8.482  0.7512 -0.3656  0.0113
 2413TP3     H219059   0.862   0.842   8.452  0.6229  1.6835  0.1928
 2414TP3      O19060   2.526   2.344   9.382  0.1771 -0.0862 -0.5623
 2414TP3     H119061   2.530   2.251   9.360  0.6695 -0.4635  1.1207
 2414TP3     H219062   2.465   2.350   9.455 -1.2860  1.1562 -1.8282
 2415TP3      O19063   4.076   2.748   8.889 -0.0243  0.3596 -0.6447
 2415TP3     H119064   4.160   2.786   8.913 -0.7718  0.5406  1.8580
 2415TP3     H219065   4.011   2.809   8.924 -1.1871 -1.2716  0.1307
 2416TP3      O19066   1.923   0.515   2.476  0.1062  0.3065 -0.1313
 2416TP3     H119067   1.945   0.594   2.526 -0.0340  0.1399  0.1949
 2416TP3     H219068   1.873   0.548   2.401 -2.5092  0.2948  1.5357
 2417TP3      O19069   0.687   1.208   9.593  0.2791 -0.5556 -0.2728
 2417TP3     H119070   0.629   1.169   9.528 -0.3922  2.6627 -1.6932
 2417TP3     H219071   0.628   1.235   9.664  0.5442 -0.7546  0.0242
 2418TP3      O19072   1.024   4.416   9.707  0.2299  0.8715 -0.4420
 2418TP3     H119073   0.954   4.380   9.653 -0.1471 -1.9728  1.8343
 2418TP3     H219074   1.104   4.400   9.656 -0.2959 -0.2199 -0.9357
 2419TP3      O19075   1.179   3.137   9.390  0.2410 -0.1116  0.3234
 2419TP3     H119076   1.181   3.043   9.374  2.0731 -0.1476  0.6630
 2419TP3     H219077   1.109   3.170   9.332  0.3671 -1.5168 -0.6515
 2420TP3      O19078   2.840   3.221   1.165  0.3815  0.2457 -0.3346
 2420TP3     H119079   2.911   3.284   1.180 -0.4158  1.0522  0.0703
 2420TP3     H219080   2.869   3.141   1.209  1.1767  0.4837 -0.4265
 2421TP3      O19081   5.051   4.357   1.719 -0.0142  0.6238  0.5307
 2421TP3     H119082   5.089   4.414   1.652  0.9761  0.0523  0.6025
 2421TP3     H219083   5.008   4.417   1.779 -0.6070  1.1656 -0.4211
 2422TP3      O19084   1.919   5.350   0.599 -0.3455 -0.1706  0.2243
 2422TP3     H119085   1.855   5.413   0.566  1.7343  1.8358 -0.0568
 2422TP3     H219086   1.964   5.319   0.521  0.1191 -0.3665  0.5727
 2423TP3      O19087   5.235   5.204   9.782 -0.8257  0.4656  0.1794
 2423TP3     H119088   5.297   5.246   9.722 -0.5087 -0.0307  0.1614
 2423TP3     H219089   5.259   5.238   9.869 -1.8913  1.9228 -0.0707
 2424TP3      O19090   2.991   1.103   8.158 -0.1244  0.0231 -0.0847
 2424TP3     H119091   2.945   1.078   8.238 -2.2798 -0.6057 -1.4822
 2424TP3     H219092   3.015   1.020   8.117  2.1771  0.3442  0.5465
 2425TP3      O19093   2.396   1.908   9.138  0.0140 -0.2679  0.4937
 2425TP3     H119094   2.358   1.861   9.212  0.0820  2.9818  2.6911
 2425TP3     H219095   2.328   1.971   9.113  1.2092  0.7942 -0.1434
 2426TP3      O19096   0.191   4.791   8.352 -0.6428 -0.0965  0.0807
 2426TP3     H119097   0.268   4.735   8.339 -0.4402 -0.2478  1.8201
 2426TP3     H219098   0.131   4.765   8.282 -0.6939 -2.7711  1.0399
 2427TP3      O19099   0.911   2.892   3.398 -0.3107  0.1917 -0.5212
 2427TP3     H119100   0.925   2.985   3.416  0.4730 -0.1554  0.7067
 2427TP3     H219101   0.842   2.891   3.332 -1.0197  1.6069  0.1703
 2428TP3      O19102   1.320   5.524   8.191  0.5884 -0.1567  0.3831
 2428TP3     H119103   1.330   5.453   8.127  1.6548 -0.4562  0.8652
 2428TP3     H219104   1.340   5.604   8.142  1.7104 -0.4129  0.4028
 2429TP3      O19105   0.138   4.507   0.060 -0.0931  0.2437  0.1133
 2429TP3     H119106   0.075   4.459   0.114 -0.9208  0.0138 -1.0421
 2429TP3     H219107   0.084   4.561   0.002  0.8177  2.2537  1.0766
 2430TP3      O19108   1.443   0.840   1.614  0.7014 -0.7995  0.1826
 2430TP3     H119109   1.436   0.822   1.521  1.6654 -1.3223  0.2043
 2430TP3     H219110   1.362   0.805   1.652  1.0039 -1.9962 -0.2502
 2431TP3      O19111   5.085   5.085   9.570  0.1835 -0.0811 -0.6001
 2431TP3     H119112   5.008   5.054   9.618  0.2776  0.1247 -0.3158
 2431TP3     H219113   5.147   5.112   9.638 -0.0503  1.1042 -0.8422
 2432TP3      O19114   4.179   3.450   7.736 -0.0019  0.8299 -0.0034
 2432TP3     H119115   4.175   3.490   7.823 -0.1821 -0.9156  0.7907
 2432TP3     H219116   4.254   3.492   7.694  0.8058  0.8219  1.4193
 2433TP3      O19117   4.037   4.478   0.183 -0.7983 -0.3368 -0.4823
 2433TP3     H119118   4.069   4.556   0.138 -0.6884 -0.4050 -0.5259
 2433TP3     H219119   4.094   4.469   0.259 -0.1376 -0.9582 -1.0385
 2434TP3      O19120   3.600   4.383   1.910 -0.2788  0.8172  0.1945
 2434TP3     H119121   3.634   4.293   1.915 -0.7093  0.6648  0.4596
 2434TP3     H219122   3.649   4.423   1.839  0.0077  0.4081  0.1575
 2435TP3      O19123   1.128   0.354   9.567  0.0019 -0.1788  0.4114
 2435TP3     H119124   1.206   0.346   9.622 -0.5463 -0.4215  1.1499
 2435TP3     H219125   1.109   0.264   9.540 -0.2374 -0.1600  0.5221
 2436TP3      O19126   3.129   5.375   1.410  0.6180 -0.3479  0.4510
 2436TP3     H119127   3.051   5.319   1.418  1.2677 -1.2476  0.6191
 2436TP3     H219128   3.095   5.464   1.416 -0.5709 -0.6840 -0.9171
 2437TP3      O19129   3.132   2.583   0.853  0.3930 -0.4673  0.1006
 2437TP3     H119130   3.195   2.518   0.886 -0.3311 -0.6783  1.0749
 2437TP3     H219131   3.177   2.667   0.862  0.1317 -0.5022  1.8083
 2438TP3      O19132   2.514   4.991   1.261  0.5120 -0.3109  0.1013
 2438TP3     H119133   2.523   5.017   1.169  0.7449 -2.3499 -0.4631
 2438TP3     H219134   2.480   5.069   1.304  0.4203  0.6799 -1.7105
 2439TP3      O19135   3.852   1.691   1.881  0.1276 -0.3370 -0.2828
 2439TP3     H119136   3.860   1.630   1.954 -0.5752 -0.2599 -0.1307
 2439TP3     H219137   3.856   1.636   1.803  0.8576 -0.4218 -0.1838
 2440TP3      O19138   5.437   4.905   1.732  0.0720  0.4515  0.0966
 2440TP3     H119139   5.387   4.898   1.650  1.6787 -0.3306 -0.8396
 2440TP3     H219140   5.374   4.882   1.800 -1.4994  1.8212 -0.8287
 2441TP3      O19141   2.900   2.031   2.533 -0.8817 -0.4153 -0.2606
 2441TP3     H119142   2.946   1.958   2.493  0.1843  0.1724 -0.1286
 2441TP3     H219143   2.962   2.104   2.528 -1.6975  0.3164  0.1644
 2442TP3      O19144   1.514   5.350   2.881 -0.2125 -0.0791 -0.9526
 2442TP3     H119145   1.556   5.343   2.967  0.7937 -1.2803 -1.5278
 2442TP3     H219146   1.491   5.443   2.874 -0.2086  0.0620  0.5549
 2443TP3      O19147   2.071   0.729   2.981  0.3275 -0.6927 -0.1676
 2443TP3     H119148   2.144   0.680   2.945  0.8505  0.5834 -0.8783
 2443TP3     H219149   2.091   0.820   2.961  0.4202  0.0375  2.9436
 2444TP3      O19150   0.105   4.623   0.419 -0.8866  0.5223  0.1761
 2444TP3     H119151   0.071   4.612   0.330  0.8310 -1.9500 -0.2131
 2444TP3     H219152   0.175   4.558   0.426  0.4213  2.1286  2.6232
 2445TP3      O19153   2.463   2.418   9.640 -0.0403 -0.1667  0.6811
 2445TP3     H119154   2.462   2.510   9.612  0.4835 -0.4971 -0.4386
 2445TP3     H219155   2.529   2.415   9.709  0.3113  0.2063  0.3679
 2446TP3      O19156   4.844   0.796   1.474  0.6433 -0.1064  0.2823
 2446TP3     H119157   4.750   0.814   1.479  0.3483 -1.1123 -1.2900
 2446TP3     H219158   4.868   0.815   1.383  1.6324 -1.3406  0.2609
 2447TP3      O19159   2.269   0.662   7.938 -0.3014 -0.2855 -0.2876
 2447TP3     H119160   2.322   0.582   7.930  0.6989  0.0643  2.2316
 2447TP3     H219161   2.198   0.650   7.875  0.7390 -2.4333 -1.1216
 2448TP3      O19162   0.902   1.326   9.486 -0.9686  0.1445 -0.3145
 2448TP3     H119163   0.893   1.244   9.437 -3.1110 -0.1932  0.5931
 2448TP3     H219164   0.837   1.320   9.556  0.2178  1.7685  0.9847
 2449TP3      O19165   4.881   3.359   9.551 -0.1849 -0.1218 -0.8837
 2449TP3     H119166   4.892   3.433   9.611 -1.3356 -1.1152  0.5970
 2449TP3     H219167   4.817   3.391   9.487 -1.6888 -0.2613  0.5170
 2450TP3      O19168   1.298   2.807   0.837  0.5622 -0.2868  0.1689
 2450TP3     H119169   1.214   2.844   0.812  1.9523  1.3067 -2.4156
 2450TP3     H219170   1.277   2.721   0.874 -2.3824  1.2051  2.1185
 2451TP3      O19171   2.675   1.988   9.865 -0.2956 -0.4322  0.0242
 2451TP3     H119172   2.660   1.893   9.864 -0.0894 -0.4668  0.2424
 2451TP3     H219173   2.641   2.018   9.781  2.9710 -1.2232 -1.6585
 2452TP3      O19174   2.487   2.607   1.565 -0.0594 -0.0612  0.1131
 2452TP3     H119175   2.554   2.541   1.582 -0.2788 -0.7799 -1.6843
 2452TP3     H219176   2.475   2.652   1.649  1.5976 -0.9083  0.8171
 2453TP3      O19177   3.920   0.563   2.515  0.3384 -0.2893 -0.3437
 2453TP3     H119178   3.827   0.588   2.512  0.3757 -0.0584  0.3711
 2453TP3     H219179   3.964   0.638   2.556  0.7835 -0.5589 -0.3238
 2454TP3      O19180   3.312   1.117   1.701 -0.1269  0.2637  0.3947
 2454TP3     H119181   3.236   1.100   1.757  0.3416  0.4044  1.0783
 2454TP3     H219182   3.275   1.162   1.625 -0.9711 -1.2318 -0.0965
 2455TP3      O19183   0.994   1.315   9.063  0.1039 -0.4779  0.2310
 2455TP3     H119184   0.950   1.377   9.122  1.2888  1.3406 -0.7723
 2455TP3     H219185   1.077   1.296   9.107  0.3286 -0.2944 -0.1158
 2456TP3      O19186   1.633   3.829   9.402 -0.1598 -0.0364 -0.0725
 2456TP3     H119187   1.628   3.921   9.375  0.8864  0.2735  0.7257
 2456TP3     H219188   1.596   3.780   9.329  0.8007  0.9169 -1.2239
 2457TP3      O19189   0.167   0.213   0.888  0.9672 -0.8573  0.5432
 2457TP3     H119190   0.215   0.282   0.843  0.2495  0.6587  2.0463
 2457TP3     H219191   0.079   0.248   0.899  0.2336 -2.5281  0.2091
 2458TP3      O19192   4.287   5.455  10.239  0.1619 -0.1373  0.2105
 2458TP3     H119193   4.292   5.436  10.333  1.3803 -2.5108 -0.3005
 2458TP3     H219194   4.215   5.401  10.208 -0.5134  0.9658 -0.1674
 2459TP3      O19195   5.158   4.253   0.492  0.4724 -0.3284 -0.4115
 2459TP3     H119196   5.229   4.214   0.440  0.6375  0.7160 -0.9766
 2459TP3     H219197   5.172   4.347   0.484 -0.2286 -0.1429  0.5324
 2460TP3      O19198   4.506   1.211   8.313  0.1870  0.1750 -0.1591
 2460TP3     H119199   4.557   1.142   8.355  0.3527  0.4093  0.0257
 2460TP3     H219200   4.547   1.293   8.342  0.3965  0.3336 -0.8958
 2461TP3      O19201   3.430   3.015   8.413 -0.2531 -0.7490  0.2781
 2461TP3     H119202   3.448   3.013   8.319 -2.0255 -1.8433 -0.0531
 2461TP3     H219203   3.404   3.106   8.430  1.0677 -0.2914 -0.0795
 2462TP3      O19204   4.535   1.046   8.689  0.2753  0.4876 -0.0533
 2462TP3     H119205   4.618   1.041   8.736  0.2722  0.2475 -0.0716
 2462TP3     H219206   4.494   0.960   8.703 -0.1227  0.7204  0.2406
 2463TP3      O19207   2.655   0.197   7.396  0.4365 -0.0683  0.0037
 2463TP3     H119208   2.729   0.178   7.453  0.3799 -0.1040  0.0652
 2463TP3     H219209   2.650   0.293   7.394 -0.4244 -0.0711  1.1817
 2464TP3      O19210   4.250   1.636   1.884  0.2395  0.6635 -0.4844
 2464TP3     H119211   4.319   1.625   1.950 -0.5167  2.1995  0.5588
 2464TP3     H219212   4.194   1.559   1.896  1.1991 -0.0824 -0.6738
 2465TP3      O19213   3.769   0.586   1.228  0.1201 -0.7747  0.0858
 2465TP3     H119214   3.683   0.615   1.258  0.7493 -0.3075  1.4599
 2465TP3     H219215   3.792   0.649   1.159  1.3077  1.9101  2.7881
 2466TP3      O19216   4.849   2.229   9.656  0.1335 -0.4823  0.0431
 2466TP3     H119217   4.937   2.211   9.622 -0.1580 -1.0544 -0.4042
 2466TP3     H219218   4.792   2.225   9.580 -0.2141  0.3942  0.2542
 2467TP3      O19219   5.243   5.276  10.050 -0.0405 -0.1192 -0.2543
 2467TP3     H119220   5.338   5.264  10.055 -0.2474 -1.9070 -0.2096
 2467TP3     H219221   5.219   5.307  10.138  0.2822 -1.5326  0.3592
 2468TP3      O19222   2.973   0.747   8.348 -0.1617 -0.8092 -0.2143
 2468TP3     H119223   2.912   0.818   8.328  0.4495 -0.3433 -0.4736
 2468TP3     H219224   2.936   0.703   8.424 -1.5974 -1.4780 -1.2904
 2469TP3      O19225   4.457   1.959   2.066 -0.2479 -0.0306  0.3521
 2469TP3     H119226   4.488   1.880   2.022 -0.3696  1.2283 -2.0580
 2469TP3     H219227   4.415   2.011   1.997 -1.8068  1.3297  2.2417
 2470TP3      O19228   4.675   3.576   8.563  0.0009 -0.1564  0.9030
 2470TP3     H119229   4.629   3.627   8.496 -1.1696 -1.5469  0.6074
 2470TP3     H219230   4.729   3.640   8.610  0.4490  0.9283 -1.0314
 2471TP3      O19231   2.134   1.779   8.668 -0.4247 -0.2255 -0.0270
 2471TP3     H119232   2.079   1.839   8.618 -3.6428 -3.9563 -1.2351
 2471TP3     H219233   2.093   1.774   8.754  1.0359  0.8367  0.7524
 2472TP3      O19234   4.988   0.535   8.486  0.1888 -0.2427 -0.3625
 2472TP3     H119235   5.044   0.591   8.541 -1.0987 -1.4282  2.2452
 2472TP3     H219236   5.016   0.446   8.507  0.3386 -0.6933 -2.4118
 2473TP3      O19237   0.505   5.437   0.145 -0.0167 -0.3807  0.1274
 2473TP3     H119238   0.448   5.468   0.074 -0.3057  0.5913  0.7740
 2473TP3     H219239   0.491   5.500   0.216  1.3931 -0.5092  0.5219
 2474TP3      O19240   2.751   4.012   0.734  0.1562 -0.5862  0.5838
 2474TP3     H119241   2.819   4.074   0.705  1.1057 -1.6470  0.4763
 2474TP3     H219242   2.676   4.067   0.756  0.0553  0.4423 -2.0341
 2475TP3      O19243   1.145   0.663   8.714 -0.0783 -0.0083  0.1357
 2475TP3     H119244   1.185   0.750   8.707 -1.7197  0.9433  1.9771
 2475TP3     H219245   1.072   0.665   8.652  0.2445 -0.2842 -0.2527
 2476TP3      O19246   5.394   1.548   8.876  0.4549 -0.6870 -0.1374
 2476TP3     H119247   5.425   1.459   8.861 -0.2745 -0.7979 -0.9957
 2476TP3     H219248   5.334   1.565   8.804  0.5891  0.4992  0.0267
 2477TP3      O19249   3.212   2.092   8.786 -0.1558 -0.0526  0.0637
 2477TP3     H119250   3.195   2.184   8.764  1.5209  0.2392 -0.1150
 2477TP3     H219251   3.172   2.080   8.872 -1.1165  0.6135 -0.2820
 2478TP3      O19252   3.944   3.821   1.930 -0.4227  0.1202  0.6721
 2478TP3     H119253   3.998   3.898   1.946 -1.5195  1.2181 -0.7705
 2478TP3     H219254   3.994   3.770   1.866 -0.2490  0.2346  0.7163
 2479TP3      O19255   0.346   1.482   9.631  0.2911 -0.2918  0.0147
 2479TP3     H119256   0.263   1.440   9.611 -0.7502  1.0826  1.3296
 2479TP3     H219257   0.390   1.421   9.690  0.2402 -1.0467 -0.7267
 2480TP3      O19258   2.607   0.794   1.469 -0.0427 -0.6782 -0.1012
 2480TP3     H119259   2.530   0.784   1.412  0.0169  0.1366 -0.3328
 2480TP3     H219260   2.621   0.889   1.473  1.1243 -0.8391 -0.2922
 2481TP3      O19261   5.160   4.048   1.117 -0.1009 -0.2980  0.4094
 2481TP3     H119262   5.126   4.116   1.175 -1.1630 -0.1873 -0.3227
 2481TP3     H219263   5.084   3.993   1.098  0.2163 -0.2806 -0.9407
 2482TP3      O19264   2.086   0.415   0.058 -0.3463  0.6308 -0.6856
 2482TP3     H119265   2.085   0.374  -0.029 -0.6035  1.7474 -1.2233
 2482TP3     H219266   2.174   0.398   0.092 -0.7125 -1.0609 -0.5511
 2483TP3      O19267   1.568   2.420   1.360  0.4256  0.2671  0.0489
 2483TP3     H119268   1.648   2.410   1.411 -1.3858 -1.0884  2.7284
 2483TP3     H219269   1.520   2.491   1.404 -0.9570 -0.6217  0.0091
 2484TP3      O19270   1.172   1.342   2.520 -0.2521 -0.0852  0.1737
 2484TP3     H119271   1.239   1.340   2.589 -0.2286 -0.4395  0.1412
 2484TP3     H219272   1.221   1.346   2.438 -0.2690 -0.3138  0.1511
 2485TP3      O19273   4.804   0.022   2.460 -0.1193 -0.1417 -0.0760
 2485TP3     H119274   4.778  -0.028   2.383  0.3484  0.0872 -0.3794
 2485TP3     H219275   4.897   0.037   2.449 -0.5477  2.1159 -0.7442
 2486TP3      O19276   2.476   4.260   9.438 -0.2497 -0.1312 -0.0434
 2486TP3     H119277   2.430   4.344   9.430  0.5425  0.5431  2.1451
 2486TP3     H219278   2.493   4.251   9.531  2.6613 -1.1065 -0.6020
 2487TP3      O19279   4.305   3.717   9.046  0.5474 -0.1860 -0.4549
 2487TP3     H119280   4.401   3.722   9.052  0.5708 -0.8451 -0.1651
 2487TP3     H219281   4.275   3.730   9.136  0.5016 -2.5881 -0.1020
 2488TP3      O19282   1.505   2.519   1.980  0.6414 -0.4375  0.0812
 2488TP3     H119283   1.536   2.500   2.068 -0.1825  0.6485  0.6158
 2488TP3     H219284   1.527   2.611   1.966 -0.0251 -0.3616 -0.5088
 2489TP3      O19285   1.284   2.473   2.286  0.1587  0.0037  0.4579
 2489TP3     H119286   1.339   2.551   2.292  0.6920 -0.2979 -0.5027
 2489TP3     H219287   1.196   2.508   2.273  0.4808  0.4429 -0.5952
 2490TP3      O19288   3.663   5.118   1.105  0.2193 -0.2325  0.1741
 2490TP3     H119289   3.619   5.163   1.176  1.4227 -0.1317  0.8684
 2490TP3     H219290   3.755   5.115   1.131  0.7314  0.1047 -1.5286
 2491TP3      O19291   0.107   4.740   2.267 -0.4105  0.4315  0.0241
 2491TP3     H119292   0.132   4.692   2.188  1.4732  0.1210  0.7729
 2491TP3     H219293   0.118   4.677   2.338  0.0183  1.3264  0.7735
 2492TP3      O19294   1.562   0.263   1.058  0.3006 -0.2711 -0.5941
 2492TP3     H119295   1.632   0.217   1.103 -0.5722 -0.7915  0.2687
 2492TP3     H219296   1.530   0.202   0.992  0.3319 -0.2302 -0.6468
 2493TP3      O19297   3.730   5.132   7.969  0.3814 -0.3288 -0.2300
 2493TP3     H119298   3.689   5.096   7.890 -0.0034 -2.7223  1.0292
 2493TP3     H219299   3.783   5.205   7.937  0.9488 -1.8211 -2.8051
 2494TP3      O19300   4.409   4.141   9.138 -0.1450 -0.3344  0.2408
 2494TP3     H119301   4.466   4.215   9.154 -0.6883 -0.4853  3.1382
 2494TP3     H219302   4.342   4.174   9.078  0.6658  0.9737  0.0621
 2495TP3      O19303   1.887   4.582   9.187 -0.8228 -0.1870 -0.0784
 2495TP3     H119304   1.973   4.571   9.226 -0.3765  2.0227 -0.3960
 2495TP3     H219305   1.877   4.507   9.129  0.7245 -0.6365  0.2283
 2496TP3      O19306   0.959   5.410   0.266  0.0556  0.0833  0.4714
 2496TP3     H119307   0.967   5.501   0.236 -1.1044  0.0001 -0.0929
 2496TP3     H219308   0.871   5.383   0.240  0.3904 -1.2067  0.6409
 2497TP3      O19309   2.230   1.762   9.825  0.5254  0.2989  0.5539
 2497TP3     H119310   2.212   1.709   9.903 -3.1089 -1.0645 -1.1165
 2497TP3     H219311   2.174   1.838   9.834  0.9974  0.7333 -0.1550
 2498TP3      O19312   1.785   5.206   1.762  0.2789 -0.3449  0.0850
 2498TP3     H119313   1.719   5.214   1.693  0.5234  1.6583  0.0690
 2498TP3     H219314   1.777   5.286   1.813  3.0437  0.2068 -0.2452
 2499TP3      O19315   0.212   5.075   9.961  0.8545 -0.2926 -0.1116
 2499TP3     H119316   0.205   5.141   9.892  1.1120  1.1015  1.1640
 2499TP3     H219317   0.147   5.009   9.937 -0.5728  1.2287 -0.5621
 2500TP3      O19318   3.007   4.205   0.516  0.4108  0.1563  0.5402
 2500TP3     H119319   3.082   4.231   0.464  0.1730  1.1609  0.6957
 2500TP3     H219320   3.041   4.139   0.577  1.0482  0.2553  0.2852
 2501TP3      O19321   3.743   0.230  10.277 -0.0723 -0.3311 -0.0490
 2501TP3     H119322   3.768   0.177  10.352 -0.2704 -1.6878 -0.9203
 2501TP3     H219323   3.818   0.286  10.260 -0.1968  0.3008  1.4283
 2502TP3      O19324   5.430   3.928   9.498 -0.0675 -0.0454  0.2912
 2502TP3     H119325   5.349   3.898   9.539  0.1361  1.7564  2.0326
 2502TP3     H219326   5.409   3.935   9.405 -0.9974 -2.5669  0.2859
 2503TP3      O19327   4.165   2.686   9.244  0.5322  0.4506 -0.3876
 2503TP3     H119328   4.112   2.613   9.275  0.1649  1.5038  1.5532
 2503TP3     H219329   4.209   2.653   9.166  1.1767 -2.1574  1.0495
 2504TP3      O19330   1.966   0.932   2.101 -0.3809 -0.3275 -0.3533
 2504TP3     H119331   1.885   0.885   2.122 -0.6928  0.0885 -0.6214
 2504TP3     H219332   1.938   1.021   2.083  0.3156  0.1614  0.9480
 2505TP3      O19333   0.972   0.431   3.116 -0.0927 -0.1346 -0.1007
 2505TP3     H119334   1.021   0.356   3.150  0.7935  0.7470  0.5912
 2505TP3     H219335   1.037   0.483   3.068 -0.4381  0.8199  0.4554
 2506TP3      O19336   3.258   5.021   0.589  0.1848 -0.0056 -0.5592
 2506TP3     H119337   3.336   5.075   0.599 -0.6862  1.1808 -0.0809
 2506TP3     H219338   3.288   4.932   0.606  1.4608  0.4181 -0.5368
 2507TP3      O19339   1.542   0.105   2.162  0.2106 -0.0882  0.6011
 2507TP3     H119340   1.521   0.014   2.142  0.1607 -0.3217  1.7045
 2507TP3     H219341   1.571   0.141   2.079 -1.3212 -0.6763 -0.2142
 2508TP3      O19342   1.968   0.765   0.768 -0.1037 -0.5017  0.2522
 2508TP3     H119343   1.937   0.709   0.839  1.7816  0.1511  1.6177
 2508TP3     H219344   1.966   0.854   0.805  0.3318 -0.0912 -0.6939
 2509TP3      O19345   0.953   3.384   0.514 -0.4047 -0.2183  0.4716
 2509TP3     H119346   0.902   3.456   0.550 -1.4406  0.0039 -1.3745
 2509TP3     H219347   0.925   3.378   0.423  1.2606 -1.5442  0.0205
 2510TP3      O19348   3.474   0.553   1.025  0.3855 -0.4038  0.2410
 2510TP3     H119349   3.463   0.643   0.995 -0.8753 -0.7099 -0.2438
 2510TP3     H219350   3.461   0.500   0.947  0.5026 -1.0363  0.6496
 2511TP3      O19351   5.483   0.720   2.490  0.3102  0.0170  0.1542
 2511TP3     H119352   5.430   0.718   2.411 -1.8809 -0.9195  1.5939
 2511TP3     H219353   5.563   0.673   2.467 -0.3124 -0.2650 -1.4815
 2512TP3      O19354   2.713   4.018   9.666 -0.1663 -0.1201 -0.0746
 2512TP3     H119355   2.654   4.000   9.594  1.2301 -0.0995 -1.2604
 2512TP3     H219356   2.690   3.955   9.733 -0.9445 -0.6780 -0.8561
 2513TP3      O19357   4.847   3.229   8.110  0.0360 -0.1251 -0.0641
 2513TP3     H119358   4.866   3.238   8.017  0.3812  0.6263  0.0699
 2513TP3     H219359   4.814   3.140   8.120 -1.7450  0.4041 -1.1895
 2514TP3      O19360   2.415   4.073   7.524 -0.8577 -0.3347  0.3009
 2514TP3     H119361   2.381   4.007   7.463  0.1159 -0.0711 -0.5528
 2514TP3     H219362   2.384   4.156   7.488  2.0848  0.0675 -1.5151
 2515TP3      O19363   5.296   0.806   9.946 -0.2621 -0.0446  0.1076
 2515TP3     H119364   5.246   0.863  10.005 -0.4112 -0.3375  0.2638
 2515TP3     H219365   5.379   0.792   9.991  0.2099  0.9549 -0.4370
 2516TP3      O19366   3.582   4.552   9.355 -0.5115 -0.3076  0.4498
 2516TP3     H119367   3.517   4.484   9.341 -0.5844 -0.1217 -0.1406
 2516TP3     H219368   3.534   4.634   9.340  0.0001 -0.1923 -0.5734
 2517TP3      O19369   4.067   2.323   9.760  0.1636 -0.4620  0.0026
 2517TP3     H119370   4.157   2.356   9.768  0.7741 -2.4058  1.2806
 2517TP3     H219371   4.023   2.391   9.708  1.9889  1.2047  0.5246
 2518TP3      O19372   1.691   5.117   0.089  0.0659  0.0937 -0.0040
 2518TP3     H119373   1.624   5.076   0.035  0.6341  0.7190 -1.1947
 2518TP3     H219374   1.758   5.146   0.027  1.3064 -0.2626  1.1377
 2519TP3      O19375   4.918   4.389   9.961  0.1956 -0.3440 -0.2514
 2519TP3     H119376   4.913   4.465   9.904 -0.9804 -0.8666 -0.8658
 2519TP3     H219377   4.926   4.315   9.901  0.5976 -0.7714  0.3201
 2520TP3      O19378   2.674   3.162   1.659 -0.0858  0.8164 -0.5531
 2520TP3     H119379   2.770   3.160   1.662  0.0086 -1.7130 -2.7449
 2520TP3     H219380   2.647   3.102   1.727  0.0004 -0.5776 -1.7198
 2521TP3      O19381   3.972   5.264   9.327  0.0119 -0.1161 -0.2370
 2521TP3     H119382   4.032   5.200   9.290  0.6248  0.8093 -0.8656
 2521TP3     H219383   3.999   5.347   9.289  0.4999  0.8346  2.0756
 2522TP3      O19384   2.586   4.660   3.228  0.2149  0.2636  0.6049
 2522TP3     H119385   2.633   4.639   3.148  0.7468  1.1184  0.6866
 2522TP3     H219386   2.497   4.681   3.200  0.2022 -0.1788  0.3203
 2523TP3      O19387   1.196   4.887   0.595 -0.3677  0.5961 -0.1469
 2523TP3     H119388   1.135   4.834   0.647  1.0369  0.4246  1.3865
 2523TP3     H219389   1.225   4.828   0.526 -1.4187  0.4687 -0.4892
 2524TP3      O19390   1.575   3.177   9.231 -0.1165  0.1621  0.4516
 2524TP3     H119391   1.561   3.168   9.137  0.6643  2.9732 -0.0071
 2524TP3     H219392   1.619   3.096   9.258 -0.9433 -0.9362 -1.4594
 2525TP3      O19393   0.231   0.627  10.058 -0.5070 -0.4223  0.4289
 2525TP3     H119394   0.229   0.548  10.004  0.4070  0.2418 -0.5875
 2525TP3     H219395   0.240   0.594  10.147 -5.1502 -1.6895  0.5816
 2526TP3      O19396   2.820   0.143   8.064  0.3914  0.0773 -0.8144
 2526TP3     H119397   2.902   0.189   8.049  0.2269  0.6269 -0.0568
 2526TP3     H219398   2.809   0.144   8.159 -1.0843  1.0696 -0.9715
 2527TP3      O19399   1.003   0.150   0.202 -0.1793  0.3893 -0.0582
 2527TP3     H119400   1.094   0.120   0.196  0.2614  1.6260  0.4070
 2527TP3     H219401   1.009   0.237   0.242 -1.5347  0.6608 -0.4416
 2528TP3      O19402   2.992   1.485   0.740  0.5763 -0.6154  0.1443
 2528TP3     H119403   2.958   1.472   0.651  0.0345  0.4505  0.1851
 2528TP3     H219404   2.938   1.427   0.794 -1.2037  1.0087  0.1959
 2529TP3      O19405   2.275   0.046   8.546  0.5371 -0.4258  0.2997
 2529TP3     H119406   2.285   0.058   8.451  0.2194 -0.3946  0.2680
 2529TP3     H219407   2.328   0.115   8.585  0.9246 -0.6360  0.1468
 2530TP3      O19408   3.416   2.502   9.057  0.7149 -0.3107 -0.7551
 2530TP3     H119409   3.445   2.411   9.049  0.4792 -0.3728 -0.8937
 2530TP3     H219410   3.495   2.550   9.084  0.3687 -0.8728  1.3144
 2531TP3      O19411   1.304   2.425   1.809  0.2572  0.0607 -0.9474
 2531TP3     H119412   1.360   2.456   1.880 -1.3566  0.7924  0.0362
 2531TP3     H219413   1.330   2.478   1.733  0.0294  1.2863 -0.1840
 2532TP3      O19414   3.114   0.848  10.061  0.3168  0.2989  0.7071
 2532TP3     H119415   3.071   0.792  10.126 -1.4683  1.7650  0.8254
 2532TP3     H219416   3.122   0.793   9.983 -2.1033  0.0975  0.5729
 2533TP3      O19417   3.007   0.341   8.021  0.1206 -0.3755  0.0894
 2533TP3     H119418   3.101   0.354   8.004  0.2674  1.8207  2.2380
 2533TP3     H219419   2.993   0.381   8.107 -2.8163 -0.5974 -0.2436
 2534TP3      O19420   3.800   1.765   0.208  0.7941 -0.3119  0.4336
 2534TP3     H119421   3.723   1.710   0.190  1.9096 -1.0524 -2.2653
 2534TP3     H219422   3.792   1.838   0.146  1.5899  0.3053  1.0486
 2535TP3      O19423   4.710   1.241   8.986  0.1765  0.0891  0.4610
 2535TP3     H119424   4.738   1.160   8.942  2.0200 -0.2581  2.2166
 2535TP3     H219425   4.616   1.246   8.969  0.3460 -1.5062 -1.1269
 2536TP3      O19426   3.734   1.302   1.405  0.3020  0.2903  0.1969
 2536TP3     H119427   3.794   1.249   1.458  2.4719  2.3851 -0.0672
 2536TP3     H219428   3.743   1.268   1.316 -1.5347 -1.6519  0.7186
 2537TP3      O19429   5.254   0.767   7.683  0.1304 -0.1268  0.1283
 2537TP3     H119430   5.261   0.786   7.776  0.5832  1.6071 -0.2397
 2537TP3     H219431   5.170   0.805   7.657  0.7787  0.8967 -0.5044
 2538TP3      O19432   2.952   1.337   0.007  0.3418 -0.1109  0.4098
 2538TP3     H119433   2.876   1.299   0.050 -0.2596  0.9357  0.2792
 2538TP3     H219434   2.919   1.415  -0.037  1.2632 -0.2615 -0.5944
 2539TP3      O19435   3.137   4.166   1.878  0.2532 -0.2862 -0.3116
 2539TP3     H119436   3.107   4.257   1.872  0.7463 -0.0700  0.3107
 2539TP3     H219437   3.080   4.127   1.944 -0.4784 -0.6511 -1.1597
 2540TP3      O19438   2.319   3.437   7.197  0.4864  0.0605 -0.4289
 2540TP3     H119439   2.282   3.464   7.114  0.5530  0.2009 -0.4120
 2540TP3     H219440   2.317   3.515   7.252 -1.5738 -0.5780  0.4383
 2541TP3      O19441   4.332   1.712   9.204 -0.4949  0.1621 -0.2326
 2541TP3     H119442   4.301   1.760   9.128 -2.0810 -0.3457  0.0716
 2541TP3     H219443   4.357   1.780   9.267 -1.5834  0.5839 -0.2543
 2542TP3      O19444   4.470   3.787   1.990  0.3206  0.0892 -0.1250
 2542TP3     H119445   4.562   3.811   2.003  0.3041  0.0522  0.0633
 2542TP3     H219446   4.450   3.815   1.901  0.4356  0.3514 -0.0692
 2543TP3      O19447   4.037   1.310   0.409  0.1415  0.6897 -0.2109
 2543TP3     H119448   4.109   1.288   0.351 -0.0036  1.0414 -0.5225
 2543TP3     H219449   4.074   1.375   0.470  1.3534 -2.3300  2.4090
 2544TP3      O19450   4.048   0.406   9.576  0.0242 -0.3800  0.2079
 2544TP3     H119451   4.126   0.461   9.575  0.0831 -0.4683 -1.6998
 2544TP3     H219452   4.081   0.316   9.575 -0.0885 -0.4401  1.4943
 2545TP3      O19453   3.796   1.524   0.772 -0.5009 -0.7641 -0.7975
 2545TP3     H119454   3.700   1.521   0.769 -0.4240 -2.0548 -2.4101
 2545TP3     H219455   3.823   1.518   0.680  1.1544 -1.5078 -0.2754
 2546TP3      O19456   2.995   5.238   2.199 -0.1859  0.5704  0.1071
 2546TP3     H119457   3.087   5.261   2.207 -0.2523  1.1709 -0.8204
 2546TP3     H219458   2.974   5.252   2.107 -0.8998 -0.7304  0.0642
 2547TP3      O19459   4.637   0.858   8.149 -0.0971  0.1942  0.2588
 2547TP3     H119460   4.638   0.879   8.242 -1.2711 -0.7793  0.5154
 2547TP3     H219461   4.545   0.867   8.124  0.0771 -0.3526 -0.5985
 2548TP3      O19462   3.985   4.217   0.149  0.0115 -0.1184 -0.0282
 2548TP3     H119463   4.025   4.176   0.225  2.0780 -0.6405 -1.3814
 2548TP3     H219464   4.006   4.310   0.159 -0.9016  0.0311  0.7118
 2549TP3      O19465   1.637   1.027   1.402 -0.9514  0.1500 -0.2260
 2549TP3     H119466   1.581   1.086   1.453 -1.4272 -0.7004  0.2530
 2549TP3     H219467   1.682   1.084   1.340  0.8792  1.4327  2.2150
 2550TP3      O19468   3.631   3.585   9.782 -1.0200  0.7589  0.1611
 2550TP3     H119469   3.544   3.597   9.821 -1.1288 -0.7063  0.4209
 2550TP3     H219470   3.614   3.535   9.702 -0.4270  0.4374  0.2292
 2551TP3      O19471   1.700   0.651   1.690  0.0734 -0.6744  0.0648
 2551TP3     H119472   1.715   0.743   1.711  0.4771 -0.5596 -0.7120
 2551TP3     H219473   1.605   0.640   1.699  0.3281 -0.9067  2.9697
 2552TP3      O19474   4.700   1.233   8.527  0.0824 -0.0867  0.2437
 2552TP3     H119475   4.720   1.322   8.558  1.2375 -0.5841  0.9267
 2552TP3     H219476   4.633   1.201   8.588 -0.5119  0.4030 -0.1490
 2553TP3      O19477   2.130   1.984   1.163  0.1747 -0.2447 -0.0593
 2553TP3     H119478   2.193   1.998   1.233  0.4769 -0.0485 -0.3721
 2553TP3     H219479   2.049   2.025   1.195 -0.1214 -1.5098  0.8344
 2554TP3      O19480   3.817   4.693   1.882 -0.2033 -0.2780  0.1034
 2554TP3     H119481   3.734   4.686   1.835 -0.9971 -1.4863  1.6165
 2554TP3     H219482   3.832   4.787   1.892 -0.5871 -0.0341 -1.5582
 2555TP3      O19483   3.288   0.987   2.212  0.7587  0.7187 -0.0819
 2555TP3     H119484   3.285   1.072   2.168 -1.3530  0.7658  0.1014
 2555TP3     H219485   3.257   1.006   2.301 -1.7314 -0.5914 -0.6411
 2556TP3      O19486   1.754   2.292   8.189  0.4624 -0.0975  0.0113
 2556TP3     H119487   1.755   2.330   8.101 -0.4001 -0.2026 -0.0483
 2556TP3     H219488   1.666   2.312   8.223  0.0981 -1.7647  0.0956
 2557TP3      O19489   4.578   2.263   1.460 -0.8856  0.1233 -0.5495
 2557TP3     H119490   4.513   2.260   1.530  0.0820 -0.9822  0.3058
 2557TP3     H219491   4.642   2.328   1.489 -1.5818  1.2013 -1.3837
 2558TP3      O19492   4.081   2.824   0.075  0.6509 -0.1525 -0.1223
 2558TP3     H119493   4.127   2.746   0.107  1.0930  0.4322  0.6882
 2558TP3     H219494   3.988   2.800   0.079  0.7553 -0.4555  0.6241
 2559TP3      O19495   3.839   5.523   9.527 -0.5433 -0.2537  0.3424
 2559TP3     H119496   3.899   5.457   9.562 -0.2217  1.2452  2.7429
 2559TP3     H219497   3.802   5.565   9.605 -0.6929  2.4391 -1.1255
 2560TP3      O19498   3.836   2.307   9.180  0.1254 -0.4593 -0.0826
 2560TP3     H119499   3.807   2.332   9.092 -1.2573  0.4872  0.6281
 2560TP3     H219500   3.800   2.220   9.194 -0.5428 -0.1816 -0.0578
 2561TP3      O19501   4.265   4.576  10.052  0.1525  0.2432 -0.1345
 2561TP3     H119502   4.243   4.599   9.962  2.5301 -1.0383 -1.0824
 2561TP3     H219503   4.320   4.497  10.045  1.5192  0.8963  2.3233
 2562TP3      O19504   2.900   0.109   1.756  0.1525  0.4847  0.4641
 2562TP3     H119505   2.916   0.117   1.850 -1.1418  2.8207  0.5351
 2562TP3     H219506   2.826   0.168   1.740 -1.9179 -2.4686 -1.4520
 2563TP3      O19507   2.061   0.721   8.194  0.6102  0.3389 -0.1363
 2563TP3     H119508   2.052   0.750   8.285 -0.6445  3.0094 -1.0512
 2563TP3     H219509   2.146   0.678   8.191  0.2939 -0.5126  2.4880
 2564TP3      O19510   5.414   1.710   8.555 -0.1771  0.2985  0.2087
 2564TP3     H119511   5.426   1.793   8.601  3.3406  0.3571 -0.7331
 2564TP3     H219512   5.402   1.735   8.464  0.0132 -0.1912  0.0483
 2565TP3      O19513   1.632   5.214   1.510  0.2889  0.3434  0.0412
 2565TP3     H119514   1.685   5.135   1.501  0.6001  0.4364  0.9874
 2565TP3     H219515   1.556   5.199   1.454  1.3041  0.2057 -1.3482
 2566TP3      O19516   3.733   5.389   8.324  1.0305 -0.3449  0.3731
 2566TP3     H119517   3.741   5.440   8.405  0.9823  2.2064 -1.1792
 2566TP3     H219518   3.808   5.417   8.271 -0.1901 -0.2881 -1.3546
 2567TP3      O19519   3.559   4.625   8.057 -0.1058 -0.5284  1.2724
 2567TP3     H119520   3.475   4.668   8.067 -0.3984 -0.9912  0.8481
 2567TP3     H219521   3.546   4.537   8.093 -0.0940 -0.9289  0.3217
 2568TP3      O19522   3.091   1.760   8.809 -0.1919  0.1912  0.6092
 2568TP3     H119523   3.030   1.766   8.736 -1.0625  1.1129  1.3973
 2568TP3     H219524   3.037   1.773   8.887  0.8330 -0.0994  1.3834
 2569TP3      O19525   2.956   1.746   0.663  0.0940  0.2030  0.4277
 2569TP3     H119526   2.992   1.663   0.694 -1.0258  0.0079  1.2426
 2569TP3     H219527   2.925   1.728   0.574  1.5975  0.2669 -0.1276
 2570TP3      O19528   0.747   2.183  10.149  0.1435 -0.6473 -0.5622
 2570TP3     H119529   0.695   2.154  10.074 -1.5385  0.9378 -0.0376
 2570TP3     H219530   0.720   2.126  10.220 -0.9701  0.2281 -0.2696
 2571TP3      O19531   5.354   1.207   8.360 -0.2010  0.1035 -0.2150
 2571TP3     H119532   5.278   1.261   8.382 -0.6833  0.2813 -2.2424
 2571TP3     H219533   5.369   1.154   8.438 -1.3054  1.3371  0.8615
 2572TP3      O19534   3.991   3.980  10.095 -0.1817 -0.5633  0.1467
 2572TP3     H119535   4.080   3.946  10.090  0.5280  1.3479 -0.7615
 2572TP3     H219536   3.948   3.945  10.017  1.3665  2.7095 -2.3535
 2573TP3      O19537   3.547   3.395   8.997  0.2773 -0.1629 -0.0457
 2573TP3     H119538   3.495   3.339   9.055  0.7690 -1.1918 -0.5915
 2573TP3     H219539   3.622   3.421   9.051  0.3306 -0.4767  0.0331
 2574TP3      O19540   3.176   0.185   0.148  0.6330 -0.0845  0.0063
 2574TP3     H119541   3.216   0.098   0.141 -0.7740 -0.6132 -2.0028
 2574TP3     H219542   3.229   0.240   0.090 -0.3474 -0.3366 -1.1429
 2575TP3      O19543   5.412   0.188   0.150 -0.0395  0.2999 -0.4326
 2575TP3     H119544   5.487   0.157   0.200 -0.2383 -0.9010 -0.8576
 2575TP3     H219545   5.449   0.216   0.066  0.2143  1.7594  0.1553
 2576TP3      O19546   4.082   3.042   0.241  0.6614 -0.3183  0.2826
 2576TP3     H119547   4.104   2.962   0.193 -1.0336 -1.2666  1.0484
 2576TP3     H219548   4.046   3.101   0.175 -1.8252 -1.6779  0.3777
 2577TP3      O19549   1.039   4.506   8.511  0.7704 -0.3702 -0.5180
 2577TP3     H119550   0.951   4.526   8.481  0.9014  1.0689  0.0585
 2577TP3     H219551   1.027   4.436   8.575 -0.2769  1.8157  1.7555
 2578TP3      O19552   1.033   2.014   9.732  0.6055 -0.1743  0.0447
 2578TP3     H119553   1.034   1.918   9.728  0.0997 -0.1708 -0.2323
 2578TP3     H219554   1.041   2.034   9.825 -0.0232 -0.5028  0.1773
 2579TP3      O19555   2.567   5.448   2.446  0.2899 -0.4967  0.1037
 2579TP3     H119556   2.478   5.482   2.449  0.2414 -0.6187  0.0401
 2579TP3     H219557   2.621   5.524   2.426  0.1206 -0.5634 -0.6318
 2580TP3      O19558   0.859   1.970   9.504  0.0240 -0.4070 -0.4504
 2580TP3     H119559   0.865   1.911   9.579 -0.2776 -2.2292 -1.8206
 2580TP3     H219560   0.928   2.034   9.519 -0.0372 -0.7367  1.3784
 2581TP3      O19561   4.480   2.722   2.448  0.2251 -0.1456  0.3016
 2581TP3     H119562   4.389   2.718   2.419  0.3347  0.8423 -0.2326
 2581TP3     H219563   4.483   2.800   2.504  1.0225  0.6365 -0.7917
 2582TP3      O19564   5.146   0.659   9.338  0.7600 -0.4811  0.6513
 2582TP3     H119565   5.196   0.586   9.373  0.0436 -0.7358  1.1676
 2582TP3     H219566   5.061   0.653   9.381 -0.0325 -0.5934 -0.8676
 2583TP3      O19567   2.703   1.012   0.306  0.3689 -0.4336 -0.0883
 2583TP3     H119568   2.622   1.035   0.351  1.8198  2.0630  1.3499
 2583TP3     H219569   2.772   1.035   0.368  2.2323 -2.0482 -1.4783
 2584TP3      O19570   3.959   4.873   8.924  0.4735 -0.5433  0.1861
 2584TP3     H119571   4.039   4.923   8.909 -0.1694  0.3876 -0.1982
 2584TP3     H219572   3.985   4.782   8.910  1.5213 -0.2746  0.3080
 2585TP3      O19573   2.305   1.839  10.214 -0.1117 -0.3564 -0.4920
 2585TP3     H119574   2.230   1.879  10.169  0.0676 -0.0337 -0.5084
 2585TP3     H219575   2.322   1.898  10.287 -0.3950 -0.8736 -0.0008
 2586TP3      O19576   3.777   3.235   1.110  0.3029 -0.0494  1.0104
 2586TP3     H119577   3.746   3.298   1.174 -0.0858 -0.1178  0.8938
 2586TP3     H219578   3.807   3.160   1.162 -0.8802 -0.4853  1.0757
 2587TP3      O19579   3.686   2.065   0.729  0.5882 -0.5533 -0.1494
 2587TP3     H119580   3.700   1.981   0.686 -2.7715 -1.4391  0.3118
 2587TP3     H219581   3.676   2.128   0.658 -1.6022 -1.4233 -0.6525
 2588TP3      O19582   3.718   1.232   8.819 -0.9323 -0.3511 -0.0637
 2588TP3     H119583   3.651   1.184   8.867 -2.2203 -0.4547 -1.9129
 2588TP3     H219584   3.671   1.306   8.780  0.5199  0.9766  0.6443
 2589TP3      O19585   2.786   1.887   8.186  0.0775 -0.3905 -0.6406
 2589TP3     H119586   2.776   1.960   8.247 -0.4174 -0.5461 -0.5323
 2589TP3     H219587   2.867   1.843   8.213 -0.4131 -0.7681  0.2291
 2590TP3      O19588   0.684   2.721   3.511  0.4554  0.5025 -0.0957
 2590TP3     H119589   0.613   2.758   3.460 -0.5755 -1.2807  0.0035
 2590TP3     H219590   0.762   2.769   3.482 -0.4039  0.8409 -1.9198
 2591TP3      O19591   1.904   0.629   8.927 -0.4378 -0.0820  0.2750
 2591TP3     H119592   1.861   0.556   8.882 -0.2982  0.2743 -0.4479
 2591TP3     H219593   1.832   0.685   8.955 -0.4571  0.4568 -0.8346
 2592TP3      O19594   2.032   0.003   0.789  0.7139  0.2314 -0.1588
 2592TP3     H119595   1.998  -0.066   0.733 -0.0384  0.3041  0.1952
 2592TP3     H219596   1.961   0.068   0.793  1.2371  0.8067 -0.1269
 2593TP3      O19597   5.098   4.985   9.191  0.5542 -0.3751  0.0058
 2593TP3     H119598   5.094   4.894   9.221  0.7447  0.1344  1.6262
 2593TP3     H219599   5.012   5.001   9.152  0.6801 -1.3834 -0.7067
 2594TP3      O19600   5.017   4.914   8.075  0.3601 -0.5397 -0.3364
 2594TP3     H119601   5.037   4.948   8.162  0.1855 -0.8645 -0.1707
 2594TP3     H219602   5.076   4.962   8.017  0.8268 -0.6719  0.0160
 2595TP3      O19603   2.392   5.168   1.086  0.2460  0.5725 -0.1662
 2595TP3     H119604   2.300   5.188   1.102  0.2848 -1.8721  3.8423
 2595TP3     H219605   2.389   5.093   1.026 -0.5528 -1.2064  1.9998
 2596TP3      O19606   4.809   4.246   2.191 -0.1286  0.1280 -0.4249
 2596TP3     H119607   4.838   4.202   2.271  0.5701  1.8663  0.3168
 2596TP3     H219608   4.732   4.198   2.163  1.6072 -2.6373 -0.6297
 2597TP3      O19609   0.278   5.114   1.024  0.1019 -0.2095  0.0370
 2597TP3     H119610   0.234   5.110   1.109 -1.6331 -0.5025 -0.8506
 2597TP3     H219611   0.369   5.131   1.045 -0.3170 -0.2419  1.9623
 2598TP3      O19612   2.709   2.179   8.044  0.2628  0.0630 -0.7212
 2598TP3     H119613   2.710   2.214   8.133 -0.6433 -0.0658 -0.6558
 2598TP3     H219614   2.623   2.139   8.035  0.2968  0.2047 -1.7085
 2599TP3      O19615   5.377   2.480   0.776  0.6410  0.2966  0.1983
 2599TP3     H119616   5.384   2.558   0.720 -0.2839  0.0203 -0.3141
 2599TP3     H219617   5.447   2.422   0.745  1.3061  0.8959  0.5538
 2600TP3      O19618   1.184   1.116   2.181  0.2516  0.5356  0.0548
 2600TP3     H119619   1.170   1.048   2.247 -1.1775  0.5233 -0.2503
 2600TP3     H219620   1.239   1.181   2.225  0.9459 -0.4199  0.6110
 2601TP3      O19621   4.514   5.077   2.688  0.4645 -0.4709  0.4255
 2601TP3     H119622   4.544   4.989   2.710 -1.3283 -0.6970  2.1243
 2601TP3     H219623   4.585   5.135   2.714  0.8229 -1.2544  1.1920
 2602TP3      O19624   5.482   1.251   1.075  0.3860  0.0389  0.4242
 2602TP3     H119625   5.557   1.256   1.134  1.3365 -1.3848 -0.6107
 2602TP3     H219626   5.435   1.173   1.103  0.1857  0.0238  0.0556
 2603TP3      O19627   0.786   0.725   9.444 -0.1292  0.3240  0.1352
 2603TP3     H119628   0.881   0.724   9.456 -0.1802  0.8693  0.6542
 2603TP3     H219629   0.773   0.768   9.359  0.2041 -2.7855 -1.5491
 2604TP3      O19630   1.139   1.681   0.892  0.4626 -0.2293  0.0131
 2604TP3     H119631   1.124   1.748   0.825  0.1837  0.2624  0.5585
 2604TP3     H219632   1.208   1.717   0.947  0.2320 -0.3437  0.3768
 2605TP3      O19633   1.517   4.434   0.151  0.6642  0.4436 -0.2335
 2605TP3     H119634   1.469   4.355   0.128  0.6907  0.7033 -1.2222
 2605TP3     H219635   1.606   4.418   0.119  0.7421  0.7579 -0.1760
 2606TP3      O19636   1.414   4.886   8.293 -0.2186 -0.8479 -0.4184
 2606TP3     H119637   1.428   4.862   8.385 -1.4670  0.0759  0.0369
 2606TP3     H219638   1.346   4.826   8.263 -0.5483 -0.4788 -0.4244
 2607TP3      O19639   2.743   5.426   1.343 -0.2752 -0.5062  0.5194
 2607TP3     H119640   2.782   5.345   1.376 -0.3797 -0.6365  0.3252
 2607TP3     H219641   2.676   5.397   1.281  0.3230 -0.2534 -0.2574
 2608TP3      O19642   3.078   0.292   0.542 -0.1025  0.4201 -0.6824
 2608TP3     H119643   3.027   0.321   0.466  0.6838  0.5527 -1.1555
 2608TP3     H219644   3.162   0.266   0.507  0.2030  0.2929  0.1240
 2609TP3      O19645   4.404   1.746   0.813  0.1068 -0.4271  0.7450
 2609TP3     H119646   4.483   1.697   0.833  1.1416 -0.1846 -2.4283
 2609TP3     H219647   4.385   1.723   0.722 -1.9228  1.6311  0.6224
 2610TP3      O19648   3.353   5.354   9.347  0.9921 -0.0463  0.2495
 2610TP3     H119649   3.436   5.397   9.367  2.4113 -2.1146 -1.0182
 2610TP3     H219650   3.364   5.321   9.258 -2.1797  1.8756 -0.9440
 2611TP3      O19651   4.219   2.597   7.976  0.0004  0.4175  0.4679
 2611TP3     H119652   4.280   2.577   7.906 -1.0818 -0.2947 -0.2921
 2611TP3     H219653   4.139   2.549   7.954 -1.1819  2.0966  0.9097
 2612TP3      O19654   4.437   0.073   8.780  0.4232  1.1339 -0.2042
 2612TP3     H119655   4.477   0.158   8.795 -2.1881  2.1945  1.0071
 2612TP3     H219656   4.388   0.055   8.860  0.4852 -1.2559 -0.6712
 2613TP3      O19657   0.374   0.050  10.263  0.3545 -0.3720  0.1718
 2613TP3     H119658   0.285   0.049  10.227 -0.0036 -0.2351  1.0507
 2613TP3     H219659   0.425  -0.001  10.199 -0.9925 -3.2002  1.2562
 2614TP3      O19660   5.307   5.068   1.123  0.2443  0.2546  0.0712
 2614TP3     H119661   5.269   4.987   1.158  2.9602 -1.1918 -0.2213
 2614TP3     H219662   5.350   5.109   1.199  0.4325  0.5049 -0.1702
 2615TP3      O19663   1.515   2.589   9.801  0.0206 -0.4454 -0.0663
 2615TP3     H119664   1.516   2.515   9.741  3.9213  0.6135 -1.4918
 2615TP3     H219665   1.521   2.666   9.745 -1.7959  0.8574  1.4774
 2616TP3      O19666   2.829   2.912   8.412  0.2204 -0.0121 -0.4008
 2616TP3     H119667   2.789   2.825   8.402 -0.7827  0.3882  0.0312
 2616TP3     H219668   2.909   2.907   8.360  0.6129 -1.4706  0.3024
 2617TP3      O19669   0.463   0.609   8.699 -1.0027 -0.0922  0.3578
 2617TP3     H119670   0.461   0.516   8.718  0.5907  0.0970  1.5332
 2617TP3     H219671   0.491   0.615   8.608 -0.7432 -0.7408  0.3955
 2618TP3      O19672   1.208   5.401   9.626  0.5507 -0.4680 -0.0084
 2618TP3     H119673   1.125   5.353   9.623  0.2846 -0.0169  0.1395
 2618TP3     H219674   1.270   5.338   9.662 -0.2823 -0.0141  2.3025
 2619TP3      O19675   5.196   0.197   1.044 -0.2785 -0.3545  0.2230
 2619TP3     H119676   5.227   0.266   1.102  0.4783 -0.0690 -0.5013
 2619TP3     H219677   5.108   0.225   1.017  0.5392  1.0234 -1.1336
 2620TP3      O19678   3.561   3.890   8.084  0.4861 -0.3440 -0.2944
 2620TP3     H119679   3.523   3.803   8.090  0.5617 -0.3225  0.6128
 2620TP3     H219680   3.536   3.922   7.998 -0.7095 -0.7208 -0.0881
 2621TP3      O19681   3.132   2.151   0.740 -0.2565 -0.0863  0.5979
 2621TP3     H119682   3.168   2.186   0.821  0.8759 -0.6619  0.3483
 2621TP3     H219683   3.193   2.082   0.714  0.8840  1.8775 -2.1813
 2622TP3      O19684   1.943   4.397  10.146  0.4766  0.4838 -0.0745
 2622TP3     H119685   1.979   4.313  10.118 -0.3859 -0.7248  2.2716
 2622TP3     H219686   1.857   4.402  10.104  0.7068  0.3713 -0.5516
 2623TP3      O19687   5.217   4.357   0.146  0.2596  0.3636 -0.5286
 2623TP3     H119688   5.138   4.406   0.170 -0.3099 -0.8008  0.0220
 2623TP3     H219689   5.284   4.423   0.135 -0.7586  1.3659 -0.8314
 2624TP3      O19690   0.599   2.497   8.753  0.4457  0.0678 -0.9634
 2624TP3     H119691   0.532   2.566   8.753 -1.2419 -1.5231 -2.1418
 2624TP3     H219692   0.549   2.415   8.755  2.3772 -1.1515 -1.4638
 2625TP3      O19693   5.254   3.210  10.265 -0.3799  0.0782  0.2413
 2625TP3     H119694   5.195   3.136  10.250 -0.0201 -0.0399 -0.6369
 2625TP3     H219695   5.264   3.214  10.360  0.6124 -1.8127  0.2434
 2626TP3      O19696   2.383   4.685   2.086  0.2046  0.0683 -0.3746
 2626TP3     H119697   2.332   4.650   2.013 -0.8862  1.8934 -0.5179
 2626TP3     H219698   2.400   4.609   2.142 -1.8011 -0.7596 -0.8352
 2627TP3      O19699   4.905   1.026   8.497  0.7733  0.2925 -0.4167
 2627TP3     H119700   4.834   1.083   8.526  0.5791 -0.2709  0.2557
 2627TP3     H219701   4.943   1.070   8.421 -1.8637 -0.5639 -2.3168
 2628TP3      O19702   2.602   4.830   2.841  0.0776  0.4513  0.4034
 2628TP3     H119703   2.661   4.774   2.892  0.9269 -0.0208 -1.0582
 2628TP3     H219704   2.639   4.828   2.753 -0.3050  2.7372  0.1645
 2629TP3      O19705   3.687   0.545   9.815 -0.1531  0.1581  0.3426
 2629TP3     H119706   3.745   0.470   9.831  0.0824  0.8147  2.8277
 2629TP3     H219707   3.746   0.618   9.799 -0.3075  0.5527  1.5456
 2630TP3      O19708   3.081   2.061   8.295 -0.6154 -0.0927  0.2115
 2630TP3     H119709   3.060   1.976   8.256  0.0671 -0.4985  0.7264
 2630TP3     H219710   3.061   2.051   8.388  1.0239 -0.2282  0.5730
 2631TP3      O19711   4.668   1.395   9.322  0.2900 -0.0852  0.3923
 2631TP3     H119712   4.648   1.334   9.393  0.5896  0.2813  0.7872
 2631TP3     H219713   4.612   1.366   9.250  0.6968 -1.0536  0.4606
 2632TP3      O19714   0.636   0.140  10.064  0.1298 -0.5017  0.5482
 2632TP3     H119715   0.711   0.126  10.006  0.3078  1.4951  0.2736
 2632TP3     H219716   0.669   0.121  10.152  0.8179 -0.1185  0.3726
 2633TP3      O19717   4.381   0.938   1.341  0.1694  0.4302  0.5902
 2633TP3     H119718   4.449   0.952   1.276 -0.2435  0.5247  0.1720
 2633TP3     H219719   4.315   0.884   1.295  0.5982 -0.8054  1.4089
 2634TP3      O19720   1.649   0.153   1.914 -0.0568  0.1962 -0.1690
 2634TP3     H119721   1.735   0.154   1.957  0.4622  0.1725 -1.2013
 2634TP3     H219722   1.667   0.125   1.825 -1.1032  0.5153 -0.4839
 2635TP3      O19723   1.547   2.060  10.268  0.0189  0.8166 -0.6735
 2635TP3     H119724   1.569   2.071  10.175  0.8046 -0.0932 -0.6018
 2635TP3     H219725   1.456   2.089  10.274 -0.5809 -0.6459 -2.0724
 2636TP3      O19726   0.443   3.784  10.118 -0.3972  0.1093  0.0144
 2636TP3     H119727   0.518   3.779  10.177 -0.3661 -1.2093 -0.1217
 2636TP3     H219728   0.468   3.849  10.053  0.7741 -0.5588 -0.2202
 2637TP3      O19729   2.401   3.480   8.944  0.1659  0.4622 -0.1787
 2637TP3     H119730   2.374   3.547   8.882  1.7511 -0.0707 -1.4744
 2637TP3     H219731   2.485   3.511   8.978 -1.0159  1.1274  2.3127
 2638TP3      O19732   3.934   2.879   0.406  0.1159  0.3681  0.6835
 2638TP3     H119733   3.982   2.945   0.356 -2.0476  0.1215 -1.8357
 2638TP3     H219734   3.939   2.910   0.497  0.5763  3.0895 -0.2152
 2639TP3      O19735   0.478   1.721   9.953 -0.2682 -0.0002  0.7817
 2639TP3     H119736   0.448   1.653  10.014 -0.0391 -0.3898  0.4642
 2639TP3     H219737   0.426   1.798   9.974 -2.0380 -0.8861 -0.2643
 2640TP3      O19738   1.104   0.639   8.377  0.5224  0.0374 -0.2684
 2640TP3     H119739   1.044   0.614   8.447  0.1965 -1.4771 -1.0796
 2640TP3     H219740   1.104   0.565   8.317  1.1149  1.1452 -1.6709
 2641TP3      O19741   0.938   2.089   0.672 -0.3941  0.0736  0.3660
 2641TP3     H119742   0.977   2.017   0.623  0.6427 -0.2215  1.5996
 2641TP3     H219743   0.875   2.128   0.611 -3.0683 -3.6106  0.5944
 2642TP3      O19744   3.620   1.355   0.342 -0.1738 -0.7869  0.5364
 2642TP3     H119745   3.666   1.286   0.295 -0.0528  0.7522 -1.6707
 2642TP3     H219746   3.535   1.362   0.297 -1.2730 -1.3295  2.4588
 2643TP3      O19747   0.586   4.820   2.676 -0.1419 -0.2190 -0.0517
 2643TP3     H119748   0.642   4.896   2.692  1.6607 -0.9274 -2.8060
 2643TP3     H219749   0.644   4.754   2.640 -1.2214 -3.7806  4.2748
 2644TP3      O19750   4.711   5.261   2.785 -0.2220 -0.3654  0.1429
 2644TP3     H119751   4.708   5.357   2.777 -0.0027 -0.3873 -0.1690
 2644TP3     H219752   4.761   5.232   2.710  2.7780 -0.4620  2.0832
 2645TP3      O19753   0.314   4.421   0.412 -0.2733  0.0838  0.0322
 2645TP3     H119754   0.258   4.343   0.404 -1.0879  0.7134 -0.4441
 2645TP3     H219755   0.344   4.438   0.322 -0.2314  0.4315  0.1127
 2646TP3      O19756   3.434   0.805   0.971  0.3226 -0.1654  0.1100
 2646TP3     H119757   3.432   0.837   1.061  1.3088 -0.0286  0.0821
 2646TP3     H219758   3.497   0.861   0.926  0.9203 -1.1607 -0.3107
 2647TP3      O19759   4.424   3.499   2.536  0.1751  0.2593 -0.7202
 2647TP3     H119760   4.335   3.505   2.571  0.3545  1.1272 -0.3933
 2647TP3     H219761   4.426   3.563   2.465  0.9552  1.2456  0.1869
 2648TP3      O19762   0.770   4.559   8.862 -0.6022  0.1176 -0.4197
 2648TP3     H119763   0.813   4.615   8.797  0.3135 -0.4131 -0.2851
 2648TP3     H219764   0.842   4.521   8.912 -1.2466 -0.5185  0.0367
 2649TP3      O19765   4.977   5.293   1.693 -0.0429  0.3250  0.3478
 2649TP3     H119766   4.962   5.383   1.722 -0.8623  1.0683 -2.1640
 2649TP3     H219767   4.918   5.240   1.746 -1.1097  1.5490  0.4204
 2650TP3      O19768   1.081   3.104   2.166 -0.5642 -0.3689 -0.2783
 2650TP3     H119769   1.114   3.111   2.076  0.8210 -0.4146  0.2119
 2650TP3     H219770   0.995   3.065   2.156 -0.5299 -0.1578 -1.6117
 2651TP3      O19771   1.038   4.607   9.200  0.5121  0.0741 -0.5835
 2651TP3     H119772   0.969   4.670   9.221 -0.2412 -1.3401  1.4134
 2651TP3     H219773   1.002   4.556   9.127 -0.8309 -0.9742  0.7573
 2652TP3      O19774   0.607   2.621   0.946 -0.0732  0.5815 -0.3059
 2652TP3     H119775   0.561   2.699   0.913  1.1166  2.1492  1.6110
 2652TP3     H219776   0.578   2.613   1.036 -0.3256 -1.3446 -0.5527
 2653TP3      O19777   3.192   2.643   1.692  0.2337  0.3097 -0.2174
 2653TP3     H119778   3.268   2.680   1.647  0.7051 -1.8711 -1.2766
 2653TP3     H219779   3.127   2.631   1.623 -1.4046  2.8923  0.8128
 2654TP3      O19780   1.966   4.113   8.686  0.0426  0.3781  0.7008
 2654TP3     H119781   2.002   4.165   8.758  1.6127  1.2423 -0.6776
 2654TP3     H219782   1.949   4.177   8.617  1.6222 -0.8549 -0.8703
 2655TP3      O19783   4.926   0.672   2.635  0.4872 -0.3356 -0.3108
 2655TP3     H119784   4.919   0.743   2.571 -0.3097  2.4363  2.7191
 2655TP3     H219785   5.012   0.684   2.675 -0.2996 -0.0483  1.3365
 2656TP3      O19786   3.269   4.591   9.907  0.4722  0.2056  0.3994
 2656TP3     H119787   3.330   4.661   9.927 -0.1379  1.8262 -3.0213
 2656TP3     H219788   3.308   4.545   9.832  0.0627 -2.0727  1.5415
 2657TP3      O19789   4.681   2.695   7.854  0.5227  0.0250 -0.4664
 2657TP3     H119790   4.711   2.619   7.904  0.2948  1.0212  1.2427
 2657TP3     H219791   4.700   2.674   7.763  1.1617 -1.7513  0.0684
 2658TP3      O19792   4.330   4.214   1.904  0.2057  0.0896  0.2149
 2658TP3     H119793   4.354   4.304   1.926  0.3733  0.1347 -0.1503
 2658TP3     H219794   4.281   4.221   1.822 -0.6269 -0.0577  0.6953
 2659TP3      O19795   0.905   4.928  10.111 -0.1521 -0.1127 -0.3195
 2659TP3     H119796   0.893   4.993  10.181  2.5483  0.7852 -0.6206
 2659TP3     H219797   0.863   4.849  10.145 -2.6390  1.4763  0.4768
 2660TP3      O19798   1.723   1.255   0.466 -0.3719  0.2009 -0.0485
 2660TP3     H119799   1.817   1.240   0.468 -0.7520 -2.4039  0.5008
 2660TP3     H219800   1.690   1.188   0.406 -1.9387  0.5860  0.3609
 2661TP3      O19801   3.669   0.175   2.321 -0.4564  0.3094 -0.2139
 2661TP3     H119802   3.668   0.207   2.230 -0.2172 -1.5671 -0.9091
 2661TP3     H219803   3.721   0.095   2.317 -1.3014 -0.3360  1.4082
 2662TP3      O19804   4.190   3.944   8.294  0.0561 -0.0697 -0.2013
 2662TP3     H119805   4.137   3.878   8.250 -2.4829  2.6073 -1.2524
 2662TP3     H219806   4.166   3.936   8.387  1.3988 -2.0467  0.0085
 2663TP3      O19807   0.479   1.507   3.048  0.7399  0.7163 -0.3172
 2663TP3     H119808   0.551   1.562   3.078 -0.0178  0.3301  2.4048
 2663TP3     H219809   0.401   1.563   3.059  0.0922 -0.4757  1.4937
 2664TP3      O19810   1.143   3.123   0.550 -0.0271  0.1119  0.1028
 2664TP3     H119811   1.236   3.102   0.559  0.1354  0.8040  0.0751
 2664TP3     H219812   1.103   3.041   0.519  0.2349 -0.7740  2.0211
 2665TP3      O19813   0.268   3.951   8.106  0.5183  0.2929  0.5065
 2665TP3     H119814   0.232   4.011   8.041  1.1635 -0.8608 -0.9340
 2665TP3     H219815   0.260   3.999   8.189 -1.8302  1.1309 -0.1480
 2666TP3      O19816   1.096   0.033   0.766 -0.2707  0.0100  0.2206
 2666TP3     H119817   1.131  -0.019   0.694  1.0668  1.2218 -0.0295
 2666TP3     H219818   1.001   0.030   0.754 -0.1182 -0.8327 -0.8524
 2667TP3      O19819   4.201   0.269   1.598 -0.4459  0.1009 -0.0805
 2667TP3     H119820   4.295   0.286   1.603 -0.2666 -0.7812 -0.4092
 2667TP3     H219821   4.163   0.327   1.665  0.3512  0.2610  0.2427
 2668TP3      O19822   2.233   1.553   0.879  0.2954  0.1182  0.3090
 2668TP3     H119823   2.215   1.638   0.919  1.2951 -0.1409  1.3491
 2668TP3     H219824   2.193   1.558   0.792  1.9138  2.3437 -0.3478
 2669TP3      O19825   4.582   2.012   0.949  0.0603 -0.2534  0.5347
 2669TP3     H119826   4.570   1.934   1.003 -0.2930 -0.9019 -0.4572
 2669TP3     H219827   4.665   2.050   0.979 -0.5854 -0.0888  2.1409
 2670TP3      O19828   4.250   0.891  10.296  0.0655 -0.2810 -0.2378
 2670TP3     H119829   4.190   0.964  10.310 -0.9973 -1.1977  0.1025
 2670TP3     H219830   4.229   0.859  10.209  1.2703  0.4783 -0.8226
 2671TP3      O19831   4.186   0.172   9.620 -0.0244  0.0190  0.1455
 2671TP3     H119832   4.122   0.107   9.649 -1.4280  1.1945 -0.2336
 2671TP3     H219833   4.210   0.145   9.532 -0.4616 -0.0854  0.0601
 2672TP3      O19834   4.367   5.434   3.441  0.5857  0.2474 -0.2856
 2672TP3     H119835   4.434   5.503   3.442 -1.5944  2.5012 -2.1390
 2672TP3     H219836   4.291   5.474   3.481 -0.0656 -1.8703  0.6411
 2673TP3      O19837   2.196   2.426   1.152 -0.2257 -0.2889  0.1780
 2673TP3     H119838   2.246   2.352   1.119  1.7136  1.9370 -2.1193
 2673TP3     H219839   2.245   2.457   1.228  1.5002  1.3371 -1.5377
 2674TP3      O19840   4.413   5.277   0.510 -0.3991 -0.4418  0.4113
 2674TP3     H119841   4.495   5.239   0.477  0.5669 -0.2698  2.5229
 2674TP3     H219842   4.441   5.355   0.559 -2.0735  1.1527 -1.0638
 2675TP3      O19843   3.218   1.646   0.849 -0.3855 -0.1626  0.2249
 2675TP3     H119844   3.274   1.584   0.897  0.1703  0.3308  0.2230
 2675TP3     H219845   3.138   1.597   0.831  0.5572 -1.3153 -0.9011
 2676TP3      O19846   4.345   2.917   9.674 -0.3467  0.4813 -0.1712
 2676TP3     H119847   4.361   2.824   9.656 -0.8839  0.3293  0.1280
 2676TP3     H219848   4.432   2.954   9.687 -0.2134 -0.3033  1.2533
 2677TP3      O19849   3.417   1.642   1.408 -0.1591  0.0065  0.0156
 2677TP3     H119850   3.356   1.618   1.338 -0.0950 -1.0427  0.3151
 2677TP3     H219851   3.481   1.571   1.409  0.3548  0.4815  0.5286
 2678TP3      O19852   4.628   0.801   0.803 -0.0715 -0.1256  0.2028
 2678TP3     H119853   4.693   0.831   0.868  1.3688 -0.0058 -1.2521
 2678TP3     H219854   4.671   0.816   0.719 -1.5555 -1.1572 -0.7483
 2679TP3      O19855   0.420   1.719   2.088 -0.1108  0.6942 -0.5381
 2679TP3     H119856   0.415   1.794   2.148  1.0519 -0.6135  1.2664
 2679TP3     H219857   0.507   1.683   2.103 -1.5146 -2.4651  0.4672
 2680TP3      O19858   4.298   1.431   2.450 -0.3106  0.2436 -0.5935
 2680TP3     H119859   4.227   1.379   2.414 -0.8694  1.4355 -1.2443
 2680TP3     H219860   4.336   1.476   2.375 -0.6064  1.6835  0.0925
 2681TP3      O19861   0.304   2.934   8.608  0.2798  0.2152  0.2497
 2681TP3     H119862   0.318   2.845   8.639  0.9615  0.1211 -0.3165
 2681TP3     H219863   0.378   2.984   8.641  0.2779  0.4122 -0.0366
 2682TP3      O19864   2.922   2.412   0.823  0.7857  0.0539  0.1857
 2682TP3     H119865   2.993   2.474   0.839  2.4287 -2.1522  1.6753
 2682TP3     H219866   2.961   2.344   0.768 -0.3364 -0.8929  0.5379
 2683TP3      O19867   0.597   0.796  10.167 -0.6491 -0.2888  0.2169
 2683TP3     H119868   0.583   0.735  10.239  0.1028  1.6989  2.1121
 2683TP3     H219869   0.688   0.780  10.140  0.0618  1.0581  1.7700
 2684TP3      O19870   2.937   1.274   7.939  0.1352 -0.0744  0.0380
 2684TP3     H119871   2.912   1.223   7.862 -0.5276  0.0505  0.1637
 2684TP3     H219872   2.960   1.209   8.005  0.7285 -0.1818 -0.2738
 2685TP3      O19873   3.652   1.060   0.620 -0.4231  0.0354 -0.3062
 2685TP3     H119874   3.708   1.138   0.612 -0.4780  0.0672 -0.3806
 2685TP3     H219875   3.602   1.058   0.539 -0.6316  0.0834 -0.1775
 2686TP3      O19876   1.136   0.730   1.638  0.4024 -0.3588 -0.0133
 2686TP3     H119877   1.121   0.758   1.548  0.3393 -0.3529 -0.0010
 2686TP3     H219878   1.068   0.775   1.689  0.5751 -0.1925  0.0676
 2687TP3      O19879   1.725   4.764   7.408 -0.6265 -0.7989 -0.1779
 2687TP3     H119880   1.645   4.724   7.374  0.2977 -0.9625 -2.2585
 2687TP3     H219881   1.796   4.712   7.370  0.5962  2.3574 -2.5097
 2688TP3      O19882   1.026   3.683   9.050 -0.3474 -0.0773 -0.0626
 2688TP3     H119883   1.082   3.653   8.978  0.8282  0.4509  0.6075
 2688TP3     H219884   1.016   3.607   9.107  1.2436  0.3006  0.7686
 2689TP3      O19885   0.809   4.046   0.843  0.5909  0.1014  0.6003
 2689TP3     H119886   0.723   4.073   0.874  0.7797  1.3304  0.0733
 2689TP3     H219887   0.864   4.044   0.922  0.4773  0.8592  0.6964
 2690TP3      O19888   2.887   2.448  10.198  0.1791 -0.1485  0.0538
 2690TP3     H119889   2.844   2.532  10.184  0.2903 -0.1451 -0.2807
 2690TP3     H219890   2.866   2.425  10.288 -0.6575 -0.2249 -0.1542
 2691TP3      O19891   1.847   1.337   0.060  0.4002  0.1985  0.0069
 2691TP3     H119892   1.767   1.386   0.042  0.1566 -0.3345 -0.3839
 2691TP3     H219893   1.830   1.250   0.023  1.8982  0.6513 -1.8286
 2692TP3      O19894   4.373   5.455   1.571 -0.4112 -0.1026 -0.7883
 2692TP3     H119895   4.337   5.496   1.650  1.1483 -0.5030  0.1419
 2692TP3     H219896   4.308   5.474   1.503 -1.7016  0.3694  0.5497
 2693TP3      O19897   1.852   1.301   7.496 -0.3026  0.7599  0.2177
 2693TP3     H119898   1.882   1.256   7.575 -1.0527  2.0807  1.2792
 2693TP3     H219899   1.887   1.249   7.424 -2.4559 -2.4202  1.3800
 2694TP3      O19900   4.573   0.661   1.205 -0.1964  0.5372  0.2351
 2694TP3     H119901   4.555   0.755   1.207 -2.2983  0.1218  1.3129
 2694TP3     H219902   4.582   0.640   1.112 -0.7084  1.6134 -0.0610
 2695TP3      O19903   5.178   4.882   0.060 -0.5494 -0.2350  0.1437
 2695TP3     H119904   5.113   4.948   0.080 -0.2686 -0.6741  2.6073
 2695TP3     H219905   5.261   4.930   0.054 -0.4785 -0.2314  1.0924
 2696TP3      O19906   4.901   0.567   0.846 -0.5059 -0.6738  0.5498
 2696TP3     H119907   4.835   0.560   0.915 -2.3867 -0.9023 -1.2240
 2696TP3     H219908   4.874   0.644   0.795  1.2508 -0.0862  0.4619
 2697TP3      O19909   1.805   0.516   8.493 -0.4959 -0.0154 -0.0578
 2697TP3     H119910   1.766   0.592   8.449  1.1091  1.0062  0.2518
 2697TP3     H219911   1.899   0.532   8.490 -0.3119  0.1721  3.8033
 2698TP3      O19912   0.035   4.875   9.864  0.1033  0.0051 -0.4203
 2698TP3     H119913   0.001   4.933   9.796 -0.4889 -0.2034 -0.3085
 2698TP3     H219914  -0.042   4.828   9.896  0.4193 -0.1049  0.1996
 2699TP3      O19915   1.911   2.189   1.341  0.0383 -0.4242  0.0892
 2699TP3     H119916   1.871   2.209   1.426 -1.5951  0.4493 -0.8586
 2699TP3     H219917   1.988   2.245   1.337 -1.1987  1.3071  0.0028
 2700TP3      O19918   1.251   3.546   1.851  0.2535 -0.2351  1.1198
 2700TP3     H119919   1.163   3.521   1.881  0.1829 -0.3838  0.7828
 2700TP3     H219920   1.262   3.636   1.884 -0.0400 -0.2007  1.1298
 2701TP3      O19921   3.488   5.240   8.834 -0.7262  0.3434 -0.6266
 2701TP3     H119922   3.477   5.332   8.855 -2.7158 -0.1003  0.4021
 2701TP3     H219923   3.476   5.236   8.739 -0.7398  1.1133 -0.6623
 2702TP3      O19924   0.024   2.736   7.431 -0.3372  0.2122  0.2961
 2702TP3     H119925   0.092   2.672   7.416  0.7207  1.1473  1.0143
 2702TP3     H219926  -0.058   2.690   7.410  0.6223 -0.3404 -2.4169
 2703TP3      O19927   3.964   0.759   2.069 -0.4228 -0.3454 -0.3511
 2703TP3     H119928   4.023   0.684   2.078  0.0362 -0.0204 -0.6325
 2703TP3     H219929   3.920   0.745   1.985 -0.1092 -0.1345 -0.5482
 2704TP3      O19930   4.312   1.707   9.993  0.4524 -0.7985  0.0351
 2704TP3     H119931   4.350   1.730  10.078 -2.2783 -1.1557  1.4140
 2704TP3     H219932   4.298   1.792   9.950  1.7346 -0.6102 -0.0324
 2705TP3      O19933   1.107   2.487   8.340 -0.3715 -0.1435 -0.3654
 2705TP3     H119934   1.130   2.580   8.342  0.8555 -0.4108  3.2880
 2705TP3     H219935   1.015   2.485   8.366 -0.2331  0.0573  0.1671
 2706TP3      O19936   0.361   4.688   8.803 -0.6138  0.4881  0.6712
 2706TP3     H119937   0.424   4.639   8.751 -0.7734  0.8786  0.1090
 2706TP3     H219938   0.400   4.692   8.890  0.8845  2.0517 -0.0271
 2707TP3      O19939   4.033   4.477   2.907 -0.6657  0.3365 -0.8663
 2707TP3     H119940   3.993   4.537   2.844  0.0312  1.0168 -0.6669
 2707TP3     H219941   3.969   4.471   2.978 -2.0487 -1.4605 -2.2146
 2708TP3      O19942   0.469   1.012   9.122  0.4632 -0.5344  0.5485
 2708TP3     H119943   0.385   0.966   9.109 -0.2864  0.8651  0.3251
 2708TP3     H219944   0.485   1.056   9.038  1.3013 -0.5917  0.6760
 2709TP3      O19945   5.036   3.110   8.324 -0.2977 -0.2755  0.9548
 2709TP3     H119946   4.958   3.056   8.333 -0.0066 -0.7929  0.4401
 2709TP3     H219947   5.006   3.188   8.277 -0.5028 -0.4748  0.7582
 2710TP3      O19948   3.644   3.378   8.546  0.2354 -0.4241  0.0915
 2710TP3     H119949   3.674   3.339   8.464 -0.4934 -1.6860  0.4221
 2710TP3     H219950   3.550   3.362   8.548  0.1525  0.1188  0.9083
 2711TP3      O19951   4.330   2.215   0.382  0.0617  0.0606 -0.1231
 2711TP3     H119952   4.322   2.294   0.437  1.2468  0.6300 -0.7601
 2711TP3     H219953   4.364   2.148   0.441  1.6854  0.7705 -0.2198
 2712TP3      O19954   1.541   1.425   0.123  0.1274  0.0078  0.5314
 2712TP3     H119955   1.533   1.501   0.180  1.3691  0.1603  0.5235
 2712TP3     H219956   1.582   1.459   0.043  1.4778 -0.8043  0.8568
 2713TP3      O19957   5.076   0.532   1.793  0.2166  0.1164 -1.3403
 2713TP3     H119958   5.018   0.551   1.720  0.5421 -0.4924 -1.7620
 2713TP3     H219959   5.029   0.467   1.845  0.6482 -0.5837 -1.8339
 2714TP3      O19960   2.545   5.485   0.899  0.0702 -0.2037  0.3378
 2714TP3     H119961   2.568   5.577   0.883 -0.2307 -0.5338 -2.2549
 2714TP3     H219962   2.452   5.480   0.877  0.2118 -1.2388 -0.0303
 2715TP3      O19963   2.358   2.693   0.500 -0.1714  0.4827  0.5826
 2715TP3     H119964   2.363   2.721   0.591  1.0385 -1.4189  1.1485
 2715TP3     H219965   2.270   2.719   0.471  0.0599  2.6520  1.7327
 2716TP3      O19966   2.490   4.014   0.486  0.8270 -0.0636  0.1145
 2716TP3     H119967   2.565   4.014   0.546  0.9444  0.2385 -0.0339
 2716TP3     H219968   2.417   3.984   0.540  1.0270 -0.2322  0.2934
 2717TP3      O19969   5.102   4.147   8.898  0.1051 -0.0306  0.3070
 2717TP3     H119970   5.112   4.215   8.964  2.0462 -1.5429  1.6085
 2717TP3     H219971   5.165   4.169   8.830  0.7548 -0.5270  0.7429
 2718TP3      O19972   1.138   3.760   8.217  0.5218  0.4090 -0.5557
 2718TP3     H119973   1.198   3.743   8.144  0.0734 -1.7193 -0.4585
 2718TP3     H219974   1.172   3.840   8.257  1.2191  1.1872 -2.6194
 2719TP3      O19975   3.117   4.013   0.681  0.3394  0.0050  0.0068
 2719TP3     H119976   3.182   3.946   0.659 -0.5936 -0.7319 -0.5157
 2719TP3     H219977   3.083   3.986   0.766  1.0558  0.6613  0.5134
 2720TP3      O19978   5.178   5.305   7.833 -0.6656 -0.0706 -0.6356
 2720TP3     H119979   5.250   5.282   7.774 -0.1895 -0.5509  0.1188
 2720TP3     H219980   5.208   5.384   7.877 -0.7327 -0.0885 -0.5566
 2721TP3      O19981   4.583   4.877   2.469  0.0618  0.5822 -0.0980
 2721TP3     H119982   4.507   4.832   2.432  0.6078  1.0543 -1.8506
 2721TP3     H219983   4.604   4.827   2.548 -1.5589 -0.0417 -0.0351
 2722TP3      O19984   2.803   0.336   2.207  0.3331 -0.2265 -0.4113
 2722TP3     H119985   2.746   0.413   2.199  0.2433 -0.2623 -0.1105
 2722TP3     H219986   2.855   0.353   2.285  0.6137 -0.2758 -0.5873
 2723TP3      O19987   3.349   4.314   0.327 -0.3677  0.2628  0.8309
 2723TP3     H119988   3.296   4.366   0.267  0.3239 -0.8800 -0.8150
 2723TP3     H219989   3.324   4.223   0.308  1.1105 -0.2080  1.0624
 2724TP3      O19990   4.204   2.577   9.554 -0.2095 -0.1544  0.2583
 2724TP3     H119991   4.192   2.543   9.466 -0.2450  2.5561 -0.8148
 2724TP3     H219992   4.286   2.625   9.551  0.0041 -0.3797  1.8239
 2725TP3      O19993   2.223   3.000   0.581  0.0635 -0.5234  0.2890
 2725TP3     H119994   2.175   3.079   0.556  1.6648  0.6635  0.9202
 2725TP3     H219995   2.236   3.008   0.675 -1.5376 -2.5552  0.7302
 2726TP3      O19996   1.483   1.763   9.432  0.5384 -0.1411 -1.0164
 2726TP3     H119997   1.466   1.840   9.379  0.3109 -0.0716 -0.8460
 2726TP3     H219998   1.570   1.778   9.470  0.4205  0.1154 -0.8415
 2727TP3      O19999   3.590   4.650   1.718  0.0794 -0.1566  0.3881
 2727TP3     H120000   3.591   4.583   1.650 -1.5663  0.5620 -0.3841
 2727TP3     H220001   3.519   4.624   1.777 -1.8776  1.8682 -0.9740
 2728TP3      O20002   3.089   0.591   2.853 -0.5194  0.5503  0.1785
 2728TP3     H120003   3.014   0.561   2.801 -1.5714  0.1873  1.8889
 2728TP3     H220004   3.117   0.514   2.902  1.4857  0.4790 -1.0119
 2729TP3      O20005   1.557   2.212   9.127  1.0335  0.9722 -0.1165
 2729TP3     H120006   1.540   2.162   9.047  1.4565  2.5674 -1.2366
 2729TP3     H220007   1.653   2.218   9.131  0.9690  2.4450 -0.4941
 2730TP3      O20008   1.752   3.402   9.573  0.4924  0.0744 -0.1796
 2730TP3     H120009   1.793   3.485   9.551  0.8542 -0.3902 -1.3054
 2730TP3     H220010   1.781   3.384   9.662  2.7474 -0.2231 -0.9285
 2731TP3      O20011   2.500   1.023   8.710 -0.3548 -0.5681  0.0964
 2731TP3     H120012   2.422   1.078   8.696  1.7244  1.7297 -2.9888
 2731TP3     H220013   2.546   1.066   8.782 -0.0113  0.2979 -0.6346
 2732TP3      O20014   5.120   0.162   0.687 -0.7927  0.4117 -0.0549
 2732TP3     H120015   5.170   0.155   0.605 -0.8022 -3.8427  0.1933
 2732TP3     H220016   5.175   0.214   0.745  0.1015  1.8163 -2.1129
 2733TP3      O20017   5.503   5.398   8.049  0.7426  0.1013 -0.4176
 2733TP3     H120018   5.421   5.437   8.017  1.0304  1.2103  0.1956
 2733TP3     H220019   5.557   5.387   7.970  0.4806  0.5010 -0.6541
 2734TP3      O20020   0.541   2.469   1.302 -0.0806  0.5424  0.2544
 2734TP3     H120021   0.522   2.470   1.396  0.9614 -0.2242  0.4869
 2734TP3     H220022   0.635   2.451   1.297 -0.5565 -1.8828 -0.9572
 2735TP3      O20023   1.385   0.244   2.316 -0.1783  0.0043  0.3243
 2735TP3     H120024   1.308   0.276   2.268  1.5087  1.4202 -1.5202
 2735TP3     H220025   1.429   0.186   2.254  1.9802  1.7808  0.1503
 2736TP3      O20026   1.971   4.266   9.691 -0.5356  0.2531  0.2075
 2736TP3     H120027   1.984   4.174   9.715 -1.9813  0.0191  0.1049
 2736TP3     H220028   1.984   4.268   9.596  1.0401  0.4390  0.4178
 2737TP3      O20029   0.548   3.784   9.469  0.4609  0.5059  0.0474
 2737TP3     H120030   0.612   3.852   9.449 -0.2874  0.6663 -1.9332
 2737TP3     H220031   0.464   3.821   9.442 -0.1181 -0.6928  0.1759
 2738TP3      O20032   2.409   4.393   8.798 -0.7567 -0.7063 -0.2705
 2738TP3     H120033   2.381   4.309   8.835  0.4885 -0.6709  0.7841
 2738TP3     H220034   2.355   4.458   8.843 -1.1617 -0.8773 -0.5065
 2739TP3      O20035   5.066   4.838   0.552 -0.5101 -0.4157  0.1192
 2739TP3     H120036   4.984   4.796   0.578 -1.9544  2.6898  0.9098
 2739TP3     H220037   5.114   4.848   0.634 -1.3978  1.8422  0.4164
 2740TP3      O20038   1.965   4.243   0.220 -0.5809 -0.4712 -0.1860
 2740TP3     H120039   1.928   4.186   0.287  0.1410 -0.4129  0.2614
 2740TP3     H220040   1.992   4.322   0.267  0.3745 -0.6326 -0.4577
 2741TP3      O20041   5.071   5.110   0.197  0.1483 -0.3006  0.5742
 2741TP3     H120042   5.124   5.168   0.141  0.4593 -2.2031 -1.1307
 2741TP3     H220043   5.112   5.118   0.283  0.6909  1.3962  0.1848
 2742TP3      O20044   2.269   3.193   2.779 -0.7983 -0.4419 -0.0518
 2742TP3     H120045   2.249   3.123   2.841 -2.1570  0.6087  0.7322
 2742TP3     H220046   2.215   3.267   2.808  0.5772  0.9295 -0.8768
 2743TP3      O20047   4.968   2.478   0.257  0.4549  0.7117 -0.1193
 2743TP3     H120048   4.876   2.492   0.238  0.6057  1.9986  0.0247
 2743TP3     H220049   5.014   2.513   0.180  0.8520  0.9023  0.2002
 2744TP3      O20050   3.322   0.805  10.256  0.5941  0.7472 -0.4555
 2744TP3     H120051   3.265   0.881  10.265 -1.3507 -0.6978 -0.1674
 2744TP3     H220052   3.300   0.768  10.171 -0.5680 -1.0946  0.5891
 2745TP3      O20053   5.355   3.413   9.804 -0.1019  0.2745  0.1622
 2745TP3     H120054   5.304   3.481   9.760  0.1658 -0.5982 -1.5203
 2745TP3     H220055   5.295   3.339   9.812  0.6872 -0.5560 -1.3132
 2746TP3      O20056   4.683   2.135   0.344  0.1277 -0.0729 -0.3621
 2746TP3     H120057   4.672   2.082   0.265  2.2844  0.8505 -1.3317
 2746TP3     H220058   4.633   2.215   0.327 -0.5754 -0.4747 -0.1915
 2747TP3      O20059   2.837   5.125   0.631  0.3608  0.1425  0.0269
 2747TP3     H120060   2.790   5.085   0.557 -0.2951  0.7543  0.1082
 2747TP3     H220061   2.779   5.195   0.661  0.7186  0.0344  0.9899
 2748TP3      O20062   4.410   1.361   0.273  0.0215 -0.4616  0.2372
 2748TP3     H120063   4.488   1.311   0.251 -1.0041 -0.8760 -2.7553
 2748TP3     H220064   4.337   1.305   0.245 -1.2120  1.4397 -0.4590
 2749TP3      O20065   2.061   3.328   0.461  0.0559 -0.1635  0.1636
 2749TP3     H120066   2.153   3.330   0.486 -0.2239  1.4259  1.1446
 2749TP3     H220067   2.022   3.263   0.519  0.4199 -0.3375  0.2169
 2750TP3      O20068   3.464   1.688   9.472  0.7446  0.6233 -0.0359
 2750TP3     H120069   3.387   1.661   9.421  1.3196  0.2156 -0.6899
 2750TP3     H220070   3.508   1.752   9.417  0.5952  1.2502  0.5655
 2751TP3      O20071   1.619   2.128   7.194 -0.6532  0.5256  0.2997
 2751TP3     H120072   1.540   2.074   7.205 -1.5123  1.6254 -0.4213
 2751TP3     H220073   1.602   2.206   7.246 -0.7478  1.5016 -1.1594
 2752TP3      O20074   3.085   4.152   1.057  0.0516 -0.2476  0.1490
 2752TP3     H120075   3.091   4.143   1.152  0.5103  2.0121  0.3712
 2752TP3     H220076   3.098   4.064   1.023 -0.6855 -1.1774  2.2009
 2753TP3      O20077   1.591   3.606   2.838 -0.6867 -0.6487 -0.2926
 2753TP3     H120078   1.667   3.640   2.884 -0.5294  1.6912 -2.1986
 2753TP3     H220079   1.581   3.517   2.872  0.7229  0.2229  2.5864
 2754TP3      O20080   0.242   4.621   7.147  0.3358  0.4075  0.1001
 2754TP3     H120081   0.240   4.527   7.129  0.0927  0.4610 -0.1532
 2754TP3     H220082   0.330   4.648   7.121 -0.2848  0.6464 -1.8784
 2755TP3      O20083   2.284   4.495   1.207  0.4593  0.3548 -0.4461
 2755TP3     H120084   2.190   4.499   1.224  0.2403 -0.1187 -1.5386
 2755TP3     H220085   2.313   4.586   1.204 -0.0955  0.5151 -0.8518
 2756TP3      O20086   0.367   3.047   9.652 -0.2716 -0.2376 -0.1578
 2756TP3     H120087   0.313   2.994   9.710  0.5643 -0.6660  0.2470
 2756TP3     H220088   0.403   3.115   9.709 -1.2380  0.6979 -0.6480
 2757TP3      O20089   0.085   3.721   7.586 -0.0478 -0.0933  0.1022
 2757TP3     H120090   0.159   3.778   7.606  0.2697 -0.1020 -1.0666
 2757TP3     H220091   0.009   3.780   7.589  0.5003  0.8869 -3.2341
 2758TP3      O20092   3.751   4.327   7.566 -0.0198 -0.3590 -0.1527
 2758TP3     H120093   3.741   4.279   7.648 -1.1118  0.2215  0.0690
 2758TP3     H220094   3.758   4.419   7.593  2.4027 -0.3837 -0.5480
 2759TP3      O20095   5.011   0.717  10.225  0.5791 -0.0028  0.3882
 2759TP3     H120096   4.979   0.628  10.236  0.1593  0.2686  1.4476
 2759TP3     H220097   4.936   0.767  10.194  1.4062 -0.4760 -2.4869
 2760TP3      O20098   0.194   2.298   7.592 -0.8722  0.0216  0.1518
 2760TP3     H120099   0.130   2.303   7.521  0.4018  1.1923 -0.9356
 2760TP3     H220100   0.275   2.331   7.553  0.2547 -0.9126  1.6717
 2761TP3      O20101   3.484   2.923   0.662 -0.1714 -0.1341 -0.2133
 2761TP3     H120102   3.567   2.898   0.704 -1.0188 -1.1610  0.9088
 2761TP3     H220103   3.453   2.998   0.714 -0.4277 -0.3829 -0.0039
 2762TP3      O20104   3.872   3.044   2.313  0.2867 -0.5833 -0.0594
 2762TP3     H120105   3.784   3.023   2.280 -0.6920  0.1546  2.0108
 2762TP3     H220106   3.895   3.126   2.268 -1.0804  0.4666  1.0887
 2763TP3      O20107   1.652   3.415   0.351 -0.1011 -0.3245 -0.5674
 2763TP3     H120108   1.558   3.409   0.364  0.0240  0.3530  0.7138
 2763TP3     H220109   1.683   3.472   0.421  1.3409 -0.9677 -0.6524
 2764TP3      O20110   1.405   0.035   9.490  0.3317  0.1855 -0.3538
 2764TP3     H120111   1.341  -0.018   9.539  1.1785 -0.3404  0.1870
 2764TP3     H220112   1.375   0.031   9.399 -0.0010 -0.6557 -0.2089
 2765TP3      O20113   4.813   1.093   9.960  0.8184 -0.3132 -0.1154
 2765TP3     H120114   4.807   1.007  10.003 -2.5503 -1.2754 -2.2980
 2765TP3     H220115   4.724   1.129   9.967  1.6113  1.9622 -1.3060
 2766TP3      O20116   5.261   4.839   1.267  0.2589 -0.3519 -0.4645
 2766TP3     H120117   5.340   4.840   1.321 -0.2981 -1.7522  0.4129
 2766TP3     H220118   5.283   4.780   1.195 -0.4551 -1.8723  0.5417
 2767TP3      O20119   1.365   4.358   1.792 -0.1337  0.0410 -0.4721
 2767TP3     H120120   1.355   4.453   1.782  0.4466 -0.0077 -1.7460
 2767TP3     H220121   1.450   4.340   1.752 -1.6953 -1.4490 -3.2495
 2768TP3      O20122   4.455   4.809   8.056  0.1396 -0.5571 -0.1152
 2768TP3     H120123   4.442   4.751   7.981  2.5714 -1.4241  0.1121
 2768TP3     H220124   4.550   4.818   8.064 -0.1292  1.1318  1.6522
 2769TP3      O20125   3.961   2.699   1.803 -0.3601  0.0965 -0.3738
 2769TP3     H120126   3.919   2.746   1.731 -1.5509 -0.7088 -0.2101
 2769TP3     H220127   4.034   2.653   1.762 -0.3558  0.5430 -0.8670
 2770TP3      O20128   1.569   0.926   0.629 -0.1589  0.0550 -0.0093
 2770TP3     H120129   1.515   1.002   0.608  0.9463  0.6146 -0.9171
 2770TP3     H220130   1.655   0.947   0.592 -0.1942 -2.2394 -1.5093
 2771TP3      O20131   0.251   1.427   8.341 -0.3688  0.0920  0.9672
 2771TP3     H120132   0.181   1.414   8.277 -1.5962  0.9428  2.1088
 2771TP3     H220133   0.292   1.341   8.349 -0.2727 -0.0623 -0.8580
 2772TP3      O20134   1.503   3.710   0.517 -0.1874 -0.2635  0.2314
 2772TP3     H120135   1.424   3.696   0.570 -0.3078  0.7746  0.3337
 2772TP3     H220136   1.469   3.723   0.428 -0.0288 -1.3173  0.0089
 2773TP3      O20137   5.342   2.720   0.646 -0.0937  0.4075  0.1679
 2773TP3     H120138   5.401   2.776   0.594 -0.0824  1.2180  1.0367
 2773TP3     H220139   5.280   2.685   0.582  0.0960  1.1696 -0.4410
 2774TP3      O20140   3.035   4.281   2.512 -0.0267 -0.1989 -0.5517
 2774TP3     H120141   2.965   4.272   2.448 -1.3044 -0.7074  0.8698
 2774TP3     H220142   3.061   4.373   2.506 -0.9257  0.0323 -1.0159
 2775TP3      O20143   2.932   4.514   1.085  0.6306  0.0338 -0.0481
 2775TP3     H120144   2.909   4.451   1.017  0.7456  0.9059 -0.8915
 2775TP3     H220145   2.992   4.465   1.143 -0.3073 -1.0361  0.0408
 2776TP3      O20146   0.548   5.061   7.534 -0.0924  0.2709 -0.3504
 2776TP3     H120147   0.493   5.037   7.460 -0.2226  0.1027 -0.1957
 2776TP3     H220148   0.574   5.152   7.516 -0.6874  0.4592 -0.2560
 2777TP3      O20149   3.980   3.350   0.513  0.3440 -0.4435 -0.1595
 2777TP3     H120150   4.030   3.409   0.569  0.2590  0.8031 -1.3667
 2777TP3     H220151   3.906   3.324   0.566  0.7332  0.0240  0.6232
 2778TP3      O20152   2.650   3.936   7.574 -0.0579  0.1866 -0.5354
 2778TP3     H120153   2.568   3.980   7.599  1.0247  0.8324  2.0255
 2778TP3     H220154   2.623   3.872   7.508 -2.5771  0.5923  0.0399
 2779TP3      O20155   1.469   1.918  10.035  0.0265  0.2703  0.0967
 2779TP3     H120156   1.424   1.858   9.975 -1.6933  1.1987  0.4303
 2779TP3     H220157   1.562   1.901  10.021 -0.4250 -1.5985 -0.7034
 2780TP3      O20158   3.154   0.461   1.371  0.2945  0.1685  0.2372
 2780TP3     H120159   3.163   0.367   1.355  0.1986  0.1914  0.0485
 2780TP3     H220160   3.069   0.469   1.416  0.1227  0.2071 -0.0951
 2781TP3      O20161   0.377   1.494   9.004  0.1243  0.4574  0.9433
 2781TP3     H120162   0.387   1.428   8.935 -1.4001  0.9037  0.2698
 2781TP3     H220163   0.283   1.498   9.019  0.2807  1.8872  1.5545
 2782TP3      O20164   2.340   1.863   3.215  0.3717  0.0181 -0.4943
 2782TP3     H120165   2.428   1.902   3.213  0.3469  0.0903 -0.2317
 2782TP3     H220166   2.308   1.872   3.126  0.1648  1.0797 -0.3206
 2783TP3      O20167   4.084   1.086   1.090 -0.2535  0.9287 -0.3181
 2783TP3     H120168   4.154   1.148   1.073 -1.4849  2.9195  1.5470
 2783TP3     H220169   4.110   1.006   1.045  2.4462  2.1100 -0.9110
 2784TP3      O20170   3.216   4.314   9.965 -0.3014 -0.5000  0.3138
 2784TP3     H120171   3.236   4.408   9.972 -1.1260 -0.0494 -2.5542
 2784TP3     H220172   3.301   4.272   9.951 -0.0550 -0.0103  0.3334
 2785TP3      O20173   1.467   3.120   8.473  0.2102 -0.3196  0.8699
 2785TP3     H120174   1.501   3.207   8.452  0.4684 -1.2994 -3.0745
 2785TP3     H220175   1.376   3.136   8.500  0.0775  1.1431 -0.3819
 2786TP3      O20176   0.243   4.971   8.767 -0.5080 -0.2140  0.5604
 2786TP3     H120177   0.158   4.963   8.723 -0.4209 -0.2846  0.4031
 2786TP3     H220178   0.275   4.881   8.774 -0.0466 -0.1204 -0.1743
 2787TP3      O20179   3.170   3.374   1.589  0.5794  0.1233 -0.4205
 2787TP3     H120180   3.257   3.378   1.629  0.3815  0.3926 -0.0150
 2787TP3     H220181   3.161   3.283   1.562  0.3996 -0.2670  0.8795
 2788TP3      O20182   4.851   2.215   1.795  0.6617  0.0283 -0.1613
 2788TP3     H120183   4.848   2.233   1.889 -0.5593 -2.3647  0.2714
 2788TP3     H220184   4.760   2.211   1.768  0.9798 -0.8017 -1.1526
 2789TP3      O20185   4.877   4.930   0.148  0.2588 -0.0270 -0.1935
 2789TP3     H120186   4.956   4.980   0.173 -0.1775  0.2415  0.6820
 2789TP3     H220187   4.804   4.988   0.171 -0.2404 -0.8974  0.4430
 2790TP3      O20188   4.103   5.046   0.369 -0.8634  0.2220  0.2556
 2790TP3     H120189   4.134   4.959   0.344 -1.8445 -0.2877  0.7637
 2790TP3     H220190   4.178   5.103   0.356  0.1227 -0.8863  0.9764
 2791TP3      O20191   4.776   0.746   0.229  0.1703 -0.0711  0.2750
 2791TP3     H120192   4.759   0.663   0.183  0.0547  1.3082 -2.2873
 2791TP3     H220193   4.855   0.729   0.280  1.3309 -1.2014 -1.8083
 2792TP3      O20194   5.060   2.007   8.631  0.0001 -0.4670  0.0779
 2792TP3     H120195   5.051   2.088   8.682 -1.7504  0.0724 -1.0307
 2792TP3     H220196   4.999   1.946   8.673 -1.3707 -0.0539 -1.2765
 2793TP3      O20197   1.162   0.692   0.451 -0.7272  0.0684 -0.1383
 2793TP3     H120198   1.089   0.712   0.511 -1.1904 -0.6842 -0.4470
 2793TP3     H220199   1.241   0.705   0.504 -1.0862  0.7610  0.2393
 2794TP3      O20200   4.085   2.384   9.280  0.3254 -0.2930 -0.7529
 2794TP3     H120201   3.997   2.355   9.254  0.5179 -0.8951 -0.7513
 2794TP3     H220202   4.135   2.303   9.288  1.1564  0.0985 -1.7474
 2795TP3      O20203   4.471   4.262   9.516 -0.5175  0.0453 -0.3475
 2795TP3     H120204   4.510   4.349   9.527  1.6339 -0.8579 -0.6217
 2795TP3     H220205   4.395   4.277   9.459 -0.8178  1.8936  0.4734
 2796TP3      O20206   1.087   0.143   2.471 -0.2541  0.0591  0.3922
 2796TP3     H120207   1.164   0.191   2.502 -0.7311  1.5248 -0.6030
 2796TP3     H220208   1.120   0.087   2.401  0.5027 -1.9102  2.2888
 2797TP3      O20209   3.187   4.958   0.031  0.1165  0.1377  0.2570
 2797TP3     H120210   3.146   5.039   0.001  1.1347 -0.2028 -2.1031
 2797TP3     H220211   3.161   4.951   0.123 -1.1229  2.4130  0.1054
 2798TP3      O20212   3.534   4.375   0.948 -0.3555  0.4010  0.1994
 2798TP3     H120213   3.523   4.332   0.863  1.1138  0.9079 -0.2819
 2798TP3     H220214   3.537   4.469   0.927  0.1645  0.5208  0.7795
 2799TP3      O20215   4.007   4.829   9.979  0.4215  0.2519 -0.7151
 2799TP3     H120216   3.995   4.736   9.963  2.3887 -0.0616 -0.4503
 2799TP3     H220217   4.028   4.866   9.893 -1.4948  0.6563 -1.0254
 2800TP3      O20218   5.340   0.700   7.440 -0.4207 -0.4904 -0.0975
 2800TP3     H120219   5.323   0.727   7.530  0.6268  0.1813 -0.0949
 2800TP3     H220220   5.387   0.617   7.448 -1.6932 -1.2259 -0.0657
 2801TP3      O20221   0.431   2.654   7.709 -0.2079 -0.4466 -0.2580
 2801TP3     H120222   0.381   2.587   7.756 -0.1914  0.5941  1.2802
 2801TP3     H220223   0.422   2.733   7.762  0.8273  0.4579 -1.3809
 2802TP3      O20224   1.871   0.874   1.748  0.1080  0.3687 -0.1263
 2802TP3     H120225   1.948   0.857   1.694 -1.0609  0.0933 -1.7327
 2802TP3     H220226   1.835   0.955   1.714  0.6313  1.4317  1.7568
 2803TP3      O20227   0.891   4.745   0.381  0.6177 -0.1482  0.2261
 2803TP3     H120228   0.841   4.723   0.460  2.0791 -3.1079  0.3995
 2803TP3     H220229   0.824   4.773   0.318 -0.5704  2.3273  2.4589
 2804TP3      O20230   1.705   5.467   9.836 -0.6210  0.1035  0.2472
 2804TP3     H120231   1.801   5.459   9.834 -0.7218 -0.6336 -2.8481
 2804TP3     H220232   1.689   5.562   9.831 -0.0888  0.2641  1.2656
 2805TP3      O20233   2.373   2.074   9.960 -0.2827  0.4814 -0.4768
 2805TP3     H120234   2.293   2.023   9.977  1.5050 -2.2761 -0.0210
 2805TP3     H220235   2.410   2.090  10.047  0.1127  1.0381 -0.7468
 2806TP3      O20236   0.970   4.912   0.959  0.1228 -0.1198 -0.7972
 2806TP3     H120237   1.019   4.830   0.949  0.8481  0.3634 -1.3244
 2806TP3     H220238   0.927   4.904   1.044  0.5613 -0.8521 -0.6349
 2807TP3      O20239   3.893   3.169   0.039 -0.2898  0.3759  0.1901
 2807TP3     H120240   3.859   3.163  -0.050 -1.3492  3.2299  0.3343
 2807TP3     H220241   3.834   3.114   0.091  0.6325 -1.7088 -0.9095
 2808TP3      O20242   2.592   5.490   1.659 -0.5963  0.1688  0.0835
 2808TP3     H120243   2.683   5.464   1.644 -0.9079 -1.4060  0.8427
 2808TP3     H220244   2.570   5.544   1.583  1.8345  2.9195  1.2189
 2809TP3      O20245   3.944   1.608   9.136  0.2158 -0.1100 -0.1050
 2809TP3     H120246   3.925   1.690   9.089  1.6622 -0.2549 -0.9625
 2809TP3     H220247   3.875   1.548   9.108  1.2736 -0.3224 -2.4270
 2810TP3      O20248   4.218   4.194   0.757  0.1026  0.6150 -0.0604
 2810TP3     H120249   4.192   4.228   0.842 -1.1081  1.8199 -0.8889
 2810TP3     H220250   4.267   4.266   0.716 -0.9443  0.7494 -1.1203
 2811TP3      O20251   1.226   2.291   7.999 -0.1291 -0.2408 -0.2091
 2811TP3     H120252   1.209   2.384   8.012 -0.9141 -0.4194  0.0930
 2811TP3     H220253   1.172   2.268   7.922  0.2219 -0.3988 -0.4092
 2812TP3      O20254   5.018   2.201   8.445  0.4455  0.3359  0.0435
 2812TP3     H120255   5.039   2.122   8.495 -0.9715  0.0403  0.1861
 2812TP3     H220256   5.025   2.272   8.509  0.3986  0.1712  0.2302
 2813TP3      O20257   1.398   0.283   0.304  0.4894 -0.3932 -0.9137
 2813TP3     H120258   1.472   0.273   0.364 -0.1085 -0.5988 -0.2037
 2813TP3     H220259   1.433   0.335   0.232  1.6372 -1.4137 -1.1232
 2814TP3      O20260   0.454   1.979   7.413  0.4261 -0.6235 -0.2298
 2814TP3     H120261   0.466   1.886   7.393  1.9890 -0.4786 -0.0652
 2814TP3     H220262   0.542   2.010   7.432 -0.3097  0.5091  1.4002
 2815TP3      O20263   1.211   3.458   0.861 -0.1180 -0.4252  0.3867
 2815TP3     H120264   1.252   3.482   0.778 -0.6860  0.7643  0.4507
 2815TP3     H220265   1.154   3.384   0.839 -1.3031  0.7549 -0.5469
 2816TP3      O20266   1.299   2.336   8.450 -0.1184 -0.7251  0.3176
 2816TP3     H120267   1.234   2.400   8.422  0.8901 -0.3048 -1.1158
 2816TP3     H220268   1.247   2.261   8.481 -1.2886 -0.8207 -1.8014
 2817TP3      O20269   5.190   1.195   0.056  0.3583 -0.0602  0.1036
 2817TP3     H120270   5.107   1.152   0.078 -0.3417  1.6854  0.9428
 2817TP3     H220271   5.257   1.130   0.078 -0.6621 -0.5999  1.6886
 2818TP3      O20272   4.782   0.836   9.255 -0.4428  0.3840  0.1426
 2818TP3     H120273   4.719   0.902   9.225 -0.4252  1.1998  1.7799
 2818TP3     H220274   4.758   0.823   9.347  0.0741 -1.3147  0.0349
 2819TP3      O20275   4.402   2.873   7.689  0.1903  0.2459 -0.3383
 2819TP3     H120276   4.338   2.943   7.673  0.4599  0.6847  0.4925
 2819TP3     H220277   4.352   2.792   7.674 -0.7892  0.5683  1.0554
 2820TP3      O20278   0.583   4.857   9.221 -0.3391 -0.4565  0.1172
 2820TP3     H120279   0.571   4.789   9.154 -1.6824 -0.3822  0.2745
 2820TP3     H220280   0.672   4.842   9.254  0.7200  0.1130 -2.3463
 2821TP3      O20281   0.721   2.799   0.617 -0.4089  0.3204  0.2951
 2821TP3     H120282   0.668   2.741   0.671 -0.3769  0.7410  0.7891
 2821TP3     H220283   0.806   2.803   0.662 -1.4948  3.5012  2.2467
 2822TP3      O20284   3.105   3.204   9.999 -0.0451  0.2336  0.7173
 2822TP3     H120285   3.144   3.291  10.005  0.1061  0.6285 -3.9615
 2822TP3     H220286   3.011   3.220   9.997  0.0093  0.4904 -1.4466
 2823TP3      O20287   0.962   3.823   9.546  0.3647 -0.2982 -0.1367
 2823TP3     H120288   0.914   3.767   9.608  0.1247  0.1385  0.0694
 2823TP3     H220289   1.021   3.762   9.501 -0.8319 -0.9596 -0.8464
 2824TP3      O20290   2.528   2.228   7.819 -0.5143  0.1871 -0.3327
 2824TP3     H120291   2.485   2.264   7.741 -1.0605 -0.5778 -0.3848
 2824TP3     H220292   2.586   2.298   7.848 -2.3600  1.5506  0.1929
 2825TP3      O20293   2.728   4.323   8.597 -0.5839  0.3333  0.0701
 2825TP3     H120294   2.676   4.281   8.529 -1.1926 -0.1892  0.8378
 2825TP3     H220295   2.774   4.250   8.640  1.6395  0.8916 -1.2820
 2826TP3      O20296   1.274   1.620  10.279 -0.0970  0.0917 -0.1057
 2826TP3     H120297   1.276   1.715  10.275  0.5339  0.0308 -1.8003
 2826TP3     H220298   1.196   1.599  10.331  0.1874  1.5307  0.9144
 2827TP3      O20299   3.528   2.848   9.975 -0.2868  0.2210 -0.1130
 2827TP3     H120300   3.529   2.864  10.069 -2.6807 -0.1657  0.0211
 2827TP3     H220301   3.582   2.770   9.963 -0.6291 -0.2055  1.0687
 2828TP3      O20302   3.940   5.296   1.022  0.1615 -0.2513  0.5325
 2828TP3     H120303   3.982   5.231   1.079  1.0628  0.5277  0.7661
 2828TP3     H220304   3.966   5.381   1.059  1.3015  0.2847 -1.4315
 2829TP3      O20305   1.441   1.493   2.650  0.2926  0.4801  0.1206
 2829TP3     H120306   1.468   1.509   2.559 -0.1855 -0.8463 -0.2704
 2829TP3     H220307   1.379   1.563   2.669 -0.0201  0.4480 -0.7626
 2830TP3      O20308   3.646   2.801   8.273  0.1896  0.2982  0.4014
 2830TP3     H120309   3.639   2.896   8.265  0.1070  0.2168 -0.4763
 2830TP3     H220310   3.738   2.786   8.295  0.1896  0.5826  0.6041
 2831TP3      O20311   1.736   4.143   2.528 -0.1342  0.0345  0.8920
 2831TP3     H120312   1.716   4.143   2.621 -3.4996 -0.7531  0.2187
 2831TP3     H220313   1.770   4.055   2.511  1.6663  0.5682  1.5542
 2832TP3      O20314   0.662   3.612   8.134 -0.1152  0.0987 -0.0425
 2832TP3     H120315   0.728   3.675   8.104 -2.2378  1.7004 -1.4575
 2832TP3     H220316   0.639   3.641   8.222 -0.1257  0.4923 -0.1764
 2833TP3      O20317   5.361   0.540   0.714  0.3003 -0.0461 -0.4568
 2833TP3     H120318   5.370   0.456   0.668  0.2646 -1.3577  1.8415
 2833TP3     H220319   5.277   0.534   0.758  0.3068  1.2080 -0.2562
 2834TP3      O20320   3.686   2.617   9.939  0.4700  0.1660 -0.0738
 2834TP3     H120321   3.765   2.615   9.992 -0.0885 -0.1635  0.7507
 2834TP3     H220322   3.714   2.658   9.857  1.5752 -0.2778  0.0684
 2835TP3      O20323   2.087   2.124   1.724  0.5030 -0.0923 -0.2802
 2835TP3     H120324   2.032   2.052   1.753  2.0104 -1.9049 -1.7953
 2835TP3     H220325   2.162   2.123   1.783 -0.1172  1.1466  0.5612
 2836TP3      O20326   2.057   4.786   0.716 -0.2216  0.2749  0.0644
 2836TP3     H120327   2.151   4.769   0.724 -0.4073 -0.9320 -0.1960
 2836TP3     H220328   2.034   4.754   0.629 -0.4840  2.4826 -0.6897
 2837TP3      O20329   0.948   1.190   2.451  0.3533  0.3169  0.4376
 2837TP3     H120330   1.024   1.220   2.500  0.4803 -3.6122  2.8679
 2837TP3     H220331   0.984   1.139   2.378  0.0626  0.7298 -0.0018
 2838TP3      O20332   0.206   5.198  10.207  0.0492  0.1352  0.2488
 2838TP3     H120333   0.203   5.128  10.141  0.9326  0.3213  0.0058
 2838TP3     H220334   0.279   5.253  10.180 -1.7187  2.1895 -0.5790
 2839TP3      O20335   1.304   4.512   0.497 -0.5045  0.1333 -0.6947
 2839TP3     H120336   1.315   4.491   0.590 -0.6533 -1.6789 -1.0849
 2839TP3     H220337   1.387   4.553   0.473 -0.7963  1.4542  0.4491
 2840TP3      O20338   1.595   1.743   8.436  0.3277  0.3301 -0.2414
 2840TP3     H120339   1.549   1.660   8.427  0.1251  0.5246 -1.0428
 2840TP3     H220340   1.525   1.808   8.447  0.4962  0.3622  0.7127
 2841TP3      O20341   3.870   2.788   1.291 -0.0817  0.2352 -0.9664
 2841TP3     H120342   3.887   2.699   1.262 -0.9371  0.3547 -1.8587
 2841TP3     H220343   3.931   2.842   1.241 -0.5537  0.2906 -1.4910
 2842TP3      O20344   2.933   0.937   2.038 -0.7087 -0.3874  0.1380
 2842TP3     H120345   2.861   0.999   2.033 -0.7877 -0.5524 -0.7754
 2842TP3     H220346   2.905   0.872   2.102 -0.8744  0.1878  0.6505
 2843TP3      O20347   0.476   5.259   8.880  0.1315  0.2440  0.2210
 2843TP3     H120348   0.430   5.202   8.942  0.3199  0.7691  0.8554
 2843TP3     H220349   0.407   5.317   8.846  0.3696  1.2995  1.4749
 2844TP3      O20350   4.790   2.290   2.039 -0.1062  0.0407  0.4069
 2844TP3     H120351   4.716   2.231   2.052 -0.3520  0.1697 -0.3971
 2844TP3     H220352   4.819   2.311   2.128  0.5373 -1.9686  0.6950
 2845TP3      O20353   4.699   3.384   2.233 -0.8090 -0.2229 -0.4051
 2845TP3     H120354   4.611   3.419   2.228 -0.4583  1.0655  1.7714
 2845TP3     H220355   4.746   3.425   2.160 -1.5759  0.4091 -0.5421
 2846TP3      O20356   2.380   3.062   2.538  0.3809  0.2116  0.3749
 2846TP3     H120357   2.430   2.984   2.559  2.0052  1.2410  0.3998
 2846TP3     H220358   2.343   3.091   2.622 -1.2317 -1.1977  0.1677
 2847TP3      O20359   0.374   2.326   2.925 -0.1865 -0.4641  0.8098
 2847TP3     H120360   0.385   2.331   3.020 -0.3305 -2.6601  0.9696
 2847TP3     H220361   0.282   2.349   2.910 -0.4268 -1.0730  1.3154
 2848TP3      O20362   4.579   0.832   1.510 -0.7133  0.0674 -0.2564
 2848TP3     H120363   4.568   0.815   1.603 -1.6270  1.6401 -0.0479
 2848TP3     H220364   4.514   0.900   1.491  2.1097  2.6235 -1.1751
 2849TP3      O20365   3.612   3.368   8.205 -0.0250 -0.2280  0.5799
 2849TP3     H120366   3.650   3.456   8.206  0.9609 -0.6585  1.2731
 2849TP3     H220367   3.655   3.324   8.132 -0.5115 -0.1510  0.2399
 2850TP3      O20368   3.853   4.897   8.665  0.0152 -0.2449 -0.1511
 2850TP3     H120369   3.909   4.954   8.614  0.6378 -2.1543 -1.6525
 2850TP3     H220370   3.888   4.901   8.754  0.0217  1.7119 -0.2346
 2851TP3      O20371   0.529   2.095   2.125 -0.2748  0.0195  0.0088
 2851TP3     H120372   0.525   2.048   2.208 -0.2776  1.6085  0.9391
 2851TP3     H220373   0.623   2.105   2.108 -0.2273  2.0495  1.2382
 2852TP3      O20374   1.129   2.287   1.426  0.4496 -0.1180  0.2164
 2852TP3     H120375   1.059   2.288   1.491  0.1717  0.9978 -0.0881
 2852TP3     H220376   1.085   2.270   1.343  0.7899 -1.4128  0.2883
 2853TP3      O20377   3.803   3.905   2.598  0.7404  0.0931 -0.2127
 2853TP3     H120378   3.783   3.939   2.685 -1.4937 -0.3140 -0.5189
 2853TP3     H220379   3.856   3.827   2.614 -1.8207 -1.4941  0.9802
 2854TP3      O20380   0.159   1.537   2.330 -0.4483  0.2110  0.4478
 2854TP3     H120381   0.148   1.622   2.289  0.2738  0.1356  0.1005
 2854TP3     H220382   0.154   1.555   2.424 -0.5853  0.5959  0.3653
 2855TP3      O20383   0.868   4.225   2.425  0.4030 -0.1044 -0.6029
 2855TP3     H120384   0.844   4.172   2.501 -0.6275 -1.7087 -2.0056
 2855TP3     H220385   0.946   4.183   2.390  1.5348  1.2926  0.1906
 2856TP3      O20386   4.981   5.427   0.706  0.3675 -0.0325  0.5469
 2856TP3     H120387   4.930   5.441   0.785  0.6834 -0.4989  0.8378
 2856TP3     H220388   5.016   5.514   0.684  1.4179 -0.1473  1.7123
 2857TP3      O20389   2.633   5.170   9.348  0.3911 -0.1488  0.4453
 2857TP3     H120390   2.630   5.075   9.335 -1.0548 -0.3135  1.9212
 2857TP3     H220391   2.694   5.181   9.421  1.6991  0.1769 -0.6758
 2858TP3      O20392   0.740   1.861  10.065 -0.3252  0.4210  0.2671
 2858TP3     H120393   0.665   1.822  10.019  0.3552 -0.2363 -0.2966
 2858TP3     H220394   0.702   1.899  10.145 -1.4434  1.1606 -0.6032
 2859TP3      O20395   2.894   4.873   1.637  0.1612  0.3095 -0.1627
 2859TP3     H120396   2.834   4.856   1.565  0.2923  1.3005 -0.5061
 2859TP3     H220397   2.854   4.945   1.686  0.7888  0.6052 -0.0754
 2860TP3      O20398   3.780   3.896   7.814 -0.2773 -0.2212 -0.2707
 2860TP3     H120399   3.691   3.931   7.823 -0.3689 -0.8003  1.2397
 2860TP3     H220400   3.821   3.913   7.899  1.3424  0.8017 -1.2377
 2861TP3      O20401   4.726   3.827   9.408  0.1291  0.2999  0.0470
 2861TP3     H120402   4.789   3.835   9.337 -0.4008 -2.0059 -0.7457
 2861TP3     H220403   4.778   3.802   9.484  0.3317 -0.3449 -0.3005
 2862TP3      O20404   3.939   4.882   1.115 -0.1698 -0.0760  0.0370
 2862TP3     H120405   4.006   4.950   1.118 -0.1699 -0.0772  0.0728
 2862TP3     H220406   3.986   4.803   1.088 -0.1673 -0.0639  0.0057
 2863TP3      O20407   1.612   3.657   7.911 -0.4110 -0.4324  0.4090
 2863TP3     H120408   1.605   3.743   7.869 -1.2210 -0.5832  0.2295
 2863TP3     H220409   1.707   3.643   7.920 -0.2447  1.7967  3.1397
 2864TP3      O20410   1.897   2.598   0.550  0.0082 -0.0506  0.8226
 2864TP3     H120411   1.973   2.655   0.561  0.8880 -1.1724  0.6112
 2864TP3     H220412   1.924   2.535   0.484 -1.2444 -0.2401  0.4797
 2865TP3      O20413   1.928   5.260   9.860 -0.6172  0.2676 -0.4797
 2865TP3     H120414   1.844   5.220   9.881  0.1013 -1.7932 -1.4578
 2865TP3     H220415   1.992   5.190   9.872  1.1517  2.1678  1.5574
 2866TP3      O20416   2.791   3.739   2.103  0.7106  0.6914 -0.1503
 2866TP3     H120417   2.734   3.690   2.044  0.2384  0.1569  0.7274
 2866TP3     H220418   2.845   3.672   2.145 -2.8372  0.3001  4.2221
 2867TP3      O20419   1.091   3.939   0.157 -0.5747 -0.5539  0.2311
 2867TP3     H120420   1.174   3.919   0.200 -2.3194 -3.3323  2.4923
 2867TP3     H220421   1.038   3.980   0.225 -1.5075  0.0460 -0.8344
 2868TP3      O20422   1.907   2.463   8.902  0.3281 -0.0117 -0.5534
 2868TP3     H120423   1.861   2.547   8.903  3.0922  1.5296  0.0083
 2868TP3     H220424   1.892   2.427   8.990 -0.2508  0.1964 -0.5615
 2869TP3      O20425   4.846   1.146   0.910 -0.0706 -0.2866 -0.2122
 2869TP3     H120426   4.799   1.229   0.896 -0.0838 -0.0722  1.0997
 2869TP3     H220427   4.893   1.131   0.828  0.0498  1.0966 -0.3970
 2870TP3      O20428   4.482   1.383   7.705 -0.3033 -0.3874  0.6315
 2870TP3     H120429   4.577   1.381   7.712 -0.2502 -0.6632 -0.0425
 2870TP3     H220430   4.465   1.429   7.622 -0.7161 -1.3048  0.1933
 2871TP3      O20431   4.525   1.207   1.645 -0.1152 -0.0035  0.1440
 2871TP3     H120432   4.567   1.291   1.626 -1.9999  1.7152  3.1331
 2871TP3     H220433   4.470   1.191   1.569  1.8780  0.3698 -1.4167
 2872TP3      O20434   2.259   3.844   9.262 -0.7167 -0.1477 -0.2787
 2872TP3     H120435   2.254   3.926   9.311  2.3889  0.4869 -0.8908
 2872TP3     H220436   2.244   3.775   9.327 -1.3945  0.8424  0.6119
 2873TP3      O20437   2.708   2.687   8.281 -0.1835 -0.2238 -0.1001
 2873TP3     H120438   2.760   2.638   8.217 -1.2678 -0.8987 -0.4747
 2873TP3     H220439   2.617   2.664   8.261 -0.5981  0.4823  0.9275
 2874TP3      O20440   3.706   3.602  10.028 -0.0839  0.6130 -0.1949
 2874TP3     H120441   3.692   3.695  10.009  0.3251  0.5202 -0.9861
 2874TP3     H220442   3.680   3.558   9.948  0.8643  0.1380 -0.2516
 2875TP3      O20443   0.217   0.905   0.291  0.3962 -0.2304 -0.5741
 2875TP3     H120444   0.285   0.967   0.319  0.2642 -0.0803 -0.5830
 2875TP3     H220445   0.184   0.942   0.209  0.1929 -0.2171 -0.4864
 2876TP3      O20446   1.757   4.985   1.966  0.1688 -0.0935 -0.9022
 2876TP3     H120447   1.776   5.069   1.924  1.1648  0.1213 -0.0469
 2876TP3     H220448   1.736   4.926   1.894 -1.1302  1.0310 -1.4685
 2877TP3      O20449   0.395   2.284  10.061  0.2350 -0.2835 -0.5176
 2877TP3     H120450   0.444   2.351  10.013  0.5943 -0.8338 -0.9274
 2877TP3     H220451   0.303   2.306  10.044  0.3548 -0.3957 -1.3753
 2878TP3      O20452   5.080   2.994  10.283 -0.4042  0.1446 -0.4273
 2878TP3     H120453   5.059   2.950  10.201 -2.5816 -3.3770  1.8482
 2878TP3     H220454   4.994   3.012  10.322  0.5914  1.2561  1.2921
 2879TP3      O20455   2.833   1.118   3.547 -0.0596 -0.2079 -0.5145
 2879TP3     H120456   2.894   1.182   3.511  0.4826 -0.9358 -0.9004
 2879TP3     H220457   2.887   1.063   3.603 -0.7336  0.3652  0.7092
 2880TP3      O20458   4.965   3.791   1.795  0.5050  0.3165 -0.5535
 2880TP3     H120459   4.927   3.879   1.796 -1.3256 -0.4334 -1.0980
 2880TP3     H220460   5.057   3.805   1.776  0.5161  2.2201  0.7663
 2881TP3      O20461   0.088   2.615   0.391  0.2218  0.2557  0.3907
 2881TP3     H120462   0.078   2.690   0.332  1.9591 -0.9508 -1.4546
 2881TP3     H220463   0.151   2.645   0.457  2.2887 -0.1660 -1.3618
 2882TP3      O20464   2.536   4.568   8.544  0.4022  0.4585  0.3486
 2882TP3     H120465   2.616   4.560   8.492  0.2528  1.1038  0.0214
 2882TP3     H220466   2.482   4.631   8.497 -1.2844 -1.6536 -0.6476
 2883TP3      O20467   0.705   4.705   7.581 -0.5298 -0.1734  0.4925
 2883TP3     H120468   0.618   4.718   7.619 -0.9558 -0.0713 -0.4958
 2883TP3     H220469   0.687   4.676   7.491  0.4654  4.0199 -1.1585
 2884TP3      O20470   3.452   5.069   8.073 -0.2226 -0.1080 -0.0344
 2884TP3     H120471   3.544   5.087   8.092 -0.0932  0.1855 -0.9418
 2884TP3     H220472   3.429   5.132   8.004 -1.1898  0.0496  0.4194
 2885TP3      O20473   3.843   0.727   1.817 -0.3349  0.9084  0.6685
 2885TP3     H120474   3.895   0.667   1.764 -0.6793 -0.1270  1.4962
 2885TP3     H220475   3.760   0.682   1.830 -1.3099  2.3560 -0.2760
 2886TP3      O20476   0.925   2.835   2.678 -0.0990 -0.6411 -0.5015
 2886TP3     H120477   0.847   2.832   2.622  0.3694 -1.0127 -1.1391
 2886TP3     H220478   0.892   2.864   2.763 -1.1032 -1.8563 -0.4642
 2887TP3      O20479   4.396   2.154   0.105 -0.1561 -0.5716 -0.5187
 2887TP3     H120480   4.375   2.090   0.172 -0.7888 -2.5620 -2.5337
 2887TP3     H220481   4.350   2.234   0.131  0.0610 -1.1416  1.6608
 2888TP3      O20482   5.388   1.948   1.301  0.5588  0.2180 -0.0244
 2888TP3     H120483   5.321   1.886   1.272  1.2135 -0.4925 -0.0543
 2888TP3     H220484   5.462   1.892   1.325  0.7119  0.9154  1.1652
 2889TP3      O20485   5.262   4.043   2.033 -0.1955  0.4086 -0.6758
 2889TP3     H120486   5.269   4.125   1.984 -0.3493 -0.2880 -1.9034
 2889TP3     H220487   5.243   3.977   1.966 -0.5359 -0.5582  0.3485
 2890TP3      O20488   2.399   5.188   1.402  0.4167 -0.1091 -0.0800
 2890TP3     H120489   2.369   5.279   1.408 -0.1804 -0.4102  1.6891
 2890TP3     H220490   2.325   5.136   1.433  0.8662 -1.1928 -0.7839
 2891TP3      O20491   4.691   4.223   1.345  0.5474 -0.4784 -0.0189
 2891TP3     H120492   4.656   4.238   1.257 -1.8914  0.2558  1.0195
 2891TP3     H220493   4.712   4.311   1.377  1.4038 -0.7445  0.1701
 2892TP3      O20494   1.771   4.448   9.763 -0.0774 -0.1602  0.0504
 2892TP3     H120495   1.720   4.423   9.686 -1.0238 -0.9833  0.9248
 2892TP3     H220496   1.840   4.381   9.770 -0.4001 -0.4739  0.2905
 2893TP3      O20497   2.922   4.013   0.328 -0.2795 -0.0507 -0.0480
 2893TP3     H120498   2.911   4.088   0.387 -1.0030  0.3977 -0.7452
 2893TP3     H220499   3.011   4.022   0.294  0.2552 -0.4910  1.2168
 2894TP3      O20500   0.669   0.784   7.556 -0.5140 -0.0251 -0.0372
 2894TP3     H120501   0.688   0.853   7.621  0.8457  0.5150 -0.9693
 2894TP3     H220502   0.645   0.832   7.477 -1.9359 -0.6787 -0.0109
 2895TP3      O20503   0.382   4.990  10.158 -0.1049  0.8939  0.3042
 2895TP3     H120504   0.344   5.023  10.076  1.8305  0.7965 -0.6439
 2895TP3     H220505   0.463   4.947  10.131 -0.9270 -1.7665  1.9361
 2896TP3      O20506   1.112   2.949   7.824 -0.1931 -0.0698 -0.1048
 2896TP3     H120507   1.120   2.993   7.739  0.3843  1.2913  0.6430
 2896TP3     H220508   1.201   2.921   7.844  0.2601  2.3836  1.5012
 2897TP3      O20509   1.010   3.277   0.754 -0.1837 -0.2361  0.8767
 2897TP3     H120510   1.003   3.182   0.748 -0.4560 -0.2207  0.9461
 2897TP3     H220511   0.975   3.309   0.670 -0.8391 -0.1650  1.1691
 2898TP3      O20512   4.037   0.586   0.098  0.1402  0.4507 -0.7359
 2898TP3     H120513   4.000   0.517   0.043  0.4365 -0.5750  0.3225
 2898TP3     H220514   3.979   0.660   0.086 -2.3912 -1.1673  1.0010
 2899TP3      O20515   4.426   0.183   1.053  0.3448 -0.1529  0.1306
 2899TP3     H120516   4.332   0.169   1.055  0.4843 -1.1170  0.1276
 2899TP3     H220517   4.457   0.148   1.136  0.7907 -0.5321 -0.1921
 2900TP3      O20518   1.195   4.730   8.227 -0.3704  0.3619 -0.5432
 2900TP3     H120519   1.119   4.710   8.282  1.1120 -0.1999  1.3457
 2900TP3     H220520   1.158   4.751   8.142 -2.6678  0.3201  0.4155
 2901TP3      O20521   2.670   2.732   0.930 -0.0878  0.4292 -0.4616
 2901TP3     H120522   2.676   2.711   1.024 -0.5221  1.0767 -0.2840
 2901TP3     H220523   2.623   2.658   0.892 -0.3515  0.3992 -0.0848
 2902TP3      O20524   0.602   1.638   7.604 -0.3473 -0.0914 -0.3372
 2902TP3     H120525   0.641   1.707   7.658 -2.1214  1.5462 -1.0815
 2902TP3     H220526   0.598   1.676   7.516 -1.0135 -1.2805 -0.8316
 2903TP3      O20527   0.884   1.648   1.026 -0.5714 -0.2475  0.4497
 2903TP3     H120528   0.823   1.607   0.965  0.4636  0.2006 -0.9023
 2903TP3     H220529   0.970   1.636   0.986 -0.0211  1.2794  1.1447
 2904TP3      O20530   0.179   2.208   8.706  0.2655  0.6596 -0.1816
 2904TP3     H120531   0.238   2.144   8.747  1.7884  0.9727 -1.8292
 2904TP3     H220532   0.184   2.284   8.764 -0.5971 -0.2582  1.1262
 2905TP3      O20533   0.756   2.714   9.306 -0.9725 -0.3841  0.0677
 2905TP3     H120534   0.734   2.796   9.351  1.0849 -0.2792  0.9374
 2905TP3     H220535   0.678   2.659   9.317 -0.9162  0.0201  2.9574
 2906TP3      O20536   1.334   2.055   8.967 -0.0747  0.2641  0.1606
 2906TP3     H120537   1.314   2.045   9.059 -0.0342 -1.2047  0.0104
 2906TP3     H220538   1.359   1.968   8.937 -2.8057  0.1295 -1.8827
 2907TP3      O20539   3.630   4.874   0.083 -0.2506  0.0370 -0.2528
 2907TP3     H120540   3.581   4.795   0.106 -0.0073 -0.7435 -2.2673
 2907TP3     H220541   3.719   4.844   0.069  0.1741  0.9444  0.4668
 2908TP3      O20542   1.900   1.019   0.870 -0.3248  0.2090  0.5553
 2908TP3     H120543   1.895   1.107   0.833 -0.8900 -0.1166 -0.1459
 2908TP3     H220544   1.809   0.992   0.882 -0.1591 -0.4234  0.4254
 2909TP3      O20545   3.203   3.126   1.854  0.2628  0.4268 -0.5289
 2909TP3     H120546   3.246   3.182   1.918  0.4117 -0.1322 -0.1411
 2909TP3     H220547   3.270   3.112   1.787  1.1718 -1.6347  0.7923
 2910TP3      O20548   0.786   1.583   0.284  0.5674 -0.0804 -0.3810
 2910TP3     H120549   0.821   1.600   0.372  0.4167  0.6031 -0.4551
 2910TP3     H220550   0.692   1.570   0.299  0.7407 -1.2497 -0.2717
 2911TP3      O20551   2.177   0.926   7.925  0.0851  0.4016 -0.2456
 2911TP3     H120552   2.200   0.833   7.915 -2.1828 -0.3610  1.3894
 2911TP3     H220553   2.207   0.966   7.843 -0.8026 -2.1494 -1.8816
 2912TP3      O20554   2.930   4.702   0.736  0.0899 -0.7410  0.2932
 2912TP3     H120555   2.974   4.769   0.788  0.1410 -0.5353 -0.0146
 2912TP3     H220556   2.929   4.737   0.647 -0.9207 -0.6312  0.3387
 2913TP3      O20557   4.900   1.364   2.335 -0.2366  0.5694  0.5645
 2913TP3     H120558   4.823   1.318   2.369 -0.4697 -1.4121 -2.4611
 2913TP3     H220559   4.970   1.300   2.341  0.2035  0.9317 -0.5955
 2914TP3      O20560   5.069   3.351   1.976 -0.3640  0.5478 -0.4302
 2914TP3     H120561   4.995   3.408   2.001 -0.6289 -0.4487  1.1059
 2914TP3     H220562   5.030   3.288   1.915 -0.6748  0.3569 -0.0414
 2915TP3      O20563   0.105   2.232   1.853 -0.5476 -0.1888 -0.7179
 2915TP3     H120564   0.201   2.231   1.851 -0.5032  1.7876 -0.7252
 2915TP3     H220565   0.084   2.260   1.943 -1.1105 -0.4499 -0.7686
 2916TP3      O20566   2.034   1.564   0.653  0.0510  0.1074  0.1030
 2916TP3     H120567   2.040   1.562   0.558  1.2739 -2.6072  0.1782
 2916TP3     H220568   1.967   1.499   0.674 -0.5229  1.0041  1.0764
 2917TP3      O20569   1.277   2.100   0.886 -0.2409 -0.3842 -0.8375
 2917TP3     H120570   1.252   2.141   0.804 -0.8809 -0.9741 -0.9356
 2917TP3     H220571   1.369   2.074   0.873 -0.3102 -0.3774 -1.3165
 2918TP3      O20572   4.172   2.575  10.060  0.2038  0.5113  0.2929
 2918TP3     H120573   4.215   2.541   9.982  1.0484  0.2855  0.8547
 2918TP3     H220574   4.086   2.532  10.060  0.4643 -0.0147 -0.1301
 2919TP3      O20575   2.718   1.838   1.144  0.0205 -0.0641 -0.3648
 2919TP3     H120576   2.665   1.872   1.071 -1.5467 -1.2114  0.2211
 2919TP3     H220577   2.703   1.900   1.215  0.8508  0.5621 -0.7189
 2920TP3      O20578   4.353   2.281   2.328 -0.2465 -0.1170  0.6043
 2920TP3     H120579   4.414   2.326   2.269  0.5264 -0.5682  1.0441
 2920TP3     H220580   4.384   2.304   2.416 -1.3212  0.4580  0.8487
 2921TP3      O20581   5.010   2.929   9.248 -0.0245 -0.2911 -0.0391
 2921TP3     H120582   4.965   2.930   9.163 -1.9867  2.0389  0.9481
 2921TP3     H220583   4.940   2.913   9.311  1.2182 -0.7028  1.2585
 2922TP3      O20584   2.312   1.201   9.628 -0.2339 -0.0894  0.2007
 2922TP3     H120585   2.396   1.233   9.661 -0.4705  0.4392  0.2964
 2922TP3     H220586   2.275   1.152   9.701  1.4474 -3.1489 -0.8831
 2923TP3      O20587   4.577   2.907   0.752  0.3494  0.5497  0.3710
 2923TP3     H120588   4.642   2.854   0.705 -1.5722 -1.2327 -0.3698
 2923TP3     H220589   4.499   2.903   0.697 -0.8937  1.2878  2.0470
 2924TP3      O20590   2.676   5.439   9.994  0.3343  0.6074 -0.3266
 2924TP3     H120591   2.695   5.529  10.019  0.9317  0.6100 -0.7669
 2924TP3     H220592   2.590   5.443   9.951  0.9402  1.1778 -1.4999
 2925TP3      O20593   2.345   1.221   8.217 -0.1630  0.4996  0.2749
 2925TP3     H120594   2.365   1.237   8.125 -1.9098  0.5813 -0.0980
 2925TP3     H220595   2.405   1.278   8.265  0.7889  0.4199 -0.8000
 2926TP3      O20596   4.592   1.267   9.997  0.2192 -0.5705  0.0884
 2926TP3     H120597   4.521   1.254  10.059  0.4533 -1.3272  0.2090
 2926TP3     H220598   4.620   1.357  10.010 -0.7251 -0.2622  0.0243
 2927TP3      O20599   3.296   0.152   9.125  0.1054 -0.6989 -0.5095
 2927TP3     H120600   3.375   0.203   9.109 -1.6628  2.1162 -0.5368
 2927TP3     H220601   3.236   0.177   9.055 -1.6294 -1.0828  0.8012
 2928TP3      O20602   3.350   3.134   0.808 -0.1883  0.0913 -0.1640
 2928TP3     H120603   3.272   3.126   0.862 -0.2258  1.0085 -0.0751
 2928TP3     H220604   3.356   3.227   0.788  0.2517 -0.1294 -1.1112
 2929TP3      O20605   4.814   2.758  10.258 -0.6932 -0.4677  0.1832
 2929TP3     H120606   4.749   2.779  10.326  0.8092  1.0525  1.2118
 2929TP3     H220607   4.772   2.786  10.177 -1.5373  0.0645  0.7811
 2930TP3      O20608   5.223   1.374   0.945 -0.0614  0.1253  0.1541
 2930TP3     H120609   5.306   1.328   0.953  0.0517  0.4470  0.8395
 2930TP3     H220610   5.163   1.325   1.000 -0.8493 -1.2906 -1.9014
 2931TP3      O20611   5.353   2.420   8.142 -0.0405  0.0793 -0.1287
 2931TP3     H120612   5.302   2.467   8.208 -0.0180  0.5145 -0.4174
 2931TP3     H220613   5.312   2.444   8.059  0.3026  0.0131 -0.3190
 2932TP3      O20614   2.491   2.701  10.098  0.3718  0.3577 -0.1406
 2932TP3     H120615   2.585   2.682  10.105  0.3994  0.7111  0.4743
 2932TP3     H220616   2.484   2.794  10.117 -0.0833  0.3714 -0.3753
 2933TP3      O20617   0.248   5.086   0.133  0.0120 -0.1196 -0.3726
 2933TP3     H120618   0.340   5.111   0.134  0.0033 -0.0126 -1.3897
 2933TP3     H220619   0.217   5.113   0.046 -0.9566 -0.2220 -0.0667
 2934TP3      O20620   1.944   2.804   9.881 -0.3621  0.2217 -0.2379
 2934TP3     H120621   1.983   2.836   9.963  0.9606  0.6721 -1.0239
 2934TP3     H220622   1.871   2.748   9.909 -0.0019  0.4704  1.2405
 2935TP3      O20623   3.603   1.478   0.570  0.3641 -0.2410 -0.0206
 2935TP3     H120624   3.574   1.409   0.630 -0.3726 -0.8760 -1.0956
 2935TP3     H220625   3.601   1.437   0.483  1.5284  0.6352 -0.4789
 2936TP3      O20626   2.401   5.213   9.498  0.1031 -0.2866 -0.0045
 2936TP3     H120627   2.467   5.197   9.430  0.8499  2.7700 -0.0626
 2936TP3     H220628   2.433   5.289   9.545 -0.0606 -2.7572  4.3135
 2937TP3      O20629   1.738   0.483   9.586  0.2490 -0.0339  0.2578
 2937TP3     H120630   1.757   0.413   9.523 -1.0412 -0.3819  0.2470
 2937TP3     H220631   1.775   0.452   9.669  0.0512 -0.5498  0.1537
 2938TP3      O20632   3.361   1.000   9.639  0.6760  0.3576  0.1950
 2938TP3     H120633   3.435   0.944   9.664  1.7220  0.5516 -2.3011
 2938TP3     H220634   3.305   1.002   9.717  0.4400 -4.3445  0.2715
 2939TP3      O20635   1.601   3.693   2.171  0.2014 -0.0212 -0.0939
 2939TP3     H120636   1.669   3.627   2.186  1.5923  1.0688 -1.4712
 2939TP3     H220637   1.598   3.703   2.076 -1.9101 -0.0387 -0.0683
 2940TP3      O20638   5.373   3.953   7.931 -0.4163  0.2569 -0.6967
 2940TP3     H120639   5.403   4.027   7.984  0.6804 -0.6476 -0.0568
 2940TP3     H220640   5.294   3.923   7.974  0.0325  0.0331 -0.0304
 2941TP3      O20641   2.259   1.249   0.273  0.4731 -0.0684 -0.2368
 2941TP3     H120642   2.316   1.293   0.335 -0.0109  0.0134  0.1527
 2941TP3     H220643   2.171   1.260   0.309  0.3060 -0.9962 -0.3415
 2942TP3      O20644   2.473   2.598   9.272 -0.2400  0.0963 -0.0191
 2942TP3     H120645   2.458   2.650   9.351  1.8980  1.2808 -0.3684
 2942TP3     H220646   2.509   2.516   9.304  3.0121  1.5142  0.1563
 2943TP3      O20647   2.660   2.653   0.483 -0.4399 -0.2018  0.1833
 2943TP3     H120648   2.684   2.709   0.409 -0.0788 -1.8100 -0.9414
 2943TP3     H220649   2.565   2.663   0.491 -0.6053 -0.6503 -1.0393
 2944TP3      O20650   1.832   3.643   9.485  0.1831 -0.7545 -0.3447
 2944TP3     H120651   1.869   3.687   9.562 -1.1897 -0.5207  0.2007
 2944TP3     H220652   1.763   3.702   9.455 -1.0341 -2.0762 -0.1862
 2945TP3      O20653   2.478   0.341   0.717 -0.0213 -0.2722 -0.1931
 2945TP3     H120654   2.427   0.419   0.735  0.5249  0.0216  0.0799
 2945TP3     H220655   2.463   0.285   0.793  0.7497  0.1717  0.2885
 2946TP3      O20656   0.074   0.879   1.018  0.2708  0.4691  0.1833
 2946TP3     H120657   0.013   0.947   1.043  0.4768  0.2562  1.3076
 2946TP3     H220658   0.145   0.885   1.083  1.5384  0.8470 -1.2085
 2947TP3      O20659   4.804   2.546   8.876 -0.4095 -0.2986 -0.5461
 2947TP3     H120660   4.784   2.468   8.824 -2.2681 -0.5562  0.5091
 2947TP3     H220661   4.814   2.514   8.965 -0.1270  0.5205 -0.2810
 2948TP3      O20662   1.097   4.140   2.353  0.3274 -0.0130  0.4228
 2948TP3     H120663   1.097   4.075   2.284  0.4213  0.7057 -0.2588
 2948TP3     H220664   1.151   4.101   2.422 -0.5593 -1.1345  0.4912
 2949TP3      O20665   5.240   1.272   2.752  0.0446 -0.3416  0.3425
 2949TP3     H120666   5.288   1.284   2.834  0.2061 -2.3999  0.5690
 2949TP3     H220667   5.149   1.286   2.775  0.2016  0.2653  0.6145
 2950TP3      O20668   4.943   5.337   9.842  0.0866  0.0535 -0.3914
 2950TP3     H120669   4.922   5.333   9.748 -0.3895  0.7761 -0.3265
 2950TP3     H220670   5.017   5.279   9.853 -0.9567 -1.4025 -0.9172
 2951TP3      O20671   1.558   2.329   9.415 -0.6061  0.4470 -0.4114
 2951TP3     H120672   1.533   2.238   9.428 -1.0919  0.8024  1.2608
 2951TP3     H220673   1.480   2.372   9.381 -0.3953  0.2614 -1.1394
 2952TP3      O20674   1.248   0.986   0.737  0.3389  0.0979 -0.7017
 2952TP3     H120675   1.312   1.027   0.679 -0.5456 -0.4195 -2.0454
 2952TP3     H220676   1.228   1.054   0.801  1.8901  0.4194 -0.5246
 2953TP3      O20677   3.477   4.286   0.679  0.2937 -0.3750 -0.0463
 2953TP3     H120678   3.395   4.319   0.643  0.3599 -0.7502 -0.5554
 2953TP3     H220679   3.458   4.195   0.701  0.0333  0.0753  1.6053
 2954TP3      O20680   5.260   4.299   9.318 -0.3039 -0.2532  0.4235
 2954TP3     H120681   5.340   4.289   9.370 -0.9448  1.3785  1.7728
 2954TP3     H220682   5.254   4.219   9.267  1.8549 -0.6655  0.7936
 2955TP3      O20683   4.717   2.686   8.320 -0.9256  0.4602 -0.2237
 2955TP3     H120684   4.729   2.617   8.385  0.9823 -0.7208 -1.7764
 2955TP3     H220685   4.642   2.737   8.352 -0.6390 -0.6895  2.3417
 2956TP3      O20686   1.190   1.189   0.908  0.1342  0.2731  0.0288
 2956TP3     H120687   1.144   1.262   0.867 -0.3517  0.2756  0.5798
 2956TP3     H220688   1.169   1.196   1.001  1.2521  0.2860  0.2963
 2957TP3      O20689   1.154   0.761   1.348 -0.1219 -0.2887 -0.0700
 2957TP3     H120690   1.159   0.677   1.304 -0.1413  0.0632 -0.7513
 2957TP3     H220691   1.244   0.780   1.376  0.0742 -0.0259 -0.8768
 2958TP3      O20692   5.280   1.919   0.549  0.0706  0.4641  0.3665
 2958TP3     H120693   5.251   1.891   0.462  0.6324  0.7324  0.0913
 2958TP3     H220694   5.269   2.014   0.548  0.7756  0.5447  0.3283
 2959TP3      O20695   1.564   4.857   1.767 -0.0591 -0.4751  0.6832
 2959TP3     H120696   1.608   4.777   1.794 -1.1736 -2.0219 -1.8883
 2959TP3     H220697   1.473   4.844   1.791 -0.5962 -0.8228 -1.4210
 2960TP3      O20698   0.824   1.394   1.302 -1.0070 -0.5390  0.3310
 2960TP3     H120699   0.851   1.377   1.392 -2.9720  0.2356  1.0843
 2960TP3     H220700   0.756   1.328   1.284 -1.3402 -0.0497 -0.2371
 2961TP3      O20701   3.415   4.789   7.685  0.2397  0.1432 -0.2548
 2961TP3     H120702   3.356   4.776   7.759  0.5585  2.6655  0.4985
 2961TP3     H220703   3.365   4.762   7.609 -1.8743  2.0702  0.3868
 2962TP3      O20704   4.034   5.457   9.132 -0.7615 -0.2895  0.8377
 2962TP3     H120705   4.000   5.461   9.043 -2.3017 -1.6871  1.3454
 2962TP3     H220706   3.994   5.533   9.176 -0.5372  0.0108  0.5257
 2963TP3      O20707   1.463   5.326   9.860 -0.1880  0.3829  0.4167
 2963TP3     H120708   1.416   5.305   9.941 -2.5971  0.3726 -0.9587
 2963TP3     H220709   1.535   5.382   9.889 -1.3636  0.8750  2.5068
 2964TP3      O20710   4.533   5.368   2.385  0.8355  0.1585  0.4861
 2964TP3     H120711   4.588   5.296   2.352 -1.2836 -0.9508 -0.7392
 2964TP3     H220712   4.456   5.324   2.421  0.2323  1.7548  1.1463
 2965TP3      O20713   3.748   3.059  10.147  0.5772  0.1763  0.1944
 2965TP3     H120714   3.707   2.976  10.171 -0.0929  0.7442  1.0471
 2965TP3     H220715   3.674   3.116  10.125  1.1310 -0.3705 -3.4923
 2966TP3      O20716   3.810   1.166   0.229 -0.4038  0.4674 -0.0591
 2966TP3     H120717   3.870   1.161   0.303  1.2831 -0.2036 -1.4407
 2966TP3     H220718   3.837   1.245   0.182 -0.8079  0.3328 -0.5130
 2967TP3      O20719   2.267   4.459   8.104  0.0843 -0.1188  0.5023
 2967TP3     H120720   2.302   4.533   8.153  0.8900 -0.7344  0.8826
 2967TP3     H220721   2.258   4.389   8.169 -1.3732 -0.1364  0.2937
 2968TP3      O20722   3.742   3.451   1.282  0.2328  0.2315 -0.5724
 2968TP3     H120723   3.730   3.423   1.372 -0.8252 -1.7100 -1.3034
 2968TP3     H220724   3.704   3.539   1.279  1.2054  0.7366  1.0940
 2969TP3      O20725   4.219   3.973   9.320 -0.1233 -0.4210 -0.4728
 2969TP3     H120726   4.261   4.051   9.284  2.4034 -1.4086  0.2103
 2969TP3     H220727   4.210   3.991   9.414  0.8905 -1.0880 -0.2308
 2970TP3      O20728   4.725   3.810   8.897 -0.5040 -0.0125  0.2419
 2970TP3     H120729   4.757   3.897   8.919 -1.4642  0.0883  1.2661
 2970TP3     H220730   4.652   3.826   8.837  0.6492 -0.2063 -1.2600
 2971TP3      O20731   5.303   2.199   1.696 -0.4613  0.3394  0.1208
 2971TP3     H120732   5.255   2.170   1.618  0.7996  0.7844 -0.8316
 2971TP3     H220733   5.373   2.254   1.662  0.3894  0.1543  1.5397
 2972TP3      O20734   0.790   4.858   0.143  0.2687 -0.0620  0.2001
 2972TP3     H120735   0.880   4.890   0.147  0.2125 -0.0415  1.3794
 2972TP3     H220736   0.798   4.768   0.110  0.7237 -0.1013  0.4181
 2973TP3      O20737   1.644   2.912   1.207 -0.0005 -0.0010  0.4644
 2973TP3     H120738   1.651   2.897   1.112  2.6439  1.2470  0.3961
 2973TP3     H220739   1.618   2.827   1.243  1.9881 -1.3538 -1.1158
 2974TP3      O20740   3.826   0.782   0.918  0.3396  0.3242 -0.3753
 2974TP3     H120741   3.856   0.730   0.843  0.1014 -0.5915  0.1496
 2974TP3     H220742   3.906   0.810   0.961  0.4817 -1.6369  0.6970
 2975TP3      O20743   1.999   1.388   1.175 -0.4654  0.1526  0.6966
 2975TP3     H120744   2.023   1.319   1.237 -3.2532 -0.7564  0.8320
 2975TP3     H220745   1.933   1.440   1.221 -1.2331  0.5770 -0.8504
 2976TP3      O20746   0.522   2.416   0.632  0.2008  0.5727  0.0950
 2976TP3     H120747   0.603   2.417   0.580 -0.6586  1.6193 -1.2842
 2976TP3     H220748   0.531   2.340   0.689  0.5212 -1.5466 -2.6706
 2977TP3      O20749   4.120   0.460   7.461 -0.0246  0.1515  0.5913
 2977TP3     H120750   4.040   0.408   7.451 -0.3659  0.5349  1.2727
 2977TP3     H220751   4.113   0.527   7.393  0.0376 -0.2054  0.2267
 2978TP3      O20752   0.385   1.436   2.245 -0.1059 -0.1707  0.1391
 2978TP3     H120753   0.430   1.508   2.290 -0.8449  1.0778 -1.0938
 2978TP3     H220754   0.292   1.455   2.256 -0.3011 -0.4248 -0.9769
 2979TP3      O20755   1.872   0.184   2.044 -0.0394 -0.1913 -0.8396
 2979TP3     H120756   1.882   0.222   2.131 -0.2418 -1.7104 -0.1493
 2979TP3     H220757   1.952   0.210   1.997  1.2629 -1.5296  0.6075
 2980TP3      O20758   4.523   3.098   8.699  0.4012 -0.0091 -0.4621
 2980TP3     H120759   4.605   3.139   8.726  1.3269 -1.2847 -1.2538
 2980TP3     H220760   4.527   3.098   8.603 -1.0238  0.9029 -0.5248
 2981TP3      O20761   5.102   5.341  10.315 -0.0591  0.0607 -0.1361
 2981TP3     H120762   5.147   5.419  10.347 -0.5615  0.5003 -0.5030
 2981TP3     H220763   5.036   5.374  10.254 -0.2731 -0.6479 -0.2954
 2982TP3      O20764   3.932   4.405  10.050 -0.5188  0.2140  0.3120
 2982TP3     H120765   3.875   4.334  10.081  1.2343 -1.5671 -0.4349
 2982TP3     H220766   4.006   4.405  10.112 -0.3161  1.1344  0.0756
 2983TP3      O20767   1.966   3.568   1.802 -0.4827 -0.1723 -0.4840
 2983TP3     H120768   2.012   3.603   1.725  2.1477  1.4615  1.7467
 2983TP3     H220769   2.034   3.522   1.851 -2.2108 -1.5056  0.7359
 2984TP3      O20770   3.736   0.692   7.044  0.3367  0.4260 -0.0664
 2984TP3     H120771   3.802   0.623   7.038 -0.6301 -0.3864 -1.8023
 2984TP3     H220772   3.695   0.680   7.129  1.2867 -0.1242  0.3098
 2985TP3      O20773   2.274   3.205  10.185  0.3595 -0.3476 -0.2574
 2985TP3     H120774   2.266   3.259  10.263 -0.4183  0.6074 -0.9798
 2985TP3     H220775   2.358   3.161  10.193  0.5055  0.1447  0.8614
 2986TP3      O20776   0.348   2.764   7.976  0.0723 -0.0467 -0.0777
 2986TP3     H120777   0.367   2.722   8.059 -0.6756  2.8911  1.6341
 2986TP3     H220778   0.252   2.772   7.975  0.0787  0.0298 -1.2078
 2987TP3      O20779   0.898   1.134   1.478  0.2000 -0.4744  0.0499
 2987TP3     H120780   0.820   1.189   1.483 -0.0277 -0.7711 -0.1956
 2987TP3     H220781   0.863   1.044   1.474  0.4829 -0.4786 -2.7712
 2988TP3      O20782   4.880   3.004   0.182  1.1338 -0.2309  0.0767
 2988TP3     H120783   4.872   2.911   0.206  1.5475 -0.6637 -1.4377
 2988TP3     H220784   4.954   3.035   0.234 -0.7311 -0.0279  2.6957
 2989TP3      O20785   4.557   3.449   0.330 -0.0306 -0.0447  0.4125
 2989TP3     H120786   4.506   3.391   0.273  1.9711 -1.2606 -0.1868
 2989TP3     H220787   4.648   3.421   0.318  0.8153  2.1919  1.3286
 2990TP3      O20788   0.120   1.376  10.099 -0.0215 -0.1299 -0.4556
 2990TP3     H120789   0.079   1.360  10.014 -0.5797  0.1345 -0.2414
 2990TP3     H220790   0.204   1.415  10.078 -0.5291  0.7607 -0.8747
 2991TP3      O20791   5.213   0.731   0.251  0.1341  0.4203 -0.1866
 2991TP3     H120792   5.295   0.756   0.295  0.9515 -2.5520  0.0599
 2991TP3     H220793   5.227   0.755   0.160  1.5721 -0.6694 -0.2732
 2992TP3      O20794   4.391   4.622   0.992  0.2398  0.1649 -0.0934
 2992TP3     H120795   4.474   4.649   1.033  1.1822 -1.5416 -0.8519
 2992TP3     H220796   4.368   4.695   0.936  0.8384  0.9795  0.6930
 2993TP3      O20797   5.255   1.056   9.126 -0.3278 -0.2032 -0.5341
 2993TP3     H120798   5.192   1.046   9.198  0.4838 -2.2676 -0.0621
 2993TP3     H220799   5.275   0.966   9.100  0.0537  0.4964 -2.7910
 2994TP3      O20800   0.154   1.646   1.634 -0.7387  0.5265 -0.3118
 2994TP3     H120801   0.242   1.636   1.669 -0.8738 -0.5872 -0.2783
 2994TP3     H220802   0.124   1.557   1.618 -1.4380  0.9485 -1.3813
 2995TP3      O20803   5.126   2.331   0.767 -0.1748 -0.0925 -0.2593
 2995TP3     H120804   5.212   2.369   0.787  0.2422 -1.9347  1.6021
 2995TP3     H220805   5.139   2.287   0.683  1.1421 -1.6025  0.7069
 2996TP3      O20806   5.208   2.497   9.014  0.1710  0.1130 -0.6904
 2996TP3     H120807   5.184   2.489   8.921 -0.5182  1.6289 -0.6627
 2996TP3     H220808   5.217   2.592   9.028 -0.9705 -0.0247  1.0876
 2997TP3      O20809   5.310   1.146   2.361 -0.5351  0.7904 -0.2702
 2997TP3     H120810   5.248   1.204   2.317 -0.0200  1.2102 -0.4567
 2997TP3     H220811   5.387   1.201   2.377 -0.0646  0.1798 -0.3956
 2998TP3      O20812   3.329   1.120   8.350 -0.0562  0.0208  0.0104
 2998TP3     H120813   3.407   1.092   8.397 -0.4255 -0.2426  0.4747
 2998TP3     H220814   3.269   1.046   8.358 -0.1927  0.0459 -0.7191
 2999TP3      O20815   3.753   3.750   0.225 -0.2159  0.2444  0.0693
 2999TP3     H120816   3.728   3.823   0.282  0.7640 -0.8342  1.9118
 2999TP3     H220817   3.824   3.785   0.171  0.0961  0.7054  0.7787
 3000TP3      O20818   4.415   2.398   8.891  0.4748 -0.9365  0.3642
 3000TP3     H120819   4.434   2.420   8.982 -2.9724  1.3919  0.6554
 3000TP3     H220820   4.380   2.309   8.894  0.4452 -0.8970  1.3047
 3001TP3      O20821   3.159   3.529   8.022 -0.3097  0.1904 -0.6308
 3001TP3     H120822   3.235   3.500   8.072 -1.7420 -1.6936  0.5433
 3001TP3     H220823   3.165   3.481   7.939  0.4617  1.0510 -1.0873
 3002TP3      O20824   4.836   0.763   8.537 -0.4561  0.6021 -0.4859
 3002TP3     H120825   4.876   0.845   8.509  0.5922  0.2639 -0.0099
 3002TP3     H220826   4.889   0.695   8.496  1.6976  0.0592  2.9687
 3003TP3      O20827   5.485   2.762  10.205  0.1610 -0.1615  0.3146
 3003TP3     H120828   5.493   2.808  10.121  0.9261  0.3933  0.6794
 3003TP3     H220829   5.396   2.782  10.235  0.4162  0.9259  0.3644
 3004TP3      O20830   2.223   5.265   2.285  0.0593 -0.1889  0.0257
 3004TP3     H120831   2.236   5.304   2.371 -0.6347  0.8219 -0.3273
 3004TP3     H220832   2.193   5.176   2.303  0.0921 -0.0369  0.8278
 3005TP3      O20833   1.185   3.156   1.923 -0.0920  0.1902  0.3820
 3005TP3     H120834   1.183   3.118   1.835 -0.0076 -1.0318  0.9002
 3005TP3     H220835   1.211   3.247   1.909  1.5533 -0.4327 -0.6997
 3006TP3      O20836   4.771   0.831   0.587 -0.4332 -0.3482 -0.4804
 3006TP3     H120837   4.850   0.806   0.539 -0.8886 -1.2240 -0.7892
 3006TP3     H220838   4.773   0.926   0.590  1.4893 -0.4167  0.9613
 3007TP3      O20839   5.032   2.228   0.314 -0.4441  0.4297  0.3765
 3007TP3     H120840   5.021   2.322   0.304  1.1023  0.7724  1.5677
 3007TP3     H220841   5.020   2.193   0.226  2.7484  2.1851 -0.8608
 3008TP3      O20842   2.581   1.467   0.610 -0.6303 -0.1595 -0.0171
 3008TP3     H120843   2.558   1.449   0.701  0.4660  0.1236  0.3145
 3008TP3     H220844   2.648   1.403   0.588 -0.8831 -0.2232 -0.6317
 3009TP3      O20845   4.244   2.032   1.861  0.3499  0.0132 -0.2375
 3009TP3     H120846   4.283   2.119   1.854  0.0668  0.1283 -0.3925
 3009TP3     H220847   4.190   2.023   1.783 -0.5929  0.1830  0.3901
 3010TP3      O20848   1.100   4.061   1.558 -0.3183 -0.1226  0.2576
 3010TP3     H120849   1.078   4.151   1.534  0.5912  0.3634  1.1703
 3010TP3     H220850   1.053   4.007   1.495 -0.4891  1.0071 -0.6054
 3011TP3      O20851   4.850   2.171  10.053 -0.0140 -0.0509  0.0717
 3011TP3     H120852   4.769   2.156  10.004 -1.3298 -0.1019  2.2066
 3011TP3     H220853   4.836   2.254  10.098  0.2007 -1.1115  2.1767
 3012TP3      O20854   3.333   2.916   2.145 -0.4109  0.1374  0.1252
 3012TP3     H120855   3.242   2.943   2.132  0.0158  1.8710  0.6430
 3012TP3     H220856   3.336   2.887   2.236 -0.7301 -1.1613 -0.2622
 3013TP3      O20857   0.338   0.659   0.348 -0.4241 -0.1340 -0.0009
 3013TP3     H120858   0.416   0.699   0.387  1.4006 -0.7803 -2.8115
 3013TP3     H220859   0.277   0.731   0.336  1.2207  1.0945 -1.2051
 3014TP3      O20860   0.068   2.683   1.258  0.0807 -0.1800 -0.3437
 3014TP3     H120861   0.151   2.644   1.231  0.0853  0.1610 -0.8170
 3014TP3     H220862   0.007   2.659   1.189 -0.2706 -0.6219  0.1172
 3015TP3      O20863   0.942   4.151   0.290 -0.2349 -0.0172 -0.0013
 3015TP3     H120864   0.937   4.215   0.361 -0.2852  0.4226 -0.3974
 3015TP3     H220865   1.021   4.176   0.241  1.0535 -1.6560  1.1836
 3016TP3      O20866   0.734   5.061   9.390  0.3351 -0.0286  0.3722
 3016TP3     H120867   0.726   5.029   9.301  0.7957  0.2228  0.2415
 3016TP3     H220868   0.771   4.987   9.439 -2.2354 -1.0353  0.8815
 3017TP3      O20869   1.045   1.554   9.485 -0.5409  0.1372  0.1975
 3017TP3     H120870   1.000   1.473   9.508  0.5129 -0.5541 -0.1674
 3017TP3     H220871   1.023   1.567   9.393  0.1268 -0.2746 -0.0176
 3018TP3      O20872   3.961   1.182   8.961  0.5826 -0.3896 -0.0122
 3018TP3     H120873   3.879   1.152   8.922  0.4547  1.0087 -0.8406
 3018TP3     H220874   3.980   1.264   8.917  1.8903 -0.1729  0.9263
 3019TP3      O20875   0.536   1.541   0.747  0.2690 -0.0292 -0.4860
 3019TP3     H120876   0.491   1.595   0.682 -1.5495  0.3383  1.0583
 3019TP3     H220877   0.468   1.483   0.782  1.5316 -1.1914  0.1143
 3020TP3      O20878   3.793   1.403   9.084 -0.2219 -0.9256 -0.0491
 3020TP3     H120879   3.757   1.337   9.024  0.7510 -1.0666 -0.4786
 3020TP3     H220880   3.734   1.401   9.159 -0.6597 -1.7203 -0.4077
 3021TP3      O20881   5.067   2.005   9.117 -0.3054 -0.2778  0.1951
 3021TP3     H120882   5.037   1.984   9.028 -0.3650 -2.1241  0.6357
 3021TP3     H220883   4.997   2.058   9.154 -0.3888  0.3038 -0.7634
 3022TP3      O20884   3.475   2.358   0.417  0.4606 -0.0942 -0.1609
 3022TP3     H120885   3.391   2.341   0.460  1.2961 -2.7633  0.4901
 3022TP3     H220886   3.511   2.434   0.463 -1.3261  0.7338 -0.0926
 3023TP3      O20887   3.162   4.883   1.643  0.0878  0.1549  0.7756
 3023TP3     H120888   3.067   4.877   1.633  0.1367  0.9470 -0.3181
 3023TP3     H220889   3.196   4.810   1.591  0.0907  0.1262  0.8181
 3024TP3      O20890   2.953   3.027   0.577  0.8582 -0.4163  0.5917
 3024TP3     H120891   2.953   2.934   0.596 -0.4949 -1.0309 -2.1431
 3024TP3     H220892   2.888   3.064   0.637 -0.1427 -1.5749  0.2281
 3025TP3      O20893   1.819   2.944   9.694 -0.0400 -0.0351 -0.0923
 3025TP3     H120894   1.869   2.891   9.756 -0.4228 -2.2305 -1.6220
 3025TP3     H220895   1.878   2.958   9.620 -1.1951 -1.5983 -1.3669
 3026TP3      O20896   0.646   0.443   1.691  0.2289 -0.6091  0.1567
 3026TP3     H120897   0.607   0.500   1.758 -0.9124  0.4772 -1.3891
 3026TP3     H220898   0.718   0.494   1.655 -0.9849 -0.0097 -1.4417
 3027TP3      O20899   5.191   2.749   0.901 -0.4951 -0.1261 -0.2967
 3027TP3     H120900   5.120   2.707   0.852 -1.7336  2.6913 -0.9909
 3027TP3     H220901   5.261   2.762   0.837 -1.2388  1.4793 -0.8059
 3028TP3      O20902   4.694   1.139  10.263  0.2353  0.6799  0.4418
 3028TP3     H120903   4.689   1.183  10.179  0.3482  0.1621  0.1611
 3028TP3     H220904   4.641   1.060  10.252  0.4048  0.5161  0.7975
 3029TP3      O20905   0.460   3.691   9.850  0.2871 -0.2115 -0.4974
 3029TP3     H120906   0.516   3.625   9.811  0.4466 -0.6589  0.4841
 3029TP3     H220907   0.486   3.694   9.942 -1.0724 -0.1959 -0.1068
 3030TP3      O20908   2.221   2.419   2.233  0.1137 -0.5820 -0.2144
 3030TP3     H120909   2.268   2.336   2.233 -2.1393 -1.9282 -1.4230
 3030TP3     H220910   2.274   2.478   2.288  0.8272 -3.3429  2.1861
 3031TP3      O20911   3.243   4.640   9.267 -0.2663 -0.2855  0.5315
 3031TP3     H120912   3.300   4.564   9.282 -1.0072 -1.0362 -0.4232
 3031TP3     H220913   3.304   4.711   9.245  0.3453 -0.9307  0.1187
 3032TP3      O20914   4.560   4.737   0.412  0.0863 -0.6259 -0.0418
 3032TP3     H120915   4.513   4.713   0.332  0.3370  1.0293 -0.7171
 3032TP3     H220916   4.495   4.725   0.482 -0.6849 -0.4261 -0.7080
 3033TP3      O20917   1.894   2.024   9.427  0.2840  0.3386  0.4553
 3033TP3     H120918   1.899   2.105   9.478 -0.7049  1.2830 -0.8960
 3033TP3     H220919   1.962   2.034   9.361 -0.3321  0.4258 -0.1787
 3034TP3      O20920   4.661   0.026   9.365  0.0483  0.1763 -0.6309
 3034TP3     H120921   4.749   0.055   9.391  0.1719  0.0118 -0.8603
 3034TP3     H220922   4.673  -0.010   9.277  0.1333 -1.7130  0.1254
 3035TP3      O20923   3.205   2.768   1.105  0.4991 -0.5112 -0.3657
 3035TP3     H120924   3.152   2.845   1.127 -0.7146 -1.6815  0.9842
 3035TP3     H220925   3.218   2.774   1.010 -2.1172 -0.1854 -0.7570
 3036TP3      O20926   2.848   3.335  10.058 -0.3388 -0.3247 -0.3459
 3036TP3     H120927   2.918   3.400  10.054 -0.6835  0.0742  0.0332
 3036TP3     H220928   2.792   3.364  10.131 -0.9330 -0.5947 -0.6867
 3037TP3      O20929   4.705   0.481   2.661 -0.0138  0.0378 -0.5242
 3037TP3     H120930   4.769   0.551   2.675 -0.5386  0.2211  0.9868
 3037TP3     H220931   4.623   0.515   2.696 -0.7195 -0.6180 -1.4810
 3038TP3      O20932   3.675   4.140   1.626  0.2692  0.4664  0.1223
 3038TP3     H120933   3.621   4.067   1.596  2.0235 -0.7845 -0.1288
 3038TP3     H220934   3.655   4.148   1.720 -1.5874  1.1615 -0.3118
 3039TP3      O20935   4.360   2.926   1.051 -0.3291  0.1659 -0.4711
 3039TP3     H120936   4.355   2.992   0.982  1.4452  0.6301 -0.1883
 3039TP3     H220937   4.431   2.869   1.024  0.4060  0.3705  0.9743
 3040TP3      O20938   5.333   1.026   1.188  0.1021 -0.5592  0.2068
 3040TP3     H120939   5.241   1.052   1.194  0.8637  2.5324 -0.6994
 3040TP3     H220940   5.359   1.007   1.279 -0.2127  3.0968  1.1167
 3041TP3      O20941   2.966   0.800   0.535 -0.3702 -0.3058  0.0492
 3041TP3     H120942   3.060   0.792   0.547 -0.2054 -1.4430 -1.7797
 3041TP3     H220943   2.936   0.710   0.520 -1.5823  0.1721 -0.4386
 3042TP3      O20944   2.325   3.958   0.704 -0.2634  0.0879  0.3500
 3042TP3     H120945   2.330   3.903   0.782 -1.0551 -1.0623 -0.4025
 3042TP3     H220946   2.281   4.038   0.734  1.9437  0.8544  1.7216
 3043TP3      O20947   4.575   0.929   0.216  0.1461  0.7431 -0.5308
 3043TP3     H120948   4.602   0.988   0.146  1.2461 -0.7383 -1.3848
 3043TP3     H220949   4.647   0.866   0.224 -0.0076  0.8334  1.8687
 3044TP3      O20950   3.679   4.172   2.946 -1.0940  0.1125  0.1855
 3044TP3     H120951   3.652   4.131   3.028  0.9459  0.7749  1.2366
 3044TP3     H220952   3.766   4.134   2.928 -1.3710  0.2309 -1.4802
 3045TP3      O20953   4.992   0.729   0.479 -0.0723 -0.3091 -0.1354
 3045TP3     H120954   5.075   0.748   0.437  0.3458  1.7566  1.5184
 3045TP3     H220955   5.011   0.654   0.536  0.8041  0.4792  0.6266
 3046TP3      O20956   0.804   3.718   1.242  0.7502 -0.2912 -0.1691
 3046TP3     H120957   0.719   3.719   1.199  0.4438 -1.3718  0.4158
 3046TP3     H220958   0.865   3.693   1.172  0.5991  0.5320 -0.5973
 3047TP3      O20959   0.515   2.314   9.700 -0.2136 -0.0647 -0.5267
 3047TP3     H120960   0.423   2.300   9.719 -0.3385 -1.2471 -1.8860
 3047TP3     H220961   0.523   2.409   9.690 -1.0911  0.1238  0.4895
 3048TP3      O20962   3.656   2.801   2.814 -0.0207 -0.1054 -0.0326
 3048TP3     H120963   3.624   2.764   2.731 -0.0588 -0.3078  0.0712
 3048TP3     H220964   3.721   2.738   2.844 -0.6022 -0.4616  0.5082
 3049TP3      O20965   1.637   4.395   2.517 -0.3179  0.3584 -0.5821
 3049TP3     H120966   1.697   4.321   2.525  0.0690  0.6662 -0.6624
 3049TP3     H220967   1.552   4.359   2.544  0.2517  0.4056  1.3208
 3050TP3      O20968   4.611   5.277   1.511  0.3605  0.0231 -0.0021
 3050TP3     H120969   4.524   5.300   1.544  0.2845 -1.0724  0.6060
 3050TP3     H220970   4.655   5.237   1.587  1.1047 -0.1720 -0.5305
 3051TP3      O20971   4.915   0.308   1.182  0.2322 -0.8572  0.2875
 3051TP3     H120972   4.921   0.216   1.207 -1.0242 -1.4948 -1.6459
 3051TP3     H220973   4.852   0.309   1.110 -0.8928  1.7124  1.2516
 3052TP3      O20974   1.917   1.019   8.294  0.0553  0.4531 -0.0308
 3052TP3     H120975   1.847   1.085   8.296 -0.9335 -0.5614 -0.4982
 3052TP3     H220976   1.975   1.048   8.224  0.4011  1.5986  0.7207
 3053TP3      O20977   2.951   4.322  10.237 -0.0631  0.1483  0.5295
 3053TP3     H120978   2.864   4.285  10.225  0.9135 -1.8154 -0.9063
 3053TP3     H220979   2.949   4.405  10.188 -0.9892 -0.1165  0.1110
 3054TP3      O20980   0.242   4.697   9.803  0.6683  0.8152  0.4577
 3054TP3     H120981   0.286   4.750   9.736  0.6973  1.1618  0.7448
 3054TP3     H220982   0.166   4.750   9.829  0.3182  0.4057  0.2606
 3055TP3      O20983   5.041   0.942   9.302  0.4217  0.2069 -0.7719
 3055TP3     H120984   4.956   0.941   9.259 -0.2816  1.7770  0.5279
 3055TP3     H220985   5.065   0.849   9.311  0.0061 -0.1832 -3.3164
 3056TP3      O20986   1.928   5.373   8.700 -0.3478 -0.0913  0.4707
 3056TP3     H120987   2.014   5.402   8.729  0.0068  0.1804 -0.8293
 3056TP3     H220988   1.884   5.453   8.671 -0.1944 -0.5217 -0.9983
 3057TP3      O20989   3.689   5.103   9.303 -0.4566 -0.3831  0.4715
 3057TP3     H120990   3.654   5.104   9.392  0.0243 -2.3259  0.7006
 3057TP3     H220991   3.771   5.153   9.309 -0.2532 -0.7878  1.1999
 3058TP3      O20992   1.744   1.515   7.745 -0.5758  0.3467 -0.6081
 3058TP3     H120993   1.675   1.548   7.803  0.6784  0.4150  0.8687
 3058TP3     H220994   1.743   1.420   7.757 -0.2587  0.3678 -0.4089
 3059TP3      O20995   2.453   2.168  10.205 -0.2065 -0.7151 -0.0918
 3059TP3     H120996   2.437   2.262  10.201  0.4864 -0.5652  0.5330
 3059TP3     H220997   2.438   2.145  10.296  0.2508 -1.0896 -0.1095
 3060TP3      O20998   5.293   5.491   1.147  0.1800 -0.0700 -0.1004
 3060TP3     H120999   5.264   5.561   1.088 -1.9306  0.1391  1.1509
 3060TP3     H221000   5.321   5.538   1.226 -2.3251 -0.6977  1.1795
 3061TP3      O21001   4.217   1.466   9.122  0.3732  0.2349 -0.1343
 3061TP3     H121002   4.263   1.528   9.180  0.7305  0.0618 -0.2305
 3061TP3     H221003   4.129   1.502   9.114  0.5931  0.7555 -0.2198
 3062TP3      O21004   3.089   3.861   2.308  0.1601 -0.3038  0.1406
 3062TP3     H121005   3.121   3.900   2.389 -0.8739  0.7151  0.0782
 3062TP3     H221006   3.152   3.792   2.287  1.5798  0.7995  0.6959
 3063TP3      O21007   3.072   1.839   2.477 -0.1234  0.0120  0.7734
 3063TP3     H121008   3.092   1.810   2.566 -0.6528  1.7564  1.4914
 3063TP3     H221009   3.151   1.886   2.449  0.1411 -0.7530  0.2172
 3064TP3      O21010   2.740   1.575   2.948  0.4931  0.5242 -0.3178
 3064TP3     H121011   2.657   1.549   2.988 -0.9543  1.6427 -2.5287
 3064TP3     H221012   2.752   1.514   2.875  1.2426  0.8396 -0.4612
 3065TP3      O21013   2.547   1.912   2.692 -0.5617 -0.2110  0.0893
 3065TP3     H121014   2.541   1.913   2.788 -0.4740 -1.3493  0.1128
 3065TP3     H221015   2.623   1.856   2.673 -1.5398 -1.3144 -0.6669
 3066TP3      O21016   5.107   0.668   9.660 -0.4211  0.0161  0.3103
 3066TP3     H121017   5.051   0.673   9.582  1.9239 -2.0876 -1.5645
 3066TP3     H221018   5.161   0.590   9.647  0.7448  0.1829  3.5883
 3067TP3      O21019   1.281   1.884  10.211 -0.2828  0.0901  1.0081
 3067TP3     H121020   1.285   1.936  10.291 -0.6799  2.8485 -0.6873
 3067TP3     H221021   1.365   1.898  10.169  0.0013 -1.5170  1.0446
 3068TP3      O21022   1.566   4.327   0.427  0.0012  0.1039  0.0236
 3068TP3     H121023   1.641   4.275   0.455 -0.2769 -0.3315 -0.0292
 3068TP3     H221024   1.584   4.348   0.335  0.1395  0.1461  0.0609
 3069TP3      O21025   2.265   2.562   7.746  0.2059 -0.6015  0.7420
 3069TP3     H121026   2.304   2.646   7.772 -0.5686  0.2033 -0.5873
 3069TP3     H221027   2.202   2.542   7.814 -0.9899  0.8923  0.1011
 3070TP3      O21028   3.558   2.793   7.877 -0.4085  0.4399 -0.5085
 3070TP3     H121029   3.485   2.805   7.937 -0.2727 -1.9599  0.2049
 3070TP3     H221030   3.523   2.738   7.807  0.4034  0.2020 -0.7346
 3071TP3      O21031   1.693   4.652   1.259 -0.0897  0.0370 -1.1129
 3071TP3     H121032   1.718   4.597   1.334 -0.7919  1.6535  0.3461
 3071TP3     H221033   1.599   4.639   1.251 -0.2348  0.9046 -0.8486
 3072TP3      O21034   2.903   0.702   9.800 -0.2189 -0.0757 -0.2513
 3072TP3     H121035   2.824   0.706   9.853  0.5860  0.9560  0.8956
 3072TP3     H221036   2.887   0.764   9.729 -1.1099 -1.1240 -0.9974
 3073TP3      O21037   2.552   0.659   8.883 -0.4996 -0.7061  0.3787
 3073TP3     H121038   2.616   0.588   8.887 -1.5107 -1.5597  1.7711
 3073TP3     H221039   2.502   0.642   8.804  2.5291  1.3386 -2.0827
 3074TP3      O21040   4.206   3.955   2.861 -0.1202 -0.5800  0.4218
 3074TP3     H121041   4.206   3.930   2.768  0.6505  0.6197  0.0920
 3074TP3     H221042   4.249   4.040   2.863 -0.3452 -0.4894  1.8629
 3075TP3      O21043   0.076   3.017   0.885 -0.4128 -0.9534  0.2351
 3075TP3     H121044   0.112   2.930   0.870  1.9172 -0.2407  1.4949
 3075TP3     H221045   0.030   3.010   0.968 -3.2361 -1.8438 -1.3380
 3076TP3      O21046   4.262   5.100   2.827 -0.6134 -0.3641  0.6350
 3076TP3     H121047   4.288   5.017   2.864 -3.2236 -1.6987 -0.3693
 3076TP3     H221048   4.324   5.115   2.755 -0.3044 -1.5935  0.6346
 3077TP3      O21049   1.492   2.545   1.109 -0.4597 -0.4341 -0.4595
 3077TP3     H121050   1.529   2.503   1.032  1.9792 -0.2374  0.5641
 3077TP3     H221051   1.532   2.499   1.183  0.2577  1.9305  0.6745
 3078TP3      O21052   4.917   5.000  10.059 -0.3102 -0.4051 -0.6803
 3078TP3     H121053   4.826   5.029  10.057 -0.1831  0.1729  1.3211
 3078TP3     H221054   4.913   4.911  10.095 -0.0624 -0.3732 -0.5776
 3079TP3      O21055   4.431   3.578   7.691  0.2729  0.0748  0.4921
 3079TP3     H121056   4.498   3.638   7.660  0.7794 -1.1905 -0.9273
 3079TP3     H221057   4.479   3.509   7.737 -0.1667 -0.0853  0.7208
 3080TP3      O21058   2.419   0.562  10.032  0.0091  0.2083 -0.0175
 3080TP3     H121059   2.404   0.607  10.116 -1.2822  0.9547 -0.6339
 3080TP3     H221060   2.331   0.534  10.004  0.4390 -0.0788 -1.0932
 3081TP3      O21061   2.667   4.987   8.626 -0.0170  0.2337  0.3765
 3081TP3     H121062   2.749   4.970   8.673 -0.0850 -0.2563  0.3217
 3081TP3     H221063   2.673   4.933   8.547 -0.0834  0.7437  0.0243
 3082TP3      O21064   1.806   1.665   9.195 -0.3044 -0.3703 -0.2473
 3082TP3     H121065   1.728   1.717   9.176 -0.2207 -0.5808 -1.1726
 3082TP3     H221066   1.786   1.579   9.159 -0.0379 -0.6952  0.3879
 3083TP3      O21067   2.332   2.421   8.419 -0.1882 -0.2182  0.0165
 3083TP3     H121068   2.332   2.355   8.488  0.9930  0.3500  0.5713
 3083TP3     H221069   2.239   2.444   8.408 -0.3738 -0.1530  1.5739
 3084TP3      O21070   2.452   2.043   1.676 -0.0785  0.1211  0.9562
 3084TP3     H121071   2.415   2.100   1.743  0.1912  0.1784  1.0574
 3084TP3     H221072   2.546   2.049   1.689  0.0393  1.2972 -0.4033
 3085TP3      O21073   3.191   2.560   9.158 -0.1986 -0.0661 -0.1884
 3085TP3     H121074   3.283   2.548   9.135  0.5461  1.7986  1.6652
 3085TP3     H221075   3.160   2.626   9.096 -0.8010 -1.9573 -1.9559
 3086TP3      O21076   3.362   1.764  10.298 -0.4232  0.5969  0.6672
 3086TP3     H121077   3.276   1.781  10.336 -1.2673  0.5427 -1.1252
 3086TP3     H221078   3.345   1.702  10.227  1.3586 -0.7941  1.4175
 3087TP3      O21079   4.041   2.195   1.751  0.2660 -0.3152 -0.2809
 3087TP3     H121080   4.113   2.253   1.725  0.8804 -0.5700  0.8163
 3087TP3     H221081   4.027   2.215   1.843 -0.9953 -0.3656 -0.4576
 3088TP3      O21082   2.801   3.034   1.376  0.3142 -0.5949  0.3600
 3088TP3     H121083   2.797   3.120   1.416  1.0272 -0.7330  0.7300
 3088TP3     H221084   2.786   2.973   1.448 -0.1841 -0.7827  0.1009
 3089TP3      O21085   5.266   1.021  10.112  0.1444 -0.0787  0.3027
 3089TP3     H121086   5.270   1.050  10.203  3.8631  0.4549  0.0503
 3089TP3     H221087   5.280   1.101  10.061  1.4579 -0.8825 -0.6284
 3090TP3      O21088   4.786   4.334   0.864 -0.3314  0.6329  0.8933
 3090TP3     H121089   4.873   4.313   0.830 -0.2539 -0.0054  1.4642
 3090TP3     H221090   4.726   4.311   0.793 -0.2497 -1.5986  1.4901
 3091TP3      O21091   5.260   3.081   7.611 -0.5160  0.0446  0.5265
 3091TP3     H121092   5.253   3.047   7.701 -0.7697 -1.1825  0.0552
 3091TP3     H221093   5.353   3.096   7.598 -0.2219 -1.8748  0.2538
 3092TP3      O21094   4.217   3.080   9.490 -0.1637 -0.5652 -0.3398
 3092TP3     H121095   4.147   3.130   9.531  0.1267 -0.8525  0.5093
 3092TP3     H221096   4.248   3.021   9.558 -0.0674 -1.4569 -1.1315
 3093TP3      O21097   3.584   3.580   1.546  0.2731  0.1994 -0.2518
 3093TP3     H121098   3.596   3.662   1.499 -0.1418  1.0109  1.0154
 3093TP3     H221099   3.492   3.583   1.575  1.4013  1.3018  3.4644
 3094TP3      O21100   3.999   3.226   8.270  0.3984 -0.0014  0.0909
 3094TP3     H121101   4.052   3.290   8.318  1.2387  0.2592 -1.1534
 3094TP3     H221102   3.944   3.186   8.337  0.2830  1.6044  0.9858
 3095TP3      O21103   4.030   2.984   9.251  0.5755  0.1495  0.1347
 3095TP3     H121104   4.079   2.969   9.331  0.8391  1.5234  0.2457
 3095TP3     H221105   4.083   3.046   9.201 -0.7995  1.2972  0.0567
 3096TP3      O21106   3.553   2.031   7.998  0.4202 -0.4740 -0.1672
 3096TP3     H121107   3.480   2.053   8.056 -0.6119 -2.7625 -0.5509
 3096TP3     H221108   3.518   2.047   7.910  0.3312 -1.6799 -0.3554
 3097TP3      O21109   2.181   0.906   2.524  0.1087 -0.2610  0.2184
 3097TP3     H121110   2.258   0.910   2.466 -0.7678 -2.3839 -1.1666
 3097TP3     H221111   2.214   0.868   2.605  0.9067  0.6709  0.3403
 3098TP3      O21112   2.699   2.032   1.360 -0.3841 -0.2492 -0.3816
 3098TP3     H121113   2.694   2.126   1.377 -1.3033 -0.6593  1.9507
 3098TP3     H221114   2.793   2.014   1.353 -0.1653  0.7525 -0.1888
 3099TP3      O21115   1.517   3.011   1.632  0.0083 -0.3745  0.4205
 3099TP3     H121116   1.570   2.941   1.594  1.1814 -0.3498  1.9611
 3099TP3     H221117   1.430   2.972   1.642  0.1656 -0.9821 -0.5055
 3100TP3      O21118   4.248   2.843  10.146 -0.3434 -0.5636  0.4785
 3100TP3     H121119   4.188   2.803  10.209 -0.9189 -1.0766 -0.3932
 3100TP3     H221120   4.223   2.805  10.061  1.8466 -1.5249  0.2399
 3101TP3      O21121   2.314   4.333   2.824 -0.0875 -0.0575 -0.2470
 3101TP3     H121122   2.305   4.403   2.888  1.8321 -0.3375  0.3682
 3101TP3     H221123   2.227   4.294   2.818 -0.4702  0.4878  1.5892
 3102TP3      O21124   4.657   1.308   2.676 -0.0033  0.1381 -0.0857
 3102TP3     H121125   4.637   1.389   2.630  0.6052 -0.1875 -0.9358
 3102TP3     H221126   4.621   1.321   2.763 -0.3430  1.1300 -0.3626
 3103TP3      O21127   2.972   2.016   1.347  0.3758  0.5363 -0.3218
 3103TP3     H121128   2.964   1.937   1.399  1.6603 -0.1316 -1.1267
 3103TP3     H221129   3.057   2.009   1.304 -1.5723 -0.0729 -4.3818
 3104TP3      O21130   2.300   4.165   9.909 -0.3952 -0.3031  0.8929
 3104TP3     H121131   2.332   4.088   9.862 -0.3196 -0.7216  1.6291
 3104TP3     H221132   2.380   4.208   9.942 -0.3321  0.8946 -0.7437
 3105TP3      O21133   5.409   3.345   0.418  0.2014 -0.5262  0.4026
 3105TP3     H121134   5.463   3.322   0.342  1.4156  1.6519  0.5538
 3105TP3     H221135   5.440   3.287   0.488  1.8481  0.1463  0.2721
 3106TP3      O21136   2.243   3.130   0.266  0.3629  0.1909  0.4966
 3106TP3     H121137   2.283   3.145   0.352 -2.4647  1.8262  1.5943
 3106TP3     H221138   2.163   3.081   0.285 -0.3004  0.5928 -1.2070
 3107TP3      O21139   4.585   3.703   9.090  0.1021 -0.1989  0.4809
 3107TP3     H121140   4.589   3.777   9.150  1.1478 -0.1075  0.3058
 3107TP3     H221141   4.638   3.731   9.015 -0.2451 -0.7678  0.0249
 3108TP3      O21142   4.232   0.807   1.166 -0.2142 -0.4661  0.2321
 3108TP3     H121143   4.192   0.833   1.084 -0.2471 -0.4447  0.2549
 3108TP3     H221144   4.185   0.728   1.193 -0.7746  0.0093  0.6566
 3109TP3      O21145   3.226   3.315   0.371  0.7978 -0.0108  0.0266
 3109TP3     H121146   3.176   3.360   0.302  2.1812  1.2655 -0.1640
 3109TP3     H221147   3.290   3.263   0.323 -0.7410 -2.1696  0.2498
 3110TP3      O21148   3.638   3.111   1.733 -0.1140 -0.6387  0.2751
 3110TP3     H121149   3.570   3.048   1.757  1.9013 -2.5402  1.1329
 3110TP3     H221150   3.686   3.068   1.662  0.5967  0.4359  0.0914
 3111TP3      O21151   2.390   0.237   0.967 -0.6527 -0.4982 -0.0004
 3111TP3     H121152   2.343   0.319   0.981 -0.7154 -0.5915  0.3546
 3111TP3     H221153   2.338   0.171   1.013 -1.1722 -0.9264 -1.1915
 3112TP3      O21154   3.080   1.344   9.091  0.0142  0.5915  0.4532
 3112TP3     H121155   3.056   1.432   9.119 -2.2065  0.3232 -0.4430
 3112TP3     H221156   3.101   1.354   8.998  1.8601  0.5263  0.8447
 3113TP3      O21157   2.803   2.049   1.677  0.0786  0.6107 -0.2736
 3113TP3     H121158   2.816   2.111   1.605  1.0312  0.9315  0.1639
 3113TP3     H221159   2.802   1.963   1.635 -0.4963  0.8705 -0.7972
 3114TP3      O21160   2.540   1.679  10.134 -0.1498  0.2316  0.2972
 3114TP3     H121161   2.502   1.752  10.183 -0.4779  1.2941 -1.4932
 3114TP3     H221162   2.468   1.616  10.126 -0.4752  0.6296  0.0639
 3115TP3      O21163   0.833   2.979  10.288  0.4403  0.5094 -0.0213
 3115TP3     H121164   0.804   3.025  10.367  0.5986 -1.5513  1.2751
 3115TP3     H221165   0.817   2.886  10.307 -0.3000  0.0377 -2.7440
 3116TP3      O21166   0.106   5.354   8.537 -0.3515  0.5728  0.1363
 3116TP3     H121167   0.068   5.296   8.603 -0.0631 -1.1515 -1.1799
 3116TP3     H221168   0.091   5.309   8.454  3.2651  0.5027 -0.5717
 3117TP3      O21169   2.456   2.975  10.173 -0.4412  0.1503 -0.1005
 3117TP3     H121170   2.551   2.983  10.169 -0.2650 -1.3873  0.7164
 3117TP3     H221171   2.436   2.973  10.267 -1.0393 -1.8682 -0.2392
 3118TP3      O21172   0.727   0.330   8.198  0.0542  0.0226 -0.1252
 3118TP3     H121173   0.768   0.261   8.146 -2.2593 -1.1162 -0.5347
 3118TP3     H221174   0.748   0.411   8.153  1.0210 -0.6141 -0.8337
 3119TP3      O21175   3.684   4.272   9.654  0.2849 -0.1878 -0.1735
 3119TP3     H121176   3.660   4.238   9.568 -0.6672  3.1108 -1.3006
 3119TP3     H221177   3.770   4.312   9.641  1.0227 -1.3686  0.9151
 3120TP3      O21178   0.297   1.970   1.583  0.1322  0.0169  0.3548
 3120TP3     H121179   0.317   1.880   1.607 -0.5378  0.0371  0.9835
 3120TP3     H221180   0.372   2.021   1.614  1.2053 -0.5080 -1.3054
 3121TP3      O21181   2.376   0.456   1.881  0.2742 -0.2823 -0.4510
 3121TP3     H121182   2.369   0.363   1.902 -0.7640 -0.0539  0.2367
 3121TP3     H221183   2.460   0.464   1.836  2.5604 -0.8230  3.4745
 3122TP3      O21184   3.594   1.467   9.303  0.3252 -0.4891  0.0226
 3122TP3     H121185   3.616   1.556   9.328 -2.0101  0.3338 -0.6788
 3122TP3     H221186   3.512   1.475   9.255  0.4536 -2.9398 -0.6923
 3123TP3      O21187   1.567   1.966   8.823 -0.1172  0.4210  0.0711
 3123TP3     H121188   1.541   1.884   8.781  0.5787 -0.1404  0.7159
 3123TP3     H221189   1.560   2.032   8.754 -1.1947 -0.0935 -0.3110
 3124TP3      O21190   3.768   2.097   8.874  0.4694  0.0006  0.8207
 3124TP3     H121191   3.776   2.010   8.913 -0.1848 -0.6392 -0.4467
 3124TP3     H221192   3.687   2.094   8.823  0.7115  1.1814  0.3376
 3125TP3      O21193   3.501   1.581   9.952 -0.0712  0.9627  0.1982
 3125TP3     H121194   3.561   1.640   9.998 -0.6516  1.2412  0.6105
 3125TP3     H221195   3.517   1.598   9.860  0.0259  1.5057  0.3129
 3126TP3      O21196   2.326   2.470   1.379 -0.1756 -0.3997  0.5071
 3126TP3     H121197   2.276   2.437   1.454 -2.8001  2.1497 -0.0006
 3126TP3     H221198   2.406   2.507   1.417 -1.2222  0.3540  2.0308
 3127TP3      O21199   5.364   3.851   7.692 -0.3020 -0.0610 -0.5332
 3127TP3     H121200   5.328   3.928   7.648 -2.2941  0.0282  1.1589
 3127TP3     H221201   5.369   3.877   7.784  0.2123 -1.5264 -0.1329
 3128TP3      O21202   2.166   2.482   1.813  0.2157 -0.7881  0.0238
 3128TP3     H121203   2.119   2.467   1.895  0.9278 -2.8950  0.0747
 3128TP3     H221204   2.097   2.491   1.747 -0.3077 -3.0301  0.2278
 3129TP3      O21205   0.178   5.506   0.457 -0.0651  0.1543 -0.0386
 3129TP3     H121206   0.176   5.417   0.423  0.9810  0.3083 -0.5258
 3129TP3     H221207   0.155   5.496   0.550 -1.3696 -0.4440 -0.4202
 3130TP3      O21208   1.195   2.032   7.692  0.2713 -0.4911 -0.0227
 3130TP3     H121209   1.260   2.016   7.761  0.1428 -0.7044  0.0498
 3130TP3     H221210   1.161   2.120   7.712  0.5129 -0.3951 -0.0408
 3131TP3      O21211   5.346   4.115  10.296  0.4328  0.0517  0.0852
 3131TP3     H121212   5.394   4.084  10.220 -0.1514  0.0200 -0.2741
 3131TP3     H221213   5.395   4.081  10.371  0.3107 -0.9740 -0.2928
 3132TP3      O21214   4.688   1.686   9.275  0.0192 -0.0047 -0.3578
 3132TP3     H121215   4.691   1.593   9.253  1.5190 -0.0815  0.1149
 3132TP3     H221216   4.595   1.704   9.292 -0.1919 -1.5438  0.1504
 3133TP3      O21217   3.391   0.947   9.157 -0.7322 -0.4121  0.0134
 3133TP3     H121218   3.400   0.892   9.079  2.4387 -0.3531  0.2807
 3133TP3     H221219   3.479   0.950   9.195 -1.9419  0.5960  2.9096
 3134TP3      O21220   1.028   3.436   1.956 -0.2135 -0.7138  0.6442
 3134TP3     H121221   0.942   3.448   1.915 -0.0508  1.0566  0.7905
 3134TP3     H221222   1.019   3.476   2.042  0.4175 -1.5738  1.1144
 3135TP3      O21223   0.167   2.465   9.508 -0.2090  0.2442  0.1176
 3135TP3     H121224   0.204   2.420   9.584  0.4046  0.0649 -0.2887
 3135TP3     H221225   0.168   2.400   9.438 -1.0739  0.3122  0.0352
 3136TP3      O21226   4.020   4.180   9.661  0.0619  0.6241 -0.2705
 3136TP3     H121227   3.950   4.130   9.619  0.1147  0.9579 -0.7622
 3136TP3     H221228   4.007   4.269   9.630  2.3814  0.2040 -2.6094
 3137TP3      O21229   2.592   3.215   0.299  0.6505  0.0616  0.0325
 3137TP3     H121230   2.596   3.188   0.390  2.2153 -0.3214 -0.1337
 3137TP3     H221231   2.658   3.284   0.291 -0.6294  1.2796 -0.4415
 3138TP3      O21232   3.174   0.578   0.644 -0.3781  0.6363 -0.1772
 3138TP3     H121233   3.215   0.612   0.564 -1.0442  1.8086 -0.0418
 3138TP3     H221234   3.117   0.507   0.614  0.1437  0.4047 -0.6204
 3139TP3      O21235   5.074   1.048   1.341 -0.1231 -0.8198  0.5402
 3139TP3     H121236   5.077   0.954   1.358 -1.1582 -0.7869  0.9419
 3139TP3     H221237   5.129   1.087   1.409  0.6092 -1.1648  0.1431
 3140TP3      O21238   0.387   2.910   0.244 -0.3664 -0.2964 -0.0215
 3140TP3     H121239   0.322   2.976   0.269  0.0428  0.4016 -0.7831
 3140TP3     H221240   0.471   2.950   0.267 -0.1142 -0.5041 -0.5781
 3141TP3      O21241   2.343   2.720   0.072  0.1594 -0.7571  0.0094
 3141TP3     H121242   2.281   2.678   0.013 -0.8854  0.1209  0.4604
 3141TP3     H221243   2.420   2.665   0.069 -0.8831 -2.2304 -0.0712
 3142TP3      O21244   1.697   2.590   8.459 -0.0869  0.0911  0.9368
 3142TP3     H121245   1.626   2.526   8.467  0.1115  0.0939  3.0309
 3142TP3     H221246   1.768   2.553   8.511  0.7763  1.0152  0.4251
 3143TP3      O21247   4.035   0.047   0.774  0.3643 -0.3889  0.6991
 3143TP3     H121248   4.115   0.002   0.802  0.5598  0.0341  0.8328
 3143TP3     H221249   3.978  -0.022   0.741  1.6150 -0.4942 -1.3616
 3144TP3      O21250   2.759   3.202   0.755  0.6732 -0.1573 -0.1062
 3144TP3     H121251   2.701   3.211   0.830 -1.4710  2.2878 -1.9868
 3144TP3     H221252   2.828   3.267   0.769  0.9506 -0.5290  0.2926
 3145TP3      O21253   0.137   2.327  10.249 -0.2180  0.3379  0.2972
 3145TP3     H121254   0.125   2.359  10.339 -0.5111 -0.3804  0.5177
 3145TP3     H221255   0.193   2.250  10.258  0.8244  1.0261 -0.2727
 3146TP3      O21256   5.294   1.257   9.989  0.5016  0.0988 -0.4755
 3146TP3     H121257   5.249   1.332   9.950  0.8400  0.5939  0.0825
 3146TP3     H221258   5.379   1.256   9.946  0.5528  0.1282 -0.3759
 3147TP3      O21259   4.794   1.652   7.906  0.6652  0.0376 -0.1477
 3147TP3     H121260   4.860   1.716   7.935  0.5082 -0.2419  0.8425
 3147TP3     H221261   4.737   1.701   7.847  1.2455  0.5079 -0.3206
 3148TP3      O21262   3.068   2.879   7.769  0.2012 -0.3424 -0.0087
 3148TP3     H121263   3.047   2.792   7.805 -0.1916 -0.1175  0.3045
 3148TP3     H221264   3.015   2.939   7.821  0.9287  0.1433  0.1736
 3149TP3      O21265   0.845   0.043   2.140 -0.1075 -0.1971  0.0092
 3149TP3     H121266   0.839   0.060   2.046 -2.0745 -2.5837 -0.3673
 3149TP3     H221267   0.930   0.002   2.151  0.4173  0.7050 -0.6257
 3150TP3      O21268   1.813   3.744   8.217  0.3381 -0.0185  0.3213
 3150TP3     H121269   1.725   3.779   8.223  0.3249  0.0312 -0.1183
 3150TP3     H221270   1.859   3.803   8.157 -0.0743 -1.5011 -1.5041
 3151TP3      O21271   3.459   0.374   1.244  0.3711  0.0712  0.2595
 3151TP3     H121272   3.389   0.324   1.202 -0.3986  1.0675  0.3157
 3151TP3     H221273   3.466   0.454   1.192  1.6447 -0.1234  0.1176
 3152TP3      O21274   1.377   1.298   2.321  0.6457  0.1045  0.0780
 3152TP3     H121275   1.458   1.250   2.334  1.1595  0.2652 -2.2259
 3152TP3     H221276   1.398   1.363   2.254 -1.8141 -1.0339 -1.9258
 3153TP3      O21277   2.585   1.530   2.056 -0.2368 -0.0653  0.2287
 3153TP3     H121278   2.537   1.602   2.098  0.8319  1.5276 -1.1715
 3153TP3     H221279   2.672   1.534   2.096 -0.1811 -0.5907  0.1559
 3154TP3      O21280   3.520   0.307   8.637  0.0573  0.0073  0.3450
 3154TP3     H121281   3.564   0.260   8.708 -0.7854 -2.1593 -0.5409
 3154TP3     H221282   3.554   0.268   8.557 -0.9084  0.6901 -0.4122
 3155TP3      O21283   3.704   2.996   0.171  0.3332  0.3445 -0.0264
 3155TP3     H121284   3.661   3.065   0.221  0.6998  0.2001  0.4949
 3155TP3     H221285   3.692   2.917   0.224  0.5032  0.1396 -0.2921
 3156TP3      O21286   1.036   0.542   2.332 -0.5148 -0.2235  0.1365
 3156TP3     H121287   0.989   0.460   2.315  0.9314 -0.8858 -0.7671
 3156TP3     H221288   1.120   0.531   2.288  0.6781  0.7661  2.0894
 3157TP3      O21289   4.683   2.469   0.245 -0.4641  0.6644  0.5919
 3157TP3     H121290   4.618   2.540   0.247  0.0818  1.1329  2.4789
 3157TP3     H221291   4.656   2.415   0.171 -2.0492  1.7590  0.3270
 3158TP3      O21292   3.316   1.038   7.438  0.1143  0.0381  0.2870
 3158TP3     H121293   3.380   0.980   7.396 -1.2259 -0.5287 -1.0256
 3158TP3     H221294   3.280   1.090   7.367 -1.0310  0.2061  0.9768
 3159TP3      O21295   4.984   4.313   9.329 -0.0203  0.3836 -0.3859
 3159TP3     H121296   5.079   4.319   9.325 -0.0184  0.5742 -0.0921
 3159TP3     H221297   4.966   4.279   9.417 -0.2423  0.7373 -0.2949
 3160TP3      O21298   2.377   2.323   1.796 -0.2246  0.5227 -0.2395
 3160TP3     H121299   2.298   2.376   1.789 -0.1794  0.7207  0.7178
 3160TP3     H221300   2.408   2.314   1.706 -1.1870  0.6669 -0.5830
 3161TP3      O21301   1.329   2.390   7.532 -0.4468 -0.0008 -0.8686
 3161TP3     H121302   1.315   2.478   7.497 -0.5767  0.6250  0.7127
 3161TP3     H221303   1.405   2.357   7.485  0.4751  1.5177 -0.4714
 3162TP3      O21304   0.746   1.306   1.925 -0.2596  1.2310  0.3364
 3162TP3     H121305   0.784   1.229   1.967  1.6257 -0.0582 -3.4736
 3162TP3     H221306   0.821   1.354   1.891 -1.6307  2.4295 -1.0909
 3163TP3      O21307   4.345   3.294   8.495  0.2386 -0.3327 -0.0165
 3163TP3     H121308   4.379   3.327   8.578 -0.0758  0.1752 -0.0900
 3163TP3     H221309   4.257   3.330   8.488 -0.4085 -1.8080  0.2711
 3164TP3      O21310   0.883   5.215   7.702 -0.3102 -0.4237  0.3861
 3164TP3     H121311   0.802   5.252   7.669  0.0569  1.8076  1.7966
 3164TP3     H221312   0.869   5.121   7.704 -2.0818 -0.2153 -1.3432
 3165TP3      O21313   1.363   1.737   9.836  0.2323 -0.0414 -0.7093
 3165TP3     H121314   1.281   1.749   9.788  0.7288 -0.2472 -1.6224
 3165TP3     H221315   1.381   1.643   9.829  1.5318  0.2968 -2.1601
 3166TP3      O21316   1.830   0.024   0.052  0.7519  0.3275 -0.2060
 3166TP3     H121317   1.877   0.032  -0.031  1.0659 -0.9584 -0.1603
 3166TP3     H221318   1.857   0.102   0.101  2.1362  0.0865 -0.5377
 3167TP3      O21319   5.037   1.792   8.303 -0.4438 -0.5802 -0.5513
 3167TP3     H121320   5.112   1.771   8.247 -0.2546 -0.3785 -0.3744
 3167TP3     H221321   5.070   1.784   8.392 -0.0632  1.5190 -0.4774
 3168TP3      O21322   0.237   0.391   9.923 -0.2316  0.2769  0.5190
 3168TP3     H121323   0.291   0.420   9.850 -0.7255 -2.8397 -1.1679
 3168TP3     H221324   0.282   0.314   9.957 -2.5144 -1.1817  0.3607
 3169TP3      O21325   2.754   4.962   0.933 -0.0400 -0.1794  0.0564
 3169TP3     H121326   2.694   4.966   0.858 -0.8632 -1.2916  0.6382
 3169TP3     H221327   2.788   5.051   0.941 -1.9557  0.5807 -0.0004
 3170TP3      O21328   3.606   5.476   0.899 -0.2465 -0.8156  0.0335
 3170TP3     H121329   3.574   5.511   0.982 -1.2575 -0.5201 -0.4722
 3170TP3     H221330   3.659   5.400   0.924  0.5509  0.0521  1.0220
 3171TP3      O21331   3.006   4.368   9.018  0.1376  0.2002  0.1792
 3171TP3     H121332   2.980   4.457   9.040  0.1147  0.2974 -0.2327
 3171TP3     H221333   3.101   4.368   9.026 -0.0228 -0.3700  2.4695
 3172TP3      O21334   0.565   0.270   9.068 -0.1136 -0.0109  0.7012
 3172TP3     H121335   0.546   0.302   9.156  1.5344 -4.1412  2.7278
 3172TP3     H221336   0.486   0.223   9.041  0.0378 -0.2899  0.7414
 3173TP3      O21337   0.689   5.039   0.868  0.0570 -0.4411  0.2334
 3173TP3     H121338   0.779   5.055   0.895  0.8222  1.1550 -3.0183
 3173TP3     H221339   0.691   4.954   0.825  0.0259 -0.4087  0.1679
 3174TP3      O21340   4.752   1.064   2.173 -0.2209  0.1871 -0.3264
 3174TP3     H121341   4.752   0.972   2.146 -1.1607 -0.3989  1.6019
 3174TP3     H221342   4.716   1.063   2.261  0.1218  2.3803 -0.1403
 3175TP3      O21343   3.533   4.279   8.759  0.2919 -0.2523 -0.0557
 3175TP3     H121344   3.440   4.256   8.753  0.7323 -1.6232 -1.9905
 3175TP3     H221345   3.535   4.358   8.814 -2.1570  0.7154 -1.2862
 3176TP3      O21346   2.434   4.719   1.553 -0.1139  0.0901 -0.3945
 3176TP3     H121347   2.410   4.810   1.538  2.8229  1.1195  0.7994
 3176TP3     H221348   2.404   4.699   1.641  0.3765  0.3155 -0.1749
 3177TP3      O21349   3.863   2.606   0.698 -0.2383 -0.3076 -0.4232
 3177TP3     H121350   3.954   2.631   0.685 -0.5714  1.4953  0.5527
 3177TP3     H221351   3.859   2.575   0.789 -0.9799  1.5352  0.2014
 3178TP3      O21352   4.594   4.915   7.087 -0.0942  0.5560 -0.1506
 3178TP3     H121353   4.547   4.838   7.118  1.3048  0.4749  1.8191
 3178TP3     H221354   4.536   4.953   7.022 -1.9942 -0.6600  0.7917
 3179TP3      O21355   4.217   2.253   1.363  0.2823 -0.7737  0.5496
 3179TP3     H121356   4.300   2.229   1.321 -0.9505 -1.3025 -1.6855
 3179TP3     H221357   4.167   2.296   1.294 -1.7598 -1.5290  1.5224
 3180TP3      O21358   5.171   1.545   9.548 -0.2157 -0.0729 -0.7635
 3180TP3     H121359   5.167   1.481   9.619 -0.8245  1.5643  0.6997
 3180TP3     H221360   5.115   1.508   9.480 -0.5828 -1.0848  0.0753
 3181TP3      O21361   4.510   1.276   0.884 -0.0092 -0.2580  0.0464
 3181TP3     H121362   4.509   1.181   0.870 -0.2822  0.0374 -2.0265
 3181TP3     H221363   4.419   1.297   0.906 -0.6748 -0.0105 -2.8539
 3182TP3      O21364   1.654   5.442   8.894  0.4066 -0.3788 -0.2232
 3182TP3     H121365   1.564   5.427   8.868  0.6667 -1.7241 -0.3661
 3182TP3     H221366   1.697   5.357   8.884  0.9301 -0.5342  2.8954
 3183TP3      O21367   0.038   2.352   1.597  0.6338  0.0796  0.2776
 3183TP3     H121368   0.002   2.414   1.661 -0.7554 -0.2491 -0.1613
 3183TP3     H221369   0.093   2.293   1.649 -0.4952 -0.1907  1.1789
 3184TP3      O21370   0.570   5.352   2.489  0.2615 -0.4603 -0.3800
 3184TP3     H121371   0.549   5.405   2.566  1.3156  1.7822 -1.5804
 3184TP3     H221372   0.504   5.283   2.488 -0.8267  0.5167  1.5260
 3185TP3      O21373   4.206   3.190   7.665  0.0916 -0.2408  0.6841
 3185TP3     H121374   4.192   3.159   7.575 -0.6565 -3.7627  1.9407
 3185TP3     H221375   4.180   3.282   7.662 -1.7245 -0.7693 -2.2944
 3186TP3      O21376   0.693   1.663   7.937 -0.0705  0.1955  0.4111
 3186TP3     H121377   0.719   1.720   7.865 -0.6935 -0.3251 -0.2395
 3186TP3     H221378   0.748   1.689   8.011  0.5414  0.7581 -0.2491
 3187TP3      O21379   1.864   1.371   2.775  0.2340  0.1774  0.1977
 3187TP3     H121380   1.795   1.359   2.840 -1.8617 -1.0563 -2.1586
 3187TP3     H221381   1.916   1.291   2.780  0.8428  0.6232  1.1929
 3188TP3      O21382   4.838   4.456   2.638 -0.3753  0.5688  0.2074
 3188TP3     H121383   4.791   4.535   2.665 -0.9587  1.0544 -2.1529
 3188TP3     H221384   4.872   4.419   2.720 -0.5803  2.9488  1.3996
 3189TP3      O21385   4.081   4.238   1.738 -0.2845  0.2275  0.0909
 3189TP3     H121386   4.013   4.227   1.671  0.3672  2.5559 -1.0080
 3189TP3     H221387   4.049   4.309   1.792 -0.2741 -0.9209  1.6401
 3190TP3      O21388   0.351   0.103   8.956  0.1772 -0.0354  0.1618
 3190TP3     H121389   0.311   0.056   8.883 -0.6209 -1.0966  1.2546
 3190TP3     H221390   0.315   0.061   9.034  0.9015  1.1730  1.1709
 3191TP3      O21391   4.931   2.114   7.506 -0.3649 -0.4811  0.1651
 3191TP3     H121392   4.853   2.076   7.546  0.1219 -2.0365 -0.3095
 3191TP3     H221393   4.994   2.120   7.578 -1.1561  1.5265  0.7269
 3192TP3      O21394   4.974   2.216   1.180  0.2593 -0.3217 -0.6139
 3192TP3     H121395   5.032   2.180   1.112  0.2094 -0.8400 -0.3798
 3192TP3     H221396   4.978   2.152   1.251  1.8325  1.1790  0.6701
 3193TP3      O21397   0.636   3.313   0.714  0.2717  0.0494  0.2476
 3193TP3     H121398   0.688   3.387   0.682 -0.2141  0.4405  0.3370
 3193TP3     H221399   0.546   3.348   0.718  0.1654 -0.3074  1.0531
 3194TP3      O21400   1.058   2.104   8.840 -0.1546  0.4172 -0.0675
 3194TP3     H121401   0.964   2.114   8.855 -0.4251 -0.3860 -1.2256
 3194TP3     H221402   1.076   2.013   8.863  0.0977  0.2063 -1.0880
 3195TP3      O21403   0.914   2.309   9.992 -0.2048 -0.0085 -0.2321
 3195TP3     H121404   0.874   2.266   9.917 -0.8169  1.1832 -0.6115
 3195TP3     H221405   0.853   2.293  10.064 -0.0158 -0.4782 -0.1767
 3196TP3      O21406   1.964   2.528   7.514  0.2813  0.0326  0.3203
 3196TP3     H121407   2.058   2.512   7.511  0.1763 -0.5013 -0.2699
 3196TP3     H221408   1.925   2.447   7.479 -0.3282  0.9854 -1.2579
 3197TP3      O21409   4.827   1.742   2.493  0.3416  0.2791 -0.2664
 3197TP3     H121410   4.914   1.707   2.512 -0.1623 -0.6154  0.3855
 3197TP3     H221411   4.813   1.722   2.400  0.6699  0.0912 -0.2751
 3198TP3      O21412   3.366   3.175   9.087 -0.0660 -0.3909 -0.0626
 3198TP3     H121413   3.285   3.225   9.099  1.8096  2.5583  0.7940
 3198TP3     H221414   3.414   3.187   9.168  2.1459 -0.3480 -1.3462
 3199TP3      O21415   3.185   1.970   1.806 -0.0034 -0.5372 -0.3652
 3199TP3     H121416   3.134   2.020   1.869  0.8930  0.3746 -0.3636
 3199TP3     H221417   3.134   1.890   1.792 -0.7729 -0.2197  0.6315
 3200TP3      O21418   0.453   3.013   8.333 -0.0465 -0.4742 -0.3600
 3200TP3     H121419   0.493   2.998   8.248  1.9487 -0.4264  0.5503
 3200TP3     H221420   0.508   2.965   8.395  0.5513  2.2548  1.3287
 3201TP3      O21421   0.661   3.068   1.049 -0.4868 -0.1641  0.0514
 3201TP3     H121422   0.585   3.052   1.105  1.6729 -1.0383  2.8489
 3201TP3     H221423   0.719   3.122   1.101  0.6626  0.8622 -2.2091
 3202TP3      O21424   2.026   2.544   9.686 -0.4259 -0.4781 -0.3671
 3202TP3     H121425   2.025   2.638   9.706  0.1588 -0.7206  0.8599
 3202TP3     H221426   1.962   2.534   9.616 -2.4707  0.4413  1.3035
 3203TP3      O21427   3.636   1.752   9.269  0.3760  0.2394 -0.0540
 3203TP3     H121428   3.561   1.797   9.231  0.2769 -0.8723 -1.2471
 3203TP3     H221429   3.692   1.733   9.193  1.1813 -0.1714  0.6402
 3204TP3      O21430   4.291   1.698   1.043 -0.7550 -0.1699  0.3027
 3204TP3     H121431   4.312   1.785   1.076 -0.1162 -0.0516 -0.3960
 3204TP3     H221432   4.294   1.707   0.948 -1.5785 -0.7416  0.2236
 3205TP3      O21433   4.102   2.882   2.259  0.1274 -0.6105  0.4536
 3205TP3     H121434   4.156   2.955   2.232 -0.0546 -0.4344  0.5657
 3205TP3     H221435   4.022   2.922   2.293 -0.3147 -0.8938 -0.2530
 3206TP3      O21436   3.825   2.776   0.009 -0.0248  0.0123  0.2096
 3206TP3     H121437   3.861   2.797  -0.077 -0.4574 -0.2684 -0.0395
 3206TP3     H221438   3.765   2.848   0.028  1.0828  0.7819  0.8793
 3207TP3      O21439   0.928   2.487   9.469 -1.1136  0.3382  0.2483
 3207TP3     H121440   0.920   2.542   9.547 -1.6031  0.0778  0.3933
 3207TP3     H221441   0.916   2.546   9.395 -2.0656  0.3620  0.4137
 3208TP3      O21442   0.912   5.371   9.708  0.3753  0.3497 -0.3350
 3208TP3     H121443   0.918   5.340   9.799  0.5266  0.1030 -0.4289
 3208TP3     H221444   0.897   5.465   9.716 -1.3266  0.0731 -0.0295
 3209TP3      O21445   5.037   2.453   9.582 -0.3240  0.6489 -0.2639
 3209TP3     H121446   4.943   2.437   9.573 -0.2413  0.5475 -0.9879
 3209TP3     H221447   5.073   2.433   9.496  0.5456 -0.5765  0.3689
 3210TP3      O21448   2.634   0.736   9.961  0.1340  0.4789  0.5089
 3210TP3     H121449   2.689   0.757  10.037 -0.9992  2.0239  0.9436
 3210TP3     H221450   2.559   0.690   9.998  1.1598 -1.7283 -0.0985
 3211TP3      O21451   4.558   2.705   0.983 -0.3372  0.3079  0.0763
 3211TP3     H121452   4.650   2.680   0.984  0.3427  2.6094 -0.9944
 3211TP3     H221453   4.537   2.716   0.891 -0.9890  2.0965  0.4123
 3212TP3      O21454   4.577   0.240   2.542 -0.0813 -0.0478  0.6781
 3212TP3     H121455   4.647   0.302   2.562  0.3617 -0.2426 -0.2301
 3212TP3     H221456   4.618   0.177   2.483 -1.5977  1.0770 -1.6579
 3213TP3      O21457   0.032   1.880   0.461 -0.6168  0.0882  0.2846
 3213TP3     H121458   0.012   1.884   0.368  1.2589 -1.2427 -0.1990
 3213TP3     H221459  -0.053   1.866   0.503 -1.1674 -1.9553 -1.4362
 3214TP3      O21460   1.206   3.851   9.164 -0.0612 -0.7273 -0.1251
 3214TP3     H121461   1.138   3.810   9.111 -0.2447  0.0135 -0.4744
 3214TP3     H221462   1.251   3.778   9.206 -1.9940 -1.1748  1.2620
 3215TP3      O21463   4.145   0.607   9.081  0.2155  0.0242 -0.4291
 3215TP3     H121464   4.147   0.659   9.001  0.6748  0.9078  0.1541
 3215TP3     H221465   4.211   0.539   9.066  0.0850  0.0044 -0.9230
 3216TP3      O21466   5.403   0.634   9.732  0.4073 -0.0358  0.2198
 3216TP3     H121467   5.361   0.675   9.807  0.4756 -2.1098  1.4153
 3216TP3     H221468   5.439   0.707   9.682  0.5434  1.3645  2.3063
 3217TP3      O21469   3.550   1.866   1.515  0.3250 -0.1054  0.0079
 3217TP3     H121470   3.549   1.781   1.471  0.7157 -1.5145  2.6165
 3217TP3     H221471   3.460   1.896   1.512  0.2834 -0.3417 -1.4058
 3218TP3      O21472   4.609   0.724   2.377  0.1748  0.3365  0.4937
 3218TP3     H121473   4.633   0.635   2.403 -1.9266 -0.6497 -0.7847
 3218TP3     H221474   4.653   0.737   2.293 -1.7183 -0.5693 -0.6731
 3219TP3      O21475   2.683   4.253   9.250  0.0472 -0.1209  0.3067
 3219TP3     H121476   2.659   4.300   9.170  0.3882 -0.8230 -0.2215
 3219TP3     H221477   2.613   4.273   9.311  0.6613  1.7956  0.4010
 3220TP3      O21478   4.037   2.802   0.805  0.0991 -0.0140 -0.0201
 3220TP3     H121479   4.102   2.739   0.776 -1.1058 -0.7575 -1.1911
 3220TP3     H221480   3.967   2.749   0.842 -2.0197  0.4157 -3.2007
 3221TP3      O21481   4.868   2.983   0.555 -0.2824  0.5496  0.8344
 3221TP3     H121482   4.848   2.902   0.602  3.9440 -0.6983  0.6334
 3221TP3     H221483   4.858   2.960   0.462  1.5466  0.0098  0.7474
 3222TP3      O21484   4.372   4.327   6.962 -0.7231  0.0421  0.0395
 3222TP3     H121485   4.303   4.267   6.989  0.3695 -0.8555  0.8393
 3222TP3     H221486   4.379   4.389   7.034 -1.5478  0.9031 -0.5964
 3223TP3      O21487   0.368   0.438   9.674 -0.2700 -0.9094  0.1847
 3223TP3     H121488   0.429   0.510   9.660  0.6471 -1.4738  1.2334
 3223TP3     H221489   0.418   0.359   9.651 -1.4281 -1.1875 -1.4702
 3224TP3      O21490   0.010   2.551   7.777  0.1824  0.0999 -0.1384
 3224TP3     H121491  -0.037   2.509   7.705 -2.4376  0.8320  1.0994
 3224TP3     H221492   0.055   2.479   7.821  0.2935 -0.6056 -1.3711
 3225TP3      O21493   4.393   1.640   1.630 -0.0008 -0.0778  0.4606
 3225TP3     H121494   4.369   1.595   1.711 -1.0254  0.0389  0.2256
 3225TP3     H221495   4.322   1.621   1.570 -0.0557  1.1942  0.1018
 3226TP3      O21496   4.980   3.787   9.029 -0.5140 -0.1709  0.1134
 3226TP3     H121497   5.019   3.700   9.032 -0.2762 -0.0729 -0.0757
 3226TP3     H221498   4.908   3.778   8.967 -0.5676 -0.2638  0.1896
 3227TP3      O21499   2.258   1.161   1.064 -0.1043 -0.1664 -0.4633
 3227TP3     H121500   2.229   1.250   1.044 -1.5664 -0.7247 -0.8628
 3227TP3     H221501   2.315   1.171   1.141 -1.0854  0.9978  0.1275
 3228TP3      O21502   2.720   1.503   0.241  0.0821 -0.0300  0.2535
 3228TP3     H121503   2.711   1.515   0.147  2.6348  1.7356  0.1738
 3228TP3     H221504   2.701   1.411   0.256 -2.3428  0.0994 -1.6920
 3229TP3      O21505   3.367   3.381   8.108  0.1916  0.2730 -0.1554
 3229TP3     H121506   3.432   3.347   8.169 -0.7700 -0.5164  0.4600
 3229TP3     H221507   3.325   3.302   8.072 -0.2554  0.7609 -0.7263
 3230TP3      O21508   2.351   4.242   9.118  0.5346 -0.1359 -0.0859
 3230TP3     H121509   2.429   4.193   9.145  2.3222  1.8504 -1.5213
 3230TP3     H221510   2.383   4.332   9.105 -2.1771  0.8841  0.1258
 3231TP3      O21511   4.391   4.825   2.130 -0.1527  0.1348 -0.5211
 3231TP3     H121512   4.391   4.795   2.221  0.5295 -0.9315 -0.8710
 3231TP3     H221513   4.321   4.774   2.088  0.1361 -0.0226 -0.8084
 3232TP3      O21514   5.283   2.417   9.773 -0.0780 -0.2021  0.0857
 3232TP3     H121515   5.199   2.382   9.801  0.0202  0.2271  0.9289
 3232TP3     H221516   5.270   2.441   9.681  0.0574 -3.0147 -0.6879
 3233TP3      O21517   1.632   0.329   9.105 -0.6305 -0.3632 -0.0795
 3233TP3     H121518   1.658   0.238   9.115 -0.9337 -0.2322  2.1338
 3233TP3     H221519   1.612   0.338   9.012 -0.1029 -2.4129 -0.4122
 3234TP3      O21520   5.054   2.372   9.955 -0.3726 -0.0114  0.4748
 3234TP3     H121521   5.017   2.284   9.965  0.6271 -0.5019 -0.0285
 3234TP3     H221522   5.104   2.386  10.035  0.7419 -0.5330 -0.1278
 3235TP3      O21523   0.772   0.360   7.863  0.2789 -0.0525  0.6940
 3235TP3     H121524   0.823   0.323   7.792  1.3609 -1.6747  2.3037
 3235TP3     H221525   0.769   0.454   7.843  2.4258 -0.1694 -0.3149
 3236TP3      O21526   3.776   0.268   9.167 -0.4349 -0.1560 -0.0966
 3236TP3     H121527   3.780   0.227   9.081  2.0749 -0.3696  0.0703
 3236TP3     H221528   3.686   0.297   9.176 -0.7471 -0.1574 -2.7835
 3237TP3      O21529   1.245   0.798   9.303  0.1022  0.0005 -0.0805
 3237TP3     H121530   1.267   0.820   9.394  0.3832 -2.1061  0.3865
 3237TP3     H221531   1.240   0.883   9.259 -1.4389  1.1448  2.1974
 3238TP3      O21532   3.864   0.824   9.285  0.3900 -0.0906 -0.0853
 3238TP3     H121533   3.908   0.770   9.350  0.0124  0.4734  0.6458
 3238TP3     H221534   3.908   0.909   9.290 -1.3908  0.7793  1.3472
 3239TP3      O21535   2.267   2.662   9.937  0.2842 -0.6570 -0.3467
 3239TP3     H121536   2.345   2.659   9.993 -0.9218  0.2499  1.4197
 3239TP3     H221537   2.293   2.717   9.864  1.7698 -1.5486 -0.5123
 3240TP3      O21538   4.622   4.907   1.685 -0.0738  0.3110 -0.5368
 3240TP3     H121539   4.558   4.836   1.689 -2.2319  2.1737 -0.7923
 3240TP3     H221540   4.647   4.922   1.776  1.9283 -2.0491 -0.6350
 3241TP3      O21541   2.337   5.288   8.562 -0.5577 -0.0782  0.6461
 3241TP3     H121542   2.384   5.295   8.480 -3.6401 -1.5101 -1.3392
 3241TP3     H221543   2.309   5.378   8.582 -2.9646 -0.2267 -1.8675
 3242TP3      O21544   4.822   3.038   1.625 -0.3504 -0.1130 -0.2092
 3242TP3     H121545   4.728   3.043   1.641 -0.1572  0.3956  0.7712
 3242TP3     H221546   4.861   3.101   1.686  0.5620  0.3173 -1.2171
 3243TP3      O21547   5.284   5.028   9.390  0.3670 -0.1972 -0.3816
 3243TP3     H121548   5.241   5.013   9.306  0.9812  0.2779 -0.7838
 3243TP3     H221549   5.216   5.066   9.446  0.4348  1.1493 -1.2085
 3244TP3      O21550   3.544   1.233   1.944  0.3508 -0.1981 -0.4532
 3244TP3     H121551   3.461   1.234   1.898 -0.2505 -2.1853  0.5249
 3244TP3     H221552   3.575   1.143   1.938  2.5902  0.5644 -1.0432
 3245TP3      O21553   0.009   0.810   9.247  0.1276  0.6198 -0.0430
 3245TP3     H121554  -0.066   0.788   9.191 -0.2952  0.1924  0.6870
 3245TP3     H221555   0.081   0.758   9.212  0.1323  1.1748 -0.8654
 3246TP3      O21556   3.077   2.484   0.318  0.3317  0.0034 -0.3613
 3246TP3     H121557   3.010   2.448   0.260 -0.2866  0.3818  0.1029
 3246TP3     H221558   3.157   2.485   0.266  0.5730 -2.8269 -0.0944
 3247TP3      O21559   5.005   2.106   0.080  0.1450 -0.2137  0.5453
 3247TP3     H121560   4.941   2.037   0.062 -0.6490  0.4864  0.6457
 3247TP3     H221561   4.969   2.184   0.037  1.1174  0.1035  0.2950
 3248TP3      O21562   0.489   3.091   0.793  0.4254 -0.3114  0.5343
 3248TP3     H121563   0.560   3.154   0.786 -1.0766  1.2231 -1.9612
 3248TP3     H221564   0.449   3.108   0.879  0.4399  1.7299  0.1506
 3249TP3      O21565   1.067   1.426   0.779 -0.0076 -0.1151 -0.0564
 3249TP3     H121566   1.130   1.409   0.708  1.0552  0.5782  0.7084
 3249TP3     H221567   1.093   1.511   0.814 -0.1838 -0.7044  1.5382
 3250TP3      O21568   0.863   1.634   0.544 -0.5450  0.2142  0.5985
 3250TP3     H121569   0.793   1.693   0.572 -1.6248 -1.1584  0.8882
 3250TP3     H221570   0.944   1.684   0.555 -1.4697  1.7445  0.4809
 3251TP3      O21571   4.423   4.374   2.224  0.1518  0.3107  0.7493
 3251TP3     H121572   4.478   4.429   2.281  0.0130  0.0268  1.1550
 3251TP3     H221573   4.436   4.411   2.136  0.5125  0.6319  0.9347
 3252TP3      O21574   2.017   0.359   1.038 -0.2639 -0.1486 -0.0064
 3252TP3     H121575   2.056   0.341   1.124  0.8048  1.5769 -0.1094
 3252TP3     H221576   2.091   0.386   0.984 -0.7598 -2.2349 -1.7925
 3253TP3      O21577   2.994   1.768   2.036  0.2379 -0.2208  0.8990
 3253TP3     H121578   2.939   1.757   2.113  0.4112 -1.3008  0.8820
 3253TP3     H221579   3.016   1.861   2.035 -1.4377  0.1916  1.0007
 3254TP3      O21580   3.911   3.443   0.959  0.0093 -0.3024 -0.2710
 3254TP3     H121581   3.879   3.367   1.009 -2.8206  2.0322  1.6748
 3254TP3     H221582   3.943   3.503   1.026  0.1502  1.1413 -1.6160
 3255TP3      O21583   1.957   5.178   8.456 -0.1894  0.7518  0.3139
 3255TP3     H121584   1.876   5.197   8.410  0.9827  1.4890 -1.4988
 3255TP3     H221585   1.981   5.262   8.497  0.6400  1.0341 -0.7399
 3256TP3      O21586   1.334   3.440   0.343  0.4750  0.2697 -0.6285
 3256TP3     H121587   1.334   3.532   0.316 -0.4519  0.4834  0.0424
 3256TP3     H221588   1.340   3.391   0.261 -0.4798  0.9223 -1.1023
 3257TP3      O21589   3.753   5.228   0.832 -0.3511 -0.3600 -0.2953
 3257TP3     H121590   3.779   5.280   0.755 -0.3793  0.1957  0.0683
 3257TP3     H221591   3.820   5.248   0.898 -0.2274 -0.9749 -0.2305
 3258TP3      O21592   4.376   0.807   9.895  0.1324  0.5841  0.3337
 3258TP3     H121593   4.332   0.880   9.939 -0.2970  0.7748 -0.4013
 3258TP3     H221594   4.354   0.730   9.947 -0.1768  0.8386  0.5777
 3259TP3      O21595   4.977   1.643   0.630 -0.3282 -0.2008 -0.4703
 3259TP3     H121596   5.051   1.703   0.619 -0.6858  0.0097 -1.9047
 3259TP3     H221597   5.014   1.556   0.612 -0.1004 -0.2782  0.3329
 3260TP3      O21598   1.126   4.033  10.095  0.4036  0.0914 -0.2105
 3260TP3     H121599   1.168   4.117  10.075 -1.0730  0.8505 -0.1746
 3260TP3     H221600   1.050   4.056  10.149 -2.5859 -0.8078 -3.8124
 3261TP3      O21601   4.761   2.455  10.169  0.3918  0.5037  0.1235
 3261TP3     H121602   4.699   2.403  10.219 -1.4662  1.3553 -1.2241
 3261TP3     H221603   4.771   2.536  10.218 -1.2533  1.2471 -0.7464
 3262TP3      O21604   3.398   2.524   1.463  0.0559 -0.0052  0.4508
 3262TP3     H121605   3.388   2.430   1.452  0.4635 -0.1038  0.8863
 3262TP3     H221606   3.310   2.560   1.449 -0.3773 -0.5860  1.6428
 3263TP3      O21607   1.818   0.862   2.473 -0.9293  0.1512 -0.0539
 3263TP3     H121608   1.894   0.913   2.445 -1.7385  0.7688 -1.1908
 3263TP3     H221609   1.802   0.890   2.563  0.7902 -0.7324  0.5593
 3264TP3      O21610   3.112   1.794   0.081 -0.0762  0.1627  0.5826
 3264TP3     H121611   3.039   1.849   0.053 -0.0860 -0.0264  0.2293
 3264TP3     H221612   3.103   1.788   0.176 -0.0438  0.8121  0.6271
 3265TP3      O21613   1.206   5.177   8.028  0.3585  0.1330 -0.0546
 3265TP3     H121614   1.126   5.225   8.003  0.8510 -0.0998 -2.1591
 3265TP3     H221615   1.277   5.239   8.009  0.6422  0.8712  3.1328
 3266TP3      O21616   3.504   3.818   2.306  0.8813  0.8378  0.2193
 3266TP3     H121617   3.450   3.749   2.345  1.3584  0.9229  1.0350
 3266TP3     H221618   3.495   3.892   2.366  1.3556  1.0764  0.0002
 3267TP3      O21619   2.754   0.441   1.284 -0.1849 -0.3079  0.4812
 3267TP3     H121620   2.775   0.514   1.225  3.8091 -2.4103 -0.9261
 3267TP3     H221621   2.709   0.378   1.228  1.5545 -1.3345  0.2160
 3268TP3      O21622   3.901   0.101   0.171 -0.1748  0.1302  0.1629
 3268TP3     H121623   3.871   0.012   0.191  0.3380 -0.5331 -1.9314
 3268TP3     H221624   3.993   0.091   0.147  0.0165  1.2894  0.3825
 3269TP3      O21625   3.827   1.431   0.145 -0.0993 -0.4984 -0.0642
 3269TP3     H121626   3.739   1.437   0.107  0.3219 -1.8530 -1.2973
 3269TP3     H221627   3.828   1.498   0.213 -0.6390  2.6036 -2.9606
 3270TP3      O21628   4.634   3.139   9.544 -0.1119  0.7521  0.4014
 3270TP3     H121629   4.637   3.063   9.603 -1.9097 -0.4903 -1.0644
 3270TP3     H221630   4.648   3.214   9.601  1.9725 -0.6755  1.8523
 3271TP3      O21631   2.951   0.413   2.420  0.3230  0.1274 -0.4334
 3271TP3     H121632   2.978   0.502   2.399  2.3591 -0.6219 -1.1609
 3271TP3     H221633   3.024   0.377   2.470 -0.7203 -0.9596  0.3472
 3272TP3      O21634   2.995   3.164   0.332 -0.0730  0.3983  0.2366
 3272TP3     H121635   2.965   3.113   0.407  0.3665  1.2699  1.0266
 3272TP3     H221636   3.074   3.208   0.364  0.3776  0.4193 -0.8865
 3273TP3      O21637   0.188   2.843   2.178  0.2871  0.1003 -0.0322
 3273TP3     H121638   0.257   2.873   2.238  0.7905 -1.0904 -0.0038
 3273TP3     H221639   0.225   2.856   2.091  0.4916 -0.4092 -0.0206
 3274TP3      O21640   5.500   4.140   0.858 -0.0981 -0.0881  0.2328
 3274TP3     H121641   5.490   4.054   0.898  1.4586 -0.8651 -0.9465
 3274TP3     H221642   5.474   4.127   0.766  0.8307  0.5116 -0.1250
 3275TP3      O21643   4.290   3.472   1.610 -0.6003  0.3973  0.0245
 3275TP3     H121644   4.279   3.383   1.643  0.2967 -0.4223 -1.7923
 3275TP3     H221645   4.246   3.527   1.674 -1.5249 -1.3925  0.9696
 3276TP3      O21646   2.767   0.473   9.419 -0.0372 -0.0380 -0.3893
 3276TP3     H121647   2.846   0.418   9.420 -0.2270 -0.3258 -1.0113
 3276TP3     H221648   2.715   0.438   9.347 -0.5860  0.3647 -0.1883
 3277TP3      O21649   4.834   4.158   8.645  0.3593 -0.0443 -0.2116
 3277TP3     H121650   4.859   4.119   8.730  0.7173  0.8758  0.1121
 3277TP3     H221651   4.740   4.144   8.640  0.5469 -1.3905 -0.3255
 3278TP3      O21652   4.490   3.254   2.599 -0.0159  0.1811 -0.1499
 3278TP3     H121653   4.498   3.265   2.693 -1.7278 -1.4329  0.2073
 3278TP3     H221654   4.451   3.336   2.569  0.1995  0.5551  0.5821
 3279TP3      O21655   4.793   5.128   9.403  0.7236 -0.1726  0.2417
 3279TP3     H121656   4.816   5.108   9.494 -0.8922  0.3696  0.7897
 3279TP3     H221657   4.852   5.199   9.379  0.2959  0.5543  1.3065
 3280TP3      O21658   3.423   2.620   7.249  0.1068  0.2589  0.5843
 3280TP3     H121659   3.430   2.581   7.336 -1.2527 -0.7577  0.2653
 3280TP3     H221660   3.368   2.698   7.262  0.6235  0.5901  0.7807
 3281TP3      O21661   3.252   1.525   9.408  0.4073 -0.3567  0.7599
 3281TP3     H121662   3.256   1.438   9.448  2.4415  0.1581  1.7876
 3281TP3     H221663   3.187   1.572   9.460 -0.8041 -1.2871  0.1177
 3282TP3      O21664   4.165   1.292   9.886 -1.0643  0.3972  0.2083
 3282TP3     H121665   4.200   1.241   9.960  0.2232  0.8623 -0.0558
 3282TP3     H221666   4.143   1.377   9.924 -0.5994  0.5651  0.1116
 3283TP3      O21667   0.643   1.211  10.058  0.3923 -0.6321  0.2079
 3283TP3     H121668   0.607   1.185  10.143 -1.4421 -1.5748 -0.8279
 3283TP3     H221669   0.663   1.304  10.069  0.6010 -0.8462  1.8089
 3284TP3      O21670   3.436   3.950   1.493  0.1230  0.0592  0.3910
 3284TP3     H121671   3.478   3.925   1.575  0.7466  2.5404  0.8691
 3284TP3     H221672   3.343   3.942   1.510  0.2903 -1.8665  0.5169
 3285TP3      O21673   4.806   1.010   7.777  0.1141  0.5595 -0.0298
 3285TP3     H121674   4.877   1.048   7.829  2.2470 -0.8976 -1.8134
 3285TP3     H221675   4.726   1.038   7.822  1.8233  1.5000  2.5213
 3286TP3      O21676   5.122   2.603   2.423  0.0983 -0.3658 -0.0717
 3286TP3     H121677   5.205   2.646   2.443 -0.4178  1.1017 -0.9963
 3286TP3     H221678   5.075   2.604   2.507  0.7390 -0.5855  0.2923
 3287TP3      O21679   0.558   2.827   1.703 -0.3487  0.7084  0.6340
 3287TP3     H121680   0.522   2.749   1.745 -0.0073 -0.7102 -1.6796
 3287TP3     H221681   0.482   2.875   1.673 -0.4525 -1.0983 -2.1136
 3288TP3      O21682   1.560   5.281   1.206  0.1130 -0.6470 -0.3143
 3288TP3     H121683   1.472   5.318   1.210 -0.0487 -1.0061 -0.5025
 3288TP3     H221684   1.609   5.341   1.149  0.1255 -0.1746  0.1920
 3289TP3      O21685   4.123   5.080   1.827 -0.2298  0.1849  0.4501
 3289TP3     H121686   4.161   4.997   1.797  1.1250 -0.3400  3.4246
 3289TP3     H221687   4.039   5.055   1.866 -0.4676  0.3897  0.0629
 3290TP3      O21688   1.896   2.288   2.317 -0.2004  0.2270 -0.1959
 3290TP3     H121689   1.813   2.250   2.289 -0.4586 -1.0968  2.1747
 3290TP3     H221690   1.961   2.221   2.293 -0.3304 -0.5538  1.5552
 3291TP3      O21691   2.650   1.602   9.226 -0.0630  0.4358 -0.1195
 3291TP3     H121692   2.634   1.624   9.317  0.2892  0.6806 -0.1132
 3291TP3     H221693   2.718   1.664   9.198  0.2016  0.0228 -0.3984
 3292TP3      O21694   0.400   3.411   0.794  0.2334  0.3834  0.0068
 3292TP3     H121695   0.371   3.337   0.848 -1.8076  0.1952 -1.2884
 3292TP3     H221696   0.363   3.393   0.708  1.2201  2.0311 -0.7699
 3293TP3      O21697   3.255   3.579   2.879  0.1019  0.0916 -0.1112
 3293TP3     H121698   3.238   3.614   2.966 -0.8495 -1.3604  0.3058
 3293TP3     H221699   3.292   3.492   2.894 -0.9025 -0.5399 -1.1403
 3294TP3      O21700   4.463   1.831   9.427 -0.2966  0.0709  0.0940
 3294TP3     H121701   4.397   1.782   9.476 -0.2501 -0.3523 -0.2583
 3294TP3     H221702   4.531   1.851   9.491  1.2039 -3.0744 -0.4086
 3295TP3      O21703   2.472   3.717   9.613 -0.0431  0.0240 -0.5642
 3295TP3     H121704   2.486   3.778   9.541 -1.3013  0.3311 -0.5486
 3295TP3     H221705   2.559   3.681   9.631  0.5469  1.1474 -1.1579
 3296TP3      O21706   4.101   3.092   2.489  0.2873 -0.1348 -0.3544
 3296TP3     H121707   4.098   3.023   2.556 -1.9208  1.2908  1.0803
 3296TP3     H221708   4.022   3.080   2.438  0.9290  0.0827 -1.4229
 3297TP3      O21709   3.695   1.460   1.719 -0.6160 -0.0427  0.5436
 3297TP3     H121710   3.607   1.428   1.698 -0.5744  0.1703  0.0286
 3297TP3     H221711   3.723   1.407   1.793 -1.2606  0.0303  0.8424
 3298TP3      O21712   1.020   1.590   2.520  0.3505 -0.3302  0.3600
 3298TP3     H121713   1.076   1.515   2.539  0.2769 -0.8868 -1.5662
 3298TP3     H221714   1.076   1.650   2.469 -0.0789  0.2080  0.5108
 3299TP3      O21715   2.819   5.488   0.474  0.2002  0.3824  0.4253
 3299TP3     H121716   2.805   5.450   0.388 -0.2193 -0.8221  1.0064
 3299TP3     H221717   2.907   5.525   0.471  0.4331 -0.2297 -0.2997
 3300TP3      O21718   4.624   4.214  10.254 -0.1308 -0.2948  0.4019
 3300TP3     H121719   4.585   4.294  10.291 -0.3860 -0.9577  1.6054
 3300TP3     H221720   4.549   4.166  10.219 -0.3832 -1.3788  2.3497
 3301TP3      O21721   3.011   4.925   0.557  0.0892  0.4002 -0.3114
 3301TP3     H121722   2.961   5.004   0.580  0.3147  0.3331  0.4329
 3301TP3     H221723   3.089   4.930   0.612  0.3032 -0.1272 -0.5706
 3302TP3      O21724   1.712   4.655   0.983  0.7886  0.6248 -0.6084
 3302TP3     H121725   1.734   4.645   1.076 -1.5427 -0.5300 -0.1375
 3302TP3     H221726   1.652   4.729   0.981 -0.0264 -0.0427 -1.0382
 3303TP3      O21727   2.108   1.979  10.037 -0.0606 -0.1584  0.1904
 3303TP3     H121728   2.078   2.067  10.015 -0.1541 -0.3202 -0.3300
 3303TP3     H221729   2.028   1.931  10.056 -0.2058 -0.8080 -1.9774
 3304TP3      O21730   1.546   0.167   1.621 -0.0485 -0.0104 -0.4529
 3304TP3     H121731   1.610   0.098   1.599  0.2307 -0.5204  1.7773
 3304TP3     H221732   1.599   0.246   1.630  0.0019 -0.0334 -0.5483
 3305TP3      O21733   3.474   0.234   9.609  0.3918  0.3035 -0.6194
 3305TP3     H121734   3.443   0.308   9.662 -0.0405 -1.7044  2.0035
 3305TP3     H221735   3.561   0.214   9.644  0.1875 -0.9090 -0.8000
 3306TP3      O21736   4.084   2.887   1.126 -0.7300 -0.4315 -0.0198
 3306TP3     H121737   4.179   2.890   1.111 -0.4786  1.1986  1.6609
 3306TP3     H221738   4.047   2.929   1.048  0.0831  0.8988  0.2764
 3307TP3      O21739   1.071   0.085   9.521 -0.3182 -0.4665  0.0851
 3307TP3     H121740   1.119   0.003   9.530 -2.2627 -1.4883  1.6468
 3307TP3     H221741   1.021   0.092   9.603  1.0560  3.0878  0.6960
 3308TP3      O21742   1.736   2.721   9.386 -0.0901 -0.2734 -0.0118
 3308TP3     H121743   1.739   2.793   9.323  2.3768  0.7245  1.1795
 3308TP3     H221744   1.796   2.655   9.350  0.2535 -0.2884  0.5829
 3309TP3      O21745   4.301   2.484   8.668  0.4632  0.3749 -0.2622
 3309TP3     H121746   4.360   2.479   8.743 -0.1969  3.5293  0.5412
 3309TP3     H221747   4.215   2.464   8.705  0.8510 -3.8974 -1.3699
 3310TP3      O21748   0.687   1.857   0.564  0.8082 -0.0049 -0.3953
 3310TP3     H121749   0.658   1.938   0.521 -3.7169 -1.1336  0.3412
 3310TP3     H221750   0.702   1.883   0.654  1.9242  0.5513 -0.7340
 3311TP3      O21751   4.755   1.732   2.875 -0.5649 -0.5982  0.0374
 3311TP3     H121752   4.673   1.692   2.905 -0.3805 -0.4923  0.6888
 3311TP3     H221753   4.738   1.826   2.877 -1.2260 -0.6330 -2.1415
 3312TP3      O21754   3.677   4.958   0.829  0.3703 -0.4602 -0.4618
 3312TP3     H121755   3.704   5.047   0.851  1.0423 -0.7807 -0.0096
 3312TP3     H221756   3.608   4.938   0.892  0.5884 -0.4655 -0.2284
 3313TP3      O21757   5.167   1.880   1.740 -0.2123  0.0623  0.8757
 3313TP3     H121758   5.074   1.874   1.715 -0.5607  0.7465  1.9263
 3313TP3     H221759   5.194   1.966   1.708  0.1100 -0.2062  0.4263
 3314TP3      O21760   4.090   1.751   0.249  0.0789  0.1571 -0.0660
 3314TP3     H121761   4.121   1.728   0.161  0.3010 -0.2686  0.1206
 3314TP3     H221762   3.995   1.737   0.245  0.1853 -0.6185 -0.0167
 3315TP3      O21763   0.474   4.008   0.574 -0.1542 -0.3234  0.2909
 3315TP3     H121764   0.382   3.980   0.568 -0.1228 -0.2828 -0.4463
 3315TP3     H221765   0.521   3.928   0.598 -0.2889 -0.5078 -0.0565
 3316TP3      O21766   2.631   2.942   9.561 -0.9907 -0.5418 -0.2976
 3316TP3     H121767   2.670   3.029   9.570 -2.6009  0.0721  0.8372
 3316TP3     H221768   2.700   2.890   9.519  0.1180  1.1735 -0.6657
 3317TP3      O21769   3.921   2.044   2.048 -0.2653  0.5612  0.5384
 3317TP3     H121770   3.952   1.960   2.013 -2.3291  1.4408 -3.7571
 3317TP3     H221771   3.890   2.023   2.136 -0.5075 -3.1573 -0.3191
 3318TP3      O21772   0.173   2.973   8.385  0.0663 -0.5107  0.0271
 3318TP3     H121773   0.230   2.950   8.458  1.1709  3.1092  0.3779
 3318TP3     H221774   0.230   2.971   8.309  0.1286  0.7656  0.0324
 3319TP3      O21775   0.356   2.923  10.238  0.2183 -0.5873 -0.5023
 3319TP3     H121776   0.394   2.919  10.326  1.5383 -0.8288 -1.0786
 3319TP3     H221777   0.349   2.832  10.210 -0.1993 -0.5112 -0.6527
 3320TP3      O21778   5.237   1.620   2.879  0.1194  0.2592  0.0466
 3320TP3     H121779   5.225   1.679   2.953  1.0172  0.0293  0.3842
 3320TP3     H221780   5.332   1.606   2.874  0.0948  0.4995 -1.3256
 3321TP3      O21781   4.546   2.359   9.422 -0.6038 -0.0015  0.0091
 3321TP3     H121782   4.589   2.276   9.399 -2.9908 -1.1650 -0.4138
 3321TP3     H221783   4.553   2.364   9.517 -0.4604 -0.6955  0.0370
 3322TP3      O21784   2.727   3.345   8.048  0.3769  0.0552  0.1057
 3322TP3     H121785   2.642   3.371   8.084  0.6654 -0.2567  1.0262
 3322TP3     H221786   2.776   3.427   8.041 -0.7568  0.5529 -2.5068
 3323TP3      O21787   0.500   5.280  10.067 -0.2427 -0.2538  0.1393
 3323TP3     H121788   0.506   5.333   9.987 -0.7924 -0.9278 -0.3550
 3323TP3     H221789   0.509   5.190  10.036  0.7124 -0.4546  0.9814
 3324TP3      O21790   4.364   0.036   9.371  0.5282  0.4966  0.0220
 3324TP3     H121791   4.342  -0.046   9.327 -0.2887 -0.9509  2.9784
 3324TP3     H221792   4.459   0.038   9.373  0.5582  0.1098 -0.9242
 3325TP3      O21793   4.110   0.871   0.942 -0.3959  0.0750  0.3430
 3325TP3     H121794   4.076   0.885   0.853  0.2077  1.3519  0.3062
 3325TP3     H221795   4.178   0.804   0.931 -0.4168  0.1324 -0.1473
 3326TP3      O21796   0.280   3.876   2.120 -0.1235  0.0087 -0.3873
 3326TP3     H121797   0.318   3.790   2.136  1.4690  0.9843  1.3778
 3326TP3     H221798   0.319   3.905   2.037  1.6702  0.2620  0.5300
 3327TP3      O21799   3.860   5.440   7.574  0.0939  0.4408 -0.2341
 3327TP3     H121800   3.904   5.356   7.559 -0.4461 -0.0814  0.9574
 3327TP3     H221801   3.864   5.485   7.490 -0.6123 -1.2624 -1.2157
 3328TP3      O21802   3.189   5.322   7.669  0.1274  0.3361  0.1612
 3328TP3     H121803   3.136   5.288   7.597 -1.0844 -0.7187  1.5139
 3328TP3     H221804   3.128   5.377   7.719  0.1656 -1.2187  1.9669
 3329TP3      O21805   2.748   2.104   0.270  0.4878 -0.7397  0.2471
 3329TP3     H121806   2.762   2.121   0.364 -3.3954  1.1864  0.5738
 3329TP3     H221807   2.717   2.013   0.267  2.4051 -1.4269  0.5996
 3330TP3      O21808   0.011   3.218   0.218 -0.3032 -0.2681  0.0058
 3330TP3     H121809  -0.054   3.149   0.212  0.5656 -1.1460  0.5722
 3330TP3     H221810   0.076   3.196   0.151 -0.0485  0.0279  0.1511
 3331TP3      O21811   0.337   2.747   9.138  0.2998 -0.5305  0.1381
 3331TP3     H121812   0.300   2.688   9.072  1.1223 -0.8069 -0.0873
 3331TP3     H221813   0.267   2.759   9.202  1.1295 -4.3593  1.9243
 3332TP3      O21814   0.545   3.308   0.261  0.1989 -0.0313 -0.4167
 3332TP3     H121815   0.608   3.236   0.262  0.3460  0.0928 -0.7267
 3332TP3     H221816   0.533   3.328   0.169  0.0277  0.2286 -0.3378
 3333TP3      O21817   0.890   1.772   2.274 -0.2678 -0.6330  0.2825
 3333TP3     H121818   0.964   1.749   2.217  1.1318 -0.7903  2.1193
 3333TP3     H221819   0.886   1.702   2.339 -0.4270  0.6666  1.7144
 3334TP3      O21820   1.368   0.626   9.712  0.5331 -0.1572 -0.2043
 3334TP3     H121821   1.404   0.541   9.686 -0.5088 -1.0309  1.1143
 3334TP3     H221822   1.392   0.634   9.805 -1.6096 -0.2186  0.3856
 3335TP3      O21823   1.482   3.096   0.468 -0.2773 -0.1560 -0.0685
 3335TP3     H121824   1.561   3.142   0.440 -0.6283  0.4176 -0.1373
 3335TP3     H221825   1.469   3.123   0.559  0.3371 -1.2816  0.3589
 3336TP3      O21826   5.141   4.584   8.424 -0.0697  0.9185 -0.0088
 3336TP3     H121827   5.134   4.523   8.497  2.7567  1.7957  1.0728
 3336TP3     H221828   5.107   4.667   8.458 -2.5612  0.3425 -1.0192
 3337TP3      O21829   2.351   4.311   8.543  0.1753  0.1403 -0.1950
 3337TP3     H121830   2.437   4.354   8.547  0.6335 -0.8004  0.0910
 3337TP3     H221831   2.342   4.269   8.628 -1.5792  2.1509  0.6457
 3338TP3      O21832   2.658   3.585   0.223  0.2316  0.2173  0.7673
 3338TP3     H121833   2.728   3.526   0.251  0.2667  0.0666  0.3638
 3338TP3     H221834   2.703   3.668   0.205  0.5541 -0.3312 -1.0431
 3339TP3      O21835   0.678   2.773  10.000 -0.0177  0.1938 -0.6066
 3339TP3     H121836   0.640   2.855  10.032  1.1849  0.6843 -0.4274
 3339TP3     H221837   0.606   2.731   9.953 -0.7978  1.1000 -0.2567
 3340TP3      O21838   0.379   0.141   9.956  0.1953  0.3725  0.2442
 3340TP3     H121839   0.336   0.067   9.998 -0.5911  0.7757  0.1458
 3340TP3     H221840   0.460   0.152  10.006 -0.0498 -0.0619  0.7489
 3341TP3      O21841   4.862   5.126   2.602  1.2454 -0.0985  0.0789
 3341TP3     H121842   4.887   5.034   2.610 -0.2739 -0.6185 -0.9185
 3341TP3     H221843   4.927   5.164   2.543  2.6022 -0.2270  1.4673
 3342TP3      O21844   0.725   3.736  10.048  0.7222  0.0434  0.4701
 3342TP3     H121845   0.671   3.657  10.043  0.8644  0.0115 -0.6473
 3342TP3     H221846   0.811   3.704  10.074  0.3995  0.0181  1.5602
 3343TP3      O21847   1.282   0.574   2.086  0.2715 -0.2027  0.0460
 3343TP3     H121848   1.300   0.483   2.107  2.2288  0.1903  0.1493
 3343TP3     H221849   1.297   0.580   1.992 -1.0222 -0.2358 -0.1759
 3344TP3      O21850   0.670   2.524   8.201 -0.1773  0.2492 -0.3964
 3344TP3     H121851   0.677   2.598   8.140 -0.5045  0.6279  0.0155
 3344TP3     H221852   0.736   2.543   8.268  0.3765 -0.3105 -0.7747
 3345TP3      O21853   2.269   1.495   1.234  0.1369  0.1351 -0.1196
 3345TP3     H121854   2.182   1.477   1.198  0.1479 -0.0858 -0.0383
 3345TP3     H221855   2.300   1.572   1.185 -0.7778  1.2223  0.9718
 3346TP3      O21856   1.419   5.039   1.268 -0.4241 -0.2493  0.2486
 3346TP3     H121857   1.508   5.018   1.297  0.2141  0.5688 -1.0655
 3346TP3     H221858   1.421   5.134   1.251 -1.5028 -0.2513  0.0821
 3347TP3      O21859   5.350   0.073   9.447  0.4151  0.7015  0.0028
 3347TP3     H121860   5.281   0.125   9.407  0.6562  0.2072 -1.0834
 3347TP3     H221861   5.362   0.111   9.534 -1.1707  0.8398  0.1820
 3348TP3      O21862   5.465   3.896   9.172  0.1037  0.4901 -0.0677
 3348TP3     H121863   5.480   3.801   9.179 -0.8322  0.2536 -1.0887
 3348TP3     H221864   5.551   3.932   9.151 -0.1277 -0.5235 -3.0393
 3349TP3      O21865   3.225   1.039   2.464 -0.3449  0.5930 -0.0326
 3349TP3     H121866   3.294   1.076   2.520 -1.8728  2.5282  0.6023
 3349TP3     H221867   3.183   0.973   2.518 -1.4294  2.0449  0.9042
 3350TP3      O21868   2.476   3.625   0.713  0.2832 -0.7294  0.3439
 3350TP3     H121869   2.408   3.618   0.779 -0.7477 -0.8954 -0.7146
 3350TP3     H221870   2.430   3.657   0.635  1.1897 -1.9945 -0.7207
 3351TP3      O21871   5.461   1.384  10.300 -0.3584  0.3048  0.1654
 3351TP3     H121872   5.536   1.377  10.241  0.4492  1.4005  1.0456
 3351TP3     H221873   5.388   1.346  10.251  0.9380 -1.5427 -0.3769
 3352TP3      O21874   3.705   2.059   9.234  0.2177 -0.3179 -0.2328
 3352TP3     H121875   3.765   2.040   9.306  0.6881  0.7688 -0.3190
 3352TP3     H221876   3.727   1.995   9.167  0.3528 -0.7978  0.2653
 3353TP3      O21877   0.989   2.474   2.622 -0.1010  0.4519 -0.7645
 3353TP3     H121878   0.940   2.495   2.543  0.1544  0.7031 -0.8588
 3353TP3     H221879   1.054   2.544   2.629 -0.4701  0.7267 -0.0381
 3354TP3      O21880   1.986   3.453   0.730 -0.6279  0.0477 -1.0677
 3354TP3     H121881   1.973   3.533   0.782  0.1432  0.0141 -0.8111
 3354TP3     H221882   1.993   3.485   0.639  3.0443  0.6710 -0.6504
 3355TP3      O21883   4.729   3.494   9.374 -0.0721  1.0186 -0.0481
 3355TP3     H121884   4.686   3.442   9.306  0.8150  0.2058 -0.0057
 3355TP3     H221885   4.670   3.568   9.389 -1.7111 -0.3149  0.3549
 3356TP3      O21886   0.488   0.660   2.313  0.5168  0.4568 -0.1777
 3356TP3     H121887   0.478   0.570   2.344 -0.9765  0.3595 -0.9248
 3356TP3     H221888   0.492   0.712   2.393  0.9672 -0.2151  0.2485
 3357TP3      O21889   3.703   4.143   1.918  0.0812  0.4507 -0.5830
 3357TP3     H121890   3.793   4.157   1.950 -0.0556  0.8690 -0.3764
 3357TP3     H221891   3.671   4.068   1.969  0.2275  0.4559 -0.4830
 3358TP3      O21892   5.251   1.024   9.763  0.0480 -0.7453 -0.3487
 3358TP3     H121893   5.220   1.097   9.818 -1.3294  0.0350 -2.1248
 3358TP3     H221894   5.292   0.963   9.825 -1.2073  0.2548  1.5034
 3359TP3      O21895   1.636   4.697   8.308  0.3742  0.1448  0.2076
 3359TP3     H121896   1.721   4.727   8.339  0.4550  0.7369 -0.5796
 3359TP3     H221897   1.587   4.778   8.290 -0.7883 -0.1708  1.8011
 3360TP3      O21898   3.337   2.354   9.740  0.5963  0.2941 -0.4840
 3360TP3     H121899   3.249   2.326   9.716  0.3869  0.7762 -0.2918
 3360TP3     H221900   3.385   2.356   9.657  0.5887 -0.5294 -0.5104
 3361TP3      O21901   0.876   2.451   2.219  0.2125 -0.1416 -0.3934
 3361TP3     H121902   0.845   2.496   2.297  2.9740 -0.6344  1.0592
 3361TP3     H221903   0.838   2.364   2.225 -1.3946  0.5205 -0.7873
 3362TP3      O21904   5.436   0.293   0.876  0.0542 -0.0652 -0.1139
 3362TP3     H121905   5.423   0.334   0.962  0.4768  1.6264 -0.8455
 3362TP3     H221906   5.363   0.231   0.868  1.4466 -2.1823  2.5701
 3363TP3      O21907   0.780   3.299   2.640  0.4454 -0.3180 -0.3331
 3363TP3     H121908   0.837   3.343   2.703  1.0386 -0.2330 -0.9160
 3363TP3     H221909   0.822   3.215   2.624 -0.0785 -0.6270 -0.0828
 3364TP3      O21910   2.554   4.998   8.154  0.8120 -0.0808 -1.0989
 3364TP3     H121911   2.474   4.962   8.116  1.1217 -0.1788 -1.6698
 3364TP3     H221912   2.568   4.948   8.234 -0.4536  0.8757 -0.2668
 3365TP3      O21913   0.631   3.312   1.817  0.4480  0.2681  0.3457
 3365TP3     H121914   0.542   3.332   1.790  0.5353  2.3962  1.5226
 3365TP3     H221915   0.622   3.235   1.874 -0.6544  0.6775  0.7338
 3366TP3      O21916   2.984   4.605   9.151  0.3340 -0.5889  0.0876
 3366TP3     H121917   3.076   4.631   9.156 -0.3915  2.0991  0.1369
 3366TP3     H221918   2.977   4.528   9.208  2.3947 -0.4156  0.5967
 3367TP3      O21919   4.677   2.814   3.216  0.1812  0.4709 -0.3264
 3367TP3     H121920   4.693   2.897   3.171 -0.1272  0.9757  0.4827
 3367TP3     H221921   4.658   2.752   3.146  2.0774  0.6915 -1.0479
 3368TP3      O21922   1.993   5.163   1.204  0.0778 -0.2404  0.2721
 3368TP3     H121923   2.002   5.069   1.187 -0.8839 -0.5009  1.1669
 3368TP3     H221924   1.939   5.195   1.132 -3.2086 -1.1707  2.2390
 3369TP3      O21925   4.235   1.846   8.989 -0.4907  0.6626  0.0036
 3369TP3     H121926   4.203   1.920   8.938  0.7106  0.4400 -1.1074
 3369TP3     H221927   4.243   1.775   8.925  1.9634  0.6581  0.2714
 3370TP3      O21928   3.599   0.373   0.730  0.3784 -0.1668  0.7801
 3370TP3     H121929   3.507   0.379   0.756 -0.5543 -0.2474 -2.2867
 3370TP3     H221930   3.620   0.280   0.735  0.0995 -0.2249  0.8410
 3371TP3      O21931   4.860   4.988   1.553 -0.2509  0.0702 -0.1487
 3371TP3     H121932   4.781   4.957   1.598 -0.2758 -1.9196 -1.5448
 3371TP3     H221933   4.914   4.910   1.542  1.5871  1.2757  0.0652
 3372TP3      O21934   2.937   2.938   0.195 -0.3840  0.4577  0.2751
 3372TP3     H121935   2.978   2.902   0.273  0.6193  0.1962 -0.3664
 3372TP3     H221936   2.950   3.033   0.203  2.1311  0.2627 -0.8799
 3373TP3      O21937   1.746   1.004   9.908  0.1586 -0.3044 -0.3912
 3373TP3     H121938   1.796   0.926   9.932  0.0082 -0.4861 -0.6721
 3373TP3     H221939   1.705   0.982   9.824 -0.4239 -0.1731 -0.1425
 3374TP3      O21940   2.754   4.749   1.120 -0.1557  0.1656 -0.4744
 3374TP3     H121941   2.795   4.677   1.073 -2.0668  0.2738 -2.3845
 3374TP3     H221942   2.754   4.822   1.058 -0.6624  1.0104  0.4843
 3375TP3      O21943   5.397   2.438   2.937  0.1315  0.3486 -0.8703
 3375TP3     H121944   5.331   2.440   2.867 -0.6994  1.9228 -0.0443
 3375TP3     H221945   5.413   2.529   2.958  3.7129  0.0860 -2.0733
 3376TP3      O21946   3.148   3.764   7.845 -0.3041 -0.0214 -0.7673
 3376TP3     H121947   3.201   3.843   7.838  0.2607 -0.1798  1.4056
 3376TP3     H221948   3.082   3.785   7.912 -0.9747 -0.9377 -1.1256
 3377TP3      O21949   1.415   0.175   0.832 -0.1522  0.1720 -0.3777
 3377TP3     H121950   1.360   0.190   0.755 -1.7863  1.2741  1.0008
 3377TP3     H221951   1.492   0.130   0.796  0.1874  2.7041 -3.0335
 3378TP3      O21952   2.570   5.004   1.568  0.1428  0.2910 -0.1394
 3378TP3     H121953   2.500   5.038   1.513  0.2598  0.6921 -0.0431
 3378TP3     H221954   2.525   4.970   1.646 -0.0628 -0.6722 -0.6682
 3379TP3      O21955   4.599   5.413   1.947 -0.6801  0.0491  0.2384
 3379TP3     H121956   4.627   5.334   1.902 -2.1075 -0.4492  0.2015
 3379TP3     H221957   4.634   5.484   1.894  1.2468 -0.5364  0.6759
 3380TP3      O21958   3.364   3.798   8.338  0.0038 -0.8377 -0.0962
 3380TP3     H121959   3.451   3.801   8.299  0.7442  0.1700  1.5661
 3380TP3     H221960   3.307   3.763   8.269  1.7183 -1.4981 -1.1919
 3381TP3      O21961   2.594   5.323   1.149 -0.0640 -0.5174  0.0646
 3381TP3     H121962   2.580   5.375   1.070 -1.8226  0.1823  0.8023
 3381TP3     H221963   2.529   5.254   1.144  0.5726 -1.1427  0.3487
 3382TP3      O21964   4.160   3.158   0.476 -0.2127  0.3065  0.4880
 3382TP3     H121965   4.131   3.125   0.391 -1.4293 -1.6361  1.6354
 3382TP3     H221966   4.109   3.238   0.489 -0.0213  0.6141 -0.5938
 3383TP3      O21967   3.445   5.263   0.861 -0.3903  0.3179  0.7349
 3383TP3     H121968   3.489   5.225   0.784  0.5242 -1.3203  2.0217
 3383TP3     H221969   3.500   5.337   0.886 -1.2762  1.5359 -0.8021
 3384TP3      O21970   1.739   2.358   0.287 -0.5744  0.1949  0.0789
 3384TP3     H121971   1.704   2.447   0.296  1.0313  0.7529  1.0339
 3384TP3     H221972   1.710   2.313   0.366  2.0868  1.1179  1.6557
 3385TP3      O21973   5.361   3.380   7.345  0.0897  0.0996 -0.1640
 3385TP3     H121974   5.377   3.305   7.289  0.3507 -1.1330  1.5233
 3385TP3     H221975   5.426   3.373   7.415 -1.1181  0.8106  1.0727
 3386TP3      O21976   3.626   3.665   8.567  0.3233 -0.0537 -0.2967
 3386TP3     H121977   3.634   3.583   8.519 -0.2414  0.0371 -0.5399
 3386TP3     H221978   3.703   3.716   8.541  0.3364 -0.2478 -0.6284
 3387TP3      O21979   2.808   3.460   9.706  0.4616  0.5951  0.6614
 3387TP3     H121980   2.792   3.420   9.792 -1.3073 -0.1339  0.0013
 3387TP3     H221981   2.899   3.436   9.685  0.6259  0.0668  1.9402
 3388TP3      O21982   0.181   4.005   9.688  0.2987  0.0949 -0.1572
 3388TP3     H121983   0.180   3.917   9.726 -1.7385  0.3680  0.4398
 3388TP3     H221984   0.099   4.011   9.639  0.5283  1.5928 -0.3753
 3389TP3      O21985   1.318   2.495   0.497 -0.5861 -0.1783  0.6093
 3389TP3     H121986   1.371   2.416   0.496  1.1073  0.9200 -0.6070
 3389TP3     H221987   1.265   2.489   0.418 -1.3796 -0.6966  1.1814
 3390TP3      O21988   3.032   2.125   1.948  0.0467 -0.1640 -0.2117
 3390TP3     H121989   2.945   2.089   1.965 -0.4933  0.4882 -1.5294
 3390TP3     H221990   3.016   2.212   1.913  1.1669 -0.5772 -1.8101
 3391TP3      O21991   4.342   2.696   9.031 -0.5502 -0.8862 -0.1258
 3391TP3     H121992   4.392   2.775   9.010  0.8545 -1.1176  2.2596
 3391TP3     H221993   4.357   2.639   8.956  0.3468  0.1893 -0.7875
 3392TP3      O21994   5.231   3.783   9.631  0.5253 -0.7614 -0.0221
 3392TP3     H121995   5.277   3.712   9.586  2.0444 -0.4401  1.0080
 3392TP3     H221996   5.197   3.742   9.711  0.0302 -0.7025 -0.1987
 3393TP3      O21997   5.134   2.959   7.109  0.5633 -0.1049  0.8748
 3393TP3     H121998   5.160   2.924   7.195  0.4360 -0.3038  0.8338
 3393TP3     H221999   5.124   2.881   7.054 -0.8557 -0.0890  1.0927
 3394TP3      O22000   5.345   4.646   1.086  0.5503  0.0149 -0.2629
 3394TP3     H122001   5.382   4.663   1.000  2.7885 -1.7416  0.2979
 3394TP3     H222002   5.363   4.553   1.102 -1.6985 -0.1952  1.2148
 3395TP3      O22003   2.132   4.926   1.949  0.0538  0.6574  0.0805
 3395TP3     H122004   2.120   5.001   1.891  0.4757 -0.1898 -1.1235
 3395TP3     H222005   2.096   4.852   1.900 -0.5412  0.1104  1.3413
 3396TP3      O22006   1.066   2.863   0.514 -0.3404  0.0472  0.1628
 3396TP3     H122007   1.152   2.857   0.472 -0.8346 -1.6188 -0.6705
 3396TP3     H222008   1.004   2.855   0.441 -1.2013 -0.1464  0.9134
 3397TP3      O22009   0.734   0.270   8.816  0.0372 -0.0807  0.3874
 3397TP3     H122010   0.701   0.288   8.904 -1.9556  0.3686 -0.4198
 3397TP3     H222011   0.696   0.185   8.794 -0.1795  0.2030 -0.3546
 3398TP3      O22012   0.896   3.700   9.806  0.6047 -0.2727  0.1505
 3398TP3     H122013   0.935   3.650   9.879  2.8664  0.7657 -0.3035
 3398TP3     H222014   0.879   3.786   9.843  1.7798  0.2653 -0.5238
 3399TP3      O22015   4.789   4.476   2.359 -0.1101 -0.0019 -0.6429
 3399TP3     H122016   4.804   4.444   2.448 -0.4549  0.5374 -0.3814
 3399TP3     H222017   4.772   4.398   2.307  0.9958 -0.3955 -0.4206
 3400TP3      O22018   0.239   3.351   0.541  0.0442  0.7798 -0.2310
 3400TP3     H122019   0.205   3.440   0.532 -1.2699  0.2501 -0.6472
 3400TP3     H222020   0.194   3.316   0.618  0.0893  0.2601 -0.4348
 3401TP3      O22021   0.615   4.707   1.179  0.2200  0.6845 -0.6441
 3401TP3     H122022   0.607   4.620   1.139 -0.3103 -0.0389  0.9963
 3401TP3     H222023   0.526   4.741   1.181  0.1579  0.4699  0.4445
 3402TP3      O22024   1.458   5.026   8.042  0.2105  0.2266 -0.3776
 3402TP3     H122025   1.448   4.963   7.971 -0.1513 -1.2248  0.9634
 3402TP3     H222026   1.404   4.993   8.113 -0.1048  2.1197  0.3127
 3403TP3      O22027   5.346   3.587   9.499 -0.7999 -0.8430 -0.0586
 3403TP3     H122028   5.345   3.558   9.407 -0.7113  0.4958 -0.4953
 3403TP3     H222029   5.438   3.586   9.523 -0.9785 -3.0946  0.6555
 3404TP3      O22030   2.541   5.234   1.794 -0.2197 -0.1731 -0.2214
 3404TP3     H122031   2.575   5.307   1.742  0.4518  0.4178  1.0189
 3404TP3     H222032   2.540   5.160   1.734  1.4833  0.2552 -0.8003
 3405TP3      O22033   4.803   4.217   9.167  0.0472 -0.6541 -0.5980
 3405TP3     H122034   4.891   4.222   9.205 -1.2794  0.0045  2.5979
 3405TP3     H222035   4.781   4.308   9.146 -0.4412 -0.6093  0.0774
 3406TP3      O22036   2.728   3.296   8.920  0.8245  0.4049  0.1822
 3406TP3     H122037   2.752   3.314   8.829 -0.3414 -0.0320 -0.2226
 3406TP3     H222038   2.648   3.243   8.914  0.0301  1.4151  1.4658
 3407TP3      O22039   1.547   3.361   2.985  0.1593  0.0833 -0.0057
 3407TP3     H122040   1.525   3.298   3.053  0.4481  1.0914  1.0370
 3407TP3     H222041   1.615   3.416   3.024  0.9097  0.1690 -1.3948
 3408TP3      O22042   0.712   2.835   0.349 -0.3490  0.2131  0.2734
 3408TP3     H122043   0.716   2.821   0.444  0.7027 -1.5407  0.0191
 3408TP3     H222044   0.804   2.847   0.324 -0.6865  1.2920 -0.4354
 3409TP3      O22045   0.048   2.084   0.821  0.6469 -0.5086  0.1175
 3409TP3     H122046   0.083   1.996   0.838  2.2548  0.2581  0.9342
 3409TP3     H222047   0.023   2.117   0.908 -0.3958 -0.3369 -0.2461
 3410TP3      O22048   4.352   3.363   7.206  0.0178 -0.0889 -0.1306
 3410TP3     H122049   4.405   3.341   7.282 -0.5749 -1.1698 -0.0183
 3410TP3     H222050   4.386   3.448   7.177  0.3761  0.2476  1.2188
 3411TP3      O22051   1.547   1.766   0.630  0.4076 -0.2353 -0.3856
 3411TP3     H122052   1.561   1.693   0.690  0.3964 -0.3829 -0.5624
 3411TP3     H222053   1.631   1.811   0.627  0.4853 -0.3893 -0.4758
 3412TP3      O22054   3.303   1.854   3.224 -0.6190 -0.2041  0.3315
 3412TP3     H122055   3.271   1.763   3.224 -0.2516 -0.3453 -1.9225
 3412TP3     H222056   3.389   1.849   3.183 -0.7588  1.2288 -0.1470
 3413TP3      O22057   0.060   2.970   9.670 -0.2849 -0.4260 -0.4136
 3413TP3     H122058   0.091   3.057   9.646 -0.6671 -1.1445 -3.7010
 3413TP3     H222059  -0.034   2.972   9.652 -0.6592 -0.9737  1.3118
 3414TP3      O22060   2.766   2.818   8.669 -0.5090 -0.1098 -0.1142
 3414TP3     H122061   2.856   2.847   8.652 -1.1777  0.9850 -2.0190
 3414TP3     H222062   2.756   2.739   8.616 -0.4830 -0.5908  0.5917
 3415TP3      O22063   0.388   3.779   0.356  0.8163 -0.7004  0.3041
 3415TP3     H122064   0.412   3.709   0.296  0.8080  0.0515 -0.5897
 3415TP3     H222065   0.470   3.805   0.397  1.3148  0.7222 -1.5087
 3416TP3      O22066   5.075   1.475   8.725 -0.1733 -0.0415 -0.1599
 3416TP3     H122067   5.075   1.431   8.810  0.9794 -0.9312 -0.6025
 3416TP3     H222068   5.166   1.471   8.695 -0.4516  0.7696 -1.1799
 3417TP3      O22069   0.549   4.395   1.492  0.4949 -0.3265  0.4936
 3417TP3     H122070   0.454   4.398   1.504  0.3862  2.0416 -0.5865
 3417TP3     H222071   0.584   4.381   1.580 -0.8109  0.3600  1.1351
 3418TP3      O22072   2.381   3.052   8.315  0.0051 -0.0543 -0.4064
 3418TP3     H122073   2.359   3.052   8.221 -1.5102 -0.4719 -0.0714
 3418TP3     H222074   2.476   3.041   8.317 -0.0302 -0.8678 -1.8891
 3419TP3      O22075   0.180   4.792   7.351  0.4979  1.0290 -0.0502
 3419TP3     H122076   0.204   4.737   7.277  1.5247  1.3656  0.0261
 3419TP3     H222077   0.166   4.879   7.313  1.5297  1.3167  0.2247
 3420TP3      O22078   4.793   3.565   8.059  0.8474 -0.7446 -0.3694
 3420TP3     H122079   4.860   3.608   8.007  0.6272  1.4276  1.0575
 3420TP3     H222080   4.710   3.594   8.021  0.6908 -2.2542 -1.2169
 3421TP3      O22081   0.001   2.493   8.829  0.0726  0.5615  0.0377
 3421TP3     H122082  -0.036   2.432   8.765 -1.8416  2.6065 -0.8707
 3421TP3     H222083  -0.015   2.450   8.914  1.3269 -1.4807 -0.7132
 3422TP3      O22084   0.650   0.902   8.805 -0.0807 -0.0101 -0.0415
 3422TP3     H122085   0.572   0.957   8.805  0.0429  0.1978  1.3487
 3422TP3     H222086   0.722   0.963   8.787 -0.1254 -0.0158 -0.2402
 3423TP3      O22087   1.000   4.070   1.085 -0.0584  0.2605 -0.7468
 3423TP3     H122088   1.089   4.053   1.054 -0.5248 -1.8427 -0.9647
 3423TP3     H222089   0.997   4.165   1.097  2.8023  0.1865  1.0039
 3424TP3      O22090   1.052   4.533   0.340 -0.5311  0.3442  0.5935
 3424TP3     H122091   1.139   4.561   0.368 -0.2178  0.6452 -0.6284
 3424TP3     H222092   0.996   4.610   0.355 -0.3960  0.4543  0.5293
 3425TP3      O22093   4.495   1.025   0.822 -0.0628 -0.0790  0.3942
 3425TP3     H122094   4.452   1.026   0.737  0.5428  1.4531  0.0939
 3425TP3     H222095   4.565   0.960   0.813  0.0464  0.1320 -0.2972
 3426TP3      O22096   3.378   4.492   8.221 -0.5679  0.2865  0.0448
 3426TP3     H122097   3.292   4.483   8.262 -0.3700  1.8769  0.8351
 3426TP3     H222098   3.437   4.513   8.293  0.1977  0.7874 -0.7222
 3427TP3      O22099   2.422   3.669   1.555 -0.2061  0.0569 -0.1838
 3427TP3     H122100   2.442   3.580   1.586  0.8118  0.7129  1.0607
 3427TP3     H222101   2.397   3.657   1.464  0.9858 -1.3857 -0.3388
 3428TP3      O22102   3.636   2.780   2.252  0.5705 -0.2642 -0.5145
 3428TP3     H122103   3.661   2.848   2.189 -0.4665  0.3185 -0.3187
 3428TP3     H222104   3.641   2.698   2.203  0.9978  0.0501 -1.0005
 3429TP3      O22105   0.832   2.784   8.769 -0.1394 -0.2912  0.3170
 3429TP3     H122106   0.834   2.727   8.845 -1.4764  0.6745  1.0846
 3429TP3     H222107   0.864   2.868   8.801 -0.7097  0.1207 -0.1776
 3430TP3      O22108   2.361   0.796   0.368  0.0866  0.4694 -0.4642
 3430TP3     H122109   2.365   0.847   0.449  2.7623 -1.3925  0.6932
 3430TP3     H222110   2.395   0.855   0.301  1.6190  0.7747  0.5472
 3431TP3      O22111   3.947   2.457   9.999 -0.1129 -0.2290 -0.0314
 3431TP3     H122112   3.981   2.416   9.920 -0.1949 -0.0738 -0.1461
 3431TP3     H222113   3.890   2.391  10.038  0.6702 -0.6573  0.4026
 3432TP3      O22114   2.356   2.190   8.199  0.5250 -0.3598  0.4712
 3432TP3     H122115   2.434   2.242   8.218  1.7355 -2.0590  0.2680
 3432TP3     H222116   2.354   2.123   8.267 -0.4083 -0.6955  0.1274
 3433TP3      O22117   4.673   3.031   0.986  0.1953  0.2699 -0.1895
 3433TP3     H122118   4.618   3.105   0.961 -0.1419  0.0104 -0.2178
 3433TP3     H222119   4.642   2.959   0.932  1.4186  0.4386 -1.1394
 3434TP3      O22120   3.146   1.017   1.359  0.5219 -0.2735 -0.7174
 3434TP3     H122121   3.226   1.053   1.398 -0.0384  0.9327 -0.6394
 3434TP3     H222122   3.163   1.016   1.265  0.7230 -0.2441 -0.6808
 3435TP3      O22123   3.629   5.175   9.566  0.0253  0.3003  0.1634
 3435TP3     H122124   3.693   5.124   9.615 -0.9679 -0.1577  0.9965
 3435TP3     H222125   3.614   5.253   9.618 -0.3612  0.2361  0.1538
 3436TP3      O22126   4.645   4.381   2.978 -0.1949  0.1879  0.4675
 3436TP3     H122127   4.583   4.376   3.051  0.5013 -3.7405  0.9328
 3436TP3     H222128   4.700   4.303   2.989  3.1042  2.1473 -1.4643
 3437TP3      O22129   4.162   3.189   9.126  0.3831  0.6323  0.1197
 3437TP3     H122130   4.148   3.277   9.161 -1.5538  1.0466 -1.6252
 3437TP3     H222131   4.201   3.204   9.039 -2.2540 -0.1270 -1.2304
 3438TP3      O22132   1.081   0.253   8.251 -0.5545 -0.3980  0.1482
 3438TP3     H122133   1.010   0.238   8.189 -0.6649  0.8968 -0.0416
 3438TP3     H222134   1.056   0.202   8.328 -1.7745  0.1748  0.1420
 3439TP3      O22135   2.191   4.755   8.451 -0.0400 -0.4481  0.0785
 3439TP3     H122136   2.151   4.678   8.491  0.2883 -0.8647 -0.3897
 3439TP3     H222137   2.133   4.827   8.475  0.8072 -0.4823  2.3353
 3440TP3      O22138   0.534   3.009  10.034 -0.0228 -0.3799 -0.2844
 3440TP3     H122139   0.457   3.032   9.983  0.2124  2.1274  0.4328
 3440TP3     H222140   0.500   2.991  10.122  0.1987  0.8036  0.0522
 3441TP3      O22141   3.261   0.476   0.303  0.4133  0.0681  0.3537
 3441TP3     H122142   3.327   0.510   0.243 -1.3613  1.6668 -0.7514
 3441TP3     H222143   3.274   0.381   0.302  1.6757  0.2340 -1.0459
 3442TP3      O22144   0.275   4.498   9.987  1.0658  0.6066  0.0462
 3442TP3     H122145   0.251   4.569   9.928 -1.0472 -0.3211 -0.2702
 3442TP3     H222146   0.206   4.432   9.974  2.5944 -1.1944  0.8414
 3443TP3      O22147   4.638   3.745   7.593 -0.1200 -0.0259  0.3985
 3443TP3     H122148   4.607   3.804   7.524 -1.0983  1.1921  1.8528
 3443TP3     H222149   4.733   3.751   7.588 -0.2012  1.6129  0.4742
 3444TP3      O22150   0.806   4.930   9.857  0.1705 -0.4021  0.8763
 3444TP3     H122151   0.853   4.963   9.933  1.1675 -0.1792  0.1747
 3444TP3     H222152   0.875   4.901   9.797 -0.4638  2.0843 -1.1659
 3445TP3      O22153   2.786   5.463   2.145 -0.0431 -0.6423  0.3626
 3445TP3     H122154   2.775   5.368   2.150 -0.1923 -0.5991  0.8967
 3445TP3     H222155   2.700   5.499   2.166 -0.1425 -0.3998 -0.4612
 3446TP3      O22156   2.103   4.876   2.250  0.3070 -0.5148 -0.4766
 3446TP3     H122157   2.102   4.893   2.156  0.1416 -1.8001 -0.7077
 3446TP3     H222158   2.195   4.857   2.270  0.5713  1.0499 -0.1360
 3447TP3      O22159   4.589   1.823   8.560  0.0760 -0.9065 -0.3935
 3447TP3     H122160   4.658   1.812   8.494 -0.2729  0.4814 -1.0162
 3447TP3     H222161   4.528   1.751   8.544  0.3542 -0.9820 -1.1324
 3448TP3      O22162   0.673   4.601   0.122  0.3775  0.5771  0.4532
 3448TP3     H122163   0.648   4.535   0.188  1.7644  1.3643  1.8003
 3448TP3     H222164   0.598   4.660   0.118  0.3555  0.6340  1.4983
 3449TP3      O22165   2.814   2.459   1.142 -0.5123 -0.4231  0.2009
 3449TP3     H122166   2.790   2.536   1.194 -2.5217  0.0532 -1.3794
 3449TP3     H222167   2.894   2.486   1.096  0.4647 -0.3480  1.8798
 3450TP3      O22168   0.710   4.679  10.174 -0.0080  0.3792  0.0597
 3450TP3     H122169   0.726   4.608  10.236  0.2491 -0.6682 -1.2100
 3450TP3     H222170   0.617   4.700  10.185  0.3355  1.1673  1.7955
 3451TP3      O22171   2.664   4.512   7.484 -0.2894 -0.2023  0.1582
 3451TP3     H122172   2.579   4.480   7.454 -0.6676 -0.1619  1.1636
 3451TP3     H222173   2.681   4.590   7.430 -2.1942  1.4244  1.8379
 3452TP3      O22174   0.074   4.132   8.811  0.0353  0.3877  0.0968
 3452TP3     H122175   0.081   4.185   8.890  0.1474  0.6906 -0.1127
 3452TP3     H222176   0.147   4.161   8.756 -1.3144  1.7354 -1.0305
 3453TP3      O22177   5.466   3.911   8.766 -0.2401 -0.0834  0.3160
 3453TP3     H122178   5.492   3.898   8.675 -1.5628  0.7734 -0.2130
 3453TP3     H222179   5.517   3.986   8.795 -0.9954  0.6575 -0.2426
 3454TP3      O22180   5.405   2.971   1.164 -0.6364 -0.0721 -0.3203
 3454TP3     H122181   5.375   2.913   1.234 -1.5543 -1.2937 -1.6892
 3454TP3     H222182   5.328   2.985   1.109 -0.7343  3.3568  0.5559
 3455TP3      O22183   1.015   0.590   2.618 -0.0835 -0.4785  0.5336
 3455TP3     H122184   1.015   0.505   2.662  0.3284 -0.1021  1.2673
 3455TP3     H222185   1.051   0.572   2.531 -2.9197 -1.6382 -0.4761
 3456TP3      O22186   0.556   0.963   0.745 -0.2247  0.1729 -0.5561
 3456TP3     H122187   0.636   1.014   0.755 -0.5298  0.5731 -0.1088
 3456TP3     H222188   0.485   1.027   0.751 -0.5644 -0.1126 -1.4696
 3457TP3      O22189   0.722   3.273   1.216  0.1675 -0.1768  0.2206
 3457TP3     H122190   0.709   3.368   1.220 -1.2582 -0.1370 -3.3040
 3457TP3     H222191   0.718   3.245   1.308  0.5826  3.1381  1.3409
 3458TP3      O22192   0.752   5.296   1.131 -0.8770 -0.4950  0.0423
 3458TP3     H122193   0.843   5.272   1.114 -1.2277 -2.2892  0.5627
 3458TP3     H222194   0.740   5.381   1.088  0.8716 -0.5203 -0.5061
 3459TP3      O22195   1.973   1.062   7.596 -0.1576 -0.0804  0.3773
 3459TP3     H122196   1.930   1.015   7.525  0.9498 -1.0191  0.3269
 3459TP3     H222197   2.066   1.044   7.585  0.0554  0.0118  1.8775
 3460TP3      O22198   0.032   3.084   1.398  0.3018 -0.2929 -0.0991
 3460TP3     H122199  -0.029   3.146   1.437  0.8933 -0.9570  1.9199
 3460TP3     H222200  -0.021   3.034   1.336 -0.5360  1.1067 -0.5233
 3461TP3      O22201   1.030   2.920   9.142 -0.7460 -0.0572 -0.3253
 3461TP3     H122202   1.113   2.897   9.184 -2.2647  0.6330  3.2458
 3461TP3     H222203   0.993   2.836   9.115  0.4978 -0.4752 -0.7919
 3462TP3      O22204   0.544   4.664   9.021  0.2666  0.3622 -0.7829
 3462TP3     H122205   0.526   4.595   9.085 -3.0192  2.1297  0.3320
 3462TP3     H222206   0.637   4.654   9.000  0.5644 -2.5035  1.5592
 3463TP3      O22207   3.827   4.251   8.380 -0.0453  0.4243  0.6011
 3463TP3     H122208   3.749   4.203   8.406 -0.1007  0.0962 -0.1761
 3463TP3     H222209   3.887   4.239   8.454 -0.5401  0.2639  0.9834
 3464TP3      O22210   4.103   5.439   8.400 -0.6675 -0.3760 -0.4868
 3464TP3     H122211   4.119   5.525   8.439  1.2472 -0.2390 -1.5496
 3464TP3     H222212   4.080   5.457   8.309 -1.4184 -0.9309 -0.4156
 3465TP3      O22213   2.430   3.405   1.186 -0.0346  0.1327  0.2461
 3465TP3     H122214   2.521   3.405   1.216  0.3384  1.1144 -0.8189
 3465TP3     H222215   2.397   3.492   1.211 -0.4940 -0.0012  0.1087
 3466TP3      O22216   5.275   5.247   1.569  0.0357  0.7086  0.0840
 3466TP3     H122217   5.325   5.327   1.554  0.1660  0.6005 -0.0635
 3466TP3     H222218   5.247   5.220   1.481  0.6033  0.1967  0.0573
 3467TP3      O22219   0.632   5.318   7.572 -0.2621 -0.0276  0.0066
 3467TP3     H122220   0.575   5.328   7.648 -2.4487 -0.0534 -1.5697
 3467TP3     H222221   0.653   5.408   7.546  1.2306 -0.0326  1.1677
 3468TP3      O22222   1.288   2.887   2.289 -0.8142 -0.5709 -0.9336
 3468TP3     H122223   1.288   2.945   2.213 -0.6979 -0.2016 -0.6552
 3468TP3     H222224   1.368   2.835   2.280 -1.1948 -1.0765 -1.4723
 3469TP3      O22225   1.548   2.136   2.432 -0.3091  0.3406  0.0339
 3469TP3     H122226   1.563   2.227   2.460  1.4142  0.5238 -1.4084
 3469TP3     H222227   1.618   2.119   2.369 -1.9074 -1.2870 -1.3503
 3470TP3      O22228   3.110   3.446   0.168  0.2816 -0.1207  0.2532
 3470TP3     H122229   3.155   3.402   0.095  1.1218 -0.4746  0.9764
 3470TP3     H222230   3.104   3.537   0.140 -3.5047 -1.0076 -2.2667
 3471TP3      O22231   0.505   1.635   2.411  0.1537 -0.0555  0.1082
 3471TP3     H122232   0.467   1.675   2.489 -2.0779 -2.1518  0.1055
 3471TP3     H222233   0.583   1.590   2.443  0.1474  0.4478  0.8475
 3472TP3      O22234   2.054   1.789   9.139  0.0405  0.0691 -0.1764
 3472TP3     H122235   2.106   1.818   9.214 -0.7791  1.9971 -0.3192
 3472TP3     H222236   1.970   1.764   9.177  0.2735 -0.7690 -0.2212
 3473TP3      O22237   4.635   3.279   1.540 -0.6456 -0.0849  0.1597
 3473TP3     H122238   4.604   3.258   1.452  2.3788 -0.6089 -0.8236
 3473TP3     H222239   4.618   3.200   1.591 -0.9180 -0.3655 -0.3673
 3474TP3      O22240   1.688   3.527   1.040 -0.1911  0.1456 -0.2201
 3474TP3     H122241   1.593   3.529   1.030 -0.1452  2.2767 -0.4867
 3474TP3     H222242   1.722   3.519   0.951 -0.1163 -1.4304 -0.0644
 3475TP3      O22243   1.096   1.360   8.804 -0.3578  0.5784  0.2599
 3475TP3     H122244   1.006   1.336   8.781 -0.4622  1.1721  0.0340
 3475TP3     H222245   1.110   1.321   8.890 -0.2497 -0.9608 -0.4479
 3476TP3      O22246   5.159   4.777   2.401 -0.2777 -0.0724 -0.0458
 3476TP3     H122247   5.090   4.739   2.455 -0.2452 -0.3111 -0.1700
 3476TP3     H222248   5.239   4.762   2.451 -0.3288  0.2960  0.1465
 3477TP3      O22249   1.913   3.353   9.806 -0.1596 -0.5256  0.5165
 3477TP3     H122250   1.885   3.355   9.897 -1.6926 -1.3457  0.0953
 3477TP3     H222251   1.998   3.397   9.805  0.0904 -0.9344  2.4025
 3478TP3      O22252   2.412   0.995   0.167 -0.4625 -0.0784  0.1993
 3478TP3     H122253   2.378   1.082   0.187 -0.5811 -0.0202 -0.2692
 3478TP3     H222254   2.343   0.954   0.114 -1.5261 -1.3372  2.4565
 3479TP3      O22255   1.817   4.736   2.137 -0.3558  0.3000 -0.1900
 3479TP3     H122256   1.750   4.689   2.186  1.8290 -1.6306  1.0531
 3479TP3     H222257   1.800   4.828   2.154 -2.8123 -0.1442 -0.0959
 3480TP3      O22258   1.371   4.547   0.763  0.2660 -0.4150  0.2296
 3480TP3     H122259   1.396   4.639   0.769  0.4907 -0.2973 -2.1801
 3480TP3     H222260   1.307   4.536   0.833  0.4895  1.4821  0.7728
 3481TP3      O22261   0.533   1.672   9.534  0.1879 -0.1743 -0.6346
 3481TP3     H122262   0.608   1.667   9.594 -1.3202  1.0206  1.4029
 3481TP3     H222263   0.483   1.593   9.552  0.0216 -0.0885 -0.7262
 3482TP3      O22264   4.281   4.635   8.940  0.3399  0.4854 -0.2176
 3482TP3     H122265   4.196   4.671   8.915  0.6635  0.8608 -0.7846
 3482TP3     H222266   4.265   4.541   8.951 -0.0730  0.4989 -0.6634
 3483TP3      O22267   2.534   5.003   0.764 -0.5127  0.8886  0.5283
 3483TP3     H122268   2.537   4.967   0.676  0.2610  1.6371  0.2434
 3483TP3     H222269   2.466   5.071   0.761  0.5043  1.9091  0.1167
 3484TP3      O22270   3.332   4.385   7.964  0.1355 -0.0172  0.1705
 3484TP3     H122271   3.238   4.377   7.950  0.1019 -0.7954  0.8163
 3484TP3     H222272   3.340   4.424   8.051  0.3989  1.0894 -0.3426
 3485TP3      O22273   5.072   3.937   1.476  0.1445 -0.1144  0.0513
 3485TP3     H122274   4.997   3.968   1.426 -0.6624 -1.1530  0.5951
 3485TP3     H222275   5.057   3.969   1.565 -0.0350 -0.9356  0.3255
 3486TP3      O22276   2.254   4.028   0.245  0.2887 -0.3464  0.0014
 3486TP3     H122277   2.238   4.076   0.164  1.4444 -1.9879 -1.2295
 3486TP3     H222278   2.335   3.980   0.229 -0.0839 -1.6069  1.7036
 3487TP3      O22279   4.650   4.849   9.680  0.2184 -0.3198  0.2856
 3487TP3     H122280   4.642   4.873   9.772 -1.7722  0.2696 -0.0101
 3487TP3     H222281   4.563   4.815   9.657  0.6694 -0.3814 -1.3818
 3488TP3      O22282   1.011   4.462   2.065 -0.0633  0.0767  0.4020
 3488TP3     H122283   1.005   4.454   2.160 -0.7160  0.1836  0.3696
 3488TP3     H222284   1.069   4.391   2.038 -0.3220 -0.2900  0.8224
 3489TP3      O22285   3.648   4.354  10.093  0.0016 -0.5046 -0.1653
 3489TP3     H122286   3.621   4.421  10.030 -0.4278  0.2249  0.7807
 3489TP3     H222287   3.620   4.272  10.053  1.5779 -0.2429 -1.8860
 3490TP3      O22288   4.058   1.038   9.176  0.0896  0.1137  0.4043
 3490TP3     H122289   4.046   1.085   9.258 -0.8753  0.8233 -0.1348
 3490TP3     H222290   4.011   1.091   9.111  0.6397 -0.5685 -0.5530
 3491TP3      O22291   0.013   1.588   0.760 -0.4462 -0.0300  0.3975
 3491TP3     H122292  -0.082   1.588   0.751 -0.4689 -1.4798  0.5118
 3491TP3     H222293   0.031   1.653   0.827 -1.3313  0.5128  0.1128
 3492TP3      O22294   2.354   4.928   0.966 -0.3516 -0.4859 -0.0776
 3492TP3     H122295   2.289   4.959   0.904  0.4028 -0.1139 -0.6738
 3492TP3     H222296   2.430   4.904   0.913 -0.0251 -1.0051  0.6062
 3493TP3      O22297   5.473   2.264   1.347 -0.0689  0.2403  0.4021
 3493TP3     H122298   5.537   2.301   1.408 -1.2884  1.6065  0.9005
 3493TP3     H222299   5.399   2.238   1.402 -0.6019  0.1706 -0.3340
 3494TP3      O22300   2.347   4.774   1.203  0.0221  0.4232 -0.3095
 3494TP3     H122301   2.352   4.850   1.145  0.4534  0.4260 -0.2764
 3494TP3     H222302   2.436   4.766   1.238  0.7804 -1.9532 -2.6786
 3495TP3      O22303   1.722   3.467   8.817 -0.5968  0.4040  0.0431
 3495TP3     H122304   1.753   3.443   8.729 -1.9401  1.1510 -0.6464
 3495TP3     H222305   1.785   3.533   8.846 -0.2672  0.3162 -0.4475
 3496TP3      O22306   4.772   2.547   0.486 -0.3283  0.2126 -0.0320
 3496TP3     H122307   4.761   2.499   0.403  1.0474  0.4384 -0.3566
 3496TP3     H222308   4.801   2.480   0.548  0.9080  0.4767 -0.3131
 3497TP3      O22309   1.124   5.422   1.490  0.2484 -0.0323 -0.6170
 3497TP3     H122310   1.058   5.391   1.552  1.2074 -0.6354  0.1192
 3497TP3     H222311   1.198   5.447   1.545  1.3158 -1.0880 -1.5521
 3498TP3      O22312   2.331   3.291   0.494  0.2776  0.0751 -0.3910
 3498TP3     H122313   2.365   3.380   0.500 -0.5180  0.4208 -0.8925
 3498TP3     H222314   2.398   3.237   0.534  0.3208  1.0164  0.8453
 3499TP3      O22315   2.889   1.136   8.677  0.0597  0.2009  0.6039
 3499TP3     H122316   2.840   1.133   8.760  1.6176  1.1627  1.6010
 3499TP3     H222317   2.822   1.133   8.609 -1.1910 -1.7780  1.8770
 3500TP3      O22318   5.157   4.270   8.467 -0.4798 -0.5609 -0.0693
 3500TP3     H122319   5.215   4.233   8.534 -1.2083  0.9370  1.4109
 3500TP3     H222320   5.211   4.275   8.388  1.2003  0.2299  1.1231
 3501TP3      O22321   0.855   4.014   0.569 -0.1952  0.1890  0.2340
 3501TP3     H122322   0.847   4.102   0.534  2.3197  0.5245  0.4228
 3501TP3     H222323   0.856   4.025   0.664 -1.2035 -0.1769  0.2926
 3502TP3      O22324   0.633   0.652   2.788  0.5247 -0.1535 -0.0222
 3502TP3     H122325   0.595   0.671   2.702  1.0464  1.2923  0.0510
 3502TP3     H222326   0.626   0.734   2.836  0.5844 -0.8483  1.1968
 3503TP3      O22327   1.186   4.543   3.130  0.2855  0.1010  0.2327
 3503TP3     H122328   1.161   4.528   3.221 -1.5865 -1.0428 -0.4286
 3503TP3     H222329   1.146   4.470   3.082  2.3207 -0.0224 -1.3320
 3504TP3      O22330   2.906   3.612   1.789 -0.5303 -0.1786  0.4704
 3504TP3     H122331   2.977   3.672   1.810  0.4907 -1.5772  1.1007
 3504TP3     H222332   2.934   3.528   1.825 -1.3972 -1.3196 -1.4515
 3505TP3      O22333   2.887   3.553   2.488 -0.4896  0.1278  0.0605
 3505TP3     H122334   2.866   3.645   2.470  0.8871  0.6415  1.0345
 3505TP3     H222335   2.802   3.513   2.508 -1.0322  1.3286  0.2139
 3506TP3      O22336   0.978   2.220   9.563  0.6402  0.2876  0.6961
 3506TP3     H122337   0.999   2.198   9.654 -0.1857  1.0037  1.0636
 3506TP3     H222338   0.993   2.315   9.557 -0.3853  0.4324  0.3804
 3507TP3      O22339   1.230   1.451   0.536 -0.5218 -0.5121 -0.3333
 3507TP3     H122340   1.315   1.408   0.531 -0.9956 -1.6308  1.0620
 3507TP3     H222341   1.177   1.407   0.470 -0.0547  0.1229 -1.1401
 3508TP3      O22342   0.281   0.040   9.211  0.7492  0.1982 -0.0764
 3508TP3     H122343   0.197   0.005   9.241 -0.6427  1.7753 -2.0432
 3508TP3     H222344   0.340  -0.036   9.211 -1.1171 -1.2763 -0.3301
 3509TP3      O22345   2.636   5.295   0.669  0.8221 -0.5332 -0.0401
 3509TP3     H122346   2.671   5.333   0.749  0.7720 -2.2108  0.7837
 3509TP3     H222347   2.543   5.280   0.687  0.5640  0.0931 -0.7997
 3510TP3      O22348   2.031   3.044  10.095  0.0631 -0.2407  0.1931
 3510TP3     H122349   2.096   3.102  10.134  0.1310  0.2450 -0.6222
 3510TP3     H222350   1.988   3.098  10.029  0.2835 -1.1934 -0.7357
 3511TP3      O22351   3.206   2.309   0.998 -0.2588  0.1963  0.7047
 3511TP3     H122352   3.149   2.382   1.021 -1.4304 -1.0532  1.8640
 3511TP3     H222353   3.273   2.307   1.067  0.9937  1.4161 -0.4396
 3512TP3      O22354   2.342   1.020  10.071 -0.1328  0.1852 -0.7712
 3512TP3     H122355   2.308   0.985   9.989 -0.2421  1.5927 -1.3398
 3512TP3     H222356   2.278   1.087  10.096 -0.1935 -0.3565  0.5559
 3513TP3      O22357   0.351   0.989   8.836  0.3848  0.1807 -0.3899
 3513TP3     H122358   0.328   1.031   8.753 -2.3406 -0.0356  0.1820
 3513TP3     H222359   0.302   0.907   8.835  0.5332  0.0652  1.3040
 3514TP3      O22360   4.773   2.488   9.470  0.0072 -0.0098  0.1019
 3514TP3     H122361   4.778   2.569   9.420 -0.8641  0.0897  0.1812
 3514TP3     H222362   4.698   2.442   9.434 -0.4547 -0.0671  1.1260
 3515TP3      O22363   4.674   2.354   0.685 -0.0009  0.4993 -0.2347
 3515TP3     H122364   4.728   2.300   0.627 -0.9928  0.6255 -1.3023
 3515TP3     H222365   4.714   2.345   0.771  1.6886  0.5399 -0.9896
 3516TP3      O22366   3.932   3.713   8.714  0.7612  0.2803 -0.6073
 3516TP3     H122367   3.958   3.716   8.806 -0.6407 -0.3367 -0.1800
 3516TP3     H222368   3.878   3.634   8.707  2.2860 -0.6680 -2.3486
 3517TP3      O22369   1.232   4.682   0.004  0.7173  0.3456 -0.7962
 3517TP3     H122370   1.176   4.757   0.025 -1.2400 -1.0468 -0.8412
 3517TP3     H222371   1.256   4.645   0.088 -0.4634 -0.4652 -0.7901
 3518TP3      O22372   4.487   0.011   7.791  0.1539  0.2948 -0.5045
 3518TP3     H122373   4.572   0.003   7.748 -0.5381  1.0610 -2.0711
 3518TP3     H222374   4.475   0.105   7.802 -0.8668  0.2379 -1.0842
 3519TP3      O22375   4.351   4.812   0.799 -0.4011 -0.0482 -0.4376
 3519TP3     H122376   4.442   4.808   0.769  0.1446 -1.4452  1.3121
 3519TP3     H222377   4.323   4.901   0.779  1.5473  0.5898 -0.4344
 3520TP3      O22378   1.172   3.685   9.466 -0.4482  0.2823  0.6055
 3520TP3     H122379   1.226   3.763   9.477 -0.8703  0.3540  2.2746
 3520TP3     H222380   1.233   3.612   9.467 -0.2753  0.4344  1.4682
 3521TP3      O22381   4.932   1.617   8.569  0.4404  0.2518 -0.3362
 3521TP3     H122382   4.941   1.700   8.616 -0.2554  1.1966 -1.8455
 3521TP3     H222383   4.997   1.560   8.609  0.1951  1.1880  1.4461
 3522TP3      O22384   0.767   4.949   1.640 -0.3208 -0.0202 -0.0574
 3522TP3     H122385   0.862   4.961   1.646 -0.3147  0.3277 -0.8106
 3522TP3     H222386   0.755   4.904   1.556 -0.7107 -1.2530  0.6460
 3523TP3      O22387   4.458   1.923   1.479  0.3501 -0.6040  0.6435
 3523TP3     H122388   4.398   1.958   1.413  0.6027  0.3628  0.9187
 3523TP3     H222389   4.492   1.843   1.439  0.0621 -0.3313 -0.1718
 3524TP3      O22390   1.167   4.016   7.775  0.1092  0.0905 -0.4669
 3524TP3     H122391   1.230   4.055   7.836  0.6238  0.2780 -1.1156
 3524TP3     H222392   1.107   4.088   7.754  0.1012  0.1016 -0.4062
 3525TP3      O22393   5.256   4.343   2.360 -0.3936  0.2269 -0.4473
 3525TP3     H122394   5.327   4.369   2.301  0.5266  0.2723  0.6540
 3525TP3     H222395   5.179   4.388   2.327  0.7800  2.8796  0.3194
 3526TP3      O22396   5.382   4.882   0.325  0.2562  0.1907  0.1107
 3526TP3     H122397   5.403   4.900   0.416  2.4590  1.6305 -0.6605
 3526TP3     H222398   5.292   4.914   0.314  0.1214  0.3541  1.6476
 3527TP3      O22399   3.832   2.527   7.871  0.6432 -0.1854  0.5100
 3527TP3     H122400   3.911   2.492   7.829  0.4869  2.5654 -2.2612
 3527TP3     H222401   3.843   2.622   7.868 -2.8603  0.2708 -0.1861
 3528TP3      O22402   4.362   2.957   0.526 -0.3248  0.7090 -0.0632
 3528TP3     H122403   4.281   2.913   0.501 -1.0721  0.8342  2.0320
 3528TP3     H222404   4.347   3.049   0.507 -0.5603  0.6938  0.0540
 3529TP3      O22405   5.494   0.377   9.896 -0.1672  0.1427 -0.3091
 3529TP3     H122406   5.590   0.381   9.895 -0.1655 -0.0507 -0.7703
 3529TP3     H222407   5.467   0.455   9.848 -0.2466  0.3660  0.0936
 3530TP3      O22408   1.692   0.667   1.141  0.1427  0.2281 -0.5579
 3530TP3     H122409   1.612   0.621   1.119  0.0545 -0.5523  1.2776
 3530TP3     H222410   1.681   0.692   1.233  1.5393  1.0719 -0.5993
 3531TP3      O22411   2.789   1.732   9.620 -0.0573 -0.5195 -0.1881
 3531TP3     H122412   2.756   1.736   9.709  0.9203 -0.4235  0.1757
 3531TP3     H222413   2.853   1.661   9.622 -0.1382 -0.6109 -0.8446
 3532TP3      O22414   2.178   1.580  10.060  0.0801 -0.6990  0.1897
 3532TP3     H122415   2.170   1.635  10.138 -1.7046  2.5572 -2.1498
 3532TP3     H222416   2.087   1.559  10.036  0.6120 -1.8388 -0.9269
 3533TP3      O22417   1.267   1.050  10.077  0.4641 -0.9149 -0.1115
 3533TP3     H122418   1.295   1.025  10.165 -1.9120 -0.1648  0.8991
 3533TP3     H222419   1.233   0.969  10.039  2.3143 -1.4400 -0.7016
 3534TP3      O22420   3.792   3.449   0.318  0.6614  0.2678 -0.3315
 3534TP3     H122421   3.880   3.437   0.355  1.5375 -1.0417 -2.7136
 3534TP3     H222422   3.796   3.533   0.273  1.0186 -0.2859 -1.3314
 3535TP3      O22423   0.789   3.541   8.834  0.3086  0.3848 -0.6373
 3535TP3     H122424   0.694   3.535   8.843  0.0978  2.5531 -0.9887
 3535TP3     H222425   0.823   3.523   8.922 -0.4731  0.3968 -0.3309
 3536TP3      O22426   3.239   0.267   1.122 -0.0405 -0.0686 -0.6220
 3536TP3     H122427   3.228   0.189   1.068  0.6837 -1.4155  1.1040
 3536TP3     H222428   3.172   0.258   1.191  1.7796 -0.5530  1.1272
 3537TP3      O22429   3.592   5.452  10.044 -0.0385 -0.0175 -0.3796
 3537TP3     H122430   3.534   5.386  10.005 -0.8310  0.7590 -0.5245
 3537TP3     H222431   3.602   5.423  10.135  1.4786 -1.6022 -1.0090
 3538TP3      O22432   0.526   3.096   2.662  0.0740 -0.0383 -0.1736
 3538TP3     H122433   0.584   3.161   2.622 -0.3516  0.4621  0.0188
 3538TP3     H222434   0.495   3.042   2.589  0.7307 -0.2699 -0.2840
 3539TP3      O22435   2.526   1.463   3.038  0.1005  0.2760  0.6660
 3539TP3     H122436   2.453   1.508   3.081 -0.6310 -0.8458  0.6312
 3539TP3     H222437   2.565   1.408   3.106 -0.7220 -1.0925  0.0724
 3540TP3      O22438   3.751   0.222   7.675  0.2424 -0.2630 -0.2944
 3540TP3     H122439   3.770   0.259   7.588  0.5889 -1.1306 -0.5910
 3540TP3     H222440   3.736   0.299   7.730 -1.3216  0.2612 -1.4151
 3541TP3      O22441   4.333   4.494   1.545  0.3062 -0.3191 -0.0465
 3541TP3     H122442   4.238   4.494   1.547  0.2673 -3.2135  1.5648
 3541TP3     H222443   4.355   4.429   1.478  1.1271 -0.3512  0.2494
 3542TP3      O22444   3.926   0.785   2.677  0.0161 -0.1246  1.0648
 3542TP3     H122445   3.887   0.871   2.689 -2.1161 -0.7739 -0.8584
 3542TP3     H222446   3.958   0.761   2.764  3.1412  3.7074  1.1296
 3543TP3      O22447   2.952   0.717   0.002 -0.0018 -0.4492 -0.4314
 3543TP3     H122448   2.921   0.743   0.089 -0.4725  0.0851 -0.7618
 3543TP3     H222449   3.018   0.649   0.020  0.7215  0.4586  0.3966
 3544TP3      O22450   0.413   4.308   9.594 -0.1743  0.0272  0.4288
 3544TP3     H122451   0.472   4.315   9.669 -1.4816 -0.1619  1.5054
 3544TP3     H222452   0.334   4.355   9.622  0.1565  1.9355 -1.7090
 3545TP3      O22453   2.007   2.851  10.291  0.2143  0.6715 -0.4095
 3545TP3     H122454   2.020   2.923  10.229  0.3593 -0.1852 -1.3928
 3545TP3     H222455   2.071   2.785  10.265  0.2158  0.2703  0.6093
 3546TP3      O22456   3.149   4.628   0.340  0.0593 -0.0476 -0.0294
 3546TP3     H122457   3.223   4.620   0.279  0.5481  0.5796  0.4708
 3546TP3     H222458   3.115   4.716   0.325  1.4772  0.8946  2.0285
 3547TP3      O22459   2.459   2.522   9.004  0.1470  0.3151  0.1229
 3547TP3     H122460   2.492   2.588   8.944  1.5556 -0.0772  0.4637
 3547TP3     H222461   2.482   2.553   9.091 -0.4343  0.0679  0.3754
 3548TP3      O22462   4.525   1.740   1.925 -0.3278  0.1621 -0.4300
 3548TP3     H122463   4.551   1.677   1.992 -1.3601 -0.0634 -0.2281
 3548TP3     H222464   4.561   1.705   1.843 -0.0065 -0.1368 -0.1622
 3549TP3      O22465   0.551   4.439   1.076  0.0193  0.5383  0.1934
 3549TP3     H122466   0.519   4.355   1.109 -0.7456  0.4265 -0.7926
 3549TP3     H222467   0.475   4.477   1.031  0.1686  2.0374  1.1541
 3550TP3      O22468   0.138   1.490   0.173 -0.1948 -0.2387 -1.1102
 3550TP3     H122469   0.095   1.520   0.253  0.2343 -0.6817 -0.7136
 3550TP3     H222470   0.068   1.450   0.122  0.0067 -2.3794  0.2188
 3551TP3      O22471   4.167   4.775   0.286  0.2521 -0.0848 -0.0854
 3551TP3     H122472   4.225   4.699   0.288 -0.7237 -0.8252  0.1944
 3551TP3     H222473   4.116   4.769   0.367 -0.6559  0.2203 -0.6272
 3552TP3      O22474   0.555   3.106   9.272 -0.4965 -0.5368 -0.2342
 3552TP3     H122475   0.463   3.131   9.284 -0.6800 -1.9509  1.4876
 3552TP3     H222476   0.568   3.033   9.333  2.0159  0.2279  0.2031
 3553TP3      O22477   5.110   4.018   9.626 -0.3097  0.6924  0.4768
 3553TP3     H122478   5.178   4.066   9.675 -0.8121  0.3633  1.5022
 3553TP3     H222479   5.147   3.931   9.613 -1.0271  0.1021  2.1655
 3554TP3      O22480   5.203   3.683   2.133  0.3707 -0.1793 -0.5226
 3554TP3     H122481   5.283   3.723   2.168  0.6601 -0.3403 -0.9874
 3554TP3     H222482   5.235   3.611   2.077 -0.1450 -1.5188  0.8643
 3555TP3      O22483   1.887   0.569  10.084 -0.7382 -0.3164  0.2937
 3555TP3     H122484   1.886   0.505  10.013  2.5039 -1.4933  1.2238
 3555TP3     H222485   1.913   0.651  10.042 -0.3957 -0.6484 -0.1465
 3556TP3      O22486   4.101   4.334   8.027 -0.0936 -0.1183  0.3391
 3556TP3     H122487   4.054   4.350   7.944  0.7067  2.0500  0.2724
 3556TP3     H222488   4.165   4.266   8.005 -1.3734 -1.1699 -0.2427
 3557TP3      O22489   3.340   2.830   0.235 -0.3488  0.1944  0.2130
 3557TP3     H122490   3.264   2.851   0.289  0.9132  0.5015  1.8931
 3557TP3     H222491   3.342   2.734   0.232 -1.9585  0.1688 -1.5527
 3558TP3      O22492   4.191   3.591   2.643  0.1722  0.2526 -0.5713
 3558TP3     H122493   4.181   3.604   2.737 -1.0318  2.5108 -0.9734
 3558TP3     H222494   4.156   3.504   2.626  0.4334 -0.1766  1.0667
 3559TP3      O22495   0.095   3.330   0.775 -0.0608 -0.0524  0.5925
 3559TP3     H122496   0.111   3.345   0.868 -1.8847  2.3817  0.5587
 3559TP3     H222497   0.003   3.352   0.763  0.5583  1.2058 -2.0957
 3560TP3      O22498   1.474   5.406   0.898  0.3109  0.4428 -0.0221
 3560TP3     H122499   1.525   5.472   0.852  1.3895 -1.2600 -1.3564
 3560TP3     H222500   1.481   5.328   0.843  1.5259 -1.6430  2.9487
 3561TP3      O22501   3.356   5.198   8.569 -0.1678 -0.0315  0.2692
 3561TP3     H122502   3.322   5.115   8.601  1.6597 -1.1527 -0.6049
 3561TP3     H222503   3.409   5.174   8.493 -1.4241  2.1645 -1.3543
 3562TP3      O22504   3.924   4.221   2.023 -0.1784  0.5093  0.1564
 3562TP3     H122505   3.933   4.238   2.116 -0.9506  0.9924  0.1459
 3562TP3     H222506   3.929   4.307   1.981 -1.0501  0.4220 -0.1444
 3563TP3      O22507   5.167   3.992   0.782  0.3602 -0.3181  0.0573
 3563TP3     H122508   5.202   3.993   0.871  0.6169 -2.2018  0.0053
 3563TP3     H222509   5.088   4.046   0.786  1.9486  2.0558  0.7197
 3564TP3      O22510   3.371   3.261   8.490 -0.1035  0.4500 -0.0527
 3564TP3     H122511   3.372   3.322   8.564  1.0000  1.6612 -1.0409
 3564TP3     H222512   3.293   3.284   8.440 -0.0037  0.6662 -0.1093
 3565TP3      O22513   1.095   4.455   2.330 -0.6013  0.2197 -0.5742
 3565TP3     H122514   1.120   4.368   2.362  1.1969  0.4020 -1.3811
 3565TP3     H222515   1.060   4.500   2.406  1.9907  0.0580  0.7828
 3566TP3      O22516   1.980   5.350   0.205 -0.2931  0.5480 -0.2890
 3566TP3     H122517   1.996   5.255   0.204  0.6441  0.7052 -2.1942
 3566TP3     H222518   1.885   5.358   0.218 -0.2330 -0.6214  0.9687
 3567TP3      O22519   3.503   3.626   1.187  0.0049 -0.7337  0.1916
 3567TP3     H122520   3.522   3.577   1.107 -1.2614 -2.0840  0.7063
 3567TP3     H222521   3.545   3.711   1.173  0.1701 -1.1104 -1.7257
 3568TP3      O22522   5.128   4.867   0.822  0.6447  0.1301  0.4439
 3568TP3     H122523   5.207   4.864   0.875  1.3076  1.2642 -0.4597
 3568TP3     H222524   5.084   4.948   0.846  0.9781  0.6828 -0.7561
 3569TP3      O22525   2.109   1.109   8.094  0.0444  0.2235 -0.4144
 3569TP3     H122526   2.127   1.037   8.034 -1.0989 -0.8473  0.4998
 3569TP3     H222527   2.195   1.132   8.130  0.5679  0.0828 -1.5645
 3570TP3      O22528   5.118   3.302   1.470 -0.3998  0.3340 -0.0458
 3570TP3     H122529   5.055   3.347   1.525  0.7295  0.7060  0.9621
 3570TP3     H222530   5.065   3.248   1.411 -1.6512  0.8913  0.5716
 3571TP3      O22531   4.860   3.483   2.047  0.1254 -0.7098 -0.8442
 3571TP3     H122532   4.888   3.574   2.052  0.5455 -0.8755 -0.1056
 3571TP3     H222533   4.786   3.484   1.986  0.9938 -0.0960 -1.8870
 3572TP3      O22534   2.586   3.544   9.241  0.2435  0.6179 -0.4578
 3572TP3     H122535   2.636   3.575   9.316 -1.2691 -0.3614  0.9940
 3572TP3     H222536   2.505   3.508   9.279  0.2743 -1.6240 -2.3771
 3573TP3      O22537   1.674   5.200   9.185 -0.1262 -0.2517 -0.3871
 3573TP3     H122538   1.630   5.161   9.110 -1.8051  0.8985 -0.0222
 3573TP3     H222539   1.746   5.251   9.147 -0.0697 -0.8526 -1.0991
 3574TP3      O22540   2.654   0.218   7.861 -0.4297 -0.2945 -0.0275
 3574TP3     H122541   2.716   0.179   7.923 -0.2260  1.0297  0.6192
 3574TP3     H222542   2.616   0.143   7.815  0.3819 -1.2173  0.7779
 3575TP3      O22543   2.016   5.084   2.662  0.2557 -0.5339 -0.2017
 3575TP3     H122544   1.981   5.056   2.746  0.5475 -1.9038 -0.5264
 3575TP3     H222545   1.946   5.137   2.624  0.4506  0.8212  1.2555
 3576TP3      O22546   3.973   3.853   0.105  0.4619 -0.3275 -0.1683
 3576TP3     H122547   3.979   3.924   0.041 -0.9811 -1.2133 -1.2881
 3576TP3     H222548   4.058   3.855   0.150 -0.2149  3.3355  1.1281
 3577TP3      O22549   0.648   2.478  10.110 -0.0855 -0.0810 -0.0585
 3577TP3     H122550   0.648   2.421  10.187 -1.5949 -1.0714 -0.7735
 3577TP3     H222551   0.589   2.549  10.132 -0.6690 -0.4666 -0.3663
 3578TP3      O22552   3.396   2.053   8.466 -0.0855 -0.0910 -0.1390
 3578TP3     H122553   3.341   2.005   8.527 -1.0484 -1.0190 -1.6993
 3578TP3     H222554   3.482   2.012   8.474  0.2677  1.0072  1.9071
 3579TP3      O22555   0.268   0.529  10.298  0.0540 -0.3519 -0.2308
 3579TP3     H122556   0.206   0.508  10.367  1.8854  0.0169  1.5853
 3579TP3     H222557   0.325   0.453  10.292  0.1722 -0.2113 -1.0502
 3580TP3      O22558   4.294   3.636  10.152 -0.4704  0.8591 -0.3820
 3580TP3     H122559   4.311   3.563  10.093 -2.1689 -1.1712  1.5870
 3580TP3     H222560   4.344   3.616  10.231 -1.6728  1.3581  0.5194
 3581TP3      O22561   3.578   3.363   2.086 -0.3004 -0.5210  0.6848
 3581TP3     H122562   3.591   3.448   2.046  0.7622 -0.8191  0.3976
 3581TP3     H222563   3.583   3.379   2.181  1.0804 -0.4530  0.6069
 3582TP3      O22564   1.887   3.487   1.432 -0.3827 -0.4242 -0.0493
 3582TP3     H122565   1.841   3.448   1.357  0.3137 -1.5431  0.1012
 3582TP3     H222566   1.853   3.576   1.436 -1.6999 -0.8807 -0.6478
 3583TP3      O22567   4.894   0.318   0.543  0.4326 -0.1353 -0.5653
 3583TP3     H122568   4.836   0.393   0.536 -1.8090 -1.8475 -0.9750
 3583TP3     H222569   4.922   0.318   0.635 -1.9453 -0.4850  0.1938
 3584TP3      O22570   1.306   0.093   9.839 -0.2890  0.3634 -0.0527
 3584TP3     H122571   1.303   0.028   9.769  1.4005 -0.7283  0.8432
 3584TP3     H222572   1.250   0.057   9.908  0.5227 -0.0716  0.3814
 3585TP3      O22573   4.085   3.716   2.344  0.4247 -0.2493 -0.6294
 3585TP3     H122574   3.999   3.746   2.314  0.5492  1.2477  0.4600
 3585TP3     H222575   4.146   3.753   2.280  0.4157  0.2781 -0.3373
 3586TP3      O22576   2.399   1.396  10.083  0.2545 -0.1535 -0.2571
 3586TP3     H122577   2.311   1.424  10.109  0.8897  0.1300  1.6482
 3586TP3     H222578   2.399   1.407   9.987 -0.8941  2.4356 -0.0275
 3587TP3      O22579   5.380   4.513   9.677 -0.4455 -0.1355  0.0018
 3587TP3     H122580   5.287   4.521   9.700  0.1127  0.6165  2.1016
 3587TP3     H222581   5.396   4.419   9.672 -1.4243 -0.2745 -0.9385
 3588TP3      O22582   4.541   0.090   2.237  0.4224 -0.3609  0.0859
 3588TP3     H122583   4.542  -0.005   2.230 -0.6826 -0.3147 -0.8592
 3588TP3     H222584   4.463   0.109   2.289 -0.1291  0.0838 -0.8897
 3589TP3      O22585   1.654   4.650   9.091 -0.1970 -0.1950 -0.9365
 3589TP3     H122586   1.737   4.624   9.131 -0.9340 -2.1563 -0.6154
 3589TP3     H222587   1.644   4.743   9.113  0.4080 -0.7102  1.7079
 3590TP3      O22588   0.890   0.180   1.476 -0.2464 -0.3714  0.1744
 3590TP3     H122589   0.895   0.098   1.428 -2.0269 -0.4870  0.1532
 3590TP3     H222590   0.809   0.174   1.527 -0.6490  1.5204 -0.1695
 3591TP3      O22591   4.766   5.185   7.977 -0.1480  0.5880 -0.6357
 3591TP3     H122592   4.728   5.273   7.983 -1.4014  0.0480 -0.5444
 3591TP3     H222593   4.693   5.129   7.950 -0.0629 -0.9257  2.1247
 3592TP3      O22594   2.022   1.094   2.556  0.8006  0.2787  0.1528
 3592TP3     H122595   2.075   1.019   2.530  1.2204  0.8588 -0.7077
 3592TP3     H222596   2.038   1.103   2.650 -0.6000 -1.7370  0.6005
 3593TP3      O22597   4.466   5.228   8.455  0.1555  0.0244 -0.1066
 3593TP3     H122598   4.442   5.266   8.371  1.5768  0.2162 -0.4392
 3593TP3     H222599   4.497   5.302   8.507  1.7143 -0.4624 -0.3126
 3594TP3      O22600   1.504   4.614   9.474  0.0622 -0.1397 -0.0793
 3594TP3     H122601   1.442   4.591   9.405 -0.5739 -0.4702  0.5970
 3594TP3     H222602   1.533   4.703   9.451  0.0502 -0.3395 -0.8997
 3595TP3      O22603   0.601   0.032   0.816 -0.1911  0.3080  0.2239
 3595TP3     H122604   0.589  -0.062   0.801  1.0747  0.0329  0.8021
 3595TP3     H222605   0.571   0.046   0.905 -0.7602  0.5354 -0.0015
 3596TP3      O22606   3.193   1.080   9.928 -0.1301 -0.2377  0.2715
 3596TP3     H122607   3.244   1.103  10.006 -0.0306 -2.0338  0.7494
 3596TP3     H222608   3.128   1.017   9.959  0.6363 -1.8585 -1.2959
 3597TP3      O22609   3.425   5.249   9.895 -0.2479  0.4358  0.1163
 3597TP3     H122610   3.460   5.167   9.930 -0.9628  0.3442  0.6132
 3597TP3     H222611   3.330   5.238   9.898 -0.3552  1.4143  0.5111
 3598TP3      O22612   3.253   3.286  10.305  0.0216 -0.0780 -0.2501
 3598TP3     H122613   3.229   3.194  10.301  2.0895 -0.6114 -1.0623
 3598TP3     H222614   3.349   3.287  10.297  0.1567  2.0506  1.0692
 3599TP3      O22615   4.180   3.969   9.610  0.0557 -0.1029  0.3452
 3599TP3     H122616   4.151   3.878   9.615 -0.0015 -0.1365 -0.4534
 3599TP3     H222617   4.112   4.019   9.654 -0.6356 -0.3027 -0.4868
 3600TP3      O22618   3.168   2.385   8.681  0.2627 -0.4465 -0.1128
 3600TP3     H122619   3.124   2.417   8.759  0.2326  0.9920 -0.7055
 3600TP3     H222620   3.259   2.413   8.691  0.2336 -0.1370 -0.6320
 3601TP3      O22621   1.359   3.118   9.609  0.0275 -0.3320 -0.2023
 3601TP3     H122622   1.325   3.129   9.520  1.6936 -0.7406 -0.9288
 3601TP3     H222623   1.337   3.027   9.632 -1.4260  0.1289  0.2754
 3602TP3      O22624   3.518   5.054  10.059 -0.5082  0.3362 -0.2957
 3602TP3     H122625   3.609   5.025  10.052 -0.0212  1.7701 -0.0379
 3602TP3     H222626   3.500   5.052  10.153 -0.7312  0.0834 -0.3436
 3603TP3      O22627   0.149   3.102  10.305  0.3595  0.0276 -0.2392
 3603TP3     H122628   0.119   3.082  10.217  0.5392  0.0670 -0.3087
 3603TP3     H222629   0.226   3.047  10.318  1.6279  1.6192 -0.9071
 3604TP3      O22630   2.949   0.869   8.014 -0.3540  0.1781 -0.1513
 3604TP3     H122631   2.934   0.840   7.924 -1.6211  1.1487 -0.2615
 3604TP3     H222632   2.873   0.837   8.063 -0.8565  1.7023  0.0825
 3605TP3      O22633   2.298   0.190  10.264  0.3015  0.0624  0.1736
 3605TP3     H122634   2.289   0.100  10.295  0.3592  0.2120  0.6289
 3605TP3     H222635   2.354   0.232  10.329 -0.0874  0.5436  0.1961
 3606TP3      O22636   2.558   1.192  10.217  0.0012 -0.3088 -0.2324
 3606TP3     H122637   2.509   1.112  10.197 -1.4590  0.5485 -0.0783
 3606TP3     H222638   2.505   1.263  10.182  0.0537  0.8029  1.8495
 3607TP3      O22639   2.135   4.505   2.293  0.5606 -0.1598 -0.2860
 3607TP3     H122640   2.143   4.410   2.301 -0.1069 -0.3937 -2.0758
 3607TP3     H222641   2.225   4.536   2.285  0.8122 -0.5801  0.8512
 3608TP3      O22642   3.643   5.499   0.492  0.4784  0.2282 -0.5287
 3608TP3     H122643   3.548   5.485   0.499  0.8526 -1.8890  0.7283
 3608TP3     H222644   3.660   5.503   0.398 -0.4156 -2.9135 -0.8947
 3609TP3      O22645   2.248   3.070   0.858 -0.7132 -0.0443  0.2329
 3609TP3     H122646   2.342   3.058   0.864 -0.2849  1.5210 -2.4168
 3609TP3     H222647   2.232   3.154   0.901 -0.6495  0.4722 -0.7291
 3610TP3      O22648   3.279   1.838   9.821  0.2563  0.2025 -0.3098
 3610TP3     H122649   3.192   1.859   9.857 -1.0553 -2.6971 -1.6318
 3610TP3     H222650   3.336   1.835   9.898 -1.6223 -1.6071  1.0891
 3611TP3      O22651   4.645   2.259   0.025 -0.1255  0.2890  0.1816
 3611TP3     H122652   4.692   2.180  -0.001  0.7591  1.1674 -0.9799
 3611TP3     H222653   4.553   2.233   0.030 -0.0639 -0.3815 -1.9547
 3612TP3      O22654   1.075   3.069   1.295  0.4574  0.0938 -0.3605
 3612TP3     H122655   0.983   3.069   1.319  0.7528  2.0606  0.9134
 3612TP3     H222656   1.110   3.150   1.332  2.5882 -0.3577 -1.2547
 3613TP3      O22657   4.305   0.913   0.302  0.3774 -0.0256  0.4814
 3613TP3     H122658   4.306   0.817   0.300  0.2950 -0.0462  1.4035
 3613TP3     H222659   4.398   0.937   0.312  0.6044  0.0415 -1.5619
 3614TP3      O22660   3.981   3.511   9.860  0.0755  0.5520 -0.3123
 3614TP3     H122661   3.904   3.562   9.886  0.3942  1.7918 -1.7587
 3614TP3     H222662   4.036   3.508   9.938 -0.2286  1.9216 -0.0361
 3615TP3      O22663   2.915   4.280   0.903  0.2880  0.3839 -0.0073
 3615TP3     H122664   2.986   4.230   0.943  0.5726  0.3140 -0.5934
 3615TP3     H222665   2.953   4.317   0.824 -0.2737  0.5038 -0.2269
 3616TP3      O22666   4.232   2.593   0.186  0.7068  0.3108 -0.3129
 3616TP3     H122667   4.233   2.521   0.123  1.1281 -0.1770  0.2470
 3616TP3     H222668   4.324   2.620   0.193  0.7011  0.1608  0.3233
 3617TP3      O22669   3.956   5.023   3.145 -0.0773 -0.3294  0.3213
 3617TP3     H122670   3.893   5.089   3.177  0.7129 -0.1104  1.4622
 3617TP3     H222671   3.912   4.940   3.158  0.7859 -0.3576  3.4229
 3618TP3      O22672   0.793   2.706   0.035  0.7101  0.0962  0.3251
 3618TP3     H122673   0.845   2.700   0.115  1.1931  2.5429  0.2107
 3618TP3     H222674   0.855   2.691  -0.036  0.3985 -1.4265  0.3471
 3619TP3      O22675   3.467   0.583   8.661  0.5513 -0.9606 -0.1052
 3619TP3     H122676   3.516   0.612   8.738 -1.5938 -1.0294  1.3055
 3619TP3     H222677   3.478   0.488   8.660 -0.9668 -1.1670  1.2199
 3620TP3      O22678   2.552   0.819   9.207 -0.2709  0.8394 -0.3802
 3620TP3     H122679   2.487   0.876   9.247  0.5263  1.9913 -0.7230
 3620TP3     H222680   2.507   0.735   9.197 -1.3727  1.3403  0.3193
 3621TP3      O22681   4.584   0.348   7.907 -0.1023 -0.1501  0.2350
 3621TP3     H122682   4.575   0.398   7.989 -1.0354 -0.4181  0.3004
 3621TP3     H222683   4.660   0.388   7.864  0.1448  0.2718  1.0328
 3622TP3      O22684   0.594   3.715   8.426 -0.1997 -1.3137 -0.0308
 3622TP3     H122685   0.591   3.794   8.371 -3.2257  0.2340  2.1854
 3622TP3     H222686   0.674   3.725   8.477  0.5259 -0.7394 -1.2517
 3623TP3      O22687   4.447   0.519   0.318 -0.2521  0.2581  0.5834
 3623TP3     H122688   4.405   0.571   0.250 -2.0701  0.3916  1.7581
 3623TP3     H222689   4.394   0.536   0.397  0.0630 -2.1140  1.3487
 3624TP3      O22690   1.497   0.710   8.569  1.0733 -0.1538  0.5212
 3624TP3     H122691   1.427   0.773   8.587  2.1161  0.6961  1.6726
 3624TP3     H222692   1.574   0.765   8.551  2.1122 -1.0935  2.0208
 3625TP3      O22693   0.197   1.466   1.071 -0.4254  0.0466 -0.4027
 3625TP3     H122694   0.154   1.403   1.130 -0.7551  1.1604  0.5714
 3625TP3     H222695   0.149   1.547   1.085  1.0917  0.9530 -0.3659
 3626TP3      O22696   0.956   3.106  10.082  0.3166 -0.1249  0.3712
 3626TP3     H122697   0.927   3.058  10.160 -0.5940  0.7393  0.5713
 3626TP3     H222698   0.895   3.079  10.014  1.4910 -1.3557 -0.2127
 3627TP3      O22699   2.165   4.237   0.039  0.0244 -0.4085 -0.0757
 3627TP3     H122700   2.122   4.214  -0.043  1.5374  0.2596 -1.0823
 3627TP3     H222701   2.094   4.240   0.104 -0.9354 -2.6836 -0.9788
 3628TP3      O22702   0.271   3.370   7.439 -0.1724  0.1674  0.2609
 3628TP3     H122703   0.223   3.386   7.357 -0.1963  0.0992  0.2617
 3628TP3     H222704   0.328   3.447   7.448  0.2750 -0.1101 -0.1378
 3629TP3      O22705   3.868   0.757   9.744  0.1975  0.7282 -0.8280
 3629TP3     H122706   3.787   0.801   9.719 -0.1246 -0.0954 -1.2760
 3629TP3     H222707   3.923   0.760   9.666  0.6503  1.3830 -0.4904
 3630TP3      O22708   2.942   2.909  10.233  0.3319 -0.8874  0.1989
 3630TP3     H122709   3.035   2.897  10.216  0.2986 -0.2186 -0.4568
 3630TP3     H222710   2.937   2.933  10.326  0.9527  0.7759 -0.1945
 3631TP3      O22711   4.622   1.847   9.671  0.1378 -0.4390  0.1992
 3631TP3     H122712   4.692   1.783   9.658 -0.2115 -0.8058  0.0922
 3631TP3     H222713   4.570   1.811   9.743  0.1042 -0.1293  0.3301
 3632TP3      O22714   4.838   3.267   7.846  0.0943 -0.1515  0.1279
 3632TP3     H122715   4.808   3.212   7.774  0.6162  1.4505 -1.3538
 3632TP3     H222716   4.930   3.285   7.825 -0.2681  1.8553  0.1904
 3633TP3      O22717   3.538   3.219   9.993 -0.4493  0.1964  0.5949
 3633TP3     H122718   3.444   3.235  10.000 -0.6144 -0.4800  0.0639
 3633TP3     H222719   3.546   3.161   9.917  0.4427  0.6395  0.3442
 3634TP3      O22720   0.654   4.360   1.784  0.0168  0.2142 -0.3938
 3634TP3     H122721   0.737   4.404   1.800 -0.6065  1.1864  0.2142
 3634TP3     H222722   0.588   4.418   1.822 -1.1013  0.3705 -2.4875
 3635TP3      O22723   3.444   4.815   9.887  0.5379 -0.0872  0.4013
 3635TP3     H122724   3.443   4.825   9.792  0.8539  0.8664  0.5016
 3635TP3     H222725   3.453   4.904   9.921  0.0346 -0.3891  1.3334
 3636TP3      O22726   3.330   4.802   8.995 -0.4170 -0.1302  0.0035
 3636TP3     H122727   3.246   4.838   9.024 -0.9684 -0.0588 -1.6671
 3636TP3     H222728   3.394   4.871   9.016 -0.6560 -0.4607  1.8957
 3637TP3      O22729   0.592   2.170   0.755 -1.0904 -0.5170  0.4175
 3637TP3     H122730   0.553   2.167   0.667 -0.5479 -0.2504  0.1626
 3637TP3     H222731   0.593   2.079   0.784 -0.6330 -0.6911 -0.1392
 3638TP3      O22732   2.957   1.282   9.821  0.2962  0.0691 -0.3172
 3638TP3     H122733   3.041   1.241   9.841  1.0174  0.8393 -1.6771
 3638TP3     H222734   2.905   1.271   9.901  1.1688 -1.6916  0.0293
 3639TP3      O22735   3.856   2.729   9.275 -0.1569 -0.3510 -0.1633
 3639TP3     H122736   3.942   2.762   9.251 -0.0960 -0.2196  0.2212
 3639TP3     H222737   3.808   2.807   9.302 -0.0504 -0.5602  0.6415
 3640TP3      O22738   1.594   0.038   7.147 -0.5487 -0.3987 -0.0293
 3640TP3     H122739   1.540   0.059   7.224  0.8605 -0.4710  0.9857
 3640TP3     H222740   1.580   0.112   7.088 -0.6157  0.2909  0.8394
 3641TP3      O22741   2.864   4.405   9.851  0.3786  0.4307  0.0108
 3641TP3     H122742   2.796   4.455   9.896 -0.2202  0.1578 -0.5833
 3641TP3     H222743   2.838   4.408   9.759  1.9078  1.4839 -0.3956
 3642TP3      O22744   1.382   1.139   8.623  0.3200  0.3890  0.1175
 3642TP3     H122745   1.378   1.165   8.531  2.8445 -2.7337 -0.9705
 3642TP3     H222746   1.467   1.172   8.654 -0.5560  1.5125  1.3811
 3643TP3      O22747   2.432   3.978  10.206  0.0394  0.0392 -0.1657
 3643TP3     H122748   2.445   3.897  10.255 -1.8121  0.7836  1.6618
 3643TP3     H222749   2.346   3.968  10.165  0.6903  0.2636 -1.5929
 3644TP3      O22750   0.744   3.562   7.748  0.3325  0.0280 -0.3670
 3644TP3     H122751   0.789   3.512   7.679  0.8446 -0.4867  0.3346
 3644TP3     H222752   0.655   3.525   7.749  0.6019 -0.6116 -0.1035
 3645TP3      O22753   3.950   3.253   2.155 -0.0705  0.2439 -0.4236
 3645TP3     H122754   3.998   3.335   2.164  0.1342  0.3018 -1.8761
 3645TP3     H222755   3.981   3.216   2.072  0.1966 -1.5446  0.4468
 3646TP3      O22756   4.358   3.453   9.950  0.0981 -0.3050  0.2201
 3646TP3     H122757   4.356   3.361   9.976  2.0094 -0.2736  0.5782
 3646TP3     H222758   4.359   3.451   9.854 -0.2491 -0.6516  0.2241
 3647TP3      O22759   0.953   3.212   9.243 -0.0344 -0.0425  0.5977
 3647TP3     H122760   0.889   3.150   9.208  0.0451 -0.5526  1.3488
 3647TP3     H222761   0.901   3.272   9.296 -0.1431  0.6855 -0.3103
 3648TP3      O22762   0.209   3.240   1.230  0.4529  0.3103  0.0137
 3648TP3     H122763   0.174   3.326   1.206 -1.4470 -0.2901  0.5656
 3648TP3     H222764   0.136   3.195   1.273  1.3455 -1.6820 -0.4902
 3649TP3      O22765   1.265   4.844   0.341 -0.0817 -0.0331 -0.0168
 3649TP3     H122766   1.248   4.938   0.351  0.6178 -0.0397  1.3384
 3649TP3     H222767   1.355   4.840   0.307 -0.0210 -0.2222  0.1694
 3650TP3      O22768   3.346   0.350   0.015  0.0036  0.0969 -0.7563
 3650TP3     H122769   3.395   0.427   0.043 -0.2598 -0.6139  1.7959
 3650TP3     H222770   3.410   0.297  -0.033  0.4166  1.4336 -1.7271
 3651TP3      O22771   1.410   4.838   0.754  0.4275 -0.1255 -0.1106
 3651TP3     H122772   1.468   4.884   0.693 -0.7869  0.2379 -1.0288
 3651TP3     H222773   1.322   4.848   0.715 -0.1907 -1.0148  1.0222
 3652TP3      O22774   2.692   5.392   8.985 -0.2874  0.1078 -0.5051
 3652TP3     H122775   2.640   5.461   8.943 -0.0411  1.9890  2.1484
 3652TP3     H222776   2.783   5.421   8.973 -0.1347 -0.2344 -0.1655
 3653TP3      O22777   1.012   3.493   9.288  0.2877  0.6221  0.5378
 3653TP3     H122778   1.030   3.555   9.359 -0.8091  0.2611  1.1368
 3653TP3     H222779   1.088   3.435   9.286  1.2714  1.9041  0.0456
 3654TP3      O22780   2.783   1.520   2.668  0.4049  0.6873  0.5236
 3654TP3     H122781   2.763   1.612   2.654  2.5088  1.0243 -0.4457
 3654TP3     H222782   2.875   1.519   2.693  0.2359 -1.1143  1.1698
 3655TP3      O22783   5.412   2.064   8.335 -0.1265 -0.0594 -0.1247
 3655TP3     H122784   5.437   2.151   8.303 -0.1566  0.4181  1.1417
 3655TP3     H222785   5.377   2.080   8.423  1.3515 -1.5609  0.7426
 3656TP3      O22786   4.116   5.269  10.157 -0.4542  0.3776  0.3395
 3656TP3     H122787   4.052   5.228  10.099 -0.7128  2.0107 -0.5596
 3656TP3     H222788   4.181   5.200  10.173 -0.6036 -0.2403 -1.5599
 3657TP3      O22789   4.003   4.178   8.844  0.4160  0.2871 -0.1150
 3657TP3     H122790   3.917   4.158   8.882  0.6550 -1.5835 -0.5054
 3657TP3     H222791   4.047   4.230   8.911 -0.2579 -0.4832  0.9428
 3658TP3      O22792   4.182   5.019   7.624 -0.2019 -0.3586  0.4802
 3658TP3     H122793   4.207   5.054   7.538 -1.5972 -1.0044 -0.2120
 3658TP3     H222794   4.161   5.097   7.676  0.9963  0.0539  0.3574
 3659TP3      O22795   3.068   1.363   8.809  0.3064  0.2262  0.3420
 3659TP3     H122796   3.014   1.284   8.798 -1.5989  1.3426  1.3968
 3659TP3     H222797   3.079   1.397   8.720 -0.4536 -0.2048  0.0755
 3660TP3      O22798   2.457   2.481  10.275 -0.7079  0.3579  0.3009
 3660TP3     H122799   2.526   2.486  10.342  1.1922 -0.7226 -1.5188
 3660TP3     H222800   2.466   2.563  10.226 -0.8411  0.3115  0.1993
 3661TP3      O22801   1.703   3.265   0.617 -1.0385  0.3058 -0.1354
 3661TP3     H122802   1.631   3.252   0.679 -0.5991 -1.0809  0.1043
 3661TP3     H222803   1.761   3.327   0.661 -0.9335 -0.3530  0.6799
 3662TP3      O22804   1.246   3.617   2.691 -0.4905  0.0765  0.1573
 3662TP3     H122805   1.201   3.607   2.775  0.5745  0.0534  0.7371
 3662TP3     H222806   1.250   3.528   2.656 -0.0169 -0.0729  0.5755
 3663TP3      O22807   3.932   4.071   1.142  0.2266  0.2711 -0.0028
 3663TP3     H122808   3.958   4.159   1.113  2.4449 -0.8775 -1.6443
 3663TP3     H222809   3.895   4.030   1.065 -0.0283 -0.5371  0.5433
 3664TP3      O22810   2.756   3.732   0.649  0.2181  0.8004  0.4044
 3664TP3     H122811   2.672   3.686   0.656  0.0646  1.4387  3.7715
 3664TP3     H222812   2.735   3.823   0.670  1.5083  1.2583 -0.2455
 3665TP3      O22813   5.219   2.203   0.520  0.3378 -0.2206 -0.5238
 3665TP3     H122814   5.159   2.206   0.446  0.6123  0.1006 -0.7417
 3665TP3     H222815   5.288   2.265   0.496  0.7595 -0.5966 -0.2858
 3666TP3      O22816   2.742   0.076   8.643 -0.6593 -0.0869 -0.0818
 3666TP3     H122817   2.817   0.131   8.617  0.5926 -0.9405  1.6612
 3666TP3     H222818   2.716   0.033   8.562  0.5410  0.4526 -0.7834
 3667TP3      O22819   0.650   4.195   9.489 -0.1541 -0.3266 -0.0549
 3667TP3     H122820   0.569   4.244   9.503 -1.3907 -1.9022 -1.3710
 3667TP3     H222821   0.714   4.261   9.463 -1.4985  0.7280 -0.7659
 3668TP3      O22822   3.395   3.182   0.219  0.1916 -0.1688 -0.1054
 3668TP3     H122823   3.474   3.202   0.269  0.0474  2.0880 -0.7202
 3668TP3     H222824   3.422   3.192   0.127 -0.3302 -1.2709 -0.3897
 3669TP3      O22825   2.261   4.044   9.460 -0.5148 -0.7108 -0.5799
 3669TP3     H122826   2.245   4.044   9.554 -0.6548 -0.9316 -0.6035
 3669TP3     H222827   2.250   4.136   9.434  0.8976 -0.4089 -0.1553
 3670TP3      O22828   4.576   0.272   0.028  0.0305 -0.4859  0.0617
 3670TP3     H122829   4.563   0.220   0.108  2.2020  0.6267  1.2123
 3670TP3     H222830   4.601   0.207  -0.038  2.3470 -1.0490  1.3880
 3671TP3      O22831   4.734   3.333   2.839  0.2972  0.1545  0.1232
 3671TP3     H122832   4.647   3.301   2.861 -0.2095  0.6284 -1.1894
 3671TP3     H222833   4.780   3.335   2.923 -0.6009 -1.1460  0.6564
 3672TP3      O22834   0.064   4.854   0.139 -0.0456  0.0320 -0.2673
 3672TP3     H122835   0.121   4.929   0.156  0.7147 -0.6771  0.3611
 3672TP3     H222836  -0.007   4.863   0.202 -0.6106  0.8875 -1.0123
 3673TP3      O22837   1.212   1.442   1.056 -0.3388  0.2119 -0.5781
 3673TP3     H122838   1.225   1.482   1.142 -2.9739  1.5813 -0.7570
 3673TP3     H222839   1.189   1.516   0.999 -0.6541 -0.9534 -1.9903
 3674TP3      O22840   2.612   1.605   1.220 -0.1683  0.0125  0.0631
 3674TP3     H122841   2.679   1.670   1.202 -0.8925  0.5656 -0.6432
 3674TP3     H222842   2.534   1.636   1.174 -0.3822 -1.6118 -0.7134
 3675TP3      O22843   3.670   3.847   1.404 -0.1771 -0.0304  0.0724
 3675TP3     H122844   3.587   3.892   1.415  0.1318  0.1562  1.7071
 3675TP3     H222845   3.691   3.857   1.311 -0.4767  2.5352  0.2681
 3676TP3      O22846   3.658   0.604   0.595 -0.4336 -0.3972 -0.3152
 3676TP3     H122847   3.626   0.520   0.629  2.5188 -0.9730  1.2162
 3676TP3     H222848   3.742   0.617   0.640 -1.4487  4.0430  0.4792
 3677TP3      O22849   1.698   2.954   8.306 -0.2278  0.4808 -0.3756
 3677TP3     H122850   1.762   3.003   8.358  0.6224  0.7373 -1.6190
 3677TP3     H222851   1.613   2.986   8.336  0.1769 -0.5237  1.9515
 3678TP3      O22852   4.016   1.243   9.651  0.0242  0.3717 -0.0108
 3678TP3     H122853   4.060   1.261   9.735  0.3276  0.5677 -0.2090
 3678TP3     H222854   3.956   1.317   9.640 -0.3425  0.1144  0.2500
 3679TP3      O22855   4.273   0.560   9.567 -0.3013 -0.2282 -0.5876
 3679TP3     H122856   4.339   0.529   9.505 -0.1517 -1.4208  0.1423
 3679TP3     H222857   4.290   0.653   9.576  0.8895 -0.4064 -0.8999
 3680TP3      O22858   4.855   3.009   7.687 -0.7621  0.0629 -0.1315
 3680TP3     H122859   4.901   2.959   7.753 -1.3129  1.3018  1.2227
 3680TP3     H222860   4.906   2.996   7.607  0.7883 -0.2150  0.8784
 3681TP3      O22861   3.411   4.881   9.605 -0.1988 -0.0396  0.3246
 3681TP3     H122862   3.353   4.811   9.574  0.8220  0.9438 -4.1633
 3681TP3     H222863   3.399   4.952   9.542  3.1645  1.5319  1.3275
 3682TP3      O22864   3.126   5.420   2.752  0.5759 -0.3403  0.0419
 3682TP3     H122865   3.100   5.353   2.690 -1.4180 -0.8242  1.3436
 3682TP3     H222866   3.113   5.379   2.838  1.7007  0.8638  0.8055
 3683TP3      O22867   1.993   0.265   9.662  0.3938  0.2824 -0.2445
 3683TP3     H122868   2.064   0.208   9.634  1.5174  1.8883 -0.7282
 3683TP3     H222869   2.029   0.353   9.656 -1.8138  1.1599 -0.9893
 3684TP3      O22870   1.667   5.513   0.475  0.2180 -0.4814  0.3653
 3684TP3     H122871   1.669   5.461   0.394  2.0437 -0.6091  0.4558
 3684TP3     H222872   1.658   5.603   0.445 -1.5871 -0.7320  0.1388
 3685TP3      O22873   0.216   4.430   3.407 -0.7461 -0.0556  0.4162
 3685TP3     H122874   0.231   4.513   3.360 -0.5823  0.2861  1.0663
 3685TP3     H222875   0.199   4.366   3.337  2.6933 -0.2555 -0.3373
 3686TP3      O22876   3.050   0.470   8.346 -0.2942  0.3244  0.0452
 3686TP3     H122877   3.088   0.555   8.324 -2.3992  1.3378  0.1869
 3686TP3     H222878   2.968   0.491   8.391 -0.3848 -1.7798  0.9557
 3687TP3      O22879   3.258   4.242   8.760 -0.9822  0.1457  0.2356
 3687TP3     H122880   3.235   4.160   8.716  1.0207  0.2598 -1.1051
 3687TP3     H222881   3.216   4.309   8.707  0.0944  0.1743 -0.6076
 3688TP3      O22882   3.297   3.809   0.629 -0.2672 -0.2948  0.0675
 3688TP3     H122883   3.296   3.717   0.656  0.5529 -0.5002 -0.5716
 3688TP3     H222884   3.269   3.807   0.537  0.7764 -0.0178 -0.2582
 3689TP3      O22885   2.528   3.998   9.475 -0.0183  0.4605 -0.0336
 3689TP3     H122886   2.540   4.085   9.436 -2.8425  2.0681  2.4912
 3689TP3     H222887   2.443   3.969   9.442  1.5376 -2.0511 -2.0105
 3690TP3      O22888   4.197   0.328   8.091 -0.4310  0.0252  0.6164
 3690TP3     H122889   4.201   0.395   8.023 -0.5051 -0.4553  0.1348
 3690TP3     H222890   4.283   0.333   8.134 -0.0828 -0.2101 -0.0386
 3691TP3      O22891   1.000   1.981   0.905  0.7180  0.3024  0.1504
 3691TP3     H122892   0.967   2.017   0.823  1.3126  2.4637  0.8174
 3691TP3     H222893   1.093   2.004   0.906  1.0208 -0.9238  0.7825
 3692TP3      O22894   5.043   2.890  10.034 -0.3888  0.0948 -0.0359
 3692TP3     H122895   5.131   2.904   9.999  0.6316 -0.9796  2.0074
 3692TP3     H222896   5.036   2.795  10.043 -2.1925  0.1026 -1.2531
 3693TP3      O22897   2.649   0.961   7.618 -0.1828 -0.2904 -0.4204
 3693TP3     H122898   2.605   0.915   7.689  1.0760  0.9619  1.1950
 3693TP3     H222899   2.581   1.014   7.577 -0.2914  1.2602  1.7389
 3694TP3      O22900   0.804   0.673   1.656  0.1112 -0.0290 -0.2661
 3694TP3     H122901   0.882   0.624   1.629 -1.4505 -2.4432 -0.5512
 3694TP3     H222902   0.836   0.738   1.718  2.3439 -0.9844 -0.3901
 3695TP3      O22903   3.156   1.509   1.217 -0.8046 -0.0023  0.1108
 3695TP3     H122904   3.174   1.481   1.127  1.3267  0.0238  0.5232
 3695TP3     H222905   3.093   1.580   1.207 -2.5075 -1.6360 -1.2097
 3696TP3      O22906   0.609   4.469   0.743  0.4005 -0.1011 -0.5062
 3696TP3     H122907   0.589   4.375   0.746  1.0135 -0.1994  0.8295
 3696TP3     H222908   0.539   4.509   0.795 -0.7391  0.3437 -2.3615
 3697TP3      O22909   0.132   4.428   7.949  0.3259 -0.5756 -0.1319
 3697TP3     H122910   0.047   4.443   7.992  0.3074  0.4320 -0.5154
 3697TP3     H222911   0.166   4.516   7.931  0.8947 -0.9775 -1.0717
 3698TP3      O22912   2.800   3.842   0.173 -0.9780 -0.3018  0.0473
 3698TP3     H122913   2.832   3.913   0.229 -1.0890 -0.4686  0.3211
 3698TP3     H222914   2.841   3.859   0.088  0.2281 -0.7867  0.5207
 3699TP3      O22915   4.913   1.241   0.316  0.3431 -0.0285  0.4153
 3699TP3     H122916   4.935   1.216   0.227  2.1492 -0.2170  0.8950
 3699TP3     H222917   4.989   1.291   0.347 -0.2979  0.1225  1.8092
 3700TP3      O22918   2.776   1.656   0.477  0.4056  0.3383 -0.2557
 3700TP3     H122919   2.754   1.601   0.402 -0.5860  0.9063 -0.3867
 3700TP3     H222920   2.723   1.620   0.549 -1.0881  1.8115 -0.6081
 3701TP3      O22921   3.204   4.057   8.588  0.5022 -0.4428 -0.1133
 3701TP3     H122922   3.239   4.094   8.506  1.2707 -0.9398 -0.0107
 3701TP3     H222923   3.224   3.964   8.583  1.2199 -0.3510  0.9833
 3702TP3      O22924   2.500   1.060   1.712 -0.1972  0.0372 -0.3352
 3702TP3     H122925   2.433   1.129   1.711  0.2591  0.4777 -1.8779
 3702TP3     H222926   2.565   1.089   1.649  1.5714 -0.2972  1.2836
 3703TP3      O22927   3.493   1.088   0.394  0.6935  0.3954 -0.5934
 3703TP3     H122928   3.406   1.059   0.366  0.9058 -0.6408 -0.2142
 3703TP3     H222929   3.486   1.183   0.399 -1.2208  0.1869  2.0071
 3704TP3      O22930   0.852   0.754  10.094 -0.3020  0.9800 -0.3637
 3704TP3     H122931   0.900   0.672  10.099  1.1928  1.8812  0.1912
 3704TP3     H222932   0.842   0.770  10.000  0.5180  0.8038 -0.4851
 3705TP3      O22933   2.943   0.430   7.437  0.2340 -0.0235  0.1068
 3705TP3     H122934   2.956   0.494   7.367  0.5297  2.0039  1.9553
 3705TP3     H222935   2.849   0.435   7.457  0.2536 -0.1656  0.2382
 3706TP3      O22936   4.866   3.699  10.062 -0.0825 -0.0193  0.4464
 3706TP3     H122937   4.786   3.647  10.057  0.4705 -1.0059  1.4595
 3706TP3     H222938   4.848   3.777  10.009 -1.5587 -0.4186  0.3377
 3707TP3      O22939   4.695   3.312   0.838  0.2118 -0.1084 -0.2096
 3707TP3     H122940   4.657   3.380   0.782 -1.3610 -2.6098 -2.2883
 3707TP3     H222941   4.771   3.281   0.790  1.0776  0.3480  0.8573
 3708TP3      O22942   4.508   3.092   8.402 -0.1534  0.0702 -0.2594
 3708TP3     H122943   4.451   3.016   8.396 -1.6384  1.3730 -3.6642
 3708TP3     H222944   4.450   3.164   8.428  0.8951  0.4375  1.1476
 3709TP3      O22945   0.768   0.720   0.206  0.1106 -0.3970  0.0032
 3709TP3     H122946   0.710   0.685   0.138  0.6142 -1.4803  0.1348
 3709TP3     H222947   0.821   0.785   0.159 -2.4158  1.9517  0.2527
 3710TP3      O22948   3.180   0.896   8.417 -0.2269 -0.1610  0.0491
 3710TP3     H122949   3.101   0.843   8.408  0.4481 -1.1494 -0.1154
 3710TP3     H222950   3.251   0.832   8.424  0.4780  0.7141  0.9443
 3711TP3      O22951   1.074   4.645   0.971  0.2399  0.0463  0.2090
 3711TP3     H122952   1.128   4.691   1.034 -0.3694 -0.4561  1.1087
 3711TP3     H222953   1.020   4.586   1.024 -1.1578  0.5062 -0.6723
 3712TP3      O22954   1.657   5.025   2.458 -0.0254  0.5055  0.4292
 3712TP3     H122955   1.658   5.094   2.524  0.5517  2.1013 -1.2195
 3712TP3     H222956   1.724   5.051   2.394 -0.8140 -0.8061 -0.9667
 3713TP3      O22957   2.398   3.889   8.968 -0.3515  0.2159 -1.0269
 3713TP3     H122958   2.394   3.857   9.058  1.0845  0.3877 -0.9004
 3713TP3     H222959   2.433   3.815   8.918 -0.7558  0.2617 -1.3856
 3714TP3      O22960   3.115   0.769   9.233  0.1919  0.1158  0.5044
 3714TP3     H122961   3.154   0.820   9.304 -0.0771  0.8235  0.1454
 3714TP3     H222962   3.031   0.811   9.216  0.2097 -0.1085 -0.1733
 3715TP3      O22963   0.791   0.574   1.028  0.2526  0.5150 -0.7051
 3715TP3     H122964   0.811   0.564   1.121 -1.4406  1.8716 -0.1716
 3715TP3     H222965   0.876   0.578   0.986  1.0627 -2.4176  0.4924
 3716TP3      O22966   0.308   3.232   7.658 -0.0426 -0.4432  0.3562
 3716TP3     H122967   0.227   3.190   7.687  0.4760 -2.5740 -1.1572
 3716TP3     H222968   0.299   3.237   7.562  1.2451  0.0598  0.2548
 3717TP3      O22969   1.290   0.620   0.888 -0.3738 -0.2248 -0.5005
 3717TP3     H122970   1.217   0.678   0.867 -0.9349 -1.4267 -1.9966
 3717TP3     H222971   1.308   0.574   0.805 -0.6051 -2.8672  0.8611
 3718TP3      O22972   1.463   4.627   2.537 -0.0291  0.4190 -0.0739
 3718TP3     H122973   1.496   4.538   2.548 -0.1856  0.3273 -0.3458
 3718TP3     H222974   1.542   4.682   2.533  0.1743 -0.0010 -2.6085
 3719TP3      O22975   0.664   1.172   8.934 -0.4360  0.7199 -0.9487
 3719TP3     H122976   0.710   1.256   8.931  0.1943  0.4222 -0.0012
 3719TP3     H222977   0.720   1.116   8.988 -1.1856 -0.1009 -1.0120
 3720TP3      O22978   1.716   4.432   9.497  0.1945 -0.1372 -0.0705
 3720TP3     H122979   1.677   4.347   9.516  0.4141 -0.2970 -0.3234
 3720TP3     H222980   1.642   4.488   9.475  0.1293 -0.5217 -0.8456
 3721TP3      O22981   1.013   4.321   1.163 -0.4779  0.0305  0.6600
 3721TP3     H122982   1.065   4.395   1.196 -0.4309 -0.4235  1.6190
 3721TP3     H222983   0.952   4.361   1.101  1.2339  0.5254 -0.7456
 3722TP3      O22984   2.296   4.032   2.517 -0.6871  0.1783 -0.1409
 3722TP3     H122985   2.368   3.995   2.568 -1.1955 -0.4842  0.1015
 3722TP3     H222986   2.231   3.962   2.512 -0.9090  0.4441 -1.1730
 3723TP3      O22987   2.444   1.272   6.997  0.4839 -0.2345 -0.0497
 3723TP3     H122988   2.467   1.349   7.049  1.0241 -1.0009  0.8711
 3723TP3     H222989   2.515   1.210   7.014  0.0531 -0.9383 -0.7782
 3724TP3      O22990   2.954   5.457   1.137 -0.0325  0.7563  0.0082
 3724TP3     H122991   2.887   5.477   1.202 -0.2616  0.9692 -0.2892
 3724TP3     H222992   2.924   5.502   1.058  0.1749  0.3943 -0.2780
 3725TP3      O22993   4.347   3.953   0.771  0.4022 -0.1825  0.3349
 3725TP3     H122994   4.308   3.924   0.853 -1.8001 -0.0888 -0.6517
 3725TP3     H222995   4.322   4.046   0.764  2.6476  0.4920  0.7246
 3726TP3      O22996   1.321   4.190   0.473 -0.4558 -0.1073 -0.3548
 3726TP3     H122997   1.383   4.262   0.485 -0.9238  0.1066  0.8613
 3726TP3     H222998   1.376   4.113   0.457  0.2493 -0.3364  2.8157
 3727TP3      O22999   1.670   0.357   2.217  0.4422  0.3419 -0.2397
 3727TP3     H123000   1.610   0.282   2.214 -0.3311  0.9113  0.5793
 3727TP3     H223001   1.753   0.320   2.246  0.0297 -0.1863  0.2873
 3728TP3      O23002   2.379   4.996   2.028  0.1097  0.1112 -0.2827
 3728TP3     H123003   2.300   5.048   2.020  0.4768  1.1386  2.3674
 3728TP3     H223004   2.348   4.908   2.047 -0.4072  0.5004  0.6922
 3729TP3      O23005   1.861   2.783   8.036  0.2800  0.2184  0.1190
 3729TP3     H123006   1.857   2.876   8.061  0.7130 -0.1007  1.4482
 3729TP3     H223007   1.827   2.781   7.947 -1.6441  1.3778  0.7897
 3730TP3      O23008   0.310   1.304   7.814 -0.2178  0.1004 -0.2405
 3730TP3     H123009   0.242   1.344   7.760  0.5197  1.7605  0.0226
 3730TP3     H223010   0.364   1.378   7.844 -0.9192 -0.6878  3.2305
 3731TP3      O23011   5.373   4.587   1.588 -0.4735 -0.8553 -0.4381
 3731TP3     H123012   5.455   4.636   1.589 -0.7101 -0.4598 -0.1316
 3731TP3     H223013   5.389   4.513   1.530 -0.0571 -0.5037 -0.7680
 3732TP3      O23014   1.964   3.649   1.121 -0.3558  0.1729 -0.0069
 3732TP3     H123015   2.052   3.644   1.159  0.5985  1.9859 -1.8827
 3732TP3     H223016   1.941   3.741   1.126 -1.2978  0.0287 -1.3606
 3733TP3      O23017   4.788   1.104   0.550 -0.2507 -0.1575 -0.5034
 3733TP3     H123018   4.787   1.113   0.455 -2.4114  1.3767 -0.3608
 3733TP3     H223019   4.876   1.133   0.575  0.5052 -1.0378 -2.0490
 3734TP3      O23020   0.965   4.689   8.709 -0.1996  0.2184  0.2622
 3734TP3     H123021   1.041   4.641   8.675 -0.5981  1.0541 -1.8952
 3734TP3     H223022   0.979   4.779   8.679 -1.9889  0.3917 -0.0778
 3735TP3      O23023   4.592   5.236   9.842 -0.4970 -0.2659  0.3668
 3735TP3     H123024   4.565   5.271   9.926 -1.9661 -1.1071  0.2490
 3735TP3     H223025   4.556   5.298   9.778  2.7858  1.8172  0.4025
 3736TP3      O23026   4.553   0.243   0.350 -0.2980  0.0181  0.2264
 3736TP3     H123027   4.468   0.205   0.372 -0.1677 -0.3490  0.1082
 3736TP3     H223028   4.534   0.335   0.332 -0.7896 -0.2214 -0.5062
 3737TP3      O23029   5.442   4.458   2.158  0.3163  0.2235 -0.1299
 3737TP3     H123030   5.442   4.553   2.160  1.9112  0.3244 -2.4377
 3737TP3     H223031   5.534   4.433   2.167 -0.0328 -1.0812 -0.0167
 3738TP3      O23032   0.619   2.848   8.537 -0.1073 -0.5509  0.0504
 3738TP3     H123033   0.647   2.809   8.620  0.0146 -1.4624 -0.4130
 3738TP3     H223034   0.700   2.883   8.498 -0.4117  1.3678  1.0761
 3739TP3      O23035   5.018   2.896   8.829  0.3921 -0.3423 -0.3448
 3739TP3     H123036   5.088   2.932   8.775 -0.4810  1.5906 -0.2233
 3739TP3     H223037   4.950   2.869   8.767 -0.2953  1.1904 -0.2783
 3740TP3      O23038   2.977   5.441   9.052  0.0607  0.0623  0.8618
 3740TP3     H123039   3.054   5.384   9.046 -0.9058 -1.0117 -3.2095
 3740TP3     H223040   3.009   5.527   9.024  0.0662 -0.1371  0.2286
 3741TP3      O23041   0.865   0.978   0.531 -0.5385  0.0444 -0.1963
 3741TP3     H123042   0.911   1.042   0.477  0.5792 -0.4589  0.1601
 3741TP3     H223043   0.814   1.031   0.593  1.9482  0.6162  1.4432
 3742TP3      O23044   4.543   4.988   0.204  0.1841 -0.6067  0.5878
 3742TP3     H123045   4.449   5.004   0.194  0.2461  0.5114  1.7397
 3742TP3     H223046   4.573   5.057   0.262  1.7569 -0.8796  0.1124
 3743TP3      O23047   4.205   3.174   7.939 -0.1104  0.3131 -0.1020
 3743TP3     H123048   4.220   3.181   7.845 -0.4248  0.4502 -0.1418
 3743TP3     H223049   4.228   3.083   7.960  0.4801  0.4372 -0.2145
 3744TP3      O23050   1.850   0.906   0.559  0.0664  0.7491 -0.7410
 3744TP3     H123051   1.893   0.991   0.563 -0.2188  0.9150 -1.2211
 3744TP3     H223052   1.902   0.850   0.617 -0.2668  1.4798  0.2641
 3745TP3      O23053   1.669   3.770  10.145 -0.0150  0.1140  0.2544
 3745TP3     H123054   1.581   3.758  10.180  0.2774 -0.5377  0.7817
 3745TP3     H223055   1.726   3.728  10.210  0.6864  0.5956 -0.0468
 3746TP3      O23056   0.036   2.305   8.288  0.3864 -0.4245 -0.3848
 3746TP3     H123057   0.124   2.326   8.256 -0.6642  2.2469 -1.6654
 3746TP3     H223058  -0.023   2.349   8.226 -1.8206  0.2185  2.0941
 3747TP3      O23059   4.122   4.517   9.402  0.3914  0.3077  0.1971
 3747TP3     H123060   4.190   4.573   9.364 -0.0459  0.2854 -0.6382
 3747TP3     H223061   4.047   4.576   9.414 -0.2216 -0.1901 -1.1107
 3748TP3      O23062   0.615   5.369   0.530 -0.0450 -0.2162  0.3488
 3748TP3     H123063   0.582   5.442   0.479  0.3958 -1.5387 -1.8894
 3748TP3     H223064   0.537   5.331   0.571 -0.3997  0.8117  0.6474
 3749TP3      O23065   3.727   4.997   0.557 -0.1924  0.4023  0.5891
 3749TP3     H123066   3.707   4.975   0.648  1.5216  1.4217  1.2450
 3749TP3     H223067   3.761   4.916   0.520  0.5636  0.3784  1.3166
 3750TP3      O23068   0.890   3.472   1.602  0.2860  0.4715 -0.3538
 3750TP3     H123069   0.905   3.379   1.619  3.9860  0.8776 -1.0087
 3750TP3     H223070   0.874   3.510   1.689  2.6472 -0.1564  0.3855
 3751TP3      O23071   2.455   4.815   0.272  0.3989 -0.3592  0.6872
 3751TP3     H123072   2.490   4.887   0.220 -1.0935  0.3870  0.7130
 3751TP3     H223073   2.378   4.785   0.224  1.4350 -2.4688  0.2647
 3752TP3      O23074   2.963   3.834   9.347 -0.2798 -0.1450 -0.6234
 3752TP3     H123075   2.943   3.924   9.323  1.8648 -0.0106 -2.0541
 3752TP3     H223076   3.008   3.797   9.271  1.4611 -1.5191  0.9774
 3753TP3      O23077   1.174   3.797   2.503 -0.9604  0.1454 -0.2619
 3753TP3     H123078   1.216   3.754   2.578 -1.9604 -0.7091 -0.1743
 3753TP3     H223079   1.225   3.768   2.428 -1.4724 -1.0247 -0.1746
 3754TP3      O23080   3.834   5.451   2.249  0.3189 -0.7479  0.4541
 3754TP3     H123081   3.888   5.418   2.321  1.2239 -1.0496 -0.3514
 3754TP3     H223082   3.896   5.468   2.178 -0.6135 -0.8471 -0.3964
 3755TP3      O23083   0.159   0.371   9.506  0.2152  0.2249  0.1671
 3755TP3     H123084   0.090   0.321   9.551  0.7978 -1.2048 -0.4932
 3755TP3     H223085   0.208   0.414   9.576 -0.7420  0.4496  0.6994
 3756TP3      O23086   4.135   0.650   8.396 -0.3555 -0.0816  0.2519
 3756TP3     H123087   4.222   0.677   8.427 -1.3148  0.8535  2.2211
 3756TP3     H223088   4.129   0.686   8.308  0.3591  1.8909  0.9744
 3757TP3      O23089   0.354   1.977   8.835  0.2160  0.0647 -0.4088
 3757TP3     H123090   0.351   1.944   8.925 -0.4081  0.1269 -0.4060
 3757TP3     H223091   0.326   1.903   8.781  0.7092 -0.0108 -0.5661
 3758TP3      O23092   0.670   5.517   8.806 -0.1640  0.2972  0.1751
 3758TP3     H123093   0.592   5.501   8.859  0.9526 -1.1681  1.4349
 3758TP3     H223094   0.713   5.431   8.801  0.6827  0.8050 -1.6113
 3759TP3      O23095   3.059   2.599   7.514  0.1620 -0.1362  0.0895
 3759TP3     H123096   3.024   2.661   7.451  0.2919  0.3797  0.5199
 3759TP3     H223097   3.054   2.645   7.598  1.2998 -0.2796  0.2451
 3760TP3      O23098   4.609   0.105  10.115  0.5842 -0.3833  0.6919
 3760TP3     H123099   4.683   0.119  10.056 -0.1200  0.0562 -0.0943
 3760TP3     H223100   4.587   0.013  10.104 -0.0012 -0.1347 -0.2787
 3761TP3      O23101   1.353   1.539   1.810  0.2709  0.4940  0.0576
 3761TP3     H123102   1.446   1.517   1.823  0.7088  2.1126 -0.2193
 3761TP3     H223103   1.316   1.540   1.898  0.9862  1.7924  0.3608
 3762TP3      O23104   4.611   1.826   0.341  0.1084 -0.3254  0.1192
 3762TP3     H123105   4.635   1.737   0.368  0.2609 -0.5113 -0.6387
 3762TP3     H223106   4.540   1.815   0.278 -1.0137  0.1719  1.2687
 3763TP3      O23107   0.066   1.029   9.952 -0.4729  0.1525 -0.1065
 3763TP3     H123108   0.135   0.995   9.894  0.1847 -0.3086  0.9322
 3763TP3     H223109   0.038   0.954  10.003  0.7975  1.0651  2.0071
 3764TP3      O23110   5.083   4.463   9.699 -0.0165  0.2286  0.1615
 3764TP3     H123111   5.035   4.534   9.656  0.4890 -0.6048 -1.8295
 3764TP3     H223112   5.048   4.384   9.658  2.2564 -0.4519 -0.5008
 3765TP3      O23113   1.671   3.197   0.078 -0.3751 -0.6632 -0.2089
 3765TP3     H123114   1.742   3.210   0.141  0.0944  0.3827 -0.9382
 3765TP3     H223115   1.700   3.123   0.024 -0.2134 -0.7607  0.0121
 3766TP3      O23116   0.513   3.792   8.982 -1.0583 -0.0437  0.5743
 3766TP3     H123117   0.548   3.714   9.024 -1.9398  0.6418  2.6760
 3766TP3     H223118   0.570   3.863   9.012 -1.0166  0.3118 -0.3180
 3767TP3      O23119   3.030   0.247   1.282 -0.0848  0.3866  0.1690
 3767TP3     H123120   2.952   0.296   1.308 -0.7370  0.3572 -1.6523
 3767TP3     H223121   3.024   0.165   1.330 -1.2313  0.3476 -0.0361
 3768TP3      O23122   5.201   4.508   2.904  0.4285  0.3045  0.2743
 3768TP3     H123123   5.162   4.425   2.875 -0.8253  0.9889 -0.0206
 3768TP3     H223124   5.291   4.485   2.926  1.2669 -0.3896 -3.5382
 3769TP3      O23125   0.625   1.204   7.893 -0.0387 -0.1620  0.0759
 3769TP3     H123126   0.640   1.227   7.801 -0.3397 -0.8045 -0.1413
 3769TP3     H223127   0.537   1.166   7.894  0.0546 -0.3693  0.5866
 3770TP3      O23128   0.082   4.066   7.682 -0.4650  0.3276 -0.0188
 3770TP3     H123129   0.077   4.085   7.775  1.6136 -0.0073  0.2007
 3770TP3     H223130   0.075   4.152   7.640 -2.8433  0.3400  0.3416
 3771TP3      O23131   3.165   1.680   9.617 -0.3134  0.4226  0.2330
 3771TP3     H123132   3.229   1.705   9.683 -0.3696  0.1473  0.3894
 3771TP3     H223133   3.094   1.639   9.666 -0.6785  0.8620  0.0784
 3772TP3      O23134   3.964   3.404   3.281 -0.2872 -0.6106  0.1730
 3772TP3     H123135   3.881   3.367   3.309  0.0695 -0.8779  0.8731
 3772TP3     H223136   3.943   3.493   3.254 -0.5307 -0.1779  1.7915
 3773TP3      O23137   4.977   2.611   9.977 -0.0993  0.6427 -0.2750
 3773TP3     H123138   4.965   2.643   9.888  0.9214  0.9429 -0.3088
 3773TP3     H223139   5.023   2.528   9.967  0.4192  0.8938 -0.0101
 3774TP3      O23140   5.460   0.961   8.251  0.6312 -0.3672  0.5155
 3774TP3     H123141   5.388   0.953   8.189  0.6682 -0.6120  0.5071
 3774TP3     H223142   5.453   1.051   8.284  2.3232  0.7256 -1.9573
 3775TP3      O23143   2.700   4.902   9.258 -0.0923  0.6880  0.4316
 3775TP3     H123144   2.734   4.865   9.177 -1.5698 -0.0231  0.1143
 3775TP3     H223145   2.775   4.904   9.317  0.7041  0.0455 -0.5499
 3776TP3      O23146   2.980   3.977   1.731 -0.3157 -0.5618  0.0901
 3776TP3     H123147   2.933   4.005   1.809  0.2576  0.2774  0.1404
 3776TP3     H223148   3.055   4.036   1.726 -0.6665 -0.2215 -1.4175
 3777TP3      O23149   1.546   3.571   0.045  0.0039 -0.1914 -0.5575
 3777TP3     H123150   1.630   3.611   0.069  0.2714 -0.2773 -1.3051
 3777TP3     H223151   1.482   3.642   0.054  0.2867  0.0883 -0.7213
 3778TP3      O23152   4.846   4.702   0.877 -0.3359 -0.0238  0.2642
 3778TP3     H123153   4.936   4.707   0.845 -0.3296 -0.8966  0.1399
 3778TP3     H223154   4.847   4.631   0.942 -0.6380  0.8730  1.2578
 3779TP3      O23155   0.276   0.881   1.853  0.5290  0.4961  0.8997
 3779TP3     H123156   0.352   0.940   1.852  0.5649  0.4494  0.6500
 3779TP3     H223157   0.296   0.817   1.921  0.2735  1.0516  1.4948
 3780TP3      O23158   0.168   4.941   1.842 -0.4109  0.2430 -0.3160
 3780TP3     H123159   0.163   4.948   1.938 -0.9185  1.5838 -0.4240
 3780TP3     H223160   0.084   4.974   1.812 -0.6234 -1.0785 -1.1995
 3781TP3      O23161   1.969   1.657   1.357 -0.4150  0.0834  0.6800
 3781TP3     H123162   2.015   1.679   1.276 -0.0534 -0.8432  0.6296
 3781TP3     H223163   1.910   1.731   1.372 -1.9077 -0.6624 -1.4708
 3782TP3      O23164   4.674   3.969   0.114  0.3540  0.2090 -0.6077
 3782TP3     H123165   4.758   3.944   0.152  0.3283  1.7046  0.5046
 3782TP3     H223166   4.689   4.056   0.077 -1.0017  1.0520  0.7249
 3783TP3      O23167   2.120   5.459   1.801 -0.0841  0.6655  0.2541
 3783TP3     H123168   2.155   5.456   1.712 -1.7079 -2.1107 -0.3249
 3783TP3     H223169   2.180   5.405   1.852 -0.2396  0.6851  0.4582
 3784TP3      O23170   5.352   3.303   8.224 -0.7811  0.1370  0.2264
 3784TP3     H123171   5.441   3.318   8.193 -1.2244  3.5788  0.3880
 3784TP3     H223172   5.349   3.210   8.247  2.9701  0.1351  0.9036
 3785TP3      O23173   0.409   4.882   9.657 -0.2741 -0.1567  0.3008
 3785TP3     H123174   0.425   4.813   9.592 -0.4345  1.2219 -1.2614
 3785TP3     H223175   0.451   4.851   9.737  3.4249 -0.1165 -1.5427
 3786TP3      O23176   1.968   1.345   8.166 -0.2591  0.2699 -0.3665
 3786TP3     H123177   2.013   1.277   8.116 -2.6071  0.8419 -3.4124
 3786TP3     H223178   2.014   1.426   8.142 -0.3219  0.3356 -0.2674
 3787TP3      O23179   4.296   1.965   1.149  0.6302 -0.1706 -0.4326
 3787TP3     H123180   4.354   2.039   1.164  0.5419 -0.0862 -0.5039
 3787TP3     H223181   4.208   2.000   1.163  0.5886 -0.2633 -0.4587
 3788TP3      O23182   3.079   2.571   9.777  0.3551 -0.1347  0.2797
 3788TP3     H123183   3.167   2.607   9.773  0.6012 -0.5764  1.7273
 3788TP3     H223184   3.091   2.477   9.786 -0.2927 -0.4975 -2.2230
 3789TP3      O23185   4.503   2.877  10.283  0.4627  0.0534  0.1491
 3789TP3     H123186   4.412   2.864  10.254  0.1339  0.1550  1.1067
 3789TP3     H223187   4.509   2.827  10.365  1.2425  0.1354  0.1464
 3790TP3      O23188   4.315   3.210  10.096  0.4066 -0.4094 -0.0534
 3790TP3     H123189   4.233   3.205  10.146 -1.0750 -0.5264 -2.4214
 3790TP3     H223190   4.381   3.177  10.156 -1.1713  0.2045  2.1263
 3791TP3      O23191   3.598   0.867  10.025 -0.2088  0.4745  0.3964
 3791TP3     H123192   3.557   0.888  10.109 -2.0994  0.3833 -0.4823
 3791TP3     H223193   3.627   0.776  10.035  1.2900  1.0638  1.5941
 3792TP3      O23194   2.918   4.623  10.162  0.1192  0.2793  0.0747
 3792TP3     H123195   2.897   4.665  10.078  0.0832  2.3007  1.0639
 3792TP3     H223196   2.838   4.633  10.214  0.4705 -0.0689  0.6840
 3793TP3      O23197   3.941   0.957   0.727  0.1811 -0.4010  0.1004
 3793TP3     H123198   3.848   0.962   0.709 -0.0865  2.1644  1.8563
 3793TP3     H223199   3.980   0.926   0.646 -2.1248 -0.8459 -0.8662
 3794TP3      O23200   4.329   1.697   0.368  0.7724  0.5666 -0.4975
 3794TP3     H123201   4.340   1.607   0.336 -0.0733 -0.4462  1.8730
 3794TP3     H223202   4.252   1.730   0.322  0.9657 -0.0090 -1.2387
 3795TP3      O23203   3.257   0.640   9.572 -0.5328  0.0946  0.1197
 3795TP3     H123204   3.220   0.715   9.526 -0.9967  0.4586  1.0800
 3795TP3     H223205   3.262   0.571   9.505 -0.6564  0.7883 -0.6120
 3796TP3      O23206   2.336   3.452   9.312 -0.2846 -0.3373  0.3226
 3796TP3     H123207   2.302   3.536   9.341 -1.5098 -0.0753 -1.7903
 3796TP3     H223208   2.259   3.395   9.309  0.2087 -0.9717 -0.2116
 3797TP3      O23209   0.643   3.474  10.027  0.3391 -0.6922  0.1527
 3797TP3     H123210   0.703   3.427  10.086  2.3728  1.0584 -0.4565
 3797TP3     H223211   0.689   3.473   9.943  0.0440  1.6818 -0.0475
 3798TP3      O23212   3.707   1.796  10.173 -0.4674 -0.5646 -0.1397
 3798TP3     H123213   3.645   1.801  10.245  1.8612  0.9958  1.8363
 3798TP3     H223214   3.757   1.878  10.179  0.7212 -1.0645 -2.6484
 3799TP3      O23215   1.214   5.176   9.139 -1.0449 -0.2664 -0.2477
 3799TP3     H123216   1.295   5.216   9.169 -1.3427 -0.1732  0.4378
 3799TP3     H223217   1.240   5.123   9.063 -0.5253  0.6159 -0.6935
 3800TP3      O23218   4.612   4.862   9.969  0.4110 -0.1814 -0.0137
 3800TP3     H123219   4.554   4.786   9.958 -0.3530  0.4132 -0.1193
 3800TP3     H223220   4.676   4.834  10.034  0.0150 -0.8492  0.0935
 3801TP3      O23221   1.930   1.210   9.935 -0.2967 -0.4934  0.1212
 3801TP3     H123222   1.867   1.138   9.927 -1.9494  1.0150 -0.7879
 3801TP3     H223223   1.996   1.177   9.996  0.0822 -3.5386 -1.8204
 3802TP3      O23224   4.031   4.279   8.574 -0.3902 -0.0043  0.3500
 3802TP3     H123225   4.026   4.246   8.664 -0.0740 -0.8574  0.0605
 3802TP3     H223226   4.102   4.342   8.576 -0.7204  0.3563  0.8170
 3803TP3      O23227   1.564   4.020   0.506 -0.0679 -0.6570 -0.0006
 3803TP3     H123228   1.588   4.035   0.598  0.7664 -1.5976 -0.0564
 3803TP3     H223229   1.521   3.935   0.506 -1.1476 -0.1059 -0.3025
 3804TP3      O23230   3.744   2.083  10.305 -0.1166 -0.5206  0.4082
 3804TP3     H123231   3.775   2.159  10.256  1.4580 -0.9236  0.7392
 3804TP3     H223232   3.677   2.118  10.363  0.2353  0.5337  0.1949
 3805TP3      O23233   0.668   1.415   8.115  0.3948 -0.4988 -0.2007
 3805TP3     H123234   0.672   1.479   8.043 -0.0074 -0.5219 -0.2493
 3805TP3     H223235   0.675   1.330   8.072 -0.2388 -0.5277 -0.2569
 3806TP3      O23236   0.397   4.122   0.020  0.2437 -0.1333 -0.4348
 3806TP3     H123237   0.448   4.129  -0.061 -0.3923  2.5167 -0.6649
 3806TP3     H223238   0.454   4.160   0.087  0.4340 -1.5520  0.2273
 3807TP3      O23239   3.781   1.461   9.646 -0.1575  0.3113 -0.4890
 3807TP3     H123240   3.746   1.376   9.672 -0.1312  0.4640  0.0553
 3807TP3     H223241   3.725   1.524   9.690 -0.4442  0.5833 -1.2383
 3808TP3      O23242   2.797   4.773   9.000 -0.1596  0.3136 -0.6313
 3808TP3     H123243   2.856   4.840   8.966 -0.1967  2.5422  3.4001
 3808TP3     H223244   2.845   4.732   9.072 -1.1732 -2.2114 -1.3279
 3809TP3      O23245   0.070   0.979   7.945 -0.7501 -0.6430 -0.1485
 3809TP3     H123246   0.094   0.972   7.852  1.0974  1.8433  0.0885
 3809TP3     H223247   0.008   1.051   7.948 -0.2611 -0.2559  0.6496
 3810TP3      O23248   2.437   5.056   3.108 -0.2213  0.1439 -0.3535
 3810TP3     H123249   2.521   5.010   3.101  0.1163  0.5518  0.9042
 3810TP3     H223250   2.462   5.147   3.123 -0.8951  0.3426 -0.4545
 3811TP3      O23251   1.403   3.815   9.546  0.3434 -0.2270 -0.0569
 3811TP3     H123252   1.438   3.777   9.627 -0.1605 -0.3786  0.0909
 3811TP3     H223253   1.479   3.817   9.487  1.4110  2.5063  1.3332
 3812TP3      O23254   0.376   4.830   1.313  0.0693 -0.3659 -0.0820
 3812TP3     H123255   0.414   4.917   1.302 -0.2631 -0.3057 -0.8384
 3812TP3     H223256   0.378   4.814   1.407  1.4448 -0.1380 -0.0695
 3813TP3      O23257   3.949   4.877   9.513 -0.2729 -0.4670 -0.2975
 3813TP3     H123258   3.877   4.817   9.532  0.6207 -1.7831 -0.9914
 3813TP3     H223259   3.949   4.885   9.418 -0.5974  0.9112 -0.1847
 3814TP3      O23260   3.977   3.456   1.654 -0.2137 -0.2113 -0.6403
 3814TP3     H123261   3.976   3.517   1.580 -0.0843  1.0951  0.4105
 3814TP3     H223262   4.031   3.499   1.720 -1.3612 -0.7846  0.7014
 3815TP3      O23263   3.217   2.100   9.099  0.1459  0.3209 -0.2101
 3815TP3     H123264   3.149   2.164   9.119 -0.9772 -1.0774  0.5336
 3815TP3     H223265   3.285   2.117   9.164 -0.0977  0.8175 -0.0787
 3816TP3      O23266   3.524   3.686   0.079  0.0504 -0.2648  0.0557
 3816TP3     H123267   3.593   3.723   0.133 -1.3387  1.2627  0.8115
 3816TP3     H223268   3.562   3.605   0.044  2.1856  0.5313  0.4805
 3817TP3      O23269   2.583   2.072   9.263  0.1190 -0.3902  0.1878
 3817TP3     H123270   2.653   2.019   9.300  0.0134 -0.2784  0.5528
 3817TP3     H223271   2.516   2.009   9.238  1.4635 -0.7463 -2.6704
 3818TP3      O23272   2.936   3.662   1.085 -0.2620  0.2958 -0.5143
 3818TP3     H123273   2.897   3.712   1.156  0.2672  1.1933 -0.8496
 3818TP3     H223274   3.018   3.628   1.120 -0.7823 -0.6310 -0.1783
 3819TP3      O23275   1.183   4.922   7.821  0.2106 -0.2012  0.4671
 3819TP3     H123276   1.158   4.969   7.741  1.8740 -0.5427 -0.2597
 3819TP3     H223277   1.241   4.982   7.867  0.6890 -0.7257  0.5464
 3820TP3      O23278   1.735   2.010  10.020 -0.2475  0.2038 -0.4300
 3820TP3     H123279   1.756   1.985   9.930  0.2779  0.1713 -0.2991
 3820TP3     H223280   1.736   2.106  10.018 -0.9774  0.2096 -0.6299
 3821TP3      O23281   1.020   4.250   8.644 -0.2721  0.1834  0.1542
 3821TP3     H123282   0.992   4.170   8.600  0.4802 -0.4794  0.8606
 3821TP3     H223283   0.983   4.243   8.732  1.6558 -0.4635  0.9351
 3822TP3      O23284   0.266   0.224   1.984 -0.6429  0.5041  0.2935
 3822TP3     H123285   0.193   0.163   1.996 -0.0771 -0.1826  0.3532
 3822TP3     H223286   0.341   0.167   1.966 -0.4776  1.2710 -1.6181
 3823TP3      O23287   0.120   2.271   7.846 -0.0443  0.2882 -0.4338
 3823TP3     H123288   0.142   2.270   7.753 -1.2174 -1.1299 -0.7061
 3823TP3     H223289   0.050   2.207   7.855  1.8467 -1.5261  1.8734
 3824TP3      O23290   1.179   5.037   8.257 -0.3909  0.3153 -0.7740
 3824TP3     H123291   1.187   5.079   8.171 -2.1424 -1.6220 -1.9513
 3824TP3     H223292   1.145   4.950   8.237  2.2757 -1.3540  1.6528
 3825TP3      O23293   5.483   3.998   0.619 -0.4656 -0.3981  0.1512
 3825TP3     H123294   5.410   3.943   0.592  0.0278 -1.6119  1.2465
 3825TP3     H223295   5.557   3.966   0.568 -0.3289 -0.3172  0.2979
 3826TP3      O23296   2.483   2.893   8.782 -0.3907 -0.6179  0.2812
 3826TP3     H123297   2.490   2.896   8.877  1.4070  0.0882  0.1405
 3826TP3     H223298   2.571   2.874   8.751 -1.5281 -3.9407 -1.1609
 3827TP3      O23299   0.370   0.315   8.759  0.1905 -0.1143  0.4660
 3827TP3     H123300   0.380   0.241   8.819 -0.4618 -0.8246 -0.2914
 3827TP3     H223301   0.381   0.277   8.672  3.0049  1.2297  0.1847
 3828TP3      O23302   3.297   2.260   0.179  0.2606 -0.2485  0.3930
 3828TP3     H123303   3.235   2.235   0.248  0.4183  0.1538  0.6826
 3828TP3     H223304   3.345   2.180   0.160 -0.6283 -0.6625 -0.1140
 3829TP3      O23305   4.656   2.698   9.690 -0.1910 -0.0797 -0.4779
 3829TP3     H123306   4.640   2.632   9.757  2.3062  2.1222  2.4140
 3829TP3     H223307   4.748   2.687   9.667  0.6784  3.2599  1.1175
 3830TP3      O23308   2.821   0.834   9.129  0.1722  0.4023  0.3723
 3830TP3     H123309   2.746   0.780   9.151 -0.0395 -0.0153 -1.2932
 3830TP3     H223310   2.798   0.922   9.160 -0.2176 -0.1023  1.5106
 3831TP3      O23311   2.546   0.124   9.798 -0.0997 -0.1078 -0.1172
 3831TP3     H123312   2.613   0.133   9.731 -0.6858 -0.3065 -0.7293
 3831TP3     H223313   2.542   0.210   9.840  0.8705 -0.2354  0.2364
 3832TP3      O23314   3.462   1.690   8.076 -0.4349  0.2501 -0.7496
 3832TP3     H123315   3.474   1.610   8.026 -1.0652  0.7348 -1.7043
 3832TP3     H223316   3.550   1.715   8.105 -0.0558  0.0172 -1.7088
 3833TP3      O23317   4.016   4.535   1.252  1.0899 -0.1555 -0.1411
 3833TP3     H123318   4.016   4.485   1.171  0.5407 -1.2976  0.5522
 3833TP3     H223319   4.094   4.591   1.246  1.9186 -1.3651 -0.7651
 3834TP3      O23320   3.779   5.030   9.728 -0.8014 -0.2259 -0.0356
 3834TP3     H123321   3.872   5.017   9.747 -0.3958  0.6550 -1.2953
 3834TP3     H223322   3.756   4.956   9.671 -0.7336 -0.1796 -0.1254
 3835TP3      O23323   0.004   2.346   9.908 -0.0555  0.4652  0.0311
 3835TP3     H123324  -0.074   2.346   9.853  0.4991 -2.5312 -0.8820
 3835TP3     H223325  -0.017   2.404   9.981 -3.1171 -0.2316 -0.2334
 3836TP3      O23326   4.659   0.060   1.729  0.6452  0.0485  0.1495
 3836TP3     H123327   4.722   0.119   1.689 -0.1031  1.4173  0.9590
 3836TP3     H223328   4.620   0.012   1.656  1.2073  0.5956 -0.5118
 3837TP3      O23329   4.149   4.302   9.880  0.1061 -0.0570  0.1440
 3837TP3     H123330   4.126   4.259   9.798  2.2921  1.2047 -1.1781
 3837TP3     H223331   4.078   4.365   9.894 -1.6834 -2.1257  0.6731
 3838TP3      O23332   3.402   4.259   1.403  0.6410 -1.1078  0.4663
 3838TP3     H123333   3.386   4.244   1.310 -0.7518  2.4441  0.0623
 3838TP3     H223334   3.354   4.189   1.447 -2.5325 -0.1876 -1.3587
 3839TP3      O23335   0.350   2.626   0.132  0.2981 -0.5748  0.2899
 3839TP3     H123336   0.313   2.707   0.165 -2.0246 -1.2476 -0.5968
 3839TP3     H223337   0.440   2.626   0.165  0.0870  1.9470  0.9687
 3840TP3      O23338   3.632   2.411   1.836 -0.8463  0.1565 -0.1238
 3840TP3     H123339   3.671   2.333   1.874  0.9406  0.3719 -1.4222
 3840TP3     H223340   3.620   2.389   1.743  2.0380  2.2233 -1.0740
 3841TP3      O23341   2.599   4.832   9.597  0.0364  0.1846 -0.2174
 3841TP3     H123342   2.612   4.744   9.561 -0.0085 -1.0105  2.5406
 3841TP3     H223343   2.671   4.884   9.561 -0.7686 -0.5777 -3.0399
 3842TP3      O23344   3.653   5.298   1.706 -0.4904  0.1807 -0.1732
 3842TP3     H123345   3.599   5.260   1.776 -0.1446  2.4494  1.3664
 3842TP3     H223346   3.589   5.335   1.645 -0.7603 -0.8185 -0.5138
 3843TP3      O23347   3.290   5.098   1.551 -0.2603  0.3788  0.0655
 3843TP3     H123348   3.338   5.060   1.477 -1.3635  1.6889 -1.3458
 3843TP3     H223349   3.227   5.029   1.576 -0.7985  0.4415 -1.0941
 3844TP3      O23350   4.791   0.839  10.050  0.6135  0.7216  0.0941
 3844TP3     H123351   4.721   0.775  10.066 -0.2500  1.8753  1.0753
 3844TP3     H223352   4.853   0.793   9.993 -1.2623 -0.1169 -1.3392
 3845TP3      O23353   4.538   4.526   1.309 -0.1708 -0.4380 -0.0313
 3845TP3     H123354   4.531   4.517   1.214 -2.6413 -1.7096  0.2347
 3845TP3     H223355   4.475   4.463   1.344 -0.2751  0.9770  2.4342
 3846TP3      O23356   5.385   0.406   9.373  0.6376 -0.3632 -0.5245
 3846TP3     H123357   5.476   0.389   9.399  0.5295 -0.7692 -0.4055
 3846TP3     H223358   5.375   0.358   9.291  1.2242  1.5707 -1.7695
 3847TP3      O23359   0.199   4.043   9.213  0.7481 -0.6287  0.4816
 3847TP3     H123360   0.224   3.966   9.163  0.9665 -1.8345  2.3888
 3847TP3     H223361   0.232   4.027   9.301  0.0086  1.2421  1.1407
 3848TP3      O23362   3.191   3.640   2.607  0.8141 -0.1429 -0.2178
 3848TP3     H123363   3.098   3.648   2.628  0.5316 -1.5427 -0.8532
 3848TP3     H223364   3.234   3.625   2.691  0.3910 -0.0631  0.0136
 3849TP3      O23365   5.501   0.713   7.968 -0.3965  0.2226 -0.2527
 3849TP3     H123366   5.558   0.752   8.035 -1.8126  1.2359  0.3912
 3849TP3     H223367   5.458   0.788   7.927 -1.1960 -0.5268 -0.7940
 3850TP3      O23368   5.004   0.708   9.917 -0.4071  0.2638 -0.1372
 3850TP3     H123369   5.048   0.731   9.835 -1.3412  2.4429 -0.0433
 3850TP3     H223370   5.074   0.712   9.983 -0.1180  0.7750 -0.4691
 3851TP3      O23371   3.679   1.037   1.699 -0.2239 -0.1019  0.3289
 3851TP3     H123372   3.712   1.018   1.612 -0.2136  1.3833 -0.0108
 3851TP3     H223373   3.602   0.982   1.709 -0.5902  0.1915 -0.8661
 3852TP3      O23374   2.183   0.289   1.274  0.0849  0.4365 -0.2849
 3852TP3     H123375   2.137   0.288   1.358  0.2552  0.1195 -0.1928
 3852TP3     H223376   2.250   0.356   1.284 -1.0376  1.6427 -0.7923
 3853TP3      O23377   0.854   4.791   9.078 -0.3255 -0.3540 -0.1581
 3853TP3     H123378   0.912   4.786   9.002  0.3575  1.5794  0.2179
 3853TP3     H223379   0.811   4.876   9.070  0.8968  0.5232  2.4430
 3854TP3      O23380   1.674   3.106  10.084 -0.5811  0.1707  0.7079
 3854TP3     H123381   1.627   3.122  10.002  2.3596 -1.9108 -1.5265
 3854TP3     H223382   1.620   3.043  10.131 -1.1060 -0.5255 -0.7866
 3855TP3      O23383   4.060   1.528   7.848 -0.5517  0.4817 -0.2573
 3855TP3     H123384   4.045   1.523   7.753  1.2658 -0.8563 -0.5071
 3855TP3     H223385   4.147   1.567   7.856 -1.3020  1.9736  0.9290
 3856TP3      O23386   3.678   3.927   0.999 -0.5752 -0.2834 -0.4931
 3856TP3     H123387   3.625   3.965   1.070 -0.3555 -0.8574 -0.0175
 3856TP3     H223388   3.717   4.002   0.956 -1.3480  0.1219 -0.5079
 3857TP3      O23389   1.369   2.892   7.842 -0.0284  0.1603  0.2620
 3857TP3     H123390   1.457   2.927   7.857  0.6444 -0.8848 -1.0714
 3857TP3     H223391   1.358   2.824   7.908  1.4232 -1.8404 -1.4821
 3858TP3      O23392   4.421   1.466   0.541  0.0985  0.2464 -0.3801
 3858TP3     H123393   4.474   1.398   0.582  0.7061  0.2207 -1.2091
 3858TP3     H223394   4.427   1.449   0.447 -0.5054  0.8825 -0.5432
 3859TP3      O23395   5.496   4.683   9.499  0.1426  0.1923  0.5414
 3859TP3     H123396   5.456   4.620   9.559 -2.5916  0.5735 -0.7898
 3859TP3     H223397   5.537   4.748   9.557 -0.6849 -0.5250  1.9667
 3860TP3      O23398   4.721   4.906   0.988 -0.4005 -0.2962  0.0468
 3860TP3     H123399   4.775   4.914   1.067  0.7994  0.4058 -0.8427
 3860TP3     H223400   4.760   4.833   0.940  2.0925  2.5136 -2.3840
 3861TP3      O23401   4.662   5.198   1.002  0.1621  0.0569 -0.0089
 3861TP3     H123402   4.683   5.121   0.949  0.5175  0.3415 -0.2758
 3861TP3     H223403   4.722   5.193   1.077  1.1052  0.8000 -0.7058
 3862TP3      O23404   4.954   2.871   1.476 -0.3592 -0.6797 -0.1078
 3862TP3     H123405   4.958   2.905   1.387 -1.4807  0.1592  0.1579
 3862TP3     H223406   4.911   2.940   1.526  0.9794 -0.8188  1.2540
 3863TP3      O23407   0.080   5.186   1.726  0.8830  0.4480  0.6512
 3863TP3     H123408   0.027   5.198   1.805  1.6805  1.4144  1.0533
 3863TP3     H223409   0.028   5.127   1.671 -0.4757  1.1499  1.1570
 3864TP3      O23410   3.590   2.161   1.531 -0.2444  0.8372 -0.5464
 3864TP3     H123411   3.544   2.223   1.474 -2.1604 -0.0462 -0.0010
 3864TP3     H223412   3.528   2.141   1.600  1.0839 -0.1747  0.3804
 3865TP3      O23413   0.517   3.940   0.923  0.6700  0.2728 -0.4653
 3865TP3     H123414   0.443   3.914   0.868  0.1639 -0.4014  0.5176
 3865TP3     H223415   0.541   3.861   0.970  1.2179  0.7927  0.1401
 3866TP3      O23416   3.230   0.733   0.388  0.0558 -0.3868  0.9147
 3866TP3     H123417   3.323   0.751   0.401  0.2736 -0.8407  0.0081
 3866TP3     H223418   3.227   0.643   0.357 -0.6242 -0.0887  0.1023
 3867TP3      O23419   3.944   2.150   1.480  0.4464  0.3730  0.1509
 3867TP3     H123420   4.003   2.196   1.420  1.1531  0.2360  0.7325
 3867TP3     H223421   3.972   2.179   1.567  0.0330 -0.1429  0.4542
 3868TP3      O23422   3.521   0.262   2.731 -0.4310 -0.0578  0.3392
 3868TP3     H123423   3.600   0.212   2.754  0.6328  1.0656 -0.8350
 3868TP3     H223424   3.496   0.305   2.813  0.0066 -0.6271  0.7842
 3869TP3      O23425   5.104   0.602   8.752  0.4979 -0.4519 -0.6943
 3869TP3     H123426   5.079   0.526   8.804  1.7039 -0.7990 -0.6069
 3869TP3     H223427   5.066   0.677   8.798 -0.0705 -0.9360 -0.3791
 3870TP3      O23428   4.063   1.174   2.069  0.0457 -0.2843  0.2437
 3870TP3     H123429   3.974   1.143   2.049  0.1627 -2.3921  2.6013
 3870TP3     H223430   4.120   1.121   2.013 -0.1065  0.1798 -0.3545
 3871TP3      O23431   4.647   5.205   0.330  0.0926 -0.0921 -0.0481
 3871TP3     H123432   4.699   5.228   0.408  0.7552 -2.2434  0.1700
 3871TP3     H223433   4.708   5.217   0.257 -0.0834  0.4919 -0.1020
 3872TP3      O23434   4.835   2.917   1.161  0.3718  1.0024  0.5481
 3872TP3     H123435   4.764   2.955   1.110  1.0885  2.1827  0.4300
 3872TP3     H223436   4.865   2.842   1.109  1.9738  2.9641 -1.4263
 3873TP3      O23437   4.852   4.207   0.108  0.1455 -0.0054 -0.4233
 3873TP3     H123438   4.826   4.287   0.155 -0.9066 -0.6586  0.1211
 3873TP3     H223439   4.935   4.182   0.148  0.4480  0.7842 -0.5462
 3874TP3      O23440   0.477   0.033   7.993 -0.2141  0.6249 -0.3650
 3874TP3     H123441   0.495  -0.011   7.910  0.8981 -0.1529  0.2764
 3874TP3     H223442   0.432   0.114   7.967 -1.9788 -0.6826 -1.5818
 3875TP3      O23443   4.748   5.368   2.218 -0.1333 -0.1943 -0.4036
 3875TP3     H123444   4.714   5.279   2.231 -1.1494  0.2991  0.5361
 3875TP3     H223445   4.747   5.381   2.124 -0.4134 -1.0263 -0.5214
 3876TP3      O23446   2.075   3.246   2.498 -0.0178 -0.1468  0.2393
 3876TP3     H123447   2.029   3.235   2.581  0.8119  1.4985  0.9534
 3876TP3     H223448   2.166   3.221   2.518  0.5031  1.6560  0.2425
 3877TP3      O23449   3.519   4.185   9.462  0.0341  0.6779  0.3029
 3877TP3     H123450   3.523   4.195   9.367 -0.4394 -0.8726  0.1074
 3877TP3     H223451   3.437   4.138   9.478  0.1646  0.8242  1.4625
 3878TP3      O23452   0.323   5.031   7.903 -0.2310  0.3327  0.0128
 3878TP3     H123453   0.332   4.945   7.862  1.3756  0.7144 -0.4726
 3878TP3     H223454   0.369   5.022   7.987  0.5158  0.9058 -0.3316
 3879TP3      O23455   3.517   2.017   2.007 -0.5231 -0.2337  0.3660
 3879TP3     H123456   3.422   2.015   1.994 -0.7862  1.0873  1.9348
 3879TP3     H223457   3.552   1.966   1.934 -2.3893 -0.0167 -0.7105
 3880TP3      O23458   5.415   4.368   1.108 -0.2671 -0.1556 -0.1998
 3880TP3     H123459   5.503   4.352   1.074  0.0193  0.7245  0.1124
 3880TP3     H223460   5.359   4.309   1.057  0.5654 -1.1231 -0.0276
 3881TP3      O23461   0.147   0.395   9.161  0.0915 -0.3361  0.0856
 3881TP3     H123462   0.221   0.365   9.215 -0.5019  0.0711  1.1486
 3881TP3     H223463   0.104   0.314   9.133 -0.4128 -0.5406  1.4011
 3882TP3      O23464   3.234   5.459   0.795 -0.3035 -0.0087  0.2496
 3882TP3     H123465   3.290   5.430   0.867  1.9041 -1.0834 -1.7988
 3882TP3     H223466   3.193   5.378   0.764 -1.2726  0.4556  0.3300
 3883TP3      O23467   3.477   4.820   2.013 -0.1553  0.4329 -0.0183
 3883TP3     H123468   3.401   4.873   1.990 -0.8805 -0.9303 -0.8628
 3883TP3     H223469   3.453   4.731   1.986  0.2241 -0.7056  3.1399
 3884TP3      O23470   0.653   1.247   1.522  0.4592  0.3454  0.3558
 3884TP3     H123471   0.598   1.229   1.445  1.1880 -0.7713  0.0931
 3884TP3     H223472   0.593   1.284   1.586 -0.2472  0.8539 -0.5963
 3885TP3      O23473   5.465   2.884   9.095 -0.3556 -0.2329 -0.2363
 3885TP3     H123474   5.506   2.920   9.173 -1.1035 -0.5820  0.3308
 3885TP3     H223475   5.415   2.809   9.127 -0.5947 -0.4281 -1.0613
 3886TP3      O23476   5.252   0.456   9.601 -0.4653 -0.0703  0.0964
 3886TP3     H123477   5.319   0.499   9.652 -1.4864  1.4569  0.1681
 3886TP3     H223478   5.293   0.442   9.515 -0.1119  1.0025  0.0839
 3887TP3      O23479   2.516   4.180   1.503 -0.1079  0.1805  0.2204
 3887TP3     H123480   2.520   4.263   1.550  1.7236 -0.1653  0.7409
 3887TP3     H223481   2.441   4.189   1.444  0.3058  2.3556 -0.0166
 3888TP3      O23482   4.686   0.077   0.541  0.6460  0.3410  0.2213
 3888TP3     H123483   4.647   0.126   0.469  0.6217  2.0555  1.3774
 3888TP3     H223484   4.772   0.115   0.553  0.2500  0.7873  1.7747
 3889TP3      O23485   3.535   1.253   9.065  0.3492  0.1257 -0.1985
 3889TP3     H123486   3.482   1.321   9.107  0.9629  0.4435  0.0631
 3889TP3     H223487   3.542   1.184   9.131  0.8462  0.3843  0.0186
 3890TP3      O23488   4.608   0.993   2.397 -0.0621  0.0053  0.2388
 3890TP3     H123489   4.523   1.013   2.435 -0.6580  0.0781 -1.0950
 3890TP3     H223490   4.608   0.898   2.386  0.2458 -0.0537  0.7283
 3891TP3      O23491   3.892   2.560   0.956  0.4112  0.3981 -0.1379
 3891TP3     H123492   3.828   2.583   1.024 -1.7074  0.0922 -1.9606
 3891TP3     H223493   3.967   2.526   1.004  0.1557  2.9322  2.1859
 3892TP3      O23494   1.390   2.669   8.008  0.0601 -0.0693 -0.0193
 3892TP3     H123495   1.461   2.699   8.063  1.4126  0.8536 -2.1962
 3892TP3     H223496   1.416   2.580   7.982  1.4944  1.0142 -2.4771
 3893TP3      O23497   3.946   4.278   2.299 -0.6317  0.1413 -0.2836
 3893TP3     H123498   3.941   4.340   2.371  0.3562  0.5583 -0.5681
 3893TP3     H223499   3.888   4.206   2.325 -1.0446  0.7388  0.4703
 3894TP3      O23500   3.309   1.166   7.665 -0.0603  0.1106  0.2315
 3894TP3     H123501   3.287   1.119   7.585  0.8986  0.5594 -0.2967
 3894TP3     H223502   3.403   1.155   7.674  0.3712  2.8888 -0.5180
 3895TP3      O23503   5.023   3.660  10.280  0.0986 -0.2216 -0.0307
 3895TP3     H123504   4.981   3.684  10.197 -1.1626  1.7215  1.1233
 3895TP3     H223505   5.101   3.611  10.254  0.2060  1.1188 -2.3975
 3896TP3      O23506   1.056   2.681   1.218 -0.1568 -0.0499 -0.5788
 3896TP3     H123507   1.076   2.612   1.155 -1.0044 -0.2241 -0.6618
 3896TP3     H223508   1.088   2.762   1.177  0.2047 -0.2987 -0.7851
 3897TP3      O23509   4.395   1.164  10.212 -0.4191  0.1764 -0.0495
 3897TP3     H123510   4.439   1.079  10.204  1.4925  1.0295  0.9149
 3897TP3     H223511   4.320   1.147  10.268  0.4610 -0.7240  0.8886
 3898TP3      O23512   3.971   2.095   9.807  0.7519  0.2509 -0.4328
 3898TP3     H123513   4.025   2.171   9.785  2.1590  0.2012  2.5982
 3898TP3     H223514   3.907   2.128   9.869  0.5665 -0.7811 -0.0694
 3899TP3      O23515   1.871   0.938   9.452 -0.1078  0.2793 -0.2048
 3899TP3     H123516   1.785   0.895   9.454  0.2015 -0.4028 -1.2070
 3899TP3     H223517   1.856   1.024   9.493 -1.2724  0.1744 -0.3969
 3900TP3      O23518   4.824   3.554   8.819 -0.1553 -0.1058  0.6438
 3900TP3     H123519   4.903   3.608   8.814 -0.0107 -0.3450  0.2936
 3900TP3     H223520   4.754   3.615   8.842  0.0592  0.1787  0.5405
 3901TP3      O23521   2.474   4.003   8.011  0.0448 -0.2998  0.2692
 3901TP3     H123522   2.535   4.022   7.939  0.6429  0.1947  0.9064
 3901TP3     H223523   2.403   3.954   7.969 -0.6654  1.8336 -1.0965
 3902TP3      O23524   3.182   4.831   8.344  0.0708  0.0772  0.0452
 3902TP3     H123525   3.195   4.827   8.249 -1.4341 -2.0202 -0.1037
 3902TP3     H223526   3.268   4.855   8.379  0.5786  1.1196 -1.8457
 3903TP3      O23527   5.138   2.405   9.348 -0.4510 -0.0089 -0.0454
 3903TP3     H123528   5.063   2.390   9.291 -0.6459 -1.1941  0.5173
 3903TP3     H223529   5.188   2.324   9.345  0.4488  0.5301  0.1261
 3904TP3      O23530   3.277   1.791   1.113 -0.2230 -0.1992  0.4406
 3904TP3     H123531   3.229   1.755   1.039 -0.3870  1.7054 -0.3971
 3904TP3     H223532   3.368   1.788   1.086 -0.0198 -1.9931  1.2531
 3905TP3      O23533   0.507   4.824   0.742  0.1210  0.2691 -0.3564
 3905TP3     H123534   0.456   4.767   0.799  0.6950  0.3590  0.2595
 3905TP3     H223535   0.443   4.864   0.683 -0.4263 -0.1222 -0.0254
 3906TP3      O23536   4.628   1.307   2.110 -0.4862  0.1137  0.4493
 3906TP3     H123537   4.695   1.238   2.106  0.6068  1.1697  0.1230
 3906TP3     H223538   4.572   1.291   2.034 -0.0442 -0.2283  0.1944
 3907TP3      O23539   1.281   1.587   9.315  0.4504  0.0489  0.0668
 3907TP3     H123540   1.199   1.636   9.324 -0.0550 -0.6939 -0.4405
 3907TP3     H223541   1.344   1.638   9.365 -0.7184 -0.3283  1.9806
 3908TP3      O23542   1.531   2.687   8.773 -0.5940 -0.3338 -0.7458
 3908TP3     H123543   1.491   2.759   8.821  0.3843 -0.3788  0.1757
 3908TP3     H223544   1.617   2.721   8.747 -0.8723 -0.5247 -1.9407
 3909TP3      O23545   0.410   4.919   8.141  0.4098 -0.1769 -0.2809
 3909TP3     H123546   0.412   4.826   8.162  0.3911 -0.1053  0.0340
 3909TP3     H223547   0.384   4.962   8.222 -1.8466 -0.0755 -1.0136
 3910TP3      O23548   4.821   0.181   8.285 -0.2531  0.4527  0.0185
 3910TP3     H123549   4.831   0.273   8.258 -1.6843  0.9290  1.0719
 3910TP3     H223550   4.730   0.174   8.313  0.2572 -0.9240  1.3938
 3911TP3      O23551   3.441   2.328   8.496 -0.0741 -0.1885 -0.2041
 3911TP3     H123552   3.378   2.369   8.437  0.4961 -0.6322 -1.1180
 3911TP3     H223553   3.418   2.235   8.496  1.0636 -0.4822 -1.1521
 3912TP3      O23554   3.263   1.532  10.106  0.3420 -0.3374  0.1039
 3912TP3     H123555   3.227   1.470  10.043  1.0530 -1.2913  0.6149
 3912TP3     H223556   3.341   1.567  10.064 -0.1824  0.3793 -0.2747
 3913TP3      O23557   0.953   4.290  10.228 -0.4958  0.9175 -0.4844
 3913TP3     H123558   0.992   4.344  10.297  0.6754 -0.8817  0.3157
 3913TP3     H223559   0.982   4.330  10.146  1.5781  0.6797  0.1095
 3914TP3      O23560   5.462   2.347   9.048 -0.2896  0.2365  0.2736
 3914TP3     H123561   5.375   2.368   9.080  0.0970 -1.0171  2.2237
 3914TP3     H223562   5.452   2.263   9.002  0.2199 -0.9225  2.2177
 3915TP3      O23563   0.602   0.412   1.427  0.0820 -0.1699  0.2349
 3915TP3     H123564   0.671   0.472   1.456 -1.0757  1.8282 -1.0267
 3915TP3     H223565   0.569   0.372   1.508  1.3649  0.3251  1.0209
 3916TP3      O23566   1.366   1.234   1.146 -0.1102 -0.3466 -0.4909
 3916TP3     H123567   1.299   1.301   1.135  0.6456  0.5324  0.2262
 3916TP3     H223568   1.318   1.155   1.172 -0.6736  0.8504  2.2698
 3917TP3      O23569   1.681   1.770   9.811 -0.2581  0.0990 -0.2259
 3917TP3     H123570   1.588   1.748   9.816 -0.5246  1.2833  0.2258
 3917TP3     H223571   1.692   1.810   9.724 -0.2831  0.4403 -0.0737
 3918TP3      O23572   5.188   2.213   2.595  0.5467  0.0846 -0.1365
 3918TP3     H123573   5.229   2.266   2.526 -0.3684 -0.6021 -1.2330
 3918TP3     H223574   5.221   2.124   2.579  0.5591 -0.0245  0.4887
 3919TP3      O23575   2.807   1.592  10.202  0.3757 -0.7315 -0.6521
 3919TP3     H123576   2.837   1.676  10.238  2.3247 -0.2422 -3.3185
 3919TP3     H223577   2.720   1.611  10.166  0.6929  0.0540 -1.0005
 3920TP3      O23578   3.142   2.639   1.385 -0.2058 -0.2500  0.3055
 3920TP3     H123579   3.154   2.683   1.301  0.2093 -0.0912  0.4446
 3920TP3     H223580   3.118   2.549   1.362 -0.7316 -0.0328  0.0194
 3921TP3      O23581   4.823   1.165   2.491  0.0128 -0.0760  0.8113
 3921TP3     H123582   4.799   1.223   2.563 -0.0111 -0.5541  1.1909
 3921TP3     H223583   4.740   1.125   2.463 -0.0025  0.2352  0.4067
 3922TP3      O23584   1.939   3.867  10.063 -0.4648  0.4062  0.2474
 3922TP3     H123585   1.871   3.838  10.002 -1.2013  1.2872  0.6401
 3922TP3     H223586   1.891   3.908  10.135  0.4353  0.1286  1.0211
 3923TP3      O23587   2.245   2.009   1.943  0.2375  0.1587 -0.2695
 3923TP3     H123588   2.297   2.089   1.954 -0.3118  0.6302 -1.0584
 3923TP3     H223589   2.273   1.953   2.015  1.8000  0.4263 -0.6425
 3924TP3      O23590   5.268   3.835   0.561 -0.3813 -0.3913  0.4728
 3924TP3     H123591   5.227   3.881   0.634 -0.4340 -0.4416  0.4753
 3924TP3     H223592   5.203   3.840   0.490 -0.2267 -0.1302  0.3528
 3925TP3      O23593   0.339   2.002  10.069 -0.0907  0.0792 -0.1702
 3925TP3     H123594   0.378   1.962  10.146 -0.8580 -0.4857 -0.0711
 3925TP3     H223595   0.366   2.094  10.075 -1.7758  0.4859  1.8509
 3926TP3      O23596   4.055   5.237   0.141  0.5246 -0.3524  0.2928
 3926TP3     H123597   4.015   5.257   0.056 -0.2404 -0.3345  0.6483
 3926TP3     H223598   3.996   5.277   0.205  1.5589  0.3672  0.7965
 3927TP3      O23599   4.938   3.360   2.400  0.0924 -0.3862  0.3505
 3927TP3     H123600   4.875   3.429   2.419  0.7646  1.0181 -2.2737
 3927TP3     H223601   4.889   3.294   2.351 -0.0439 -0.8278  1.0576
 3928TP3      O23602   1.683   4.763   2.509  0.3094  0.4965 -0.0833
 3928TP3     H123603   1.664   4.855   2.491 -1.7470  0.3632  1.3275
 3928TP3     H223604   1.769   4.748   2.468 -0.1195  2.5641 -1.8027
 3929TP3      O23605   0.488   2.195   2.472 -0.2230  0.4134  0.9413
 3929TP3     H123606   0.516   2.105   2.456  2.4544  1.0996  1.6190
 3929TP3     H223607   0.408   2.205   2.419  1.3255 -1.2802 -1.8074
 3930TP3      O23608   4.295   0.128   2.349  0.2521  0.0562  0.1556
 3930TP3     H123609   4.222   0.183   2.375  0.9837  0.2355  1.9130
 3930TP3     H223610   4.259   0.070   2.281 -0.9111  1.6272 -0.5867
 3931TP3      O23611   3.773   1.441   2.215 -0.1344 -0.7291  0.1910
 3931TP3     H123612   3.779   1.421   2.122 -0.4152 -0.3422  0.0890
 3931TP3     H223613   3.783   1.536   2.220 -0.4108 -0.7169  0.5276
 3932TP3      O23614   3.868   2.849   1.595 -0.7731  0.0737  0.4384
 3932TP3     H123615   3.905   2.837   1.507 -0.4724  0.8411  0.4559
 3932TP3     H223616   3.826   2.935   1.591  0.3094  0.6556  1.4145
 3933TP3      O23617   3.777   5.177   1.999 -0.2199  0.5456  0.4840
 3933TP3     H123618   3.801   5.268   2.015  0.2117  0.5762 -0.3259
 3933TP3     H223619   3.729   5.178   1.917 -0.4211  0.0734  0.5908
 3934TP3      O23620   1.390   0.113   2.556 -0.1382  0.2349 -0.0717
 3934TP3     H123621   1.379   0.180   2.624  1.2382  0.1929  0.2006
 3934TP3     H223622   1.412   0.163   2.478 -0.6057  0.2020 -0.2252
 3935TP3      O23623   1.589   2.192   3.126  0.0607 -0.2468 -0.2589
 3935TP3     H123624   1.563   2.198   3.034 -0.2682  1.0841 -0.0852
 3935TP3     H223625   1.508   2.199   3.175  0.5092  2.0380  0.2191
 3936TP3      O23626   2.278   2.619   3.271 -0.0834  0.0085 -0.0219
 3936TP3     H123627   2.218   2.690   3.294  1.7779  0.8435  2.5395
 3936TP3     H223628   2.259   2.550   3.334  2.2918  0.6922  1.5210
 3937TP3      O23629   1.622   5.072   3.053 -0.2295 -0.6417 -0.9054
 3937TP3     H123630   1.612   5.066   2.958  0.1043 -0.3579 -0.9594
 3937TP3     H223631   1.620   5.166   3.071 -0.5391 -0.7041 -0.6052
 3938TP3      O23632   1.242   0.654   9.000  0.2447  0.3559 -0.0477
 3938TP3     H123633   1.174   0.640   8.935 -1.4416  1.7653  1.3568
 3938TP3     H223634   1.296   0.724   8.965 -0.0714  0.4279 -0.3852
 3939TP3      O23635   2.368   4.308   2.550  0.2779  0.2454 -0.2565
 3939TP3     H123636   2.374   4.342   2.639  0.8594  1.0581 -0.5997
 3939TP3     H223637   2.323   4.224   2.559 -0.4456  0.7292  0.7009
 3940TP3      O23638   4.654   0.641   1.762  0.3067 -0.6047 -0.0319
 3940TP3     H123639   4.680   0.549   1.766 -0.2338 -0.7535  0.1485
 3940TP3     H223640   4.724   0.688   1.807  0.8604 -0.8677 -0.6110
 3941TP3      O23641   1.483   1.229   0.880  0.3327 -0.1466 -0.5485
 3941TP3     H123642   1.482   1.254   0.972 -1.7224 -1.3323 -0.2029
 3941TP3     H223643   1.391   1.233   0.853  0.9301  0.3444 -2.5992
 3942TP3      O23644   4.497   2.303   2.600 -0.7260 -0.1197  0.0314
 3942TP3     H123645   4.435   2.327   2.669 -2.0001 -1.2203 -0.7073
 3942TP3     H223646   4.573   2.359   2.616 -1.8891  1.2465  0.9647
 3943TP3      O23647   1.150   1.122   9.393  0.0505  0.3297  0.2160
 3943TP3     H123648   1.139   1.192   9.329  0.3369 -0.1365 -0.3541
 3943TP3     H223649   1.063   1.083   9.402  0.7019 -2.0158 -2.7299
 3944TP3      O23650   3.782   2.090   1.200 -0.4227 -0.0346  0.4130
 3944TP3     H123651   3.785   2.156   1.130  1.3349  0.6464  1.0860
 3944TP3     H223652   3.690   2.066   1.207 -0.9669  1.7042 -0.4585
 3945TP3      O23653   4.228   5.239   2.241 -0.4239  0.1509 -0.2753
 3945TP3     H123654   4.244   5.190   2.322 -0.6060  1.2800  0.4597
 3945TP3     H223655   4.292   5.204   2.179  0.3913 -0.0298  0.6536
 3946TP3      O23656   5.077   0.472   9.093  0.4686 -0.3040  0.2214
 3946TP3     H123657   4.985   0.489   9.072  0.5881  1.2032  0.8764
 3946TP3     H223658   5.117   0.559   9.096  2.5140 -1.0837 -2.6851
 3947TP3      O23659   1.670   1.028   0.347 -0.0178  0.2342  0.5687
 3947TP3     H123660   1.658   1.060   0.257  0.2168  0.4840  0.6278
 3947TP3     H223661   1.644   0.936   0.343 -0.0553  0.2581  0.2549
 3948TP3      O23662   1.975   0.663   0.031  0.2799 -0.6877 -0.0888
 3948TP3     H123663   2.003   0.575   0.054  1.1833 -0.2562  0.4700
 3948TP3     H223664   1.945   0.656  -0.059  1.7834 -1.2408 -0.5533
 3949TP3      O23665   2.666   4.740   2.093  0.1081  0.3253  0.4516
 3949TP3     H123666   2.573   4.723   2.110 -0.4077  0.3023 -2.1717
 3949TP3     H223667   2.670   4.835   2.080  0.1655  0.1397 -0.9568
 3950TP3      O23668   4.538   4.758   0.033 -0.1793 -0.0672 -0.0510
 3950TP3     H123669   4.610   4.768  -0.030  0.3547 -2.0809  0.2069
 3950TP3     H223670   4.536   4.842   0.080  1.9375  0.0604 -0.1333
 3951TP3      O23671   0.276   1.693   2.846  0.2580 -0.1133  0.2545
 3951TP3     H123672   0.226   1.699   2.928  2.3576 -1.9617  1.7309
 3951TP3     H223673   0.365   1.716   2.870  0.9211 -0.7740 -1.5057
 3952TP3      O23674   4.808   0.590   9.091  0.3550  0.5156 -0.1088
 3952TP3     H123675   4.782   0.664   9.147  0.3322  1.4948 -1.3987
 3952TP3     H223676   4.781   0.616   9.003 -0.3018 -1.3431 -0.4773
 3953TP3      O23677   0.699   1.276   2.435  0.1260  0.1940 -0.3428
 3953TP3     H123678   0.772   1.220   2.459  1.3742  1.5266 -0.9533
 3953TP3     H223679   0.720   1.361   2.473 -1.7266  0.2827  0.5451
 3954TP3      O23680   3.135   2.579   1.945  0.1934 -0.1838  0.7107
 3954TP3     H123681   3.225   2.562   1.972 -0.3568 -2.5763  1.1017
 3954TP3     H223682   3.142   2.609   1.854  1.3835 -0.0598  0.8358
 3955TP3      O23683   1.210   1.609   8.812  0.6869  0.1347 -0.2576
 3955TP3     H123684   1.180   1.519   8.807 -0.6358  0.5912 -0.5772
 3955TP3     H223685   1.247   1.617   8.901  1.8834 -1.0314 -0.6314
 3956TP3      O23686   3.885   1.688   9.961  0.2303  0.2407 -0.1931
 3956TP3     H123687   3.890   1.752   9.889  0.8185  0.6708  0.2307
 3956TP3     H223688   3.826   1.729  10.024 -3.0980 -1.6151 -1.9176
 3957TP3      O23689   5.457   2.161   9.467  0.1582 -0.1163  0.1290
 3957TP3     H123690   5.374   2.123   9.439 -0.5449 -0.6068  2.7322
 3957TP3     H223691   5.522   2.095   9.442  0.0014  0.8522 -3.1320
 3958TP3      O23692   1.362   4.573   8.716  0.0277 -0.3079 -0.6265
 3958TP3     H123693   1.349   4.499   8.656  0.5572 -0.7804 -0.1688
 3958TP3     H223694   1.413   4.636   8.666  0.3336 -0.6346 -0.7337
 3959TP3      O23695   3.078   2.390   1.268  0.1387  0.2539 -0.2567
 3959TP3     H123696   2.990   2.351   1.262 -0.1479  0.7658  0.5275
 3959TP3     H223697   3.123   2.334   1.331  0.4138 -0.0647 -0.7301
 3960TP3      O23698   5.364   3.240   1.484  0.0811  0.5612  0.6647
 3960TP3     H123699   5.382   3.326   1.446 -2.8652  1.4514  1.1621
 3960TP3     H223700   5.269   3.238   1.494  0.4487 -1.0432  4.6626
 3961TP3      O23701   2.801   2.004   1.994 -0.7473 -0.0581 -0.1231
 3961TP3     H123702   2.720   2.035   2.033  0.3416  2.5573  0.1280
 3961TP3     H223703   2.786   2.012   1.899 -1.1030 -0.4576 -0.1033
 3962TP3      O23704   1.291   3.371   0.624 -0.3297  0.2455  0.1003
 3962TP3     H123705   1.228   3.301   0.607 -0.3727  0.4823 -0.7193
 3962TP3     H223706   1.306   3.411   0.539  0.1709  0.8370  0.4635
 3963TP3      O23707   2.000   4.888   1.129 -0.0822  0.4525  0.1012
 3963TP3     H123708   2.013   4.814   1.188 -0.7299 -0.3026 -0.6818
 3963TP3     H223709   2.018   4.852   1.042  1.4357  1.6848 -0.1347
 3964TP3      O23710   2.391   1.632   2.322  0.3779  0.6072  0.4829
 3964TP3     H123711   2.442   1.694   2.374  0.8550 -0.3676  1.1880
 3964TP3     H223712   2.442   1.551   2.324 -1.1254 -0.3504  1.1111
 3965TP3      O23713   2.038   3.108   9.051 -0.0984  0.4898  0.2429
 3965TP3     H123714   1.952   3.130   9.016 -0.3236 -0.6763  0.0304
 3965TP3     H223715   2.078   3.052   8.984  0.2383 -0.1806  0.9990
 3966TP3      O23716   3.073   3.716   0.136  0.3925 -0.9775 -0.2812
 3966TP3     H123717   3.075   3.795   0.082  0.9294 -0.7457  0.0790
 3966TP3     H223718   3.024   3.742   0.215 -1.5050 -1.6613 -1.1893
 3967TP3      O23719   0.095   2.877   2.802 -0.6579  0.2920 -0.6665
 3967TP3     H123720   0.061   2.966   2.796 -3.8316 -0.7367  1.0563
 3967TP3     H223721   0.106   2.849   2.711 -0.8547  1.9728 -1.2155
 3968TP3      O23722   0.986   3.274   2.382 -0.2563 -0.4810 -0.0672
 3968TP3     H123723   0.983   3.222   2.462  1.4703 -1.1113 -0.3852
 3968TP3     H223724   0.994   3.209   2.311 -0.1595  0.1207 -0.6143
 3969TP3      O23725   1.638   0.467   2.847 -0.1939  0.4753  0.0363
 3969TP3     H123726   1.575   0.422   2.790  1.8375 -1.8211 -0.4913
 3969TP3     H223727   1.595   0.471   2.932 -0.8024 -1.6798 -0.1401
 3970TP3      O23728   0.521   2.905   9.479 -0.0650  0.1987 -0.4886
 3970TP3     H123729   0.465   2.827   9.482  0.8800 -0.4513  1.7943
 3970TP3     H223730   0.482   2.965   9.542 -0.2197  1.1913 -1.5164
 3971TP3      O23731   2.137   0.253   1.565  0.4810 -0.1532 -0.1858
 3971TP3     H123732   2.208   0.190   1.554  1.5391  0.8498  0.7933
 3971TP3     H223733   2.067   0.203   1.609  0.8420 -0.9582 -0.5192
 3972TP3      O23734   0.125   5.115   1.302 -0.0953  0.4384  0.0191
 3972TP3     H123735   0.088   5.029   1.321  0.5060  0.4829  1.4347
 3972TP3     H223736   0.050   5.168   1.274 -0.3599 -0.7171 -1.5123
 3973TP3      O23737   1.296   0.216   1.169  0.5088 -0.3879 -0.1296
 3973TP3     H123738   1.386   0.218   1.136  0.8788 -0.6737  0.8240
 3973TP3     H223739   1.242   0.210   1.091  1.3949 -2.0266 -0.6599
 3974TP3      O23740   5.035   1.509   1.884 -0.4657  0.2646  0.4256
 3974TP3     H123741   5.041   1.541   1.974  1.0187 -1.8411  1.0953
 3974TP3     H223742   5.099   1.561   1.836 -1.0989  1.2313  0.6024
 3975TP3      O23743   0.941   2.553   0.239 -0.3946  0.5284  0.0063
 3975TP3     H123744   1.012   2.509   0.287 -0.1704  1.2674  0.3474
 3975TP3     H223745   0.907   2.485   0.180  0.6545  0.1874 -0.2202
 3976TP3      O23746   0.402   0.283   9.291 -0.2290  0.2168 -0.3470
 3976TP3     H123747   0.351   0.208   9.259  0.9880  0.2939 -2.5659
 3976TP3     H223748   0.412   0.267   9.385 -2.1067 -1.1167 -0.3489
 3977TP3      O23749   2.392   0.939   3.030 -0.5772 -0.1953 -0.2594
 3977TP3     H123750   2.314   0.945   2.975  1.0924 -2.2182 -2.9982
 3977TP3     H223751   2.381   0.856   3.077 -0.7887  0.2736  0.5268
 3978TP3      O23752   4.933   4.881   2.721  0.3103  0.1533  0.3747
 3978TP3     H123753   5.004   4.828   2.686  1.6523  1.3627  1.1771
 3978TP3     H223754   4.953   4.888   2.815  0.2714  2.1540  0.2652
 3979TP3      O23755   1.843   1.893   1.404  0.2802  0.4066  1.0484
 3979TP3     H123756   1.893   1.973   1.414 -1.2501  1.4631  0.4226
 3979TP3     H223757   1.755   1.915   1.434  0.1664 -1.4299  2.1639
 3980TP3      O23758   5.259   4.896   8.906  0.2059  0.5015 -0.2005
 3980TP3     H123759   5.314   4.825   8.938  0.3294  1.4943  1.9030
 3980TP3     H223760   5.320   4.956   8.863  0.4259  0.4465  0.0348
 3981TP3      O23761   3.095   5.015   2.732  0.7976 -0.0414  0.4098
 3981TP3     H123762   3.020   5.062   2.769 -0.5590 -0.8568 -1.2081
 3981TP3     H223763   3.131   4.965   2.805 -1.0705 -0.6901  0.9092
 3982TP3      O23764   3.240   0.526   9.314  0.0970 -0.4691 -0.8331
 3982TP3     H123765   3.164   0.469   9.330  0.1185 -0.0643  0.7499
 3982TP3     H223766   3.202   0.606   9.277 -0.2331 -0.3304 -0.1966
 3983TP3      O23767   3.844   0.853   2.293  0.1531 -0.5430 -0.6178
 3983TP3     H123768   3.905   0.828   2.225  2.3704 -0.5592  1.3034
 3983TP3     H223769   3.899   0.873   2.369 -2.0662  1.7434  0.4925
 3984TP3      O23770   4.493   1.268   1.215  0.0252 -0.2471 -0.1384
 3984TP3     H123771   4.542   1.345   1.187 -0.7944  0.2868 -0.1243
 3984TP3     H223772   4.416   1.266   1.159 -0.3762 -0.5888  0.4152
 3985TP3      O23773   1.933   1.426   8.917  0.1111 -0.4954  0.5918
 3985TP3     H123774   1.948   1.390   8.830 -0.7714 -0.5119  0.4386
 3985TP3     H223775   2.015   1.468   8.941 -0.1315  0.8339 -0.8833
 3986TP3      O23776   1.680   2.768   1.584  0.0803 -0.5635 -0.3315
 3986TP3     H123777   1.658   2.721   1.664 -0.1750 -0.7833 -0.5303
 3986TP3     H223778   1.637   2.718   1.514  2.1469 -1.6491 -0.8526
 3987TP3      O23779   0.702   4.615   1.426 -0.0198  0.0315  0.2829
 3987TP3     H123780   0.656   4.644   1.347  2.7816  0.7166 -1.1857
 3987TP3     H223781   0.665   4.529   1.445 -0.2612 -0.4688 -2.2070
 3988TP3      O23782   2.747   0.789   2.654  0.0173 -0.0481 -0.9957
 3988TP3     H123783   2.709   0.858   2.708  1.5356 -0.4187  0.5742
 3988TP3     H223784   2.674   0.759   2.600 -1.5984  0.1557  1.0119
 3989TP3      O23785   4.123   4.042   2.059  0.4741 -0.3348  0.2825
 3989TP3     H123786   4.202   4.089   2.030  0.1568  0.4610  0.7023
 3989TP3     H223787   4.051   4.102   2.039  0.2490  0.2721  2.8080
 3990TP3      O23788   5.307   0.951   3.542 -0.1570 -0.2277  0.2528
 3990TP3     H123789   5.258   0.920   3.465 -2.0880 -0.7205  1.6552
 3990TP3     H223790   5.257   1.026   3.574  1.0376  0.4268  0.6266
 3991TP3      O23791   0.137   1.111   1.601  0.0424 -0.0414 -0.0641
 3991TP3     H123792   0.104   1.072   1.682 -2.1235 -0.7930 -1.2764
 3991TP3     H223793   0.091   1.065   1.531  1.3343  1.1016 -1.7205
 3992TP3      O23794   5.018   4.571   8.123  0.1862  0.2943  0.3452
 3992TP3     H123795   5.026   4.665   8.138  1.9816  0.0821  0.7955
 3992TP3     H223796   5.049   4.532   8.204 -3.0761 -0.6793  1.2138
 3993TP3      O23797   0.928   0.489  10.086 -0.4078 -0.0807 -0.2429
 3993TP3     H123798   0.884   0.410  10.055 -2.6158  0.9814  0.1075
 3993TP3     H223799   1.021   0.470  10.076 -0.9391 -2.2493 -1.3196
 3994TP3      O23800   1.924   1.773   9.928  0.0488 -0.4326  0.0464
 3994TP3     H123801   1.959   1.684   9.925 -3.8401 -2.0889  1.0711
 3994TP3     H223802   1.836   1.765   9.891 -0.5474  2.9278  0.6017
 3995TP3      O23803   4.924   1.970   1.691  0.2440 -0.1549 -0.2723
 3995TP3     H123804   4.902   2.057   1.724  0.2738 -0.1072 -0.3775
 3995TP3     H223805   4.858   1.953   1.623 -1.2562 -1.2227  1.3873
 3996TP3      O23806   3.935   4.816   2.610  0.0998  0.4423  0.1957
 3996TP3     H123807   3.922   4.802   2.704 -1.4353  2.6660  0.3564
 3996TP3     H223808   4.029   4.834   2.602  0.1970  0.5100  1.3333
 3997TP3      O23809   5.471   0.727   1.722 -0.3199 -0.0691 -0.5961
 3997TP3     H123810   5.417   0.682   1.657 -1.0026 -1.3368  0.8088
 3997TP3     H223811   5.508   0.656   1.776  0.2590  0.9477  0.3738
 3998TP3      O23812   2.627   2.289   1.015  0.0879  0.4356  0.2954
 3998TP3     H123813   2.683   2.347   1.067 -0.0891  1.0675 -0.2140
 3998TP3     H223814   2.687   2.248   0.953  0.1837  0.2149  0.5346
 3999TP3      O23815   1.052   0.001   1.256 -0.3080  0.8761 -0.4085
 3999TP3     H123816   1.130  -0.015   1.203 -1.1998  0.2971 -1.5627
 3999TP3     H223817   1.073  -0.037   1.341 -0.5539 -2.1981 -1.6734
 4000TP3      O23818   3.243   3.702   1.308  0.1351  0.5405 -0.7938
 4000TP3     H123819   3.262   3.651   1.388 -0.9153 -1.9645 -2.0740
 4000TP3     H223820   3.329   3.713   1.266  0.3390 -0.5263 -0.6799
 4001TP3      O23821   0.180   1.779   0.888  0.2372  0.5228 -0.1941
 4001TP3     H123822   0.269   1.759   0.918 -0.3971 -1.2107  0.6249
 4001TP3     H223823   0.186   1.777   0.792  0.9970  0.0224 -0.1431
 4002TP3      O23824   1.290   0.745   2.405  0.7823 -0.5385  0.3226
 4002TP3     H123825   1.365   0.742   2.346  1.8906  1.5217  1.5816
 4002TP3     H223826   1.277   0.654   2.433  1.7830 -1.1499 -1.1600
 4003TP3      O23827   0.820   1.928   3.416  0.0866  0.0527  0.1709
 4003TP3     H123828   0.863   2.013   3.416 -0.3229  0.2661  0.9438
 4003TP3     H223829   0.843   1.888   3.500 -0.2882 -0.3039  0.1124
 4004TP3      O23830   2.150   4.848   9.092  0.2934 -0.3146  0.3290
 4004TP3     H123831   2.180   4.871   9.180  0.4429  1.3307 -0.1228
 4004TP3     H223832   2.229   4.827   9.044  0.1826 -1.5038  0.6715
 4005TP3      O23833   4.403   5.144   2.057  0.4807  0.3112 -0.0960
 4005TP3     H123834   4.486   5.152   2.010  0.8599 -0.4507  0.4460
 4005TP3     H223835   4.402   5.055   2.091 -1.0141 -0.0165 -0.9421
 4006TP3      O23836   5.120   3.205   9.012  0.5081  0.0653  0.2463
 4006TP3     H123837   5.170   3.175   8.936  1.5506  0.3008  0.8264
 4006TP3     H223838   5.036   3.160   9.004  0.3299  0.6566 -1.4365
 4007TP3      O23839   2.608   4.345   2.980 -0.0623  0.3615 -0.0562
 4007TP3     H123840   2.597   4.303   3.066  1.5571  0.7004  0.3326
 4007TP3     H223841   2.520   4.373   2.956 -0.6134 -0.1860  1.2684
 4008TP3      O23842   0.102   3.616   2.368 -0.3822  0.0385  0.6118
 4008TP3     H123843   0.123   3.613   2.461 -0.2673  0.6121  0.6055
 4008TP3     H223844   0.007   3.615   2.364 -0.4462  2.6638  0.8442
 4009TP3      O23845   1.876   4.514   1.755  0.4366 -0.3570  0.0460
 4009TP3     H123846   1.881   4.428   1.714  0.1874 -1.0145  1.3508
 4009TP3     H223847   1.892   4.497   1.848 -2.2953  0.6063  0.7400
 4010TP3      O23848   4.212   0.437  10.056  0.1734 -0.3292  0.9223
 4010TP3     H123849   4.264   0.413  10.133  1.7954 -1.5342 -0.5136
 4010TP3     H223850   4.209   0.357  10.004  0.6961  0.9938 -1.1672
 4011TP3      O23851   1.053   1.871   2.047 -0.8314 -0.0723 -0.0172
 4011TP3     H123852   1.028   1.829   1.965  1.5282 -0.9383 -0.3357
 4011TP3     H223853   1.098   1.951   2.020  2.2243 -1.6061  0.2725
 4012TP3      O23854   4.481   2.967   9.982 -0.1394  0.0429  0.0301
 4012TP3     H123855   4.401   2.942  10.028 -0.8201  0.7609 -0.7373
 4012TP3     H223856   4.526   2.885   9.966 -0.6017 -0.3434  0.7065
 4013TP3      O23857   0.185   2.054   9.446 -0.2000 -0.1452 -0.3916
 4013TP3     H123858   0.264   1.999   9.449 -0.8247 -1.0054  1.6324
 4013TP3     H223859   0.209   2.128   9.390  1.0653 -1.8650 -2.2003
 4014TP3      O23860   0.034   5.396   1.916 -0.3572  0.1164 -0.3408
 4014TP3     H123861  -0.059   5.384   1.896 -0.3904 -3.6705  1.6225
 4014TP3     H223862   0.070   5.438   1.838 -3.5820  1.1828 -1.3447
 4015TP3      O23863   0.482   0.217   1.698 -0.1492 -0.0721 -0.1862
 4015TP3     H123864   0.392   0.247   1.709  0.8242  2.5804  0.9031
 4015TP3     H223865   0.535   0.297   1.702  2.4566 -1.7842  1.4392
 4016TP3      O23866   2.380   4.932   0.524 -0.1313  0.1588  0.4537
 4016TP3     H123867   2.417   4.884   0.450  1.8307  1.9797  0.2055
 4016TP3     H223868   2.338   5.009   0.485 -2.9375 -1.0828  0.8822
 4017TP3      O23869   4.176   5.357   2.647  0.1777  0.2333 -0.4591
 4017TP3     H123870   4.133   5.372   2.732 -1.8834  2.2520 -1.8196
 4017TP3     H223871   4.243   5.424   2.642  0.0809  0.3182 -0.5875
 4018TP3      O23872   2.234   2.028   0.104  0.0648  0.4781 -0.1287
 4018TP3     H123873   2.283   2.094   0.153  0.8317 -0.1110 -0.0847
 4018TP3     H223874   2.152   2.072   0.079  1.0461  1.8027 -1.0906
 4019TP3      O23875   4.199   2.071   2.685 -0.1168 -0.2361 -0.3987
 4019TP3     H123876   4.235   1.983   2.680  0.4154  0.0613 -1.9238
 4019TP3     H223877   4.252   2.115   2.752  0.8222 -0.5059 -0.9624
 4020TP3      O23878   3.555   1.809   3.054 -0.0848  0.1619  0.2352
 4020TP3     H123879   3.649   1.794   3.050 -0.1728 -0.8803  1.8020
 4020TP3     H223880   3.542   1.891   3.007  1.4517 -0.3162 -1.0633
 4021TP3      O23881   0.378   2.243   3.482 -0.3862 -0.4080 -0.5705
 4021TP3     H123882   0.293   2.280   3.504 -0.6599 -0.8877 -0.7962
 4021TP3     H223883   0.442   2.306   3.515 -0.8046 -0.5199  0.4684
 4022TP3      O23884   5.255   0.269   2.214  0.2516 -0.0358  0.2877
 4022TP3     H123885   5.212   0.306   2.291 -1.4272 -0.3749 -0.4484
 4022TP3     H223886   5.221   0.179   2.208  1.0025 -0.2882 -0.3709
 4023TP3      O23887   5.174   1.813   1.226 -0.0975 -0.2800 -0.3382
 4023TP3     H123888   5.096   1.859   1.258 -0.1886 -1.2218  0.8498
 4023TP3     H223889   5.161   1.723   1.255  0.4242 -0.9124 -2.0060
 4024TP3      O23890   1.431   3.877  10.298  0.4526 -0.2820  0.9431
 4024TP3     H123891   1.428   3.972  10.310  0.5147  0.0775 -1.6766
 4024TP3     H223892   1.407   3.842  10.384 -3.4152  2.0985  0.9579
 4025TP3      O23893   5.394   1.688   2.610 -0.0218  0.1834  0.3923
 4025TP3     H123894   5.371   1.605   2.569 -1.3487  0.0061  1.4406
 4025TP3     H223895   5.419   1.664   2.700  0.7331  0.7957  0.3556
 4026TP3      O23896   0.109   1.894   2.643 -0.2719  0.4134  0.1009
 4026TP3     H123897   0.103   1.935   2.557  0.3823  4.0665  1.6986
 4026TP3     H223898   0.046   1.822   2.639 -0.2548  0.4817 -3.4027
 4027TP3      O23899   5.234   1.727   2.315 -0.6156  0.3473 -0.5304
 4027TP3     H123900   5.254   1.818   2.336  0.6619  0.2387 -1.2172
 4027TP3     H223901   5.218   1.685   2.400  0.3602  0.8519 -0.0947
 4028TP3      O23902   2.263   2.852   2.844 -0.1350 -0.4395  0.1713
 4028TP3     H123903   2.268   2.781   2.908  0.8347 -0.0276  0.5549
 4028TP3     H223904   2.267   2.932   2.896 -1.4260 -0.0875 -0.2439
 4029TP3      O23905   5.496   2.180   2.530  0.5445 -0.3797 -0.1946
 4029TP3     H123906   5.431   2.222   2.474  1.0675  0.0278 -0.4949
 4029TP3     H223907   5.554   2.133   2.469  0.5622 -0.7021  0.0673
 4030TP3      O23908   0.894   4.807   1.193 -0.2182  0.1415 -0.0155
 4030TP3     H123909   0.802   4.784   1.186  0.2223 -1.0710 -2.0976
 4030TP3     H223910   0.896   4.879   1.257 -2.4384 -0.6672  1.0086
 4031TP3      O23911   3.524   4.269   2.169  0.8684 -0.2684 -0.4468
 4031TP3     H123912   3.439   4.288   2.207  1.1273  0.4350 -0.1989
 4031TP3     H223913   3.545   4.347   2.117  2.1712  0.3818  0.9754
 4032TP3      O23914   0.782   0.848   0.915  0.4472 -0.3145  0.6448
 4032TP3     H123915   0.728   0.833   0.837  0.2052 -2.5934  1.2114
 4032TP3     H223916   0.771   0.768   0.966  4.0272 -0.6381  0.9758
 4033TP3      O23917   3.704   0.293   1.214 -0.1892  0.4935 -0.0124
 4033TP3     H123918   3.759   0.367   1.188 -1.2511  1.3271  0.0851
 4033TP3     H223919   3.615   0.329   1.219 -0.8377 -0.9452 -0.6579
 4034TP3      O23920   0.422   0.023   7.639  0.0225 -0.5597  0.4926
 4034TP3     H123921   0.431  -0.028   7.720 -2.4264 -0.4450  0.8754
 4034TP3     H223922   0.331   0.055   7.641  0.3945  0.6901 -1.5739
 4035TP3      O23923   4.034   5.518   1.208 -0.0283  0.0980 -0.0719
 4035TP3     H123924   3.947   5.535   1.244  0.5694  1.5462  0.7513
 4035TP3     H223925   4.094   5.541   1.279  1.0308 -0.6564 -0.7156
 4036TP3      O23926   0.190   0.030   1.714  0.1471  0.4040 -0.7121
 4036TP3     H123927   0.222   0.024   1.624 -1.1249  0.4111 -1.1707
 4036TP3     H223928   0.219   0.116   1.744 -0.4195  0.8820 -1.5097
 4037TP3      O23929   2.591   1.262   2.846 -0.1140 -0.2346  0.2950
 4037TP3     H123930   2.683   1.259   2.873 -0.3547  0.5450  1.2679
 4037TP3     H223931   2.555   1.338   2.893 -1.4642 -1.0479  0.6205
 4038TP3      O23932   5.294   1.530   3.276 -0.2920 -0.4161 -0.1739
 4038TP3     H123933   5.275   1.442   3.309  0.6693 -0.0162  1.5313
 4038TP3     H223934   5.386   1.528   3.251 -0.4039 -0.0357 -0.6345
 4039TP3      O23935   0.424   1.521   1.176 -0.0456  0.0697  0.2681
 4039TP3     H123936   0.340   1.518   1.130  0.5031  1.2922 -0.8377
 4039TP3     H223937   0.454   1.430   1.178 -1.0975 -0.2850  0.1193
 4040TP3      O23938   5.511   5.330  10.144 -0.2752 -0.7314  0.2546
 4040TP3     H123939   5.585   5.273  10.165 -0.5121 -0.5542  1.5763
 4040TP3     H223940   5.485   5.369  10.227 -1.8250 -0.7434 -0.1958
 4041TP3      O23941   2.098   1.553   0.373 -0.4289  0.5715  0.6905
 4041TP3     H123942   2.081   1.623   0.310  1.0125 -1.7887 -2.4868
 4041TP3     H223943   2.194   1.546   0.374 -0.5779 -2.1640 -0.0755
 4042TP3      O23944   4.774   4.445   0.230  0.4046 -0.3376  0.3888
 4042TP3     H123945   4.756   4.524   0.281  0.2990  0.1602 -0.4146
 4042TP3     H223946   4.772   4.374   0.294 -0.5223  0.1858  0.9402
 4043TP3      O23947   0.881   1.383   9.823  0.2490  0.0201 -0.3383
 4043TP3     H123948   0.880   1.311   9.759  0.5042  0.2378 -0.5882
 4043TP3     H223949   0.940   1.353   9.892  0.8794  0.2660 -0.7668
 4044TP3      O23950   1.950   3.864   2.301  0.5980 -0.4663 -0.1371
 4044TP3     H123951   2.038   3.829   2.316 -0.7798 -2.8382  3.1216
 4044TP3     H223952   1.908   3.860   2.387 -2.7329  0.5120 -1.6448
 4045TP3      O23953   1.362   4.021   2.444  0.1893  0.1363 -0.1820
 4045TP3     H123954   1.358   3.929   2.419 -0.9570 -0.0898  0.7752
 4045TP3     H223955   1.378   4.020   2.538 -0.4972  0.9029 -0.0501
 4046TP3      O23956   4.964   3.617   1.166 -0.1317 -0.6366 -0.0765
 4046TP3     H123957   4.988   3.630   1.258  1.2256 -2.3484 -0.1496
 4046TP3     H223958   4.871   3.596   1.168 -0.7041  1.7807  0.6504
 4047TP3      O23959   2.168   4.175   2.030 -0.7267 -0.2837  0.0214
 4047TP3     H123960   2.090   4.149   2.079  1.5485 -0.9037  3.4599
 4047TP3     H223961   2.205   4.093   1.998  0.7228 -0.3775  1.8958
 4048TP3      O23962   0.285   3.138   9.394  0.4304  0.2874  0.1015
 4048TP3     H123963   0.209   3.111   9.342  0.2799  2.3981 -0.8070
 4048TP3     H223964   0.285   3.078   9.469 -0.8414 -1.1440 -1.0146
 4049TP3      O23965   0.176   2.759   0.913 -0.0247 -0.0556  0.3070
 4049TP3     H123966   0.170   2.698   0.840 -0.0121  0.4769 -0.1417
 4049TP3     H223967   0.160   2.705   0.991 -0.6279 -0.5124 -0.1287
 4050TP3      O23968   0.644   2.907   2.158 -0.1085  0.0126  0.7962
 4050TP3     H123969   0.567   2.909   2.216 -0.9705 -0.7885 -0.3020
 4050TP3     H223970   0.647   2.818   2.124 -0.3010  0.7633 -1.2824
 4051TP3      O23971   4.278   5.477   0.872 -0.2951 -0.0899  0.9591
 4051TP3     H123972   4.308   5.390   0.898 -1.0104 -0.2921  1.1106
 4051TP3     H223973   4.358   5.523   0.846 -0.0126 -1.0714  0.0554
 4052TP3      O23974   2.098   0.011   2.713  0.3857  0.5172 -0.4171
 4052TP3     H123975   2.099  -0.030   2.799  0.4071  0.0954 -0.6146
 4052TP3     H223976   2.005   0.018   2.692  0.3346  1.9021  0.2369
 4053TP3      O23977   0.071   5.108   3.190 -0.7284 -0.4042 -0.4291
 4053TP3     H123978   0.040   5.193   3.221 -1.0958  0.3721 -2.7687
 4053TP3     H223979   0.027   5.044   3.245 -1.1950  0.8851  0.7275
 4054TP3      O23980   4.047   0.626   1.239 -0.2884 -0.4093  0.3990
 4054TP3     H123981   4.070   0.538   1.208 -0.0724 -0.5741  1.0183
 4054TP3     H223982   3.953   0.623   1.254 -0.3423 -0.4210  0.0606
 4055TP3      O23983   0.396   2.183   1.893  0.7806 -0.0987  0.1048
 4055TP3     H123984   0.418   2.117   1.958  0.8223  1.2237  1.4379
 4055TP3     H223985   0.457   2.166   1.821  0.1697 -2.1057  0.0207
 4056TP3      O23986   5.302   5.507   2.083 -0.0443 -0.0279 -0.5324
 4056TP3     H123987   5.316   5.421   2.124 -0.3641 -1.0380 -2.4568
 4056TP3     H223988   5.207   5.519   2.087 -0.0817 -0.1515 -0.9956
 4057TP3      O23989   1.220   1.021   3.311 -0.0516 -0.8162 -0.7461
 4057TP3     H123990   1.218   1.100   3.365  0.0394 -1.3902  0.0962
 4057TP3     H223991   1.283   1.041   3.242  1.0249 -0.6736  0.2757
 4058TP3      O23992   0.876   1.683   1.567 -0.2754  0.0812  0.5106
 4058TP3     H123993   0.797   1.691   1.515 -0.1566  0.0784  0.3291
 4058TP3     H223994   0.904   1.592   1.553  1.2202  0.8208 -1.5340
 4059TP3      O23995   2.820   1.206   1.896  0.6216 -0.3238  0.0260
 4059TP3     H123996   2.867   1.289   1.895  2.3226 -1.2845 -0.4522
 4059TP3     H223997   2.777   1.201   1.810 -1.4536  1.1524  0.9473
 4060TP3      O23998   2.464   0.315   2.408 -0.0733 -0.0596 -0.5707
 4060TP3     H123999   2.372   0.297   2.429 -0.2935 -0.1775 -1.5913
 4060TP3     H224000   2.503   0.341   2.491 -0.6555 -1.5590  0.1785
 4061TP3      O24001   1.065   0.380   2.794  0.4160 -0.2226  0.2906
 4061TP3     H124002   1.075   0.369   2.889 -0.5067  0.1300  0.4330
 4061TP3     H224003   1.154   0.376   2.760  0.7694 -0.1561  1.1998
 4062TP3      O24004   4.326   0.724   2.913 -0.5096 -0.6404  0.1866
 4062TP3     H124005   4.325   0.723   3.008 -0.4614 -0.7034  0.1862
 4062TP3     H224006   4.295   0.812   2.890  2.0485  0.3227  0.2940
 4063TP3      O24007   0.703   0.763   2.066  0.7324  0.1531 -0.6889
 4063TP3     H124008   0.675   0.744   2.156  0.9701  0.2326 -0.5973
 4063TP3     H224009   0.798   0.750   2.067  1.0738  2.5009 -0.3197
 4064TP3      O24010   2.419   0.334   2.835 -0.0122  0.0764  0.0832
 4064TP3     H124011   2.472   0.398   2.882  1.1790  0.2571 -1.4379
 4064TP3     H224012   2.426   0.253   2.886  3.0961 -0.3528 -0.8919
 4065TP3      O24013   3.133   3.759  10.078  0.2946 -0.1157 -0.2726
 4065TP3     H124014   3.066   3.814  10.037 -1.0119 -1.2740  0.2578
 4065TP3     H224015   3.133   3.786  10.170  0.6889  0.0051 -0.3063
 4066TP3      O24016   0.576   0.563   8.433 -0.4442  0.2931 -0.3188
 4066TP3     H124017   0.577   0.589   8.341  0.0162  1.3612 -0.0101
 4066TP3     H224018   0.591   0.468   8.431  1.3082  0.5864 -1.2404
 4067TP3      O24019   1.592   1.835   1.023  0.2068  0.0378  0.4098
 4067TP3     H124020   1.506   1.827   1.063  0.1100 -1.4050 -0.0353
 4067TP3     H224021   1.630   1.914   1.062 -0.1196 -0.9746  2.8858
 4068TP3      O24022   0.268   3.597   2.147 -0.0627  0.3393 -0.3701
 4068TP3     H124023   0.213   3.608   2.224 -1.3339  1.1643 -1.3791
 4068TP3     H224024   0.207   3.571   2.078  0.8121  1.3082 -1.5123
 4069TP3      O24025   1.943   1.734   0.845 -0.1973  0.4222  0.0853
 4069TP3     H124026   1.949   1.828   0.831  2.0379  0.6192  1.9953
 4069TP3     H224027   1.989   1.696   0.770 -0.2345  0.8976 -0.1791
 4070TP3      O24028   1.614   1.549   2.905  0.3027  0.1773  0.0690
 4070TP3     H124029   1.575   1.481   2.961  0.6104 -0.0631 -0.0084
 4070TP3     H224030   1.560   1.549   2.826 -0.5564  0.9936  0.6502
 4071TP3      O24031   0.433   3.056   1.175  0.7151  0.0458 -0.3473
 4071TP3     H124032   0.385   2.973   1.172  0.0381  0.4809 -1.7652
 4071TP3     H224033   0.366   3.121   1.198  1.1622  0.2729  0.3316
 4072TP3      O24034   3.731   2.658   8.593 -0.1382  0.0409  0.0990
 4072TP3     H124035   3.720   2.580   8.538 -0.4169  0.0144  0.1915
 4072TP3     H224036   3.826   2.671   8.597 -0.1568  1.0521 -1.8387
 4073TP3      O24037   0.075   4.712   1.595 -0.4238  0.8898  0.7230
 4073TP3     H124038   0.068   4.780   1.661 -1.9660 -0.1071  1.6050
 4073TP3     H224039   0.167   4.685   1.598 -0.3093  1.3996  1.8878
 4074TP3      O24040   2.286   4.969   1.630  0.0788  0.1127 -0.4153
 4074TP3     H124041   2.254   5.039   1.688 -0.5243 -0.3653 -0.1636
 4074TP3     H224042   2.207   4.939   1.584 -0.1796 -2.3623  1.5712
 4075TP3      O24043   3.206   0.718   2.561  0.0536  0.3056 -0.6501
 4075TP3     H124044   3.297   0.748   2.559  0.7329 -1.5806  0.5925
 4075TP3     H224045   3.163   0.777   2.624  0.8741  0.0368  0.1751
 4076TP3      O24046   1.269   0.843   2.754  0.3647  0.3113 -0.0887
 4076TP3     H124047   1.314   0.895   2.821 -1.6327  0.1309  1.4262
 4076TP3     H224048   1.288   0.753   2.778  0.9868  0.2717 -0.7203
 4077TP3      O24049   1.244   5.424   2.635  0.0091 -0.1162  0.4291
 4077TP3     H124050   1.298   5.499   2.614 -0.0746 -0.0577  0.4205
 4077TP3     H224051   1.214   5.440   2.725  0.5575 -0.4802  0.6810
 4078TP3      O24052   4.747   1.478   1.839 -0.2886  0.4639  0.0719
 4078TP3     H124053   4.811   1.539   1.878 -0.6029  1.2438 -0.6115
 4078TP3     H224054   4.753   1.399   1.893 -0.1292  1.2342  1.2075
 4079TP3      O24055   5.102   3.576   1.626  0.3882  0.4766 -0.4109
 4079TP3     H124056   5.031   3.529   1.670 -0.2492  0.6183 -1.2777
 4079TP3     H224057   5.138   3.633   1.694  0.6962 -0.7277  0.4565
 4080TP3      O24058   4.826   4.535   1.100  0.0960  0.0798  0.1754
 4080TP3     H124059   4.766   4.465   1.073 -1.7553  2.0578 -0.9260
 4080TP3     H224060   4.847   4.513   1.191 -0.7294 -1.7134 -0.0324
 4081TP3      O24061   4.870   1.653   2.248  0.0013  0.2857  0.0504
 4081TP3     H124062   4.862   1.559   2.268 -0.5960  0.5261  0.9794
 4081TP3     H224063   4.800   1.671   2.186 -2.0769  0.8021  2.4335
 4082TP3      O24064   4.402   5.245   0.960  0.3962 -0.0550  0.1058
 4082TP3     H124065   4.382   5.184   0.889  0.9824  0.0827 -0.1821
 4082TP3     H224066   4.495   5.232   0.978  0.3299  0.1525  0.6223
 4083TP3      O24067   4.010   5.517   8.868  0.0355  0.3252 -0.6338
 4083TP3     H124068   4.062   5.592   8.840 -0.5865  1.2077  0.5419
 4083TP3     H224069   3.924   5.553   8.889 -0.3083 -0.7367 -0.1731
 4084TP3      O24070   4.639   5.026   8.280 -0.1517 -0.6402 -0.5713
 4084TP3     H124071   4.625   4.957   8.215 -2.7984  0.9944 -1.8276
 4084TP3     H224072   4.570   5.090   8.263  0.6180  1.0672  2.2584
 4085TP3      O24073   0.528   5.057   1.128  0.0560  0.1329 -1.0360
 4085TP3     H124074   0.548   4.997   1.056  2.1122  0.8879 -1.1243
 4085TP3     H224075   0.611   5.099   1.148 -0.3570 -0.4406  2.1470
 4086TP3      O24076   3.406   0.465   1.492  0.1322  0.4669  0.0481
 4086TP3     H124077   3.314   0.479   1.469  0.2470  0.3423 -0.4905
 4086TP3     H224078   3.440   0.407   1.423  0.1123 -1.0497  1.2925
 4087TP3      O24079   0.667   0.946   2.363 -0.4335 -0.2647  0.0250
 4087TP3     H124080   0.722   0.931   2.286  1.4120  0.6416  1.1267
 4087TP3     H224081   0.611   1.019   2.339  0.5384  0.3957 -0.2690
 4088TP3      O24082   4.866   3.707   1.439  0.4840 -0.0106  0.1297
 4088TP3     H124083   4.833   3.796   1.424 -0.8148 -0.1248  2.2203
 4088TP3     H224084   4.935   3.718   1.504  0.4277 -0.5264  0.2718
 4089TP3      O24085   0.307   0.509   0.886  0.1309  0.3431  0.4515
 4089TP3     H124086   0.345   0.585   0.842  0.8516 -0.2431  0.0270
 4089TP3     H224087   0.382   0.462   0.922 -0.1704 -0.8770 -0.4620
 4090TP3      O24088   0.813   3.430   9.077  0.0978 -0.3787  0.1084
 4090TP3     H124089   0.756   3.438   9.153 -1.8331  1.4415 -1.4907
 4090TP3     H224090   0.898   3.404   9.113 -1.7841 -3.4676  2.4994
 4091TP3      O24091   0.623   4.398   0.377 -0.0227 -0.5816 -0.1377
 4091TP3     H124092   0.574   4.430   0.452 -1.9214 -0.2427 -1.4742
 4091TP3     H224093   0.562   4.340   0.331  0.9712 -0.4889 -1.6302
 4092TP3      O24094   3.079   3.250   2.907 -0.1872  0.5369 -0.1451
 4092TP3     H124095   3.161   3.299   2.907  0.2393 -0.1516 -1.2514
 4092TP3     H224096   3.015   3.309   2.868  0.5644 -0.1383 -2.4900
 4093TP3      O24097   0.220   3.168   2.345 -0.1047  0.1652 -0.2394
 4093TP3     H124098   0.204   3.195   2.255  0.8923  1.3635 -0.0637
 4093TP3     H224099   0.286   3.099   2.338 -0.7645 -0.4414 -0.4984
 4094TP3      O24100   1.785   1.014   2.719 -0.5554  0.3457  0.2484
 4094TP3     H124101   1.866   1.044   2.761  0.2613  0.9433 -1.7128
 4094TP3     H224102   1.778   1.066   2.639 -0.9529 -2.2078 -1.4577
 4095TP3      O24103   0.320   5.329   1.806  0.0187 -0.4149  0.0426
 4095TP3     H124104   0.284   5.252   1.760 -1.3004 -1.0048  2.0373
 4095TP3     H224105   0.265   5.402   1.777 -0.4783 -0.6933  0.2788
 4096TP3      O24106   0.474   2.430   2.660  0.2009  0.2835  0.4942
 4096TP3     H124107   0.465   2.380   2.579 -1.1188  0.1241  0.7215
 4096TP3     H224108   0.403   2.398   2.716 -0.4944  2.1685  0.7516
 4097TP3      O24109   4.870   4.434   1.385 -0.3483  0.0451 -0.8439
 4097TP3     H124110   4.800   4.483   1.429 -0.3989 -2.1104  1.6604
 4097TP3     H224111   4.950   4.462   1.429 -0.1177 -0.3553 -1.0094
 4098TP3      O24112   1.781   5.245   2.558  0.5753 -0.4991  0.1640
 4098TP3     H124113   1.711   5.297   2.519  1.6452 -0.3651 -1.6524
 4098TP3     H224114   1.826   5.305   2.617  2.9304  1.2707 -3.2776
 4099TP3      O24115   4.473   1.281   1.885 -0.0057  0.5534  0.6518
 4099TP3     H124116   4.385   1.244   1.891  0.0943  0.3256  0.7327
 4099TP3     H224117   4.507   1.249   1.802  0.5843 -0.6668  1.3369
 4100TP3      O24118   0.194   5.369   3.378  0.1458  0.0908  0.3379
 4100TP3     H124119   0.112   5.372   3.329  1.1243  1.6002 -1.3007
 4100TP3     H224120   0.182   5.430   3.450 -0.4260 -0.2595  0.5433
 4101TP3      O24121   1.047   5.257   0.005  0.2332  0.4333  0.7207
 4101TP3     H124122   0.954   5.276   0.014 -0.8334 -3.0355 -1.6589
 4101TP3     H224123   1.083   5.270   0.092 -2.2635  2.8298  1.4604
 4102TP3      O24124   0.556   5.446   1.494  0.1868 -0.4753 -0.0978
 4102TP3     H124125   0.536   5.502   1.419 -0.4966  0.0136  0.4361
 4102TP3     H224126   0.495   5.373   1.487 -1.0502  0.4311  0.8983
 4103TP3      O24127   3.706   0.931   1.434  0.0514 -0.1017 -0.0934
 4103TP3     H124128   3.797   0.901   1.441  0.1040 -0.0487 -0.5241
 4103TP3     H224129   3.694   0.950   1.341 -1.0448 -2.1523 -0.3887
 4104TP3      O24130   0.152   1.773   2.187  0.6649 -0.1893 -0.8595
 4104TP3     H124131   0.063   1.775   2.153  0.2458  1.0009  0.2609
 4104TP3     H224132   0.206   1.756   2.110 -0.6707 -3.2664 -1.1926
 4105TP3      O24133   0.922   1.784   2.703 -0.0839 -0.3193 -0.5160
 4105TP3     H124134   0.963   1.717   2.647 -0.7170 -0.9505 -0.2296
 4105TP3     H224135   0.911   1.859   2.645 -0.1445 -0.7480 -1.0720
 4106TP3      O24136   4.409   2.646   1.859  0.1006 -0.0578  0.0985
 4106TP3     H124137   4.503   2.645   1.874  0.2871  0.4031 -1.0205
 4106TP3     H224138   4.372   2.604   1.937  1.3084 -1.5338 -0.1154
 4107TP3      O24139   1.885   2.403   2.552 -0.1566 -0.2176 -0.2504
 4107TP3     H124140   1.935   2.328   2.583 -1.2689 -1.2879 -1.0200
 4107TP3     H224141   1.894   2.400   2.457 -0.0111  0.7675 -0.2779
 4108TP3      O24142   0.737   5.022   2.797  0.2249 -0.4393 -0.1114
 4108TP3     H124143   0.781   5.105   2.777 -1.8260  0.2422 -1.9242
 4108TP3     H224144   0.741   5.016   2.892 -0.4668  2.2488  0.1237
 4109TP3      O24145   3.076   4.374   1.300 -0.4957 -0.2757 -0.2517
 4109TP3     H124146   3.042   4.409   1.383 -1.5769 -1.5658 -0.1313
 4109TP3     H224147   3.067   4.279   1.309  0.0512 -0.4576 -1.5729
 4110TP3      O24148   2.722   0.141   0.698  0.3634  0.2886 -0.0943
 4110TP3     H124149   2.761   0.089   0.628  0.8156 -0.0783  0.4294
 4110TP3     H224150   2.680   0.214   0.653  0.3943 -0.1086 -0.7728
 4111TP3      O24151   0.734   4.751   1.966 -0.7231  0.1254  0.1195
 4111TP3     H124152   0.710   4.716   2.051 -1.5801 -2.3354 -1.0711
 4111TP3     H224153   0.829   4.765   1.971 -0.9848  1.3077  1.8963
 4112TP3      O24154   0.878   5.002   3.443  0.1595  0.4819 -0.7674
 4112TP3     H124155   0.915   5.087   3.469  0.8164  0.3839 -1.4137
 4112TP3     H224156   0.884   5.001   3.348  1.2480 -0.8095 -0.6846
 4113TP3      O24157   5.169   3.675   9.876 -0.0744 -0.1918  0.6506
 4113TP3     H124158   5.164   3.600   9.936 -2.0649  0.0757  0.8751
 4113TP3     H224159   5.207   3.745   9.929 -1.7791  0.0296  1.6164
 4114TP3      O24160   0.427   1.922   9.480  0.0308 -0.2788 -0.6141
 4114TP3     H124161   0.486   1.959   9.545 -0.5653 -0.4240  0.0153
 4114TP3     H224162   0.438   1.827   9.488  0.1109 -0.2923 -0.8705
 4115TP3      O24163   2.424   1.805   0.234  0.5567  0.7891  0.7111
 4115TP3     H124164   2.392   1.892   0.258  1.0693  1.9375 -2.5222
 4115TP3     H224165   2.344   1.754   0.220  0.2316  1.2539  0.8347
 4116TP3      O24166   1.816   3.215   2.074  0.1330 -0.2835  0.0903
 4116TP3     H124167   1.798   3.229   2.167 -0.6950 -0.2848 -0.0609
 4116TP3     H224168   1.795   3.298   2.032 -0.8207 -0.6994 -0.2696
 4117TP3      O24169   4.852   3.250   0.621  0.2024 -0.4082 -0.4021
 4117TP3     H124170   4.796   3.260   0.544 -1.0429 -1.6739  0.3362
 4117TP3     H224171   4.864   3.155   0.629  1.0782 -0.2295  0.4381
 4118TP3      O24172   4.026   0.702   2.912 -0.6632 -0.1834  0.1613
 4118TP3     H124173   4.100   0.760   2.931 -0.5767  0.5551 -2.1678
 4118TP3     H224174   3.992   0.678   2.997  1.3522  0.6650  1.2556
 4119TP3      O24175   1.928   2.990   1.512  0.1112  0.2066  0.1990
 4119TP3     H124176   1.905   3.068   1.564 -1.6893 -0.9874  1.2487
 4119TP3     H224177   1.880   2.919   1.554 -0.2110 -1.0560 -2.2543
 4120TP3      O24178   1.599   2.394   2.504 -0.8277 -0.1484  0.1928
 4120TP3     H124179   1.540   2.418   2.576 -0.5604  0.2296  0.2915
 4120TP3     H224180   1.681   2.438   2.526 -1.2010  1.2886 -1.1382
 4121TP3      O24181   1.938   1.633   2.729  0.0319  0.3513 -0.3021
 4121TP3     H124182   1.879   1.680   2.787  0.3309  0.1435  0.1738
 4121TP3     H224183   1.900   1.546   2.720  0.1233  0.3016 -0.2088
 4122TP3      O24184   0.041   5.471   2.809 -0.1557  0.4676  0.1287
 4122TP3     H124185   0.135   5.450   2.806 -0.2688 -0.0160 -0.0517
 4122TP3     H224186   0.031   5.526   2.887  0.2857  0.5583  0.1232
 4123TP3      O24187   1.179   5.392   2.030 -0.6446 -0.2005 -0.4839
 4123TP3     H124188   1.263   5.365   2.066 -1.0962 -0.8890  0.0655
 4123TP3     H224189   1.116   5.330   2.066 -1.4733  0.6413 -0.4547
 4124TP3      O24190   0.618   1.927   0.857 -0.0294 -0.0097  0.6061
 4124TP3     H124191   0.563   1.856   0.891 -0.6181  1.2642  2.4186
 4124TP3     H224192   0.675   1.949   0.931  0.4616  1.0961 -0.1029
 4125TP3      O24193   0.947   0.296   2.291  0.2736 -0.2807  0.3435
 4125TP3     H124194   0.871   0.250   2.256 -0.7099  1.6927 -0.2241
 4125TP3     H224195   0.994   0.230   2.342 -1.5551 -1.6658  0.2941
 4126TP3      O24196   3.617   0.487   2.588 -0.3680  0.6936  0.2053
 4126TP3     H124197   3.558   0.509   2.516  1.1931 -2.5340 -2.1780
 4126TP3     H224198   3.571   0.418   2.636  0.1185  0.3896  0.2330
 4127TP3      O24199   1.481   3.095   8.993  0.3717  0.2332 -0.4454
 4127TP3     H124200   1.559   3.052   8.957  1.1154 -0.5258  2.0110
 4127TP3     H224201   1.416   3.026   8.999 -0.0876  0.5840 -1.2549
 4128TP3      O24202   0.104   4.355   0.969 -0.2795 -0.1001  0.1304
 4128TP3     H124203   0.087   4.273   0.922 -2.0288  0.3372 -0.0402
 4128TP3     H224204   0.100   4.423   0.902 -2.7315  0.5249  0.8428
 4129TP3      O24205   3.445   3.298   1.622  0.2725 -0.6457 -0.0790
 4129TP3     H124206   3.484   3.211   1.620  0.0062 -0.7659 -0.0417
 4129TP3     H224207   3.519   3.358   1.633  0.5214 -0.8237 -0.7612
 4130TP3      O24208   5.425   4.987   2.777  0.3089 -0.1730 -0.0761
 4130TP3     H124209   5.419   4.943   2.862  0.2324  2.5928  1.4316
 4130TP3     H224210   5.515   4.973   2.749  0.4446 -0.7829  0.6379
 4131TP3      O24211   2.314   1.279   2.103 -0.2880 -0.2020  0.1225
 4131TP3     H124212   2.407   1.257   2.117 -0.3470 -2.1811 -2.2635
 4131TP3     H224213   2.316   1.353   2.043 -0.2469  0.9010  1.4602
 4132TP3      O24214   2.596   0.944   2.118  0.2907  0.3588  0.1188
 4132TP3     H124215   2.630   0.861   2.151  1.0275  0.7193  0.2744
 4132TP3     H224216   2.547   0.920   2.039 -2.2770 -0.6282  1.9712
 4133TP3      O24217   1.696   2.297  10.047 -0.1350  0.0294 -0.4860
 4133TP3     H124218   1.703   2.284  10.141 -1.8069 -1.7532 -0.5625
 4133TP3     H224219   1.714   2.389  10.034  2.1255 -0.1262  1.3460
 4134TP3      O24220   3.886   1.334   2.431  0.5402 -0.0196 -0.1372
 4134TP3     H124221   3.852   1.368   2.348  0.5374  0.5952  0.1157
 4134TP3     H224222   3.808   1.312   2.481  0.5517 -1.4997 -0.7515
 4135TP3      O24223   4.084   1.776   2.290  0.4893  0.1648 -0.0929
 4135TP3     H124224   4.155   1.739   2.341  1.2849  2.9716  0.9406
 4135TP3     H224225   4.122   1.794   2.204  0.9735  1.3768  0.3629
 4136TP3      O24226   0.056   3.543   0.554 -0.1526 -0.0688  0.1477
 4136TP3     H124227  -0.014   3.487   0.521 -1.3650  0.7355  1.2559
 4136TP3     H224228   0.034   3.556   0.646  0.4246  1.7101  0.0546
 4137TP3      O24229   2.661   0.891   0.923  0.2061 -0.1489 -0.2590
 4137TP3     H124230   2.660   0.833   0.846  0.3170 -0.2344 -0.1962
 4137TP3     H224231   2.569   0.907   0.941  0.2002  1.8460 -1.9023
 4138TP3      O24232   2.834   0.719   2.193  0.4226  0.1907  0.1700
 4138TP3     H124233   2.916   0.715   2.242  0.5133 -1.5769 -0.1170
 4138TP3     H224234   2.791   0.635   2.210 -2.1757  1.7306  1.7391
 4139TP3      O24235   5.317   1.960   2.613  0.4837  0.3239 -0.1364
 4139TP3     H124236   5.330   1.867   2.593 -0.0365 -0.0553  1.2281
 4139TP3     H224237   5.405   1.992   2.634  0.7979  0.3573 -1.4766
 4140TP3      O24238   1.695   2.075   1.116 -0.2881  0.1760  0.5369
 4140TP3     H124239   1.758   2.080   1.189 -0.1408  2.1145  0.2920
 4140TP3     H224240   1.611   2.100   1.155 -0.6084 -0.7668  0.4784
 4141TP3      O24241   4.811   1.559   0.192  0.4458  0.1434 -0.7902
 4141TP3     H124242   4.899   1.538   0.163  0.3369  0.9152 -1.6857
 4141TP3     H224243   4.807   1.525   0.282  1.9200  0.8296 -0.4513
 4142TP3      O24244   4.204   0.072   1.394 -0.1538 -0.5110  0.3248
 4142TP3     H124245   4.185   0.141   1.458  1.3220 -2.4927  2.9892
 4142TP3     H224246   4.290   0.095   1.358 -0.8109  0.3914 -0.7158
 4143TP3      O24247   3.358   1.159   2.654 -0.3433 -0.0255 -0.4303
 4143TP3     H124248   3.352   1.138   2.747  0.3438  0.2721 -0.3178
 4143TP3     H224249   3.310   1.242   2.645  0.1284  0.2684 -0.2347
 4144TP3      O24250   2.526   4.104   0.965  0.0105  0.7797 -0.3220
 4144TP3     H124251   2.505   4.033   1.025 -0.9479  0.7076 -0.7388
 4144TP3     H224252   2.456   4.168   0.978  0.0270  0.9522 -1.0584
 4145TP3      O24253   3.396   0.080   2.196  0.2476 -0.3703  0.0263
 4145TP3     H124254   3.457   0.153   2.198  0.9332 -0.9481  0.6284
 4145TP3     H224255   3.448   0.004   2.224 -0.5569 -1.0043 -0.1635
 4146TP3      O24256   4.750   3.674   0.913 -0.7973 -0.1912  0.0960
 4146TP3     H124257   4.831   3.718   0.889 -0.0492 -1.3827  0.4191
 4146TP3     H224258   4.725   3.626   0.835 -0.6869 -0.5818  0.3005
 4147TP3      O24259   4.436   4.482   1.960  0.0373  0.0940 -0.1091
 4147TP3     H124260   4.378   4.537   1.908 -1.8294 -1.9090 -0.1908
 4147TP3     H224261   4.508   4.460   1.901 -0.1049  0.9515 -0.6097
 4148TP3      O24262   1.456   2.428  10.253  0.0071 -0.0681  0.3065
 4148TP3     H124263   1.382   2.399  10.307 -0.9024  0.9433 -0.3802
 4148TP3     H224264   1.419   2.440  10.165  1.4703 -1.6920 -0.5587
 4149TP3      O24265   0.665   4.374   2.304 -0.0683 -0.2232 -0.3181
 4149TP3     H124266   0.724   4.328   2.363  0.1422  0.2893 -0.1309
 4149TP3     H224267   0.623   4.304   2.253 -1.5060 -0.7910  1.5846
 4150TP3      O24268   1.380   2.008   2.246 -0.9740  0.1942  0.0645
 4150TP3     H124269   1.342   2.087   2.208 -1.2724 -0.6026 -1.3170
 4150TP3     H224270   1.426   2.039   2.324  0.0293  1.9250 -1.1698
 4151TP3      O24271   4.217   0.946   2.807  0.1819 -0.0172  0.0781
 4151TP3     H124272   4.216   0.972   2.715  0.2745  2.3298  0.7023
 4151TP3     H224273   4.274   1.010   2.849  0.9099 -1.6230  1.6283
 4152TP3      O24274   2.907   2.390   1.928  0.7500  0.1987  0.5036
 4152TP3     H124275   2.836   2.416   1.870  0.4308 -3.6562 -1.0369
 4152TP3     H224276   2.975   2.455   1.914 -1.4756  2.5012  0.0535
 4153TP3      O24277   2.158   3.995   1.170 -0.5626 -0.4332  0.0519
 4153TP3     H124278   2.185   3.909   1.201  2.1004  0.2824 -0.1462
 4153TP3     H224279   2.171   3.991   1.075 -2.2548 -0.4160 -0.1942
 4154TP3      O24280   3.532   2.118   2.388 -0.2978 -0.1676  0.3275
 4154TP3     H124281   3.526   2.206   2.351 -0.7058 -0.9838 -1.6061
 4154TP3     H224282   3.449   2.076   2.365  0.1695 -1.2913  0.6474
 4155TP3      O24283   5.518   4.688  10.257 -0.5680  0.0310  0.2767
 4155TP3     H124284   5.493   4.733  10.175  0.5368 -0.6171 -0.4210
 4155TP3     H224285   5.557   4.757  10.310 -0.2456  0.2176 -0.1952
 4156TP3      O24286   1.986   2.504   2.085 -0.0665 -0.1625  0.2887
 4156TP3     H124287   2.063   2.493   2.141  0.6545  0.5727 -0.5223
 4156TP3     H224288   1.919   2.449   2.124  0.5334  0.0615  1.6631
 4157TP3      O24289   2.733   4.613   3.003  0.4642  0.0995 -0.3436
 4157TP3     H124290   2.698   4.524   3.003  0.9465 -0.0955 -0.9365
 4157TP3     H224291   2.821   4.603   3.041 -0.5819  0.7793  2.3617
 4158TP3      O24292   3.537   1.512   2.512 -0.1033  0.1819  0.0831
 4158TP3     H124293   3.586   1.525   2.594  1.4416 -0.5846 -0.7091
 4158TP3     H224294   3.591   1.555   2.445 -0.7506 -0.2536 -0.7254
 4159TP3      O24295   4.446   0.579   2.082  0.0799  0.2039  0.3173
 4159TP3     H124296   4.382   0.601   2.149  1.2158  2.1279  0.8031
 4159TP3     H224297   4.429   0.642   2.012  2.0159  1.3135  0.8307
 4160TP3      O24298   2.900   1.114   1.431  0.0658  0.0254  0.0913
 4160TP3     H124299   2.913   1.204   1.400  0.8615  0.5883  1.9863
 4160TP3     H224300   2.981   1.068   1.408  0.3752  0.2658  0.6756
 4161TP3      O24301   5.214   4.533   9.182 -0.1213  0.0730 -0.2961
 4161TP3     H124302   5.290   4.590   9.178 -0.5565  0.7668  1.0793
 4161TP3     H224303   5.236   4.468   9.250 -0.1519 -0.6127 -0.9360
 4162TP3      O24304   3.799   4.733   2.363  0.4204 -0.2257  0.4028
 4162TP3     H124305   3.760   4.727   2.276 -1.7328  2.0865  1.1388
 4162TP3     H224306   3.835   4.822   2.367  0.1015 -0.1575  2.0296
 4163TP3      O24307   2.200   0.351   2.688 -0.3402  0.4353 -0.1281
 4163TP3     H124308   2.286   0.321   2.718 -0.4288  0.8985  0.6116
 4163TP3     H224309   2.212   0.367   2.594  0.3589  0.4011 -0.0520
 4164TP3      O24310   2.837   3.387   0.277  0.4794 -0.4700 -0.1047
 4164TP3     H124311   2.853   3.294   0.294 -0.7203 -0.2963  2.2384
 4164TP3     H224312   2.923   3.423   0.255  0.8049 -2.2893 -1.8788
 4165TP3      O24313   2.606   0.520   2.241 -0.4535 -0.5399 -0.1887
 4165TP3     H124314   2.535   0.564   2.195 -1.1357  0.3363  1.6456
 4165TP3     H224315   2.566   0.491   2.323  1.1342 -0.6599  0.5547
 4166TP3      O24316   3.903   0.365   9.828  0.6418 -0.2363  0.1955
 4166TP3     H124317   3.930   0.418   9.753  2.4344 -2.2645 -0.6611
 4166TP3     H224318   3.984   0.345   9.874 -0.2902 -0.2065  1.8768
 4167TP3      O24319   0.846   5.335   2.904 -0.0455  0.1199 -0.1787
 4167TP3     H124320   0.844   5.298   2.816  0.9820 -1.3595  0.3911
 4167TP3     H224321   0.920   5.291   2.946 -0.8847  0.3944  1.5993
 4168TP3      O24322   4.275   4.233  10.117  0.0064 -0.1702  0.1679
 4168TP3     H124323   4.233   4.256  10.034 -0.4234  0.9543  0.6832
 4168TP3     H224324   4.250   4.142  10.132 -0.1009 -0.3093 -0.8222
 4169TP3      O24325   3.984   1.059   3.017  0.0145  0.6400 -0.0075
 4169TP3     H124326   4.011   0.988   3.076  1.2954  1.9075  0.9691
 4169TP3     H224327   3.997   1.024   2.929 -0.2993 -0.6764  0.4576
 4170TP3      O24328   3.471   0.087   2.526  0.3300 -1.2121  0.2037
 4170TP3     H124329   3.540   0.122   2.470 -1.0943 -0.2673 -1.0031
 4170TP3     H224330   3.469   0.146   2.601 -2.0655  1.4582 -1.8220
 4171TP3      O24331   1.195   3.104   2.816 -0.4048  0.3577 -0.1922
 4171TP3     H124332   1.275   3.139   2.777 -1.6335  4.7678  1.0472
 4171TP3     H224333   1.213   3.100   2.910 -0.9000 -0.7265 -0.1361
 4172TP3      O24334   3.816   1.712   2.251 -0.4005  0.0043  0.1376
 4172TP3     H124335   3.763   1.766   2.310  0.6297  0.0161  1.0752
 4172TP3     H224336   3.906   1.727   2.280 -0.0400 -1.6783 -0.0366
 4173TP3      O24337   0.784   0.411   2.784  0.3047 -0.3051  0.3934
 4173TP3     H124338   0.747   0.500   2.778  1.1597 -0.0669 -1.7453
 4173TP3     H224339   0.877   0.425   2.799  0.8581 -0.7414 -2.2349
 4174TP3      O24340   2.471   0.717   2.533 -0.3817  0.1368 -0.4401
 4174TP3     H124341   2.431   0.751   2.452 -1.8061  1.1210  0.6556
 4174TP3     H224342   2.427   0.764   2.603 -0.6646 -2.2192  1.0289
 4175TP3      O24343   3.643   1.721   2.736 -0.0577  0.0548  0.0234
 4175TP3     H124344   3.658   1.656   2.805 -0.6564 -0.0754  0.0355
 4175TP3     H224345   3.681   1.802   2.769 -1.3419  0.2739  0.9970
 4176TP3      O24346   3.221   1.859   2.706  0.2819 -0.1316  0.1584
 4176TP3     H124347   3.299   1.803   2.717  0.6744  0.5393  0.8378
 4176TP3     H224348   3.255   1.948   2.712 -0.7359  0.1518  1.7995
 4177TP3      O24349   4.238   2.144   9.249  0.0380 -0.3182  0.4178
 4177TP3     H124350   4.185   2.069   9.226  1.4030 -1.6393  1.4509
 4177TP3     H224351   4.310   2.108   9.301 -0.5095  1.9545  2.9182
 4178TP3      O24352   2.301   5.113   0.310 -0.0586 -0.1867  0.6642
 4178TP3     H124353   2.385   5.156   0.327  0.3074 -0.6712  0.0918
 4178TP3     H224354   2.290   5.117   0.215 -1.6077  1.5942  0.8748
 4179TP3      O24355   1.233   4.087   1.812 -0.1933 -0.2763  0.9541
 4179TP3     H124356   1.298   4.157   1.823  1.4392 -1.4326 -1.0281
 4179TP3     H224357   1.195   4.101   1.726 -1.2686 -0.6919  1.3461
 4180TP3      O24358   3.453   1.085   1.419  0.1644 -0.2608 -0.2153
 4180TP3     H124359   3.498   1.012   1.462  1.5513 -0.3517 -1.7703
 4180TP3     H224360   3.512   1.159   1.429 -0.7145  0.3610  0.3510
 4181TP3      O24361   3.258   2.828   0.829 -0.2148  0.2567 -0.1503
 4181TP3     H124362   3.335   2.822   0.773 -0.5326  1.7516 -0.7669
 4181TP3     H224363   3.222   2.915   0.812 -4.4647 -1.8612 -3.0869
 4182TP3      O24364   1.859   3.244   3.060  0.1432  0.2797 -0.7509
 4182TP3     H124365   1.817   3.328   3.080  0.0382 -0.0442  0.4193
 4182TP3     H224366   1.807   3.180   3.108  1.1522 -0.2828 -0.4102
 4183TP3      O24367   5.415   5.280   1.293  0.3799  0.2723 -0.1654
 4183TP3     H124368   5.434   5.318   1.378  1.6149  0.7112 -0.6197
 4183TP3     H224369   5.411   5.355   1.233 -0.2339 -0.0512 -0.5379
 4184TP3      O24370   0.430   5.357   9.209  0.2290  0.0621 -0.6211
 4184TP3     H124371   0.432   5.263   9.225  0.2255  0.3492  1.1505
 4184TP3     H224372   0.517   5.378   9.176  0.7256 -0.3448  0.3897
 4185TP3      O24373   4.172   4.649   0.000 -1.1028  0.1185  0.4830
 4185TP3     H124374   4.185   4.744  -0.009 -0.5990  0.0408  0.3397
 4185TP3     H224375   4.184   4.615  -0.089 -1.6680 -0.0346  0.4673
 4186TP3      O24376   2.171   4.073   1.505  0.2736 -0.1334  0.3862
 4186TP3     H124377   2.158   4.098   1.414  0.0551 -0.0957  0.4269
 4186TP3     H224378   2.208   4.150   1.547  0.7141 -0.2685  0.2494
 4187TP3      O24379   1.473   1.277   2.814  0.2336  0.4412 -0.1200
 4187TP3     H124380   1.471   1.356   2.760  1.3076  0.8682  0.4449
 4187TP3     H224381   1.498   1.308   2.901  1.1474 -0.5866 -0.0057
 4188TP3      O24382   2.152   0.704   1.605  0.1008  0.0554 -0.1752
 4188TP3     H124383   2.157   0.744   1.692  0.2510 -1.0598  0.3305
 4188TP3     H224384   2.080   0.642   1.611 -0.3662  0.5039 -1.0691
 4189TP3      O24385   3.531   1.288   0.775 -0.4586  0.2551  0.4753
 4189TP3     H124386   3.537   1.196   0.750  0.4374  0.7018 -0.9838
 4189TP3     H224387   3.437   1.303   0.788 -0.7666 -0.4488 -0.8806
 4190TP3      O24388   0.056   4.699   2.884  0.0580 -0.1077  0.2458
 4190TP3     H124389  -0.008   4.754   2.928  0.9408  1.2699 -0.1627
 4190TP3     H224390   0.103   4.655   2.956  0.9842  1.5451  0.6797
 4191TP3      O24391   3.638   5.321   1.380  0.1431 -0.1883 -0.0157
 4191TP3     H124392   3.601   5.375   1.449 -0.9258  0.3626 -0.9911
 4191TP3     H224393   3.687   5.382   1.325  0.0736 -0.4333 -0.3507
 4192TP3      O24394   4.279   0.668   2.311 -0.0205  0.4373  0.1314
 4192TP3     H124395   4.243   0.751   2.339 -2.5781 -0.4313 -0.4080
 4192TP3     H224396   4.301   0.622   2.392  0.3574  1.1848  0.4562
 4193TP3      O24397   2.355   4.758   3.142  0.0090 -0.6959  0.4003
 4193TP3     H124398   2.368   4.845   3.105 -0.9659 -1.0445 -0.8264
 4193TP3     H224399   2.261   4.754   3.159  0.0728 -1.4477  0.5781
 4194TP3      O24400   0.257   3.686   0.897 -0.6482 -0.0097 -0.0510
 4194TP3     H124401   0.291   3.611   0.848  0.9559  0.9844 -0.5248
 4194TP3     H224402   0.281   3.668   0.988  1.5715  0.8633 -0.4309
 4195TP3      O24403   1.863   3.610   2.159 -0.1413  0.3032 -0.4943
 4195TP3     H124404   1.890   3.700   2.174 -1.9870  0.9828 -1.1341
 4195TP3     H224405   1.935   3.557   2.194 -0.4161  1.9438  2.7730
 4196TP3      O24406   4.622   1.328   0.645  0.3958  0.1167 -0.0853
 4196TP3     H124407   4.600   1.306   0.735  1.8122  0.4512  0.3636
 4196TP3     H224408   4.606   1.248   0.596 -0.9604  0.1117  0.3605
 4197TP3      O24409   3.625   0.436   3.345 -0.0443 -0.2144  0.4820
 4197TP3     H124410   3.589   0.437   3.256  1.5274  3.4279 -0.2260
 4197TP3     H224411   3.549   0.448   3.402 -0.8427 -0.6460 -0.4842
 4198TP3      O24412   1.657   4.643   1.902  0.0334  0.1974 -0.7012
 4198TP3     H124413   1.725   4.589   1.863  0.5285  0.1146  0.2563
 4198TP3     H224414   1.651   4.612   1.993 -0.8729  0.5927 -0.6244
 4199TP3      O24415   0.938   2.369   8.083 -0.0342 -0.0561 -0.4351
 4199TP3     H124416   0.981   2.450   8.058  0.9457 -0.4057  0.0806
 4199TP3     H224417   0.982   2.342   8.164  0.3534 -1.6299 -1.1453
 4200TP3      O24418   2.361   2.159   9.698 -0.0388 -0.2229  0.0992
 4200TP3     H124419   2.347   2.151   9.792  1.0699 -0.7660  0.2297
 4200TP3     H224420   2.382   2.252   9.685 -0.0991 -0.1681  0.3937
 4201TP3      O24421   4.509   0.576   9.402  0.4068 -0.4356  0.0887
 4201TP3     H124422   4.435   0.632   9.379 -0.3802 -0.7539  1.7660
 4201TP3     H224423   4.572   0.635   9.442  0.0141 -0.5748  0.9146
 4202TP3      O24424   0.539   2.492   1.579  0.5962  0.5104  0.2370
 4202TP3     H124425   0.630   2.519   1.571  0.2455  1.5614 -0.4020
 4202TP3     H224426   0.542   2.398   1.595  1.7358  0.1387 -2.0241
 4203TP3      O24427   5.028   3.443   3.003  0.1961 -0.1615  0.0688
 4203TP3     H124428   4.953   3.392   3.032  1.1448 -1.3466  0.5029
 4203TP3     H224429   5.066   3.478   3.084  1.0704 -0.9489  0.0091
 4204TP3      O24430   2.588   2.067   2.222 -0.4285  0.1937 -0.3343
 4204TP3     H124431   2.625   2.149   2.189  1.3187 -1.3916 -2.4680
 4204TP3     H224432   2.609   2.067   2.316  3.8694  0.0407 -1.1805
 4205TP3      O24433   3.911   4.947   2.071 -0.2137 -0.2533  0.4594
 4205TP3     H124434   3.911   4.955   2.166 -2.5958  0.3164  0.4360
 4205TP3     H224435   3.885   5.033   2.039  0.2043 -0.5408 -0.7092
 4206TP3      O24436   1.353   4.788   2.314  0.5386 -0.3162  0.0803
 4206TP3     H124437   1.389   4.740   2.389 -0.4633 -0.4330  0.4968
 4206TP3     H224438   1.345   4.722   2.246  1.4026 -0.2219 -0.1198
 4207TP3      O24439   3.376   1.648   2.702 -0.9430 -0.1578 -0.6842
 4207TP3     H124440   3.396   1.565   2.657  0.1984  0.9086 -2.2038
 4207TP3     H224441   3.462   1.689   2.714 -1.5797  1.2365 -0.7999
 4208TP3      O24442   3.592   0.313   2.109 -0.6163 -0.1020  0.1886
 4208TP3     H124443   3.579   0.308   2.014 -1.5103 -1.5501  0.3714
 4208TP3     H224444   3.531   0.382   2.137  0.5105  1.1599 -0.4291
 4209TP3      O24445   3.847   1.046   2.725  0.0764  0.5832 -0.4224
 4209TP3     H124446   3.810   1.090   2.801  0.9378  0.4629  0.0793
 4209TP3     H224447   3.788   1.067   2.653 -0.0962  1.6747  0.0322
 4210TP3      O24448   0.742   0.985   2.700  0.4242  0.0290 -0.5809
 4210TP3     H124449   0.669   0.937   2.660  1.3934 -1.6772 -0.3211
 4210TP3     H224450   0.816   0.969   2.642  0.5294  2.0861 -1.0528
 4211TP3      O24451   2.510   2.946   0.825  0.3565  0.1675  0.1091
 4211TP3     H124452   2.573   2.886   0.864  0.1612  0.1210  0.3569
 4211TP3     H224453   2.451   2.890   0.775 -0.5101  0.0244  1.2689
 4212TP3      O24454   1.459   4.235   0.965  0.1354 -0.1241  0.3462
 4212TP3     H124455   1.446   4.323   1.001  0.4396 -0.2362  0.7346
 4212TP3     H224456   1.497   4.250   0.879 -2.0606  0.1969 -0.6095
 4213TP3      O24457   2.841   1.853  10.288 -0.5691 -0.3472 -0.6584
 4213TP3     H124458   2.781   1.893  10.224 -0.4394  2.1269  0.6905
 4213TP3     H224459   2.797   1.863  10.372  0.4597 -1.1221 -0.0149
 4214TP3      O24460   5.495   2.512  10.119 -0.1867 -0.0785 -0.3397
 4214TP3     H124461   5.497   2.596  10.164  2.7489 -0.5154  0.3945
 4214TP3     H224462   5.564   2.460  10.159  1.3292 -1.1386 -4.0553
 4215TP3      O24463   1.426   1.455   2.070  0.8117  0.3513 -0.5529
 4215TP3     H124464   1.501   1.396   2.078 -0.4492 -0.9797  2.5590
 4215TP3     H224465   1.464   1.541   2.052  3.0521 -0.3766  0.5622
 4216TP3      O24466   2.386   5.450   1.304 -0.6987 -0.0456 -0.1489
 4216TP3     H124467   2.453   5.405   1.252 -0.4433  1.1417 -0.8573
 4216TP3     H224468   2.321   5.477   1.240 -0.3366  1.5097  0.1311
 4217TP3      O24469   4.620   2.719   2.004 -0.0302  0.1135  0.1098
 4217TP3     H124470   4.694   2.659   2.012 -1.0410 -1.0435  0.9595
 4217TP3     H224471   4.658   2.806   2.015  1.3272 -0.4092 -0.3159
 4218TP3      O24472   5.397   0.527  10.295  0.6511 -0.2305 -0.7824
 4218TP3     H124473   5.469   0.582  10.265 -0.1972  1.2754 -0.1251
 4218TP3     H224474   5.320   0.584  10.291 -0.3253 -1.5059 -0.5144
 4219TP3      O24475   4.557   2.605   3.067  0.0943 -0.1050  0.0837
 4219TP3     H124476   4.470   2.565   3.069 -0.0732  0.2874  2.8662
 4219TP3     H224477   4.617   2.531   3.071 -0.1872 -0.2337  2.4534
 4220TP3      O24478   4.318   4.374   1.004  0.7194 -0.3107  0.0964
 4220TP3     H124479   4.327   4.469   1.005 -2.8408  0.0955  0.3906
 4220TP3     H224480   4.224   4.359   0.994  1.2006 -3.8065  0.2075
 4221TP3      O24481   1.269   1.823   1.096  0.0554  0.1701  0.6163
 4221TP3     H124482   1.210   1.891   1.129 -1.6879 -0.7470 -0.5280
 4221TP3     H224483   1.307   1.784   1.175 -1.2976  0.4114  1.4106
 4222TP3      O24484   3.275   5.370   1.901  0.3035  0.5269 -0.0874
 4222TP3     H124485   3.260   5.462   1.920  4.2378  1.1148  0.5618
 4222TP3     H224486   3.273   5.364   1.805 -2.0744  0.8458 -0.0785
 4223TP3      O24487   0.737   5.240   8.825 -0.0866 -0.2520 -0.2368
 4223TP3     H124488   0.758   5.154   8.788  0.8306  0.4304 -1.3010
 4223TP3     H224489   0.645   5.233   8.850  0.1398 -1.7465  0.2428
 4224TP3      O24490   2.571   1.390   2.335 -0.7807 -0.1907  0.5742
 4224TP3     H124491   2.631   1.340   2.391 -0.8605 -1.1443 -0.1881
 4224TP3     H224492   2.572   1.344   2.252  1.3120  2.6543 -1.0768
 4225TP3      O24493   3.039   0.656   2.340  0.6084  0.1494 -0.4727
 4225TP3     H124494   3.100   0.660   2.266  0.1942  2.0903 -0.7217
 4225TP3     H224495   3.092   0.679   2.416  1.0509 -1.9138 -0.1101
 4226TP3      O24496   5.176   3.677   1.385  0.5210 -0.4366 -0.2063
 4226TP3     H124497   5.148   3.767   1.400  1.9151 -0.0896  0.3250
 4226TP3     H224498   5.160   3.633   1.469 -0.1345 -0.6926 -0.4571
 4227TP3      O24499   0.285   0.716   1.348 -0.0741 -0.0912 -0.1609
 4227TP3     H124500   0.260   0.747   1.435  1.1915 -2.2813  1.0200
 4227TP3     H224501   0.368   0.758   1.330 -0.0349 -0.1157 -0.0365
 4228TP3      O24502   5.084   1.628   2.102 -0.2150 -0.3501 -0.6951
 4228TP3     H124503   5.025   1.650   2.173 -0.8580 -0.5836 -1.1469
 4228TP3     H224504   5.172   1.630   2.141 -0.5484 -0.3013  0.0499
 4229TP3      O24505   4.795   0.244   1.566  0.7071  0.3415  0.3966
 4229TP3     H124506   4.747   0.274   1.489  1.5217 -0.0056 -0.2576
 4229TP3     H224507   4.843   0.322   1.595  0.8371  0.3266  0.2222
 4230TP3      O24508   5.336   2.930   2.651 -0.2079  0.5920 -0.7644
 4230TP3     H124509   5.406   2.994   2.663 -0.3621  0.6820 -0.3281
 4230TP3     H224510   5.264   2.979   2.613  0.3701  0.2519 -2.3155
 4231TP3      O24511   0.926   1.011   1.088  0.6540 -0.2931 -0.4025
 4231TP3     H124512   0.910   1.088   1.034 -0.0306  0.5630  0.9935
 4231TP3     H224513   0.892   0.938   1.037 -1.6633  0.7205 -0.3662
 4232TP3      O24514   4.445   1.840   3.172 -0.4652 -0.1200 -0.0203
 4232TP3     H124515   4.447   1.925   3.217  1.1116 -2.2584  4.1965
 4232TP3     H224516   4.536   1.823   3.149 -0.7809 -0.6652 -0.8987
 4233TP3      O24517   5.243   1.680   0.691 -0.2308  0.2924 -0.1770
 4233TP3     H124518   5.289   1.754   0.651  0.3573  0.0826  0.1088
 4233TP3     H224519   5.256   1.691   0.785 -0.8599  0.2894 -0.0831
 4234TP3      O24520   2.000   3.664   2.754  0.0830  0.3939  0.2777
 4234TP3     H124521   1.934   3.643   2.820  0.1865 -1.6699 -0.2477
 4234TP3     H224522   1.952   3.663   2.671  0.1219  2.1430  0.2224
 4235TP3      O24523   0.206   0.581   2.536 -0.0598  0.4145 -0.0190
 4235TP3     H124524   0.288   0.534   2.523 -0.4699 -0.1969 -0.3695
 4235TP3     H224525   0.233   0.665   2.573  0.6787 -0.0349  0.4727
 4236TP3      O24526   5.249   1.617   1.767 -0.0639  0.0831 -1.0080
 4236TP3     H124527   5.201   1.699   1.759 -1.3154 -0.6747 -1.3814
 4236TP3     H224528   5.341   1.641   1.755 -0.0902  1.9271  2.1569
 4237TP3      O24529   3.264   1.300   1.509  0.1697  0.2090  0.3443
 4237TP3     H124530   3.330   1.306   1.440  2.1178  1.1949  2.2431
 4237TP3     H224531   3.211   1.380   1.498 -0.8317 -0.6584 -1.2741
 4238TP3      O24532   2.704   4.320   2.430  0.0651 -0.1794  0.2191
 4238TP3     H124533   2.625   4.278   2.466  2.1715 -1.9836  2.9671
 4238TP3     H224534   2.727   4.267   2.354 -1.0599  0.0612 -0.3030
 4239TP3      O24535   3.078   2.222   2.471 -0.6808 -0.5172 -0.5998
 4239TP3     H124536   3.072   2.265   2.385  0.5354 -0.0218 -0.4453
 4239TP3     H224537   3.137   2.277   2.521 -0.7278 -1.2662  0.2875
 4240TP3      O24538   4.692   2.064   9.838 -0.3836 -0.6881  0.4243
 4240TP3     H124539   4.727   2.135   9.785  0.2210 -0.7087  0.7871
 4240TP3     H224540   4.676   1.993   9.775  0.4716 -0.7660  0.2901
 4241TP3      O24541   2.422   0.185   1.908 -0.1405 -0.2615  0.0297
 4241TP3     H124542   2.470   0.148   1.834 -0.2576 -0.0387 -0.1620
 4241TP3     H224543   2.458   0.142   1.985 -0.2048 -0.6947 -0.1799
 4242TP3      O24544   1.855   0.678   1.972  0.3614  0.1508 -0.0021
 4242TP3     H124545   1.920   0.609   1.957 -2.3206 -2.8576  1.6351
 4242TP3     H224546   1.853   0.726   1.889  3.5756 -0.5461 -0.5832
 4243TP3      O24547   4.395   2.669   2.166  0.0303  0.0977  0.0382
 4243TP3     H124548   4.458   2.736   2.137  0.9956 -0.1733  1.4336
 4243TP3     H224549   4.330   2.717   2.216  0.1786  0.1153  0.2116
 4244TP3      O24550   3.752   3.221   0.607 -0.0811  0.3885 -1.0505
 4244TP3     H124551   3.819   3.154   0.594  0.1802  0.7026 -1.3282
 4244TP3     H224552   3.727   3.211   0.699  0.8246  0.7049 -0.7555
 4245TP3      O24553   4.061   4.671   2.350  0.1467 -0.2931 -0.4882
 4245TP3     H124554   4.069   4.587   2.395  0.1155 -1.3745 -2.4519
 4245TP3     H224555   3.972   4.700   2.369 -0.3189 -1.3979 -0.9562
 4246TP3      O24556   3.050   1.040   0.794  0.1635 -0.1787 -0.4810
 4246TP3     H124557   2.975   1.027   0.852 -0.3452  1.0150 -0.8484
 4246TP3     H224558   3.094   0.956   0.792 -0.5167 -0.5674  0.6603
 4247TP3      O24559   3.115   1.193   3.061 -0.2763 -0.2767  0.1575
 4247TP3     H124560   3.106   1.281   3.025  0.5161 -0.4151 -0.3959
 4247TP3     H224561   3.210   1.179   3.065 -0.3348 -0.0403  2.8504
 4248TP3      O24562   4.253   3.834   1.030 -0.2448 -0.5284  0.0378
 4248TP3     H124563   4.318   3.882   1.081 -0.5666  0.1789 -0.2140
 4248TP3     H224564   4.186   3.810   1.095 -0.2762 -0.2908  0.0965
 4249TP3      O24565   3.194   0.416   2.571  0.1611 -0.3699 -0.2130
 4249TP3     H124566   3.167   0.374   2.652  1.9918 -0.6504  0.2704
 4249TP3     H224567   3.219   0.505   2.596  1.2932 -0.6364 -0.3442
 4250TP3      O24568   4.626   2.107   2.192  0.2542  0.4222  0.0562
 4250TP3     H124569   4.569   2.044   2.149 -0.5453 -0.4413  2.3104
 4250TP3     H224570   4.638   2.072   2.281  0.3049  3.0672  1.1500
 4251TP3      O24571   1.219   2.578   1.035  0.4795  0.0699  0.8001
 4251TP3     H124572   1.297   2.559   1.086  0.0042 -1.5957  0.9358
 4251TP3     H224573   1.208   2.501   0.978 -1.1210  0.2068  0.8839
 4252TP3      O24574   2.631   1.842   2.927 -0.7724 -0.3122 -0.1255
 4252TP3     H124575   2.593   1.867   3.011 -0.4978 -0.0196 -0.0843
 4252TP3     H224576   2.674   1.758   2.943  1.1400  0.7724  0.5848
 4253TP3      O24577   1.293   4.724   1.928  0.2754 -0.0565 -0.3914
 4253TP3     H124578   1.304   4.663   1.855 -1.1410 -1.3689  0.4575
 4253TP3     H224579   1.314   4.672   2.006 -0.6236  0.6291  0.3182
 4254TP3      O24580   0.492   1.241   1.317 -0.0772  0.5153  0.5631
 4254TP3     H124581   0.408   1.196   1.325  0.1112  0.1137  0.3284
 4254TP3     H224582   0.539   1.192   1.249  0.7640  0.0800  1.4500
 4255TP3      O24583   4.795   0.885   0.994 -0.5623  0.2821  0.0686
 4255TP3     H124584   4.820   0.976   0.976 -0.3994  0.3141  0.4536
 4255TP3     H224585   4.802   0.877   1.089 -0.9975 -0.0102  0.0765
 4256TP3      O24586   0.063   2.022  10.096 -0.0791 -0.6479 -0.1722
 4256TP3     H124587   0.156   1.999  10.097 -0.1914 -1.1921 -0.9166
 4256TP3     H224588   0.061   2.116  10.082  0.3709 -0.6117  0.0133
 4257TP3      O24589   3.355   2.272   1.393  0.0550 -0.2862  0.2391
 4257TP3     H124590   3.325   2.182   1.381 -1.2160  0.3110 -1.1799
 4257TP3     H224591   3.415   2.288   1.320  1.4341 -0.4308  1.3009
 4258TP3      O24592   3.177   0.752   2.100 -0.0668  0.2257 -0.0443
 4258TP3     H124593   3.208   0.836   2.134 -0.0940  0.1937  0.0593
 4258TP3     H224594   3.087   0.769   2.072 -0.1287  0.1883  0.1333
 4259TP3      O24595   5.511   0.818   9.537 -0.1020 -0.0486 -0.4278
 4259TP3     H124596   5.491   0.815   9.443  1.4973  1.2653 -0.8385
 4259TP3     H224597   5.591   0.871   9.543 -0.8572  0.9311  1.7791
 4260TP3      O24598   3.859   5.435   1.949 -0.2204 -0.6759  0.2032
 4260TP3     H124599   3.907   5.465   1.871  0.9661  2.0401  1.8784
 4260TP3     H224600   3.778   5.487   1.948 -1.8538 -3.1654 -1.0542
 4261TP3      O24601   2.147   0.609   3.197  0.5141 -0.1209 -0.4149
 4261TP3     H124602   2.237   0.642   3.202  0.5475 -0.1333 -0.8879
 4261TP3     H224603   2.111   0.648   3.118  0.1642 -0.2722 -0.3336
 4262TP3      O24604   2.406   2.496   3.580 -0.5621 -0.5375  0.1706
 4262TP3     H124605   2.317   2.484   3.548 -0.7574  1.3927 -0.0587
 4262TP3     H224606   2.417   2.591   3.586  0.2834 -0.7623  3.5128
 4263TP3      O24607   5.346   0.296   1.920  0.0291  0.4393  0.1855
 4263TP3     H124608   5.429   0.315   1.964 -0.3286 -0.9849  1.5360
 4263TP3     H224609   5.279   0.312   1.987 -0.8139  1.7895 -0.9532
 4264TP3      O24610   0.572   0.983   1.934 -0.4834  0.6278 -0.2494
 4264TP3     H124611   0.563   1.025   2.020 -0.6887  1.5512 -0.7108
 4264TP3     H224612   0.611   0.898   1.953 -0.1729  0.9760  0.7300
 4265TP3      O24613   3.824   1.080   1.913  0.2036  0.0662  0.5361
 4265TP3     H124614   3.768   1.038   1.979  1.2774 -2.5468 -0.1423
 4265TP3     H224615   3.786   1.054   1.829  0.5497  0.9806  0.0850
 4266TP3      O24616   3.843   4.644   9.386 -0.2548 -0.1241  0.1116
 4266TP3     H124617   3.823   4.706   9.316  0.4700 -1.5903 -1.4333
 4266TP3     H224618   3.760   4.600   9.404 -0.2813 -0.2915 -0.3955
 4267TP3      O24619   2.398   1.754   1.113  0.2315 -0.0809  0.0820
 4267TP3     H124620   2.452   1.833   1.105 -0.7212  0.3800 -2.3368
 4267TP3     H224621   2.310   1.787   1.131 -0.3871 -0.5059 -2.0666
 4268TP3      O24622   3.165   4.483   2.097  0.3174 -0.3973 -0.3472
 4268TP3     H124623   3.128   4.571   2.106 -2.1959 -1.4237 -0.5065
 4268TP3     H224624   3.211   4.469   2.180 -1.8863 -0.1243  0.9538
 4269TP3      O24625   0.109   1.235   2.070  0.0916  0.0062 -0.0850
 4269TP3     H124626   0.191   1.281   2.051  1.3712 -1.5472  1.5148
 4269TP3     H224627   0.117   1.152   2.023 -0.8173  0.0774 -0.3743
 4270TP3      O24628   3.539   2.026   3.352 -0.0745 -0.4897 -0.2456
 4270TP3     H124629   3.456   1.982   3.334 -0.5885 -0.0416  0.9300
 4270TP3     H224630   3.529   2.113   3.313 -0.4848 -0.1510  0.5976
 4271TP3      O24631   3.640   1.186   2.288  0.2296  0.0607  0.0586
 4271TP3     H124632   3.672   1.275   2.299  0.1427 -0.0549  1.4036
 4271TP3     H224633   3.627   1.176   2.194 -0.2850  1.6337 -0.0515
 4272TP3      O24634   2.304   0.851   3.346  0.4068 -0.8465 -0.0306
 4272TP3     H124635   2.215   0.833   3.378 -0.6326  2.7779 -0.6677
 4272TP3     H224636   2.311   0.801   3.265 -0.4544 -2.4175  0.8344
 4273TP3      O24637   5.010   1.160   2.891  0.3801  0.4132  0.0253
 4273TP3     H124638   4.973   1.132   2.975  0.5256  2.2748  0.7419
 4273TP3     H224639   5.072   1.092   2.868 -1.2949 -1.2590  0.3010
 4274TP3      O24640   2.615   1.292   3.221  0.2293  0.0193 -0.1870
 4274TP3     H124641   2.636   1.331   3.306 -1.1721  2.1079 -0.7697
 4274TP3     H224642   2.535   1.242   3.237  0.2693 -0.0309 -0.1446
 4275TP3      O24643   0.915   0.121   2.842 -0.3489 -0.0068  0.0293
 4275TP3     H124644   0.842   0.120   2.779 -0.2735  0.8583 -0.0846
 4275TP3     H224645   0.982   0.174   2.799 -0.6796  1.4210  1.2522
 4276TP3      O24646   2.727   0.399   2.941  0.3506 -0.3736 -0.2568
 4276TP3     H124647   2.769   0.424   2.858 -0.3739  0.9772 -0.2405
 4276TP3     H224648   2.654   0.460   2.949  1.2469  0.4635  2.0714
 4277TP3      O24649   2.055   0.788   3.460 -0.1998 -0.4495  0.4096
 4277TP3     H124650   1.981   0.829   3.504  0.5975  2.2711 -0.6726
 4277TP3     H224651   2.020   0.705   3.428 -2.6965  0.6057  0.2381
 4278TP3      O24652   1.532   3.301   1.237 -0.5537  0.2084 -0.0447
 4278TP3     H124653   1.466   3.237   1.212  0.1144  0.2796 -2.1032
 4278TP3     H224654   1.616   3.258   1.218  0.0292  0.0889  2.5728
 4279TP3      O24655   0.677   1.863   1.898  0.0015  0.4943 -0.2883
 4279TP3     H124656   0.635   1.943   1.931 -0.3787  0.5925 -0.9989
 4279TP3     H224657   0.675   1.803   1.972 -0.2957  0.9188  0.0548
 4280TP3      O24658   3.726   2.195   1.976 -0.1443  0.0156  0.2980
 4280TP3     H124659   3.815   2.160   1.975 -0.0932  0.1537 -1.1817
 4280TP3     H224660   3.672   2.123   2.010  0.4120 -0.3586  0.3959
 4281TP3      O24661   2.349   4.987   9.646 -0.1072  0.0915 -0.4644
 4281TP3     H124662   2.417   4.922   9.629 -0.5441 -0.2739 -0.8045
 4281TP3     H224663   2.368   5.058   9.585 -1.8292 -1.3255 -2.7237
 4282TP3      O24664   0.419   1.290   2.463  0.1843 -0.1326 -0.2960
 4282TP3     H124665   0.511   1.311   2.449 -0.3042  1.1396 -1.7268
 4282TP3     H224666   0.374   1.330   2.389 -1.7074  0.6522  1.2388
 4283TP3      O24667   3.485   5.474   1.579 -0.2809 -0.0804 -0.2715
 4283TP3     H124668   3.396   5.444   1.598  0.0769 -0.4505  0.8186
 4283TP3     H224669   3.500   5.545   1.641 -0.4229  1.1163 -1.5672
 4284TP3      O24670   3.624   1.181   2.839 -0.9310  0.3820  0.2253
 4284TP3     H124671   3.620   1.192   2.934 -1.3781 -1.2391  0.3953
 4284TP3     H224672   3.533   1.186   2.810 -0.8108  0.7063 -0.1078
 4285TP3      O24673   5.004   1.976   1.346 -0.0003  0.8613  0.4808
 4285TP3     H124674   5.056   1.975   1.426 -0.4039  1.7733  0.7621
 4285TP3     H224675   4.914   1.962   1.375  0.1425 -1.2957 -0.0581
 4286TP3      O24676   3.052   1.490   3.037 -0.2750 -0.8192  0.4063
 4286TP3     H124677   3.007   1.566   3.075  0.5507  0.2373 -0.6863
 4286TP3     H224678   3.144   1.517   3.032 -0.2747 -1.1526 -1.7995
 4287TP3      O24679   1.155   3.772   1.324  0.0291  0.2238  0.2293
 4287TP3     H124680   1.084   3.708   1.313  0.5021 -0.2165 -0.2817
 4287TP3     H224681   1.112   3.857   1.318 -0.1837 -0.0270 -1.9284
 4288TP3      O24682   4.526   3.473   2.013  0.2214 -0.2542  0.1120
 4288TP3     H124683   4.448   3.511   2.054  0.8794 -0.8917  1.9908
 4288TP3     H224684   4.547   3.534   1.942 -2.1801 -0.2674 -0.6643
 4289TP3      O24685   1.947   4.521   2.013 -0.2531 -0.3104 -0.6222
 4289TP3     H124686   1.936   4.614   2.035 -2.7566 -0.9133  0.7946
 4289TP3     H224687   1.976   4.480   2.095  0.1171 -0.9127 -1.0492
 4290TP3      O24688   1.015   2.201   2.736 -0.6031  0.2247  0.2380
 4290TP3     H124689   1.001   2.265   2.665 -1.5187 -0.6354 -0.3755
 4290TP3     H224690   1.013   2.254   2.816 -1.1921  1.0005 -0.2677
 4291TP3      O24691   0.207   4.453   9.689 -0.4167 -0.6456  0.3635
 4291TP3     H124692   0.223   4.526   9.750 -1.4896 -1.4443  1.6387
 4291TP3     H224693   0.112   4.453   9.679 -0.2229 -0.2991 -1.6269
 4292TP3      O24694   2.260   0.968   8.924  0.1609  0.4600 -0.0849
 4292TP3     H124695   2.211   0.896   8.884  0.2513 -0.3607  1.2354
 4292TP3     H224696   2.213   1.047   8.898  0.0961 -0.0620 -1.6091
 4293TP3      O24697   2.229   2.109   0.905 -0.4047  0.2183  0.5183
 4293TP3     H124698   2.189   2.046   0.966  2.1640 -2.5402 -0.5032
 4293TP3     H224699   2.276   2.170   0.961 -2.0903  0.6451  1.4992
 4294TP3      O24700   1.973   2.045   3.082  0.0185 -0.1443 -0.4108
 4294TP3     H124701   1.973   2.046   2.987  0.3831  0.7179 -0.4049
 4294TP3     H224702   2.057   2.007   3.106 -1.0422 -2.6022 -0.4347
 4295TP3      O24703   1.017   4.745   1.936 -0.0580  0.4321 -0.2197
 4295TP3     H124704   1.063   4.829   1.934  1.8880 -0.6420 -1.2253
 4295TP3     H224705   1.079   4.684   1.975 -1.3903 -0.6122  0.3027
 4296TP3      O24706   0.399   3.271   1.662  0.2223 -0.2471 -0.6512
 4296TP3     H124707   0.407   3.364   1.641 -0.9791 -0.3600 -1.6544
 4296TP3     H224708   0.328   3.266   1.726  1.5336 -0.2939  0.8464
 4297TP3      O24709   4.687   4.780   2.703  0.0521 -0.2577 -0.0363
 4297TP3     H124710   4.756   4.846   2.716  0.2874 -0.3828 -0.6616
 4297TP3     H224711   4.656   4.761   2.792  0.4036  0.2486  0.1987
 4298TP3      O24712   2.948   3.688   2.892 -0.0438  0.2551 -0.3402
 4298TP3     H124713   2.996   3.663   2.971 -0.6583  0.4364  0.0954
 4298TP3     H224714   2.966   3.781   2.881  1.0390 -0.0354 -1.1183
 4299TP3      O24715   0.364   0.793   0.807 -0.2085 -0.1142  0.1348
 4299TP3     H124716   0.287   0.828   0.762  0.1311  2.0601  1.1832
 4299TP3     H224717   0.436   0.848   0.777  0.5305 -0.5730  1.0395
 4300TP3      O24718   5.436   3.150   0.634 -0.7559 -0.2168  0.0774
 4300TP3     H124719   5.493   3.139   0.711  0.2457 -0.9787 -0.7581
 4300TP3     H224720   5.347   3.150   0.670 -0.3349 -1.2434  1.1644
 4301TP3      O24721   0.879   2.633   2.418 -0.7485  0.1307  0.1174
 4301TP3     H124722   0.930   2.692   2.362 -0.9036  0.9203  0.8065
 4301TP3     H224723   0.835   2.691   2.480 -0.5965 -0.7388  1.0469
 4302TP3      O24724   5.229   0.066   2.655  0.4922 -0.2403 -0.4455
 4302TP3     H124725   5.211   0.157   2.676  0.5171 -0.1028 -1.0186
 4302TP3     H224726   5.194   0.054   2.567  0.6811 -0.7244 -0.4579
 4303TP3      O24727   1.274   4.988   2.055  0.5618 -0.1068 -0.4414
 4303TP3     H124728   1.286   4.896   2.032 -0.2287  0.1471 -1.9010
 4303TP3     H224729   1.362   5.020   2.071  1.0416 -0.5714 -2.0649
 4304TP3      O24730   2.473   3.794   1.066 -0.0065  0.2376  0.3322
 4304TP3     H124731   2.481   3.717   1.010 -0.0561 -0.2635  1.0238
 4304TP3     H224732   2.421   3.765   1.140  0.9238  0.6472  1.1473
 4305TP3      O24733   1.391   0.835   8.886  1.0593 -0.3554 -0.0606
 4305TP3     H124734   1.474   0.836   8.838  0.0621 -0.6737 -1.8316
 4305TP3     H224735   1.351   0.920   8.868 -0.7583 -1.6509 -2.4402
 4306TP3      O24736   4.105   5.331   1.738 -0.1605  0.3550  0.1855
 4306TP3     H124737   4.184   5.359   1.785 -0.0951 -0.1626  0.3817
 4306TP3     H224738   4.092   5.240   1.764 -0.4329  0.2284 -0.3839
 4307TP3      O24739   4.008   5.270   2.406  0.3514 -0.0269  0.3575
 4307TP3     H124740   4.079   5.319   2.447 -0.0573  0.0896  0.9316
 4307TP3     H224741   4.041   5.249   2.319  0.1753  2.0487 -0.2386
 4308TP3      O24742   1.180   0.362   9.176 -0.0717 -0.1329 -0.2827
 4308TP3     H124743   1.244   0.290   9.166 -1.1137 -0.9759 -1.0135
 4308TP3     H224744   1.120   0.350   9.103 -1.1714  0.5519  0.5044
 4309TP3      O24745   4.713   1.587   0.465  0.1165 -0.1059  0.1592
 4309TP3     H124746   4.637   1.562   0.517 -0.1413 -0.4351 -0.3753
 4309TP3     H224747   4.771   1.631   0.527 -0.2111 -0.4546  0.7140
 4310TP3      O24748   3.051   0.077   1.535  0.9552  0.3406 -0.1469
 4310TP3     H124749   3.131   0.066   1.587  1.4581  1.7714 -0.5837
 4310TP3     H224750   2.981   0.083   1.600  1.8274  4.4747  0.6013
 4311TP3      O24751   0.655   1.702   3.106  0.0620  0.2919 -0.0711
 4311TP3     H124752   0.750   1.689   3.109 -0.0764 -0.6042  0.8708
 4311TP3     H224753   0.641   1.784   3.153  0.3106  0.0078  0.5135
 4312TP3      O24754   1.498   2.724   2.437 -0.1662 -0.2585 -0.0149
 4312TP3     H124755   1.465   2.749   2.523  1.3210 -2.5887  1.2856
 4312TP3     H224756   1.581   2.770   2.429 -0.4357  0.1736 -0.3205
 4313TP3      O24757   2.413   1.099   3.244 -0.3344  0.2672  0.2996
 4313TP3     H124758   2.433   1.071   3.155  0.2773 -0.0871  0.5495
 4313TP3     H224759   2.379   1.020   3.287  3.0012 -0.5583  1.5114
 4314TP3      O24760   1.771   2.220   1.588 -0.8294  0.2180 -0.4661
 4314TP3     H124761   1.706   2.267   1.640 -2.2983 -1.4980 -0.6614
 4314TP3     H224762   1.805   2.153   1.647  0.1873  0.5971 -0.6149
 4315TP3      O24763   5.264   0.392   2.463  0.2245 -0.4458 -0.1395
 4315TP3     H124764   5.212   0.355   2.534  0.1394  0.3044  0.1969
 4315TP3     H224765   5.353   0.397   2.498  0.7115 -2.5467 -1.0216
 4316TP3      O24766   1.569   2.109   0.875  0.0845 -0.1766  0.3323
 4316TP3     H124767   1.567   2.183   0.936  1.7041 -1.1872  1.6417
 4316TP3     H224768   1.579   2.032   0.931 -2.7230 -1.5289 -0.9462
 4317TP3      O24769   2.610   0.969   2.866 -0.5041  0.6114  0.4598
 4317TP3     H124770   2.610   1.064   2.854  1.2935  0.5314 -0.2690
 4317TP3     H224771   2.522   0.949   2.898 -1.6723  2.2298 -1.6615
 4318TP3      O24772   3.501   5.229   1.953  0.1169 -0.0318  0.0310
 4318TP3     H124773   3.528   5.259   2.039  0.5168  1.6476 -0.6661
 4318TP3     H224774   3.428   5.287   1.929 -0.0195 -0.5057 -0.7371
 4319TP3      O24775   3.344   1.167   1.132  0.2291 -0.1854 -0.3620
 4319TP3     H124776   3.345   1.079   1.094 -2.8234 -0.4972  0.1453
 4319TP3     H224777   3.392   1.158   1.214 -1.0029 -1.6382  0.2116
 4320TP3      O24778   5.487   3.706   2.955  0.0606 -0.6046 -0.1378
 4320TP3     H124779   5.487   3.612   2.975 -1.5868 -0.5655  0.0490
 4320TP3     H224780   5.401   3.736   2.982 -0.4897  0.3892 -2.9508
 4321TP3      O24781   0.260   2.849   1.915  0.3002  0.1112 -0.0361
 4321TP3     H124782   0.304   2.776   1.872 -0.8836 -0.1690 -0.7882
 4321TP3     H224783   0.222   2.900   1.843  1.2943  1.5985  0.4542
 4322TP3      O24784   3.619   1.895   1.794 -0.2260  0.1254 -0.1803
 4322TP3     H124785   3.591   1.897   1.702  0.0177  1.7323 -0.2360
 4322TP3     H224786   3.709   1.863   1.790  0.2943  1.6330 -0.6481
 4323TP3      O24787   3.548   0.669   1.368  0.4717  0.3721  0.2279
 4323TP3     H124788   3.515   0.591   1.413 -0.3833  0.7366  0.2563
 4323TP3     H224789   3.590   0.721   1.436 -0.5917  0.7993  0.5806
 4324TP3      O24790   3.169   1.365   2.626 -0.5895 -0.0855  0.3702
 4324TP3     H124791   3.174   1.374   2.531  1.3223  0.0932  0.4676
 4324TP3     H224792   3.145   1.452   2.658 -0.6700 -0.0095  0.0968
 4325TP3      O24793   2.856   1.061   1.002  0.0080  0.0994  0.0790
 4325TP3     H124794   2.795   0.994   0.970 -0.5060  0.8925 -0.6406
 4325TP3     H224795   2.801   1.122   1.050  0.4111  0.2200  0.3865
 4326TP3      O24796   3.424   2.643   1.968 -0.0859  0.1745 -0.1330
 4326TP3     H124797   3.514   2.620   1.990 -0.8206 -1.7248  1.0338
 4326TP3     H224798   3.406   2.722   2.018  0.8217  0.3621 -0.1023
 4327TP3      O24799   3.110   0.530   1.005 -0.0192  0.1247  0.4507
 4327TP3     H124800   3.168   0.458   1.029  0.6992  0.5420 -0.0435
 4327TP3     H224801   3.119   0.593   1.077  1.8501  1.2050 -0.6998
 4328TP3      O24802   0.215   3.234   1.846 -0.2406  0.1633 -0.0579
 4328TP3     H124803   0.146   3.199   1.790 -0.6824 -1.1676  1.2906
 4328TP3     H224804   0.191   3.205   1.934  2.5704 -1.1773  0.3152
 4329TP3      O24805   3.537   5.013   2.248 -0.0941  0.3702  0.4343
 4329TP3     H124806   3.536   4.967   2.164 -2.4827 -1.6371  1.4639
 4329TP3     H224807   3.595   5.087   2.235  1.7701 -1.4553 -2.1489
 4330TP3      O24808   2.591   3.112   0.573  0.1285 -0.4589  0.3101
 4330TP3     H124809   2.576   3.032   0.622 -0.3102 -1.0604 -0.7749
 4330TP3     H224810   2.647   3.166   0.629  2.6128 -2.6145 -0.0038
 4331TP3      O24811   3.482   3.965   1.225  0.1724 -0.4944  0.1989
 4331TP3     H124812   3.475   4.002   1.313  0.3381 -2.9845  1.2974
 4331TP3     H224813   3.445   4.032   1.168 -1.4215  0.4935  2.3234
 4332TP3      O24814   3.903   3.660   2.616  0.2059 -0.6013 -0.2629
 4332TP3     H124815   3.888   3.639   2.708  1.5660 -1.5675 -0.2307
 4332TP3     H224816   3.992   3.629   2.599  0.9568  1.9494 -1.2250
 4333TP3      O24817   3.719   0.543   2.286  0.5735 -0.5064 -0.4629
 4333TP3     H124818   3.747   0.454   2.266  0.2138 -0.5626 -0.7196
 4333TP3     H224819   3.786   0.599   2.246  0.4223 -0.6440 -0.9138
 4334TP3      O24820   1.853   5.028   2.250  0.0443 -0.3611  0.0847
 4334TP3     H124821   1.938   4.986   2.262  0.3791 -0.2244 -1.7514
 4334TP3     H224822   1.873   5.113   2.212 -0.9120 -0.3671 -0.4694
 4335TP3      O24823   5.483   4.338   0.209 -0.6187 -0.2609 -0.1885
 4335TP3     H124824   5.503   4.347   0.303  1.2247  0.1423 -0.5986
 4335TP3     H224825   5.394   4.302   0.207 -1.2432  1.0878  1.6975
 4336TP3      O24826   3.440   2.396   2.251  0.4849 -0.0074  0.2393
 4336TP3     H124827   3.407   2.396   2.161  0.0482  0.3911  0.4012
 4336TP3     H224828   3.389   2.464   2.296  0.7113 -0.1940  0.7830
 4337TP3      O24829   2.891   4.855   9.464 -0.0208  0.5064 -0.1774
 4337TP3     H124830   2.899   4.845   9.559  1.8574  1.4820 -0.2078
 4337TP3     H224831   2.886   4.766   9.430  0.7362  0.1257  0.7216
 4338TP3      O24832   3.680   3.033   2.076 -0.6529 -0.3172  0.4087
 4338TP3     H124833   3.614   2.995   2.017  1.1132 -0.7865 -1.3055
 4338TP3     H224834   3.737   3.083   2.018  1.6357 -1.4989  1.6008
 4339TP3      O24835   4.620   3.445   0.001  0.1174  0.5800  0.5730
 4339TP3     H124836   4.557   3.517   0.010 -0.2642  0.3724 -0.3779
 4339TP3     H224837   4.582   3.373   0.051  0.0258  0.7306  0.7201
 4340TP3      O24838   3.355   5.175   3.364  0.0938 -0.0325  0.1817
 4340TP3     H124839   3.316   5.156   3.450  1.1043  2.8295  1.3406
 4340TP3     H224840   3.307   5.251   3.332  3.0047  2.0417  0.5479
 4341TP3      O24841   4.293   1.660   3.061  0.0358  0.3965  0.4196
 4341TP3     H124842   4.346   1.720   3.114 -2.8640  2.3594  1.2165
 4341TP3     H224843   4.250   1.604   3.126  1.8687 -1.8996 -0.2719
 4342TP3      O24844   5.304   0.463   0.276 -0.1910 -0.1610  0.3239
 4342TP3     H124845   5.265   0.550   0.270  1.4396  0.6688  1.4704
 4342TP3     H224846   5.278   0.419   0.195 -0.4860  1.6135 -0.5600
 4343TP3      O24847   0.360   1.052   2.615 -0.4491  0.4929 -0.2283
 4343TP3     H124848   0.392   1.141   2.597  0.9154  0.0493 -0.0333
 4343TP3     H224849   0.268   1.054   2.588  0.2589  1.2160 -2.7748
 4344TP3      O24850   3.412   3.409   0.747 -0.3043 -0.3744 -0.0849
 4344TP3     H124851   3.479   3.418   0.679  0.6772 -3.6675  0.3750
 4344TP3     H224852   3.339   3.463   0.715  0.6842 -0.6770 -3.0493
 4345TP3      O24853   3.165   0.692   1.210 -0.5047 -0.0219 -0.2320
 4345TP3     H124854   3.244   0.746   1.204 -2.0050  2.1160 -1.3108
 4345TP3     H224855   3.188   0.622   1.271  2.4896  0.0814 -1.1735
 4346TP3      O24856   4.807   2.748   2.604 -0.3625 -0.2660  0.1344
 4346TP3     H124857   4.840   2.819   2.548  0.6858  0.6962  1.9427
 4346TP3     H224858   4.769   2.685   2.542  1.4770  0.4023 -1.7477
 4347TP3      O24859   5.306   1.245   0.455 -0.0522 -0.1805 -0.2382
 4347TP3     H124860   5.248   1.261   0.529 -0.5898  0.4419 -0.7789
 4347TP3     H224861   5.295   1.323   0.400 -0.5917 -1.1845 -1.5708
 4348TP3      O24862   4.929   1.056   0.075  0.5977 -0.4359 -0.0775
 4348TP3     H124863   4.848   1.076   0.028  0.8545 -0.4780 -0.5348
 4348TP3     H224864   4.965   0.980   0.030  0.6028 -0.7655  0.4752
 4349TP3      O24865   4.450   2.161   1.233 -0.1652  0.0114  0.0005
 4349TP3     H124866   4.508   2.217   1.180  1.8105 -2.8894 -1.0343
 4349TP3     H224867   4.477   2.178   1.323  0.9696  0.1557 -0.3507
 4350TP3      O24868   3.143   1.276   2.381  0.2488 -0.2589 -0.3737
 4350TP3     H124869   3.162   1.196   2.430  0.3280 -0.5098 -0.8107
 4350TP3     H224870   3.118   1.245   2.294 -2.0330  0.0748  0.1398
 4351TP3      O24871   4.523   4.762   8.904 -0.1007 -0.0566 -0.1471
 4351TP3     H124872   4.432   4.734   8.895 -0.6831  1.4145  0.9823
 4351TP3     H224873   4.570   4.712   8.837 -1.6851 -1.0115 -0.5837
 4352TP3      O24874   4.480   1.224   9.703 -0.5510  0.5400 -0.3609
 4352TP3     H124875   4.471   1.312   9.666 -1.7563  1.3057  1.6755
 4352TP3     H224876   4.491   1.239   9.797  0.5686 -1.4404 -0.1510
 4353TP3      O24877   1.457   2.455   2.735  0.4553 -0.3061  0.2836
 4353TP3     H124878   1.380   2.409   2.769  1.0331 -1.6476 -0.1726
 4353TP3     H224879   1.483   2.514   2.805  1.2329 -2.5489  1.9385
 4354TP3      O24880   1.901   2.760   1.287  0.2542  0.3107  0.7373
 4354TP3     H124881   1.964   2.791   1.223 -1.5177 -0.6352 -1.5344
 4354TP3     H224882   1.826   2.818   1.278 -0.1602 -0.0569  1.7035
 4355TP3      O24883   3.570   2.148   0.188  0.4450  0.4122  0.5604
 4355TP3     H124884   3.614   2.143   0.273 -0.3579 -0.6197  0.9212
 4355TP3     H224885   3.529   2.235   0.188 -1.1666 -0.2929  2.0566
 4356TP3      O24886   4.363   4.946   3.698  0.0639  0.2724  0.1425
 4356TP3     H124887   4.322   4.859   3.693  2.1619 -0.6369 -3.5267
 4356TP3     H224888   4.326   4.994   3.624  1.0898  1.4733  0.3890
 4357TP3      O24889   4.068   3.479   9.126 -0.4232 -0.1361 -0.0542
 4357TP3     H124890   4.076   3.560   9.175  1.3648 -0.1976 -0.2007
 4357TP3     H224891   4.105   3.499   9.040 -0.5339 -0.9283 -0.2899
 4358TP3      O24892   4.723   3.712   2.288  0.2469 -0.2763  0.4905
 4358TP3     H124893   4.781   3.756   2.226 -0.8246 -0.1862 -0.4683
 4358TP3     H224894   4.782   3.666   2.348  1.3349  1.3053  0.6381
 4359TP3      O24895   3.691   1.830   2.483 -0.2838  0.3328 -0.0369
 4359TP3     H124896   3.671   1.780   2.563 -0.1690 -0.0685 -0.2551
 4359TP3     H224897   3.613   1.882   2.467  0.0104  1.0496  0.8131
 4360TP3      O24898   4.342   4.920   1.513 -0.0698  0.2925  0.1601
 4360TP3     H124899   4.412   4.956   1.567  0.7671  1.2609 -1.5596
 4360TP3     H224900   4.383   4.848   1.465 -0.5743  0.0648  0.0621
 4361TP3      O24901   3.085   1.091   1.843  0.1256 -0.1665  0.1711
 4361TP3     H124902   3.082   1.005   1.885 -0.2231 -1.5229 -2.5712
 4361TP3     H224903   2.993   1.113   1.827  0.3105 -0.1682 -0.9017
 4362TP3      O24904   2.566   0.467   2.613  0.5279  0.8092 -0.2778
 4362TP3     H124905   2.507   0.446   2.686  0.2162  1.7997 -0.2399
 4362TP3     H224906   2.528   0.545   2.573  1.5757  1.1939 -0.5365
 4363TP3      O24907   0.247   1.844   0.619  0.0951  0.1201 -0.5028
 4363TP3     H124908   0.296   1.777   0.571 -0.1306  0.1082 -0.7172
 4363TP3     H224909   0.169   1.859   0.566 -0.2576 -0.0446 -0.0220
 4364TP3      O24910   0.867   4.328   0.476 -0.0574 -0.0904 -0.6467
 4364TP3     H124911   0.778   4.355   0.453 -0.6243 -1.9727 -0.7461
 4364TP3     H224912   0.924   4.390   0.432 -1.3176  0.7448 -1.1061
 4365TP3      O24913   4.247   4.160   2.337  0.0076 -0.6556 -0.2158
 4365TP3     H124914   4.166   4.152   2.287 -0.1234  1.7057 -0.4126
 4365TP3     H224915   4.293   4.234   2.297 -0.1738  1.4023  3.1974
 4366TP3      O24916   0.622   0.511   0.326 -0.2536 -0.7926 -0.7373
 4366TP3     H124917   0.664   0.592   0.298 -1.1708 -0.7501 -2.0436
 4366TP3     H224918   0.528   0.530   0.321 -0.4766 -0.9832  1.8336
 4367TP3      O24919   2.952   1.192   2.680 -0.1207 -0.2328 -0.4960
 4367TP3     H124920   3.023   1.255   2.689  0.4483 -0.9587  0.2051
 4367TP3     H224921   2.901   1.202   2.760 -1.3622  0.9493 -1.4265
 4368TP3      O24922   4.775   2.796   0.345 -0.2411  0.1756  0.4116
 4368TP3     H124923   4.779   2.715   0.394 -0.4696  0.1383  0.3698
 4368TP3     H224924   4.690   2.793   0.300 -0.6770  0.8771  1.1679
 4369TP3      O24925   3.484   0.755   2.099 -0.1215  0.1513 -0.0969
 4369TP3     H124926   3.389   0.747   2.094  0.0196 -2.6504  0.8799
 4369TP3     H224927   3.506   0.736   2.190  1.5384 -1.7960 -0.8341
 4370TP3      O24928   2.100   0.483   2.015  0.1474 -0.0570  0.2641
 4370TP3     H124929   2.080   0.396   1.982 -0.6278  0.4533 -0.6428
 4370TP3     H224930   2.159   0.520   1.949  0.5155  0.0750  0.6719
 4371TP3      O24931   3.889   1.232   0.627  0.4747  0.3956 -0.7935
 4371TP3     H124932   3.969   1.216   0.677 -0.8632 -0.6398  1.0514
 4371TP3     H224933   3.921   1.259   0.540  2.8206  1.1877  0.2566
 4372TP3      O24934   4.545   1.620   3.426 -1.1212  0.1911  0.7439
 4372TP3     H124935   4.470   1.597   3.480 -0.9224 -0.8368  0.6040
 4372TP3     H224936   4.537   1.564   3.348  0.6477 -1.1175  1.4646
 4373TP3      O24937   2.137   1.298   0.015 -0.2964 -0.0208 -0.0770
 4373TP3     H124938   2.055   1.341   0.039  0.9605  2.3174  0.2586
 4373TP3     H224939   2.186   1.292   0.098  1.2972  1.9221 -0.8183
 4374TP3      O24940   5.067   1.633   2.596  0.0420 -0.2725 -0.2652
 4374TP3     H124941   5.125   1.571   2.552  0.4460  1.1884 -1.8404
 4374TP3     H224942   5.068   1.606   2.688 -0.0217 -2.7591 -0.9535
 4375TP3      O24943   4.318   3.255   1.824  0.9007  0.1707 -0.1387
 4375TP3     H124944   4.311   3.270   1.918  0.3716  2.1469 -0.4882
 4375TP3     H224945   4.238   3.209   1.801  1.1721 -0.6044  0.4071
 4376TP3      O24946   1.605   2.452   0.892 -0.1428  0.1316  0.5095
 4376TP3     H124947   1.531   2.493   0.847 -1.2933 -2.3390  0.0704
 4376TP3     H224948   1.682   2.484   0.845 -1.0239  1.4905 -0.0378
 4377TP3      O24949   5.341   2.465   2.145 -0.1712 -0.0811 -0.2087
 4377TP3     H124950   5.253   2.435   2.120  0.0490 -0.6828 -0.2572
 4377TP3     H224951   5.341   2.558   2.122 -1.0083  0.0741  0.3540
 4378TP3      O24952   1.233   1.437   9.668  0.1522  0.1836  0.2203
 4378TP3     H124953   1.168   1.494   9.626  1.6450  0.5604 -1.6148
 4378TP3     H224954   1.291   1.409   9.597  1.2542 -1.1905  1.6133
 4379TP3      O24955   4.544   3.936   1.731  0.0063 -0.1798  0.1964
 4379TP3     H124956   4.551   3.887   1.649 -0.7114  0.2067 -0.0992
 4379TP3     H224957   4.568   4.025   1.708 -1.2087  0.1462  0.1832
 4380TP3      O24958   2.915   5.198   0.983 -0.0631 -0.1445  0.2462
 4380TP3     H124959   2.955   5.265   0.927  1.9921  0.0218  1.8418
 4380TP3     H224960   2.911   5.238   1.069 -1.6931 -0.9783  0.5698
 4381TP3      O24961   2.331   0.780   2.311  0.4410 -0.0486 -0.0088
 4381TP3     H124962   2.246   0.743   2.286  0.6407 -1.3441  1.1564
 4381TP3     H224963   2.381   0.781   2.229 -0.9279  1.4524 -0.8640
 4382TP3      O24964   2.826   4.177   2.220  0.2640 -0.4251  0.1525
 4382TP3     H124965   2.892   4.114   2.192  2.3006  1.5459  0.3442
 4382TP3     H224966   2.785   4.206   2.138  1.4913  0.2861 -0.2313
 4383TP3      O24967   2.872   5.319  10.103  0.4140  0.0603  0.1970
 4383TP3     H124968   2.817   5.373  10.046 -0.2794  0.5173  1.2927
 4383TP3     H224969   2.836   5.331  10.191  1.0498 -1.1801  0.6449
 4384TP3      O24970   4.327   5.083   0.713 -0.1066  0.1309 -0.1362
 4384TP3     H124971   4.384   5.147   0.670 -1.5771  1.7471  0.2731
 4384TP3     H224972   4.241   5.123   0.712 -0.9791 -1.6854  0.5102
 4385TP3      O24973   4.647   2.088   3.322 -0.4550 -0.2110 -0.1917
 4385TP3     H124974   4.707   2.153   3.285  0.1601 -0.6961 -0.0504
 4385TP3     H224975   4.560   2.117   3.295 -0.0147 -0.5478 -1.9948
 4386TP3      O24976   1.155   1.978   1.305  0.9728  0.1588  0.3441
 4386TP3     H124977   1.080   1.940   1.352  1.4560 -1.2703 -0.0121
 4386TP3     H224978   1.222   1.989   1.372  0.2398  2.0276  0.7859
 4387TP3      O24979   0.552   0.757   1.263 -0.5421 -0.2213  0.4725
 4387TP3     H124980   0.585   0.795   1.344  0.6327 -0.2513  0.0155
 4387TP3     H224981   0.629   0.720   1.220 -1.2733 -0.8858 -0.2945
 4388TP3      O24982   0.458   4.444  10.185  0.3151  0.2614 -0.3568
 4388TP3     H124983   0.395   4.488  10.127  0.3120 -1.4302 -1.7016
 4388TP3     H224984   0.425   4.461  10.273 -1.1594  0.7253 -0.9749
 4389TP3      O24985   4.761   0.464   0.077 -0.1711 -0.2261 -0.3220
 4389TP3     H124986   4.825   0.405   0.118  0.7187 -1.0859 -2.8336
 4389TP3     H224987   4.686   0.409   0.058 -0.5738  0.1600  0.1576
 4390TP3      O24988   5.308   0.454   1.701  0.1845  0.0716 -0.3032
 4390TP3     H124989   5.359   0.396   1.757  0.4442 -1.3462 -1.9832
 4390TP3     H224990   5.238   0.487   1.758  1.9408  0.6826  1.5414
 4391TP3      O24991   0.560   0.878   2.900  0.0058 -0.0401  0.3783
 4391TP3     H124992   0.523   0.896   2.987 -0.0535 -0.6194  0.4721
 4391TP3     H224993   0.598   0.962   2.873 -0.4186  0.2776  0.7457
 4392TP3      O24994   2.897   4.556   1.479 -0.0484 -0.1541  0.0846
 4392TP3     H124995   2.807   4.559   1.446  0.6262  1.3051 -1.7064
 4392TP3     H224996   2.935   4.640   1.451  1.9986 -0.9360  0.4709
 4393TP3      O24997   4.879   2.333   0.899 -0.6257  0.0537 -0.0698
 4393TP3     H124998   4.901   2.276   0.973 -0.4321  0.0102 -0.1600
 4393TP3     H224999   4.964   2.354   0.860 -0.6326  1.0813  0.4554
 4394TP3      O25000   1.077   0.296   1.697 -0.3616 -0.0370  0.8315
 4394TP3     H125001   1.159   0.248   1.683  0.0059  1.4655 -2.5812
 4394TP3     H225002   1.009   0.229   1.692  0.4682 -0.9367  1.3107
 4395TP3      O25003   5.007   4.077   1.692 -0.3490 -0.9718  0.6225
 4395TP3     H125004   4.934   4.060   1.751  0.3594 -0.0434  1.7996
 4395TP3     H225005   5.026   4.170   1.704  0.6325 -1.0717 -0.1206
 4396TP3      O25006   3.794   4.822   3.126  0.7096 -0.1524 -0.3512
 4396TP3     H125007   3.732   4.866   3.184  0.8953 -1.2963  0.7653
 4396TP3     H225008   3.747   4.812   3.043  0.0490  0.5698 -0.0705
 4397TP3      O25009   3.676   4.311   2.594  0.2075  0.3689  0.3535
 4397TP3     H125010   3.700   4.236   2.539 -0.0272  0.1842  0.5053
 4397TP3     H225011   3.600   4.281   2.644  0.8814  0.2827  1.3272
 4398TP3      O25012   5.034   0.875   1.902  0.0532  0.4019  0.2328
 4398TP3     H125013   4.991   0.905   1.822  1.8106  0.5095 -0.7034
 4398TP3     H225014   5.019   0.780   1.903  0.4581  0.3252 -0.4962
 4399TP3      O25015   2.839   0.523   2.689  0.2806 -0.2608 -0.2215
 4399TP3     H125016   2.825   0.491   2.600 -0.5389 -1.1362  0.2180
 4399TP3     H225017   2.805   0.613   2.687  0.1256 -0.3267 -0.7397
 4400TP3      O25018   5.131   2.264   8.700 -0.4878 -0.3872 -0.6332
 4400TP3     H125019   5.092   2.351   8.695  0.2285  0.0911  1.7476
 4400TP3     H225020   5.214   2.274   8.652  0.0209  0.5021  0.4020
 4401TP3      O25021   4.814   2.351   2.287 -0.4347  0.0209 -0.0608
 4401TP3     H125022   4.845   2.323   2.373  0.2192  0.1713 -0.2397
 4401TP3     H225023   4.742   2.410   2.305 -3.4184 -3.5332  0.2913
 4402TP3      O25024   3.098   2.381   3.151 -0.5466  0.3165 -0.4938
 4402TP3     H125025   3.066   2.346   3.068  0.5993 -0.9379 -0.4315
 4402TP3     H225026   3.193   2.373   3.144 -0.5016 -1.4441  1.6258
 4403TP3      O25027   4.218   0.547   3.324 -0.0630  0.1457  0.1819
 4403TP3     H125028   4.247   0.528   3.235 -1.3698 -0.0226 -0.2227
 4403TP3     H225029   4.234   0.641   3.335  2.4735 -0.3193  0.6848
 4404TP3      O25030   2.268   5.134   0.040  0.2927  0.1544  0.4399
 4404TP3     H125031   2.297   5.173  -0.042  1.0918  0.0088  0.6498
 4404TP3     H225032   2.219   5.056   0.014  1.8009 -0.7025  0.1496
 4405TP3      O25033   2.589   4.600  10.261 -0.2384 -0.2744  0.5888
 4405TP3     H125034   2.552   4.533  10.319  0.6494 -0.4234  0.9950
 4405TP3     H225035   2.540   4.680  10.283 -1.8696 -0.9604 -0.4787
 4406TP3      O25036   5.489   0.276  10.198  0.5687 -0.0613 -0.2027
 4406TP3     H125037   5.468   0.270  10.105  1.4202  0.3801 -0.4384
 4406TP3     H225038   5.450   0.359  10.226  0.6632  0.0067 -0.2707
 4407TP3      O25039   5.175   3.160   0.728 -0.6343 -0.2833 -0.0574
 4407TP3     H125040   5.122   3.116   0.794 -1.0380  1.6917  0.9821
 4407TP3     H225041   5.157   3.253   0.741  2.3851  0.3801 -0.2926
 4408TP3      O25042   5.042   4.627   0.218 -0.1693 -0.1869 -0.4389
 4408TP3     H125043   5.090   4.693   0.168  0.9148 -0.8656 -0.3219
 4408TP3     H225044   4.966   4.673   0.252 -0.0531  0.6942 -1.3518
 4409TP3      O25045   0.380   5.246   2.054 -0.2479  0.2919  0.2994
 4409TP3     H125046   0.350   5.255   1.963 -0.8897  1.4360  0.6036
 4409TP3     H225047   0.331   5.314   2.102  0.2297 -0.1655  1.4611
 4410TP3      O25048   0.381   1.267   0.139  0.3968  0.3146  0.2659
 4410TP3     H125049   0.292   1.233   0.146  0.3284  0.2572 -0.8579
 4410TP3     H225050   0.417   1.225   0.061  1.3219  0.5395  0.5643
 4411TP3      O25051   5.377   0.421   1.134  0.4709 -0.4546 -0.0330
 4411TP3     H125052   5.450   0.473   1.099  0.4425 -1.5120 -1.6954
 4411TP3     H225053   5.313   0.487   1.161  1.8117  0.4702  0.9578
 4412TP3      O25054   1.373   0.715   0.637 -0.0215 -0.0626  0.1498
 4412TP3     H125055   1.465   0.717   0.611 -0.5494  1.5020 -1.7537
 4412TP3     H225056   1.357   0.801   0.675 -0.4082 -0.7356  1.5144
 4413TP3      O25057   0.974   3.629   1.049 -0.3660  0.0169 -0.0058
 4413TP3     H125058   1.030   3.632   0.972  1.2267 -0.6824  1.0971
 4413TP3     H225059   0.957   3.536   1.063 -0.3613  0.1169  0.6849
 4414TP3      O25060   5.427   2.696   1.684  0.1112 -0.5548  0.4280
 4414TP3     H125061   5.439   2.647   1.766  1.4417 -3.1331 -1.2508
 4414TP3     H225062   5.513   2.694   1.642 -1.2066 -1.7200 -2.3539
 4415TP3      O25063   5.041   1.311   9.608  0.0619  0.2815 -0.1378
 4415TP3     H125064   5.029   1.320   9.514  0.6206 -0.6971 -0.3031
 4415TP3     H225065   5.052   1.217   9.623  1.2340  0.5459  0.7455
 4416TP3      O25066   2.971   1.396   1.410  0.1067  0.4696 -0.3163
 4416TP3     H125067   3.030   1.441   1.349 -1.3690  1.0753 -1.3377
 4416TP3     H225068   2.920   1.466   1.450 -1.0433 -0.1604 -0.6561
 4417TP3      O25069   4.683   5.157  10.190  0.0697  0.4897  0.4629
 4417TP3     H125070   4.688   5.209  10.110  1.8448 -0.5556 -0.1375
 4417TP3     H225071   4.734   5.207  10.253  0.7770  0.0741  0.2222
 4418TP3      O25072   4.345   0.046   2.621 -0.0781 -0.0161 -0.1692
 4418TP3     H125073   4.369   0.116   2.683 -0.4375 -0.7846  0.8511
 4418TP3     H225074   4.349   0.088   2.535 -0.5885  1.3507  0.4553
 4419TP3      O25075   4.449   0.535   2.766  1.4067 -0.4943  0.1526
 4419TP3     H125076   4.382   0.596   2.798  0.9703  0.5122 -2.5586
 4419TP3     H225077   4.524   0.550   2.823  1.1355  2.2703 -0.1739
 4420TP3      O25078   1.303   5.425   7.529  0.2000  0.2956  0.0909
 4420TP3     H125079   1.220   5.398   7.490 -0.2262 -1.0730  1.8666
 4420TP3     H225080   1.277   5.474   7.607  1.0720  0.0995  0.4991
 4421TP3      O25081   1.587   2.289   1.794 -0.2440  0.3112 -0.9711
 4421TP3     H125082   1.602   2.350   1.866  0.1448 -0.1557 -0.6625
 4421TP3     H225083   1.502   2.250   1.813  0.4277 -0.7399 -0.1081
 4422TP3      O25084   1.186   0.986   1.188  0.2575  0.1584  0.1885
 4422TP3     H125085   1.092   0.987   1.167  0.2703  0.8981  0.1433
 4422TP3     H225086   1.190   0.943   1.274 -0.0582 -0.4376 -0.0923
 4423TP3      O25087   3.233   5.490   2.489 -0.1543  0.0506 -0.3155
 4423TP3     H125088   3.289   5.563   2.514 -0.6221 -0.3178  1.9677
 4423TP3     H225089   3.181   5.472   2.567 -1.1046 -1.7508 -1.3186
 4424TP3      O25090   0.888   2.253   1.605  0.2130  0.3432  0.0290
 4424TP3     H125091   0.880   2.342   1.639  0.9676  0.7057 -0.7235
 4424TP3     H225092   0.952   2.211   1.664  0.5508  0.5774 -0.1728
 4425TP3      O25093   3.365   3.881   2.793 -0.1243 -0.6542  0.3627
 4425TP3     H125094   3.320   3.800   2.817 -1.7726  0.7865  2.3619
 4425TP3     H225095   3.457   3.864   2.814 -0.5923 -1.7070  1.6586
 4426TP3      O25096   4.115   0.475   1.803 -0.6734 -0.6365 -0.2828
 4426TP3     H125097   4.087   0.485   1.894 -0.1964 -1.2260 -0.0686
 4426TP3     H225098   4.184   0.541   1.792 -2.5417  1.2317 -0.9883
 4427TP3      O25099   2.187   2.389   9.835  0.5719 -1.0395 -0.9080
 4427TP3     H125100   2.242   2.464   9.857 -0.0128 -0.6291 -0.8122
 4427TP3     H225101   2.107   2.428   9.798 -0.4821 -1.5229  0.7841
 4428TP3      O25102   1.260   1.689   2.729  0.0125  0.4556  0.0005
 4428TP3     H125103   1.187   1.659   2.782  1.6969 -1.1735  1.4716
 4428TP3     H225104   1.258   1.784   2.737 -1.3165  0.3619  0.8508
 4429TP3      O25105   1.371   3.823   0.933  0.3921  0.2465  0.0592
 4429TP3     H125106   1.338   3.828   0.843 -0.4281 -0.1989  0.3292
 4429TP3     H225107   1.323   3.891   0.980  1.0488  0.6860  0.0885
 4430TP3      O25108   0.388   2.633   1.783  0.3349  0.0696  0.1023
 4430TP3     H125109   0.420   2.570   1.720  0.9751  0.3943  0.0948
 4430TP3     H225110   0.408   2.595   1.869  0.5386  0.1711  0.0997
 4431TP3      O25111   4.906   1.898   9.995 -0.4196 -0.3075 -0.3754
 4431TP3     H125112   4.929   1.990   9.979 -0.5456 -0.1205  0.5317
 4431TP3     H225113   4.819   1.901  10.033 -0.7600 -0.8593 -1.0944
 4432TP3      O25114   0.056   1.733   8.918 -0.1858 -0.0845 -0.2049
 4432TP3     H125115  -0.024   1.680   8.910  0.3093 -0.8784  0.0957
 4432TP3     H225116   0.064   1.750   9.011 -0.8452  1.3102 -0.3893
 4433TP3      O25117   0.323   5.466   3.144  0.4755 -0.2198 -0.0057
 4433TP3     H125118   0.285   5.442   3.228 -0.3327 -1.4948 -0.7097
 4433TP3     H225119   0.280   5.548   3.120  1.2879  0.5685  1.1784
 4434TP3      O25120   4.276   5.450   8.958 -0.4124 -0.5043 -0.0387
 4434TP3     H125121   4.187   5.430   8.930 -0.7579  1.2147 -0.2088
 4434TP3     H225122   4.272   5.541   8.989  1.1266 -0.6346  0.5942
 4435TP3      O25123   5.082   3.907   2.374 -0.2116  0.5502  0.0259
 4435TP3     H125124   5.103   3.947   2.458  0.1277  1.4012 -0.4568
 4435TP3     H225125   5.152   3.938   2.315 -0.6784  0.2957 -0.6652
 4436TP3      O25126   4.693   5.124   2.375 -0.0843 -0.1146 -0.6685
 4436TP3     H125127   4.756   5.156   2.440  1.3217  1.1516 -2.6177
 4436TP3     H225128   4.639   5.062   2.423  1.4431  0.1995  1.5189
 4437TP3      O25129   0.338   1.098   0.658 -0.0916 -0.2306 -0.2969
 4437TP3     H125130   0.273   1.168   0.659  0.2379  0.1047 -1.8410
 4437TP3     H225131   0.286   1.017   0.650 -0.5557 -0.3101  2.8337
 4438TP3      O25132   0.702   2.644   2.083 -0.3901  0.4563 -0.2351
 4438TP3     H125133   0.630   2.586   2.107 -0.5154  1.0396  0.7977
 4438TP3     H225134   0.780   2.589   2.094 -0.3497  1.0081  2.5591
 4439TP3      O25135   1.306   4.606   1.673  0.1451  0.2681  0.3806
 4439TP3     H125136   1.212   4.616   1.658  0.5253  0.9398 -1.7683
 4439TP3     H225137   1.339   4.567   1.592  1.9950  1.7856  0.3684
 4440TP3      O25138   0.818   2.038   2.130  0.1699 -0.1659 -0.3973
 4440TP3     H125139   0.901   2.086   2.131 -0.6035  1.1982  2.2702
 4440TP3     H225140   0.840   1.953   2.171  0.5678 -0.4044 -1.0932
 4441TP3      O25141   4.130   3.866   1.545  0.1780  0.2451 -0.0588
 4441TP3     H125142   4.140   3.884   1.639  0.2587 -1.2002  0.2092
 4441TP3     H225143   4.220   3.855   1.513  0.1359  0.4815 -0.2596
 4442TP3      O25144   2.617   5.364   3.683 -0.2093  0.2883 -0.0740
 4442TP3     H125145   2.671   5.413   3.744  2.9381 -0.9148 -1.7986
 4442TP3     H225146   2.608   5.422   3.607  0.7475 -0.4793 -0.7815
 4443TP3      O25147   3.791   3.137   2.597  0.5447  0.1593  0.6254
 4443TP3     H125148   3.705   3.123   2.636  0.4200 -0.4915  0.1325
 4443TP3     H225149   3.773   3.149   2.504  1.0086 -0.2738  0.4785
 4444TP3      O25150   0.429   0.249   2.660 -0.2216 -0.3052 -0.4359
 4444TP3     H125151   0.384   0.263   2.743  0.7755  1.2831 -0.1612
 4444TP3     H225152   0.370   0.192   2.611 -2.5941  1.7949 -0.1096
 4445TP3      O25153   2.265   0.547   0.706 -0.2615  0.0356 -0.3446
 4445TP3     H125154   2.203   0.614   0.736  0.3273  0.1331  0.6752
 4445TP3     H225155   2.263   0.554   0.610 -0.5562  1.1868 -0.2626
 4446TP3      O25156   4.483   3.699   0.308 -0.0535 -0.2609 -0.3475
 4446TP3     H125157   4.499   3.605   0.316  1.8608 -0.0095 -1.0373
 4446TP3     H225158   4.486   3.732   0.398 -1.4959 -0.9457 -0.0230
 4447TP3      O25159   0.005   0.396   2.540  0.1207 -0.4216  0.2026
 4447TP3     H125160   0.062   0.473   2.538 -0.2057 -0.1857 -0.2971
 4447TP3     H225161   0.010   0.364   2.630  1.0697 -0.4263  0.1511
 4448TP3      O25162   0.127   0.068  10.137 -0.0196 -0.6733  0.1920
 4448TP3     H125163   0.070  -0.006  10.115 -1.0325  0.0747  0.2713
 4448TP3     H225164   0.067   0.135  10.169  0.6736  0.8627 -1.6632
 4449TP3      O25165   5.400   3.917   1.242  0.2956  0.3031 -0.2539
 4449TP3     H125166   5.311   3.941   1.219  0.7434  3.0171  0.6611
 4449TP3     H225167   5.451   3.997   1.229  2.0556 -0.3697  2.0744
 4450TP3      O25168   2.622   3.632   1.882  0.2435 -0.3674 -0.2465
 4450TP3     H125169   2.694   3.619   1.820  0.0702  0.1630 -0.5663
 4450TP3     H225170   2.559   3.686   1.835 -0.4321 -0.9519 -0.0102
 4451TP3      O25171   3.477   2.586   0.541 -0.4730  0.2706  0.2828
 4451TP3     H125172   3.512   2.657   0.487 -0.1230 -0.3901 -0.3731
 4451TP3     H225173   3.384   2.606   0.549 -1.2282 -1.2834 -3.2968
 4452TP3      O25174   1.445   0.241   3.026  0.5859 -0.3715  0.4262
 4452TP3     H125175   1.418   0.284   2.945  2.5610 -1.8328 -1.0488
 4452TP3     H225176   1.481   0.312   3.080 -1.4478  0.7352  0.3728
 4453TP3      O25177   4.220   1.115   1.832  0.2568 -0.0924 -0.4043
 4453TP3     H125178   4.189   1.177   1.766 -0.1595 -0.5404 -0.6308
 4453TP3     H225179   4.278   1.055   1.784  0.2204 -0.2147 -0.2985
 4454TP3      O25180   5.350   2.670   2.562  0.1359  0.1939  0.0395
 4454TP3     H125181   5.354   2.761   2.594 -1.4628 -0.4263  2.0970
 4454TP3     H225182   5.442   2.644   2.555  0.5947  1.4604  0.9915
 4455TP3      O25183   4.281   2.819   1.430 -0.1796 -0.1917  0.3165
 4455TP3     H125184   4.233   2.760   1.372  0.8126 -0.1932 -0.5055
 4455TP3     H225185   4.253   2.906   1.403  0.5853 -0.1784 -0.4294
 4456TP3      O25186   2.543   1.503   1.785 -0.2576 -0.4433  0.5604
 4456TP3     H125187   2.608   1.439   1.754  0.9301  0.4743  1.1021
 4456TP3     H225188   2.540   1.489   1.880 -1.8061 -1.3380  0.3990
 4457TP3      O25189   1.286   0.882   8.602  0.6079  0.0732 -0.0615
 4457TP3     H125190   1.255   0.882   8.511 -1.4860 -0.0841  0.6124
 4457TP3     H225191   1.292   0.975   8.625  3.1258  0.1703 -0.9725
 4458TP3      O25192   3.792   1.050  10.188  0.1760  0.0701 -0.4752
 4458TP3     H125193   3.769   1.137  10.157 -0.0982  0.4150  0.6730
 4458TP3     H225194   3.772   0.992  10.114  1.5063  1.1053 -1.6828
 4459TP3      O25195   4.608   3.498   3.131 -0.1844  0.0057  0.1765
 4459TP3     H125196   4.656   3.416   3.134  0.6882  0.4995  0.0003
 4459TP3     H225197   4.663   3.560   3.179 -0.7589  0.5193  0.1811
 4460TP3      O25198   4.066   1.116  10.293 -0.2351 -0.7825  0.3237
 4460TP3     H125199   3.978   1.084  10.272  0.3901 -1.1073 -1.9857
 4460TP3     H225200   4.063   1.209  10.273  0.1719 -0.9590 -0.5928
 4461TP3      O25201   4.790   3.104   2.710  0.9825 -0.5098 -0.2412
 4461TP3     H125202   4.754   3.113   2.622 -2.2686 -1.2421  0.9642
 4461TP3     H225203   4.781   3.190   2.750 -0.4501 -0.9614  0.4254
 4462TP3      O25204   4.763   3.850   9.853 -0.2892 -0.4901 -0.2210
 4462TP3     H125205   4.807   3.841   9.768  0.1739  0.9852 -0.1388
 4462TP3     H225206   4.675   3.815   9.837 -0.4401  0.4298 -1.5107
 4463TP3      O25207   4.218   2.608   0.708 -0.2099  0.0513 -0.0257
 4463TP3     H125208   4.222   2.558   0.790 -0.2049 -0.6222 -0.4292
 4463TP3     H225209   4.310   2.628   0.688 -0.0586 -1.2798 -0.7578
 4464TP3      O25210   3.972   4.475   1.906 -0.0316 -0.1785  0.0682
 4464TP3     H125211   4.051   4.528   1.901 -0.1775  0.4132  2.9959
 4464TP3     H225212   3.901   4.537   1.892 -0.1502  0.2303  2.3030
 4465TP3      O25213   0.899   3.744   0.592  0.5737 -0.1341 -0.0977
 4465TP3     H125214   0.992   3.734   0.576  0.6002 -0.7159  0.4097
 4465TP3     H225215   0.882   3.837   0.579  1.1525 -0.0951 -0.5647
 4466TP3      O25216   4.447   3.679   2.321 -0.0015  0.4066 -0.4045
 4466TP3     H125217   4.411   3.755   2.274 -0.3443  1.2898  1.2298
 4466TP3     H225218   4.540   3.681   2.301  0.0345  1.4088 -0.1885
 4467TP3      O25219   1.264   3.678   8.635 -0.2672 -0.4159  0.7758
 4467TP3     H125220   1.255   3.770   8.660 -0.1918 -0.6231  1.5567
 4467TP3     H225221   1.322   3.640   8.701  0.9995 -0.6589 -0.4600
 4468TP3      O25222   3.775   2.249   2.672 -0.2204 -0.1670  0.3223
 4468TP3     H125223   3.722   2.188   2.724 -0.4201 -1.3666 -1.2322
 4468TP3     H225224   3.845   2.194   2.636  1.3864  1.1689  1.3708
 4469TP3      O25225   3.758   0.235   1.732 -0.5404 -0.0924 -0.0373
 4469TP3     H125226   3.793   0.297   1.668  1.1588 -0.4368  0.5293
 4469TP3     H225227   3.676   0.275   1.761 -0.2771  1.0951 -0.8781
 4470TP3      O25228   3.918   2.130   0.232 -0.3231 -0.2590  0.4580
 4470TP3     H125229   3.925   2.219   0.200 -0.6583 -0.7395 -0.9800
 4470TP3     H225230   3.877   2.081   0.160 -0.3839 -1.5124  1.3198
 4471TP3      O25231   4.613   0.526   2.972 -0.0843 -0.3504  0.1223
 4471TP3     H125232   4.588   0.579   3.048  1.6508  0.1035  0.4016
 4471TP3     H225233   4.664   0.454   3.009  1.1202  0.0942 -0.6197
 4472TP3      O25234   3.798   5.514   9.873  0.4890  0.3167  0.2362
 4472TP3     H125235   3.755   5.456   9.810  1.6270 -0.5177  0.1975
 4472TP3     H225236   3.744   5.509   9.952  0.6273 -0.8842  0.2612
 4473TP3      O25237   3.845   2.702   2.488 -1.0179 -0.1792 -0.0929
 4473TP3     H125238   3.885   2.622   2.455 -0.6876  0.4721 -1.3058
 4473TP3     H225239   3.818   2.749   2.409  1.4950  2.2904  0.4539
 4474TP3      O25240   4.348   1.851   2.594 -0.1270 -0.1280 -0.1130
 4474TP3     H125241   4.426   1.850   2.649 -0.4834  1.8972  0.4439
 4474TP3     H225242   4.373   1.901   2.516 -0.8818  0.5895  0.0983
 4475TP3      O25243   1.830   4.138   0.413 -0.2414  0.3185  0.5472
 4475TP3     H125244   1.761   4.098   0.360 -0.5904 -0.2151  1.4005
 4475TP3     H225245   1.799   4.131   0.503 -0.1393  2.1809  0.7548
 4476TP3      O25246   2.198   1.809   1.705  0.3940  0.1299  0.8366
 4476TP3     H125247   2.200   1.754   1.784  2.2382 -0.9730  0.0490
 4476TP3     H225248   2.241   1.890   1.731  0.8226 -0.1537  1.0108
 4477TP3      O25249   5.439   1.665   2.101  0.2096 -0.4115  0.0117
 4477TP3     H125250   5.443   1.686   2.007  1.1882  0.4480  0.2240
 4477TP3     H225251   5.367   1.718   2.134  0.4700  0.0212 -0.0961
 4478TP3      O25252   5.219   1.749   3.127  0.1000  0.5320  0.0560
 4478TP3     H125253   5.237   1.830   3.174 -0.5879  0.3725  0.6107
 4478TP3     H225254   5.240   1.680   3.190  0.0471  0.2994 -0.1792
 4479TP3      O25255   1.347   2.032   1.725 -0.1847 -0.0784  0.3360
 4479TP3     H125256   1.308   1.946   1.707 -0.8737  0.5048 -1.0434
 4479TP3     H225257   1.274   2.085   1.758 -0.1404  0.4626 -0.4232
 4480TP3      O25258   3.796   3.233   1.905  0.0808  0.6259  0.3092
 4480TP3     H125259   3.744   3.295   1.955  1.9074  2.3515  0.1502
 4480TP3     H225260   3.732   3.184   1.852 -1.5364  1.1236  1.7800
 4481TP3      O25261   0.053   0.007   2.350  0.5503 -0.1406 -0.0781
 4481TP3     H125262   0.006   0.067   2.293  1.1257  0.9310  0.5599
 4481TP3     H225263  -0.015  -0.051   2.385 -0.0552  0.3269 -0.4768
 4482TP3      O25264   3.676   1.523   2.984  0.0100 -0.6663  0.1516
 4482TP3     H125265   3.721   1.451   3.027  0.1093 -1.3408 -1.0681
 4482TP3     H225266   3.612   1.553   3.048 -1.8778 -3.5874 -0.2941
 4483TP3      O25267   0.210   2.278   9.736 -0.1694  0.2477 -0.2196
 4483TP3     H125268   0.133   2.285   9.791 -1.3435  1.3526 -1.9526
 4483TP3     H225269   0.206   2.189   9.700 -1.8671  0.9831 -1.9885
 4484TP3      O25270   4.897   0.125   3.246 -0.7244  0.3757 -0.3752
 4484TP3     H125271   4.989   0.146   3.232 -1.2050  2.5813 -0.3614
 4484TP3     H225272   4.892   0.030   3.232  1.8073 -0.0131  1.1404
 4485TP3      O25273   4.288   3.433   0.935  0.4097  0.0122 -0.6046
 4485TP3     H125274   4.209   3.459   0.888  0.4674 -1.5263 -1.5863
 4485TP3     H225275   4.352   3.501   0.914 -0.3040  0.6303 -0.7732
 4486TP3      O25276   4.246   0.189   0.448  0.0125 -0.1583 -0.2562
 4486TP3     H125277   4.180   0.120   0.440 -0.6600  0.3378  0.7843
 4486TP3     H225278   4.204   0.266   0.409 -0.0242  0.1469  0.3727
 4487TP3      O25279   3.739   2.177   0.427  0.2438 -0.0806  0.1115
 4487TP3     H125280   3.819   2.171   0.376  0.6170 -1.0015  0.8124
 4487TP3     H225281   3.739   2.267   0.461  1.1739 -0.2161  0.4601
 4488TP3      O25282   5.422   4.925   0.618 -0.2983  0.6313  0.3362
 4488TP3     H125283   5.399   4.947   0.708  1.7191  0.4950  0.8974
 4488TP3     H225284   5.432   4.830   0.619 -1.1589  0.5302 -0.2482
 4489TP3      O25285   1.109   1.811   7.861 -0.0746 -0.0850  0.1542
 4489TP3     H125286   1.019   1.818   7.829 -0.2485  2.2502  1.1138
 4489TP3     H225287   1.159   1.870   7.804  0.8239 -1.1956 -0.2221
 4490TP3      O25288   0.145   1.360   0.671 -0.4184  0.4261 -0.4462
 4490TP3     H125289   0.216   1.349   0.733 -0.4095 -0.7048 -0.6445
 4490TP3     H225290   0.099   1.439   0.700  0.5072  0.7813  0.0698
 4491TP3      O25291   1.805   0.586   2.243 -0.7314  0.5915  0.2055
 4491TP3     H125292   1.850   0.604   2.160 -0.0191  0.1179  0.4833
 4491TP3     H225293   1.759   0.504   2.229 -1.6435  1.1492 -0.1258
 4492TP3      O25294   0.097   0.863   2.922 -0.0427  0.7082 -0.1479
 4492TP3     H125295   0.032   0.867   2.852 -0.1161 -0.8962 -0.1781
 4492TP3     H225296   0.054   0.906   2.996 -1.5769 -1.2329  0.1517
 4493TP3      O25297   2.074   1.257   2.236 -0.5012 -0.1930 -0.4188
 4493TP3     H125298   2.149   1.260   2.177 -1.9932  0.3509 -2.3390
 4493TP3     H225299   2.090   1.179   2.290  2.9465  1.6297  1.3463
 4494TP3      O25300   1.427   5.065  10.035  0.0039  0.5576  0.1042
 4494TP3     H125301   1.436   5.046   9.941 -1.3074 -1.2404  0.3350
 4494TP3     H225302   1.364   5.001  10.067  0.3658  1.2252  2.2149
 4495TP3      O25303   3.368   4.215   1.130  0.3631 -0.1265 -0.1921
 4495TP3     H125304   3.436   4.255   1.075 -0.0299  2.0954  0.8599
 4495TP3     H225305   3.286   4.240   1.089  0.1228 -0.1795  0.2512
 4496TP3      O25306   4.995   1.873   3.353 -0.1739  0.6484  0.1735
 4496TP3     H125307   4.901   1.861   3.343 -0.0744  1.3157 -1.8844
 4496TP3     H225308   5.025   1.792   3.395 -1.6005  0.2670  0.4914
 4497TP3      O25309   5.365   3.032   0.266 -0.1844  0.3616 -0.4954
 4497TP3     H125310   5.376   2.979   0.345 -0.0234  2.2841  0.8057
 4497TP3     H225311   5.271   3.051   0.262 -0.1426  0.5528 -0.5933
 4498TP3      O25312   1.230   0.021  10.100 -0.3296  0.3896 -0.7057
 4498TP3     H125313   1.318   0.043  10.129 -1.6171  1.6564  2.5757
 4498TP3     H225314   1.216  -0.068  10.130  0.2612 -0.2863 -2.3858
 4499TP3      O25315   3.730   2.538   9.445  0.0055  0.7786  0.7350
 4499TP3     H125316   3.797   2.496   9.499  0.7155  0.4181 -0.4220
 4499TP3     H225317   3.777   2.571   9.369 -1.5371 -2.2473 -1.6842
 4500TP3      O25318   0.121   1.824   9.147 -0.7269  0.0011  0.2106
 4500TP3     H125319   0.186   1.889   9.172  0.6955 -1.4396  0.3662
 4500TP3     H225320   0.063   1.817   9.223 -0.9510  1.1524  0.1446
 4501TP3      O25321   3.670   0.475   8.924  0.3081  0.2020  0.7360
 4501TP3     H125322   3.742   0.517   8.971 -0.1144  1.2114  0.4922
 4501TP3     H225323   3.697   0.383   8.916  2.8484  1.1013 -1.8133
 4502TP3      O25324   3.729   0.383   3.081 -0.1149  0.1310 -0.1482
 4502TP3     H125325   3.647   0.366   3.034 -0.9562 -2.4893  2.0937
 4502TP3     H225326   3.763   0.295   3.101  1.8607  1.1864  1.3031
 4503TP3      O25327   0.803   4.079  10.139 -0.1139  0.1554  0.2529
 4503TP3     H125328   0.715   4.104  10.170  0.4251  0.9129  1.2131
 4503TP3     H225329   0.856   4.157  10.154  0.6948 -0.2469 -0.4866
 4504TP3      O25330   4.227   3.947   1.788 -0.5086  1.0099 -0.7512
 4504TP3     H125331   4.318   3.976   1.786 -0.2674  0.4931  2.0766
 4504TP3     H225332   4.177   4.029   1.792 -0.0713  1.2321  0.3222
 4505TP3      O25333   0.057   4.524   2.440 -0.2615 -0.1596 -0.4052
 4505TP3     H125334   0.130   4.490   2.492 -0.0826  0.3891 -0.2873
 4505TP3     H225335  -0.021   4.481   2.477 -0.2529  0.9726  1.0094
 4506TP3      O25336   5.025   1.158   0.699 -0.3150  0.3397 -0.5524
 4506TP3     H125337   5.106   1.111   0.676 -0.3855 -0.0332 -0.0195
 4506TP3     H225338   5.051   1.250   0.698  1.1516  0.0562  3.6424
 4507TP3      O25339   1.451   1.145   1.596  0.0450  0.3281 -0.1407
 4507TP3     H125340   1.387   1.074   1.584 -0.8407  1.0102  0.5075
 4507TP3     H225341   1.398   1.221   1.621  0.9292  1.3660 -1.3639
 4508TP3      O25342   5.118   4.543   1.480 -0.3352  0.3613  0.4424
 4508TP3     H125343   5.196   4.569   1.528  0.1662 -0.5950  0.1598
 4508TP3     H225344   5.151   4.511   1.396 -0.8953 -1.3770  0.8562
 4509TP3      O25345   0.150   2.454   3.312 -0.1179  0.5670  0.2923
 4509TP3     H125346   0.198   2.532   3.284  0.5862  0.2749  0.6964
 4509TP3     H225347   0.178   2.440   3.403  1.4705 -1.4669 -0.4892
 4510TP3      O25348   3.219   3.912   3.061  0.2044  0.5217 -0.2145
 4510TP3     H125349   3.286   3.946   3.120 -0.9183  1.7173  0.4186
 4510TP3     H225350   3.207   3.821   3.087  0.3675  0.7886  0.8111
 4511TP3      O25351   4.588   2.305   3.733 -0.1002  0.0106  0.0670
 4511TP3     H125352   4.554   2.235   3.676  0.9788 -2.0563  1.8824
 4511TP3     H225353   4.667   2.335   3.688 -0.4550 -0.0715 -0.6284
 4512TP3      O25354   4.829   2.334   3.588  0.4314 -0.8943  0.3400
 4512TP3     H125355   4.915   2.307   3.621  0.3109 -1.6890  0.0227
 4512TP3     H225356   4.834   2.315   3.494  0.8463  1.5122 -0.1388
 4513TP3      O25357   4.396   0.410   0.901 -0.1649 -0.0680 -0.0794
 4513TP3     H125358   4.421   0.340   0.962  1.2172  0.1279 -0.4025
 4513TP3     H225359   4.345   0.365   0.833  2.0758 -1.0862 -1.1536
 4514TP3      O25360   1.042   4.947   1.579  0.5217  0.2176  0.1036
 4514TP3     H125361   1.101   4.872   1.586  0.0454 -0.3521 -1.5792
 4514TP3     H225362   1.066   4.988   1.496  0.4415  1.6482  0.7732
 4515TP3      O25363   0.269   2.645   2.372 -0.1508 -0.3595  0.3688
 4515TP3     H125364   0.334   2.713   2.384 -0.3949  0.0740 -0.6943
 4515TP3     H225365   0.229   2.665   2.287 -0.9316 -1.2259  0.5257
 4516TP3      O25366   4.804   0.137   2.172  0.4242  0.6334  0.3551
 4516TP3     H125367   4.800   0.211   2.232 -2.2181  0.9665 -0.1932
 4516TP3     H225368   4.721   0.091   2.184  1.3149 -1.2626 -0.5571
 4517TP3      O25369   4.661   2.958   2.919  0.4176  0.0689  0.2074
 4517TP3     H125370   4.717   2.997   2.852 -0.4447 -0.5214 -0.8745
 4517TP3     H225371   4.678   3.010   2.998  1.3650  0.8427 -0.4969
 4518TP3      O25372   0.279   2.212   2.293 -0.4168 -0.4343  0.2416
 4518TP3     H125373   0.198   2.262   2.284 -0.7368 -0.5998  1.9354
 4518TP3     H225374   0.330   2.233   2.215 -0.9641  1.7486  0.4494
 4519TP3      O25375   3.664   0.964   2.094 -0.2444  0.0123  0.4578
 4519TP3     H125376   3.706   0.931   2.173  0.7664  0.0155 -0.0695
 4519TP3     H225377   3.585   0.910   2.084 -0.3090 -0.0678  1.3919
 4520TP3      O25378   1.307   0.375   0.600 -0.0202 -0.2206  0.1668
 4520TP3     H125379   1.315   0.373   0.504 -1.4720  0.4741  0.0144
 4520TP3     H225380   1.213   0.390   0.615  0.2562 -0.0256  1.6882
 4521TP3      O25381   4.118   1.234   2.312  0.3245 -0.4072 -0.2879
 4521TP3     H125382   4.034   1.266   2.346  0.5990 -0.5698  0.5506
 4521TP3     H225383   4.106   1.233   2.217  0.3835  2.3333 -0.3615
 4522TP3      O25384   4.914   5.523   2.910  0.0755 -0.7489 -0.3867
 4522TP3     H125385   4.879   5.485   2.990  0.6967  0.4311  0.4627
 4522TP3     H225386   4.843   5.515   2.847 -0.9530 -0.3548  0.7013
 4523TP3      O25387   1.165   0.054   2.237 -0.1322 -0.7032  0.3351
 4523TP3     H125388   1.171   0.135   2.187  1.3342  0.0595  1.7031
 4523TP3     H225389   1.171  -0.015   2.171  1.0552  0.2935 -0.6270
 4524TP3      O25390   0.279   2.577   1.118  0.1334 -0.2256 -0.2937
 4524TP3     H125391   0.250   2.505   1.061 -0.9120 -1.2746  1.5282
 4524TP3     H225392   0.340   2.536   1.179 -1.6665  0.0810  1.7606
 4525TP3      O25393   5.358   3.668   0.778  0.6386 -0.8800 -0.5305
 4525TP3     H125394   5.276   3.633   0.814  0.1544 -1.0970 -1.8275
 4525TP3     H225395   5.332   3.717   0.701  1.5278  0.8148  0.2210
 4526TP3      O25396   1.611   2.098   0.308 -0.4340  0.3726 -0.0036
 4526TP3     H125397   1.668   2.163   0.267  0.1069  0.0418  0.2293
 4526TP3     H225398   1.650   2.014   0.285 -0.9646  0.1364 -0.0487
 4527TP3      O25399   0.482   5.187   0.709 -0.3103 -0.5576  0.1120
 4527TP3     H125400   0.551   5.151   0.765  0.1315 -1.4439 -1.0022
 4527TP3     H225401   0.404   5.136   0.732  0.1207 -1.6818 -0.8480
 4528TP3      O25402   5.128   3.354   9.406  0.1683  0.2395 -0.0334
 4528TP3     H125403   5.054   3.299   9.432  0.5828  1.1066  3.2167
 4528TP3     H225404   5.193   3.293   9.372 -0.0118 -1.1292  2.0328
 4529TP3      O25405   5.129   0.955   8.657  0.0679 -0.3701 -0.6889
 4529TP3     H125406   5.060   0.986   8.599 -0.0953 -1.8496 -1.2821
 4529TP3     H225407   5.091   0.963   8.745 -0.6870 -0.7434 -0.9777
 4530TP3      O25408   4.900   2.937   2.057 -0.3483 -0.5892 -0.2946
 4530TP3     H125409   4.972   2.917   2.117 -0.0298 -1.5084 -0.9745
 4530TP3     H225410   4.940   2.940   1.971 -1.0666 -0.7286 -0.6377
 4531TP3      O25411   1.986   4.192   1.299  0.2667  0.4989  0.6692
 4531TP3     H125412   1.903   4.151   1.276 -0.5522  0.4497  3.4814
 4531TP3     H225413   2.052   4.141   1.251 -1.1555 -0.7085 -0.0586
 4532TP3      O25414   0.716   4.643   2.227  0.1625 -0.2236  0.0577
 4532TP3     H125415   0.656   4.685   2.290  0.7718  0.9278 -0.1049
 4532TP3     H225416   0.717   4.551   2.253 -0.8948 -0.0740  0.6907
 4533TP3      O25417   2.272   3.378   1.690 -0.0213  0.1451  0.0667
 4533TP3     H125418   2.360   3.365   1.655 -0.4920 -1.5288 -0.5374
 4533TP3     H225419   2.222   3.413   1.616 -0.1572 -0.0308  0.0755
 4534TP3      O25420   5.194   1.315   3.378  0.1716 -0.0824  0.8861
 4534TP3     H125421   5.101   1.294   3.388  0.5250 -2.3666 -0.3033
 4534TP3     H225422   5.237   1.262   3.446  0.8804 -1.5206 -0.6607
 4535TP3      O25423   0.227   5.457   2.157 -0.0976  0.3498 -0.1039
 4535TP3     H125424   0.164   5.470   2.228  0.4482 -0.4006  0.5269
 4535TP3     H225425   0.177   5.473   2.077 -0.5044  2.0276  0.4730
 4536TP3      O25426   4.975   0.530   2.945 -0.3982 -0.1163 -0.3666
 4536TP3     H125427   5.011   0.442   2.939 -0.1101 -0.0524  0.3750
 4536TP3     H225428   5.042   0.586   2.907 -0.2279 -0.1309 -0.0910
 4537TP3      O25429   3.341   4.747   0.604  0.4287 -0.0260  0.3685
 4537TP3     H125430   3.428   4.711   0.623  1.2624  0.4462 -2.3143
 4537TP3     H225431   3.292   4.673   0.569  0.4069  0.1877 -0.0499
 4538TP3      O25432   5.283   1.652   0.950 -0.3107  0.0360 -0.0265
 4538TP3     H125433   5.241   1.571   0.979 -1.1590  0.9571  1.3875
 4538TP3     H225434   5.292   1.704   1.030  1.8629  0.6147 -0.6067
 4539TP3      O25435   5.231   1.970   3.268 -0.8808 -0.3355 -0.1357
 4539TP3     H125436   5.154   1.922   3.300 -2.1247  1.5085 -0.2923
 4539TP3     H225437   5.224   2.056   3.310  1.7380 -0.5122  0.7652
 4540TP3      O25438   0.014   0.659   0.566 -0.2640 -0.2838  0.0577
 4540TP3     H125439  -0.050   0.613   0.621  0.8240 -0.9363  0.7993
 4540TP3     H225440   0.074   0.591   0.537 -0.4739  0.1712 -1.4522
 4541TP3      O25441   0.364   1.357   0.872 -0.5794 -0.2139  0.4980
 4541TP3     H125442   0.304   1.392   0.938 -0.0329 -0.5887  1.2017
 4541TP3     H225443   0.412   1.288   0.918 -1.2004 -1.4690 -0.6949
 4542TP3      O25444   0.052   2.849   3.187 -1.1544  0.0213  0.0059
 4542TP3     H125445   0.080   2.933   3.151 -0.5677 -0.6572 -1.1352
 4542TP3     H225446   0.133   2.806   3.213 -1.3711 -0.6643 -0.4498
 4543TP3      O25447   1.992   4.049   0.818  0.3460 -0.2592 -0.0551
 4543TP3     H125448   2.055   4.113   0.785 -0.2107 -0.8131 -2.2705
 4543TP3     H225449   2.046   3.980   0.856  0.9984  0.6401  0.6693
 4544TP3      O25450   5.494   3.476  10.028 -0.5778 -0.3055  0.0800
 4544TP3     H125451   5.560   3.409  10.012 -0.6791 -0.4462  0.2409
 4544TP3     H225452   5.435   3.470   9.953 -0.0109  0.2989 -0.4099
 4545TP3      O25453   5.045   1.167   8.300 -0.6129  0.3477 -0.1236
 4545TP3     H125454   4.965   1.179   8.249 -0.2150 -0.7394 -1.0236
 4545TP3     H225455   5.114   1.155   8.235 -0.3261 -2.5307  0.6367
 4546TP3      O25456   0.016   0.809   3.465 -0.0638 -0.5124  0.3937
 4546TP3     H125457   0.074   0.882   3.483 -2.1179  1.2154  0.1949
 4546TP3     H225458  -0.070   0.838   3.494 -0.8564 -3.0515  0.7861
 4547TP3      O25459   5.061   3.889   0.395 -0.0876  0.4882 -0.2942
 4547TP3     H125460   5.018   3.903   0.311 -1.1131  2.9597  0.5942
 4547TP3     H225461   4.992   3.861   0.454  0.2876  0.4735  0.1463
 4548TP3      O25462   5.296   1.152   3.173  0.4295  0.5872 -0.1933
 4548TP3     H125463   5.213   1.111   3.199  1.4913 -1.4682  0.0306
 4548TP3     H225464   5.330   1.190   3.254 -0.7480  2.3212 -0.4778
 4549TP3      O25465   5.040   2.511   8.716 -0.0659  0.0966  0.2485
 4549TP3     H125466   5.071   2.582   8.660 -1.6715  0.5026 -0.1687
 4549TP3     H225467   4.956   2.542   8.750  0.3272 -0.6508  1.9325
 4550TP3      O25468   1.136   5.456   2.884  0.4661  0.0332 -0.3082
 4550TP3     H125469   1.057   5.499   2.853  0.0252 -0.3810  0.2217
 4550TP3     H225470   1.105   5.373   2.922  1.1873 -0.2844 -0.4001
 4551TP3      O25471   3.451   2.709   1.662 -0.1431  0.1147  0.1785
 4551TP3     H125472   3.470   2.665   1.579  0.0577 -1.5991  1.1307
 4551TP3     H225473   3.517   2.675   1.723 -0.4785  1.1331  1.1276
 4552TP3      O25474   2.068   2.083   2.247  0.4736  0.3079  0.9087
 4552TP3     H125475   2.145   2.036   2.277 -1.1602 -0.9695  3.2000
 4552TP3     H225476   2.047   2.044   2.162  2.2519  0.6108  0.3095
 4553TP3      O25477   4.331   2.198   2.911 -0.1658 -0.2867  0.9566
 4553TP3     H125478   4.409   2.164   2.955  0.3078 -1.5214 -0.7900
 4553TP3     H225479   4.280   2.239   2.981  1.7162 -0.0721  2.2277
 4554TP3      O25480   0.745   3.967   9.427  0.2476 -0.1461 -0.0722
 4554TP3     H125481   0.817   3.948   9.487 -0.1529 -1.6869 -0.0481
 4554TP3     H225482   0.704   4.045   9.463  1.3657  0.2350  0.4017
 4555TP3      O25483   2.341   3.963   1.685  0.2245  0.3793 -0.1042
 4555TP3     H125484   2.268   3.986   1.628 -0.8259  1.3522  1.5842
 4555TP3     H225485   2.395   3.904   1.633 -1.6502 -0.1670 -1.4638
 4556TP3      O25486   1.708   3.316   2.707 -0.0725 -0.2732 -0.2237
 4556TP3     H125487   1.664   3.345   2.787 -1.1378 -1.0219 -0.5307
 4556TP3     H225488   1.780   3.262   2.738 -0.5777 -0.6928  0.2394
 4557TP3      O25489   0.719   3.321   9.367 -0.3114  0.5070 -0.1136
 4557TP3     H125490   0.683   3.394   9.417 -1.8933 -0.4280  0.1403
 4557TP3     H225491   0.648   3.258   9.361  1.4235 -1.6200  0.7987
 4558TP3      O25492   0.051   3.709   1.225  0.1538  0.2088 -0.6518
 4558TP3     H125493  -0.004   3.778   1.260 -1.4879 -1.5168  0.2797
 4558TP3     H225494  -0.007   3.658   1.169  0.2121 -2.7316  1.8081
 4559TP3      O25495   3.275   1.263   9.486  0.0756  0.0561  0.0458
 4559TP3     H125496   3.351   1.212   9.515  0.1911 -0.9160 -1.8892
 4559TP3     H225497   3.265   1.240   9.393 -1.0411  2.1150 -0.3593
 4560TP3      O25498   0.974   4.278   1.448  0.1440  0.2697  0.0307
 4560TP3     H125499   0.973   4.374   1.451 -1.8115  0.2486  0.3364
 4560TP3     H225500   0.957   4.257   1.356 -0.6600  0.2124  0.1879
 4561TP3      O25501   0.081   2.817   2.536  0.1100 -0.2113  0.0629
 4561TP3     H125502   0.157   2.818   2.479 -0.6708 -2.3236 -1.0725
 4561TP3     H225503   0.016   2.872   2.490 -0.3421 -1.4979 -0.8707
 4562TP3      O25504   3.503   3.715   9.304  0.6178 -0.0388  0.8791
 4562TP3     H125505   3.421   3.669   9.286  0.9894  0.4668 -2.5353
 4562TP3     H225506   3.486   3.764   9.384 -1.8721 -1.2150  1.1200
 4563TP3      O25507   1.590   4.473   3.008 -0.4726  1.0510  0.0240
 4563TP3     H125508   1.621   4.385   3.031 -2.0509  0.3866 -0.3101
 4563TP3     H225509   1.499   4.459   2.981 -0.1624  2.5093 -1.8444
 4564TP3      O25510   1.192   2.560   1.446 -0.2955 -0.1545  0.2728
 4564TP3     H125511   1.163   2.469   1.434  1.7749 -0.7236 -0.6164
 4564TP3     H225512   1.150   2.608   1.374 -1.1010 -0.4756  0.5256
 4565TP3      O25513   0.474   1.822   2.614  0.4162  0.1564  0.1294
 4565TP3     H125514   0.509   1.801   2.701  2.4064  0.0435 -0.6635
 4565TP3     H225515   0.380   1.830   2.627  0.4489 -1.9657  1.8995
 4566TP3      O25516   2.126   2.106   0.659 -0.7010  0.2791  0.3056
 4566TP3     H125517   2.069   2.181   0.640  0.0750  0.7492 -0.1742
 4566TP3     H225518   2.158   2.123   0.748 -0.1951  0.7232  0.0367
 4567TP3      O25519   1.908   4.292   2.270 -0.2419  0.5106 -0.3891
 4567TP3     H125520   1.906   4.203   2.232  0.5041  0.9810 -1.5837
 4567TP3     H225521   1.940   4.279   2.359 -0.0365 -0.4178 -0.5905
 4568TP3      O25522   0.810   3.010   2.340 -0.5398 -0.0222  0.2415
 4568TP3     H125523   0.895   2.965   2.337 -0.8404 -0.7429  1.8453
 4568TP3     H225524   0.768   2.989   2.257 -0.9949 -3.3939  1.2332
 4569TP3      O25525   3.975   5.285   9.621 -0.3050  0.0097 -0.3098
 4569TP3     H125526   4.020   5.210   9.661  0.6281  0.9944  0.5004
 4569TP3     H225527   3.984   5.270   9.526  0.5238 -0.5149 -0.1530
 4570TP3      O25528   2.940   5.011   1.333  0.7972 -0.1864 -0.0523
 4570TP3     H125529   2.866   4.963   1.369  0.7309 -0.1399 -0.1267
 4570TP3     H225530   3.002   4.944   1.306  1.8926 -0.1742  2.3512
 4571TP3      O25531   2.363   4.443   0.768 -0.3528  0.5582  0.2140
 4571TP3     H125532   2.352   4.532   0.736  1.4840 -0.0951 -2.4522
 4571TP3     H225533   2.456   4.436   0.789 -0.6140 -0.5221  1.0548
 4572TP3      O25534   0.424   3.516   8.537  0.0095 -0.3484 -0.3653
 4572TP3     H125535   0.502   3.562   8.506  0.8211 -1.6521 -0.2842
 4572TP3     H225536   0.433   3.428   8.503 -1.6730 -0.3892 -0.7356
 4573TP3      O25537   4.808   2.752   0.677  0.5720 -0.4246 -0.8875
 4573TP3     H125538   4.797   2.695   0.600  1.2716  0.7070 -1.8468
 4573TP3     H225539   4.882   2.714   0.725  1.7911  0.3013 -2.1380
 4574TP3      O25540   5.270   1.023   0.669  0.8799  0.3099  0.4923
 4574TP3     H125541   5.281   0.933   0.700  0.6545 -0.8943 -2.7054
 4574TP3     H225542   5.360   1.056   0.660  1.1090 -0.8877 -1.8169
 4575TP3      O25543   1.105   4.947   2.344  0.0381 -0.0301 -0.1411
 4575TP3     H125544   1.038   4.879   2.347  1.0153 -0.9272  3.1600
 4575TP3     H225545   1.187   4.901   2.325 -0.2722  1.1532 -4.9272
 4576TP3      O25546   5.262   1.460   2.537 -0.2796 -0.0817  0.1825
 4576TP3     H125547   5.266   1.411   2.455  2.7363  1.0199 -0.4016
 4576TP3     H225548   5.268   1.394   2.605 -1.1712 -0.8805 -0.5026
 4577TP3      O25549   0.973   2.213   2.381 -0.3235 -0.0461  0.1802
 4577TP3     H125550   1.003   2.189   2.294  1.3211  2.2530  0.0665
 4577TP3     H225551   1.004   2.303   2.394 -1.4947  0.0626  2.6949
 4578TP3      O25552   0.273   3.003   0.641 -0.3220  0.1752 -0.2490
 4578TP3     H125553   0.239   3.047   0.564  0.2242  0.2221 -0.4648
 4578TP3     H225554   0.330   3.068   0.684 -0.3721  0.0461  0.0170
 4579TP3      O25555   2.504   0.005   0.424  0.3654 -0.3394  0.4479
 4579TP3     H125556   2.425   0.058   0.439  0.8457  0.5726 -0.1417
 4579TP3     H225557   2.547   0.001   0.509  1.0417  1.4260  0.2082
 4580TP3      O25558   0.798   3.533   1.852  0.2279  0.5221  0.1370
 4580TP3     H125559   0.748   3.452   1.848  0.8420  0.0764  1.2287
 4580TP3     H225560   0.734   3.599   1.879  0.0997  0.0699  0.9475
 4581TP3      O25561   0.983   1.417   1.843 -0.3071 -0.2021 -0.5913
 4581TP3     H125562   1.022   1.410   1.930 -0.0910 -1.3143 -0.7758
 4581TP3     H225563   0.958   1.510   1.836  1.1455  0.2535  0.0119
 4582TP3      O25564   4.210   2.719   2.430 -0.4097  0.2734  0.1508
 4582TP3     H125565   4.156   2.766   2.366 -0.4129 -1.2241 -0.9723
 4582TP3     H225566   4.172   2.632   2.434  0.1114  0.1121  1.5924
 4583TP3      O25567   1.723   5.348   2.012  0.1978 -0.1300  0.0803
 4583TP3     H125568   1.631   5.335   2.034  0.1524  0.0912  0.0263
 4583TP3     H225569   1.770   5.331   2.094  0.3285 -2.6906 -0.5101
 4584TP3      O25570   3.299   3.605   1.573 -0.6660 -0.6700 -0.8150
 4584TP3     H125571   3.245   3.526   1.580 -4.1474  1.4741 -2.2173
 4584TP3     H225572   3.255   3.668   1.630  1.0116  0.8210 -1.1439
 4585TP3      O25573   3.594   4.439   2.949 -0.5269 -0.5763  1.1066
 4585TP3     H125574   3.513   4.423   2.902  0.4009  0.5236 -0.9568
 4585TP3     H225575   3.653   4.369   2.920  0.7865  1.4261 -1.2558
 4586TP3      O25576   0.910   0.070   1.866  0.1183 -0.4026 -0.2302
 4586TP3     H125577   0.940  -0.021   1.859  0.3268 -0.3675  0.2374
 4586TP3     H225578   0.842   0.077   1.799 -1.1031 -1.3875  0.8705
 4587TP3      O25579   3.280   2.020   1.314 -0.1996 -0.4700  0.1189
 4587TP3     H125580   3.370   2.019   1.283  0.1065  2.8953  0.7560
 4587TP3     H225581   3.245   1.935   1.287  2.5488 -1.0322 -1.9014
 4588TP3      O25582   0.087   4.006   2.293  0.3351  0.0791 -0.3434
 4588TP3     H125583   0.131   3.953   2.359 -1.0370  0.8728  1.2520
 4588TP3     H225584   0.157   4.042   2.240  1.4749 -0.5045  0.7428
 4589TP3      O25585   0.265   3.236   2.941 -0.2386 -0.5125 -0.1086
 4589TP3     H125586   0.271   3.261   2.848 -0.7435  0.8978  0.2308
 4589TP3     H225587   0.354   3.243   2.973 -0.3733  0.9213 -0.0113
 4590TP3      O25588   0.505   1.700   1.405  0.1560 -0.1915 -0.0317
 4590TP3     H125589   0.574   1.674   1.344  1.6494  0.2359  1.4391
 4590TP3     H225590   0.427   1.653   1.374  0.9026 -0.1206 -2.1471
 4591TP3      O25591   1.620   3.761   1.896 -0.6517  0.1810  0.0262
 4591TP3     H125592   1.678   3.765   1.821  0.0146  0.0485  0.5249
 4591TP3     H225593   1.537   3.798   1.865  0.0019  1.3184 -0.4074
 4592TP3      O25594   0.945   4.598   1.593  0.1451 -0.0090  0.2360
 4592TP3     H125595   0.867   4.606   1.538  1.4563 -3.7166 -2.3801
 4592TP3     H225596   0.912   4.565   1.677 -1.3980  1.5237  0.2640
 4593TP3      O25597   1.844   5.481   1.804 -0.4066  0.1020 -0.2796
 4593TP3     H125598   1.816   5.469   1.895  0.6307 -0.1892  0.0022
 4593TP3     H225599   1.937   5.461   1.805 -0.2188  0.9021 -1.2560
 4594TP3      O25600   3.855   1.913   3.079 -0.2174  0.0476 -0.0870
 4594TP3     H125601   3.805   1.969   3.020  1.4306 -0.2270 -1.7798
 4594TP3     H225602   3.936   1.895   3.032 -0.4012 -3.1636  0.7275
 4595TP3      O25603   3.980   0.941   1.295  0.5517 -0.1511 -0.5469
 4595TP3     H125604   4.001   0.848   1.281 -1.4273 -0.4826 -1.3716
 4595TP3     H225605   4.012   0.985   1.217 -0.6072 -0.4726 -1.2082
 4596TP3      O25606   1.704   1.307   2.563 -0.6126 -0.5791  0.4722
 4596TP3     H125607   1.624   1.349   2.592 -0.8853 -1.1587  0.5681
 4596TP3     H225608   1.771   1.337   2.624 -1.1665 -1.7541  1.6693
 4597TP3      O25609   1.370   0.634   2.919 -0.2781 -0.7999  0.3224
 4597TP3     H125610   1.354   0.562   2.858  0.6935 -0.1171 -0.7864
 4597TP3     H225611   1.430   0.599   2.983  1.7716 -0.4538 -1.3413
 4598TP3      O25612   2.904   2.774   1.860 -0.3453  0.1888 -0.5511
 4598TP3     H125613   2.857   2.697   1.827 -0.0784 -0.2277  0.0415
 4598TP3     H225614   2.994   2.745   1.870 -0.1650  0.6951 -0.7006
 4599TP3      O25615   0.962   0.655   9.188 -0.6077  0.3591  0.4165
 4599TP3     H125616   0.942   0.724   9.125 -1.3445  0.4979  0.7996
 4599TP3     H225617   0.881   0.605   9.196 -0.2794 -0.1480  0.6530
 4600TP3      O25618   0.850   1.676   8.582 -0.5821 -0.5603 -0.6961
 4600TP3     H125619   0.860   1.717   8.668  2.1748 -2.9209  0.1891
 4600TP3     H225620   0.885   1.741   8.521 -0.7069  0.3453  0.1665
 4601TP3      O25621   0.676   1.480  10.153 -0.3144 -0.3695  0.3061
 4601TP3     H125622   0.771   1.489  10.152 -0.3855  0.4931  0.6180
 4601TP3     H225623   0.646   1.556  10.203 -1.1325 -0.9438  0.6944
 4602TP3      O25624   5.295   3.905   8.344  0.7979  0.2124 -0.4153
 4602TP3     H125625   5.312   3.994   8.314  1.1838  0.2354 -0.1348
 4602TP3     H225626   5.373   3.881   8.394  0.8324 -0.3968 -0.7530
 4603TP3      O25627   3.031   1.119   9.575 -0.0270  0.2435  0.1024
 4603TP3     H125628   3.117   1.135   9.536 -0.4566 -0.2991 -1.0899
 4603TP3     H225629   3.038   1.155   9.664  1.0335  1.3041 -0.3918
 4604TP3      O25630   0.203   4.573   2.086  0.0732  0.3973  0.5389
 4604TP3     H125631   0.247   4.496   2.121 -0.9572 -0.4826 -0.0953
 4604TP3     H225632   0.255   4.596   2.008 -0.9006 -0.9853 -0.5382
 4605TP3      O25633   0.833   3.048   1.455 -0.1996 -0.4918  0.6177
 4605TP3     H125634   0.799   3.134   1.479  1.0891 -0.1095  1.1325
 4605TP3     H225635   0.910   3.036   1.511  0.3646 -1.4379 -0.3367
 4606TP3      O25636   1.199   0.144   3.044  0.1106 -0.0474  0.2312
 4606TP3     H125637   1.293   0.162   3.032 -0.2072  0.5712 -1.4292
 4606TP3     H225638   1.184   0.064   2.993 -0.6299  0.8397 -0.9313
 4607TP3      O25639   0.557   1.246   3.140 -0.5378  0.1422  0.3042
 4607TP3     H125640   0.629   1.279   3.193 -0.6589 -0.5126  0.8913
 4607TP3     H225641   0.524   1.322   3.093  1.1029  0.2896 -0.6403
 4608TP3      O25642   1.028   2.871   2.361  0.0368 -0.0051 -0.2193
 4608TP3     H125643   1.042   2.840   2.451  0.4506  1.1536  0.1297
 4608TP3     H225644   1.116   2.892   2.329 -0.1262 -0.2549 -0.8402
 4609TP3      O25645   3.210   1.239   0.477  0.2909  0.2078  0.0028
 4609TP3     H125646   3.125   1.281   0.466  0.9947  1.7492  0.3090
 4609TP3     H225647   3.193   1.146   0.464 -1.4460  0.5006  0.1321
 4610TP3      O25648   0.482   4.202   0.780 -0.4740 -0.6420  0.0305
 4610TP3     H125649   0.391   4.176   0.794 -1.7775  2.4185 -2.1438
 4610TP3     H225650   0.511   4.148   0.707 -0.6730 -1.3863  0.4990
 4611TP3      O25651   2.075   1.727   2.477  0.0869  0.0827 -0.5977
 4611TP3     H125652   2.159   1.743   2.519  0.9383 -1.0669 -1.8322
 4611TP3     H225653   2.018   1.698   2.548  0.5073  1.5697  0.3706
 4612TP3      O25654   4.627   0.364   2.088  0.1790 -0.1162  0.1437
 4612TP3     H125655   4.551   0.422   2.081  0.6083  0.3269 -0.8802
 4612TP3     H225656   4.592   0.285   2.129 -1.3053 -0.7327 -2.1639
 4613TP3      O25657   2.862   0.860   9.584 -0.3251 -0.4807  0.0075
 4613TP3     H125658   2.888   0.857   9.492 -0.9457 -1.4260 -0.1421
 4613TP3     H225659   2.885   0.949   9.612 -0.3529 -0.1092 -1.1189
 4614TP3      O25660   1.052   2.157   2.115  0.0022 -0.4003  0.1482
 4614TP3     H125661   1.128   2.216   2.114  0.1718 -0.5905 -2.0561
 4614TP3     H225662   1.035   2.139   2.022 -2.0726 -1.2298  0.6594
 4615TP3      O25663   5.145   4.441   7.860 -0.7034  0.0954 -0.0185
 4615TP3     H125664   5.136   4.535   7.881  1.0826  0.9315 -2.7756
 4615TP3     H225665   5.184   4.440   7.773 -0.2581 -3.2512  0.1853
 4616TP3      O25666   0.942   3.164   3.044  0.4667  0.3833 -0.4272
 4616TP3     H125667   0.927   3.242   3.097 -1.2459 -1.2177  1.5279
 4616TP3     H225668   1.034   3.144   3.056  1.1819  2.6609 -1.7795
 4617TP3      O25669   0.235   1.552   2.623  0.1788 -0.8016 -0.1972
 4617TP3     H125670   0.275   1.606   2.691  1.0597 -0.9094 -0.6258
 4617TP3     H225671   0.204   1.474   2.669 -3.7137  1.3016  0.9538
 4618TP3      O25672   1.340   2.129   1.466 -0.3359  0.2005  0.1044
 4618TP3     H125673   1.283   2.203   1.447  0.6273  0.6163 -1.2525
 4618TP3     H225674   1.343   2.124   1.562 -1.1264  1.3416  0.1850
 4619TP3      O25675   1.321   2.280   3.235  0.0667  0.2033 -0.0554
 4619TP3     H125676   1.315   2.349   3.301 -2.2298 -1.8590  1.9755
 4619TP3     H225677   1.231   2.257   3.214  0.7203 -3.0949  0.3442
 4620TP3      O25678   4.309   5.394   1.914  0.0423  0.2451  0.3590
 4620TP3     H125679   4.322   5.312   1.962  3.1936 -0.3796 -1.3686
 4620TP3     H225680   4.378   5.452   1.945 -1.0466  1.6258  0.2555
 4621TP3      O25681   2.744   2.804   1.564  0.1114  0.4907  0.1374
 4621TP3     H125682   2.722   2.717   1.598  2.4268 -0.4407 -0.6393
 4621TP3     H225683   2.773   2.854   1.640  0.6855 -0.0710  0.2947
 4622TP3      O25684   1.443   0.455   1.509 -0.2229  0.3544  0.3962
 4622TP3     H125685   1.405   0.513   1.444  0.2209  0.0188 -0.1723
 4622TP3     H225686   1.371   0.398   1.536 -0.3464  0.3258  0.0047
 4623TP3      O25687   1.030   2.159   1.166 -0.1045  0.1639 -0.4821
 4623TP3     H125688   1.104   2.212   1.135  0.5673 -0.9549 -0.8404
 4623TP3     H225689   1.071   2.080   1.201 -1.1109 -0.2779 -0.2912
 4624TP3      O25690   1.769   1.767   2.932 -0.1946 -0.3859 -0.3260
 4624TP3     H125691   1.721   1.684   2.939 -0.3093 -0.1928  1.5934
 4624TP3     H225692   1.739   1.818   3.008  1.4453  0.5746 -0.3064
 4625TP3      O25693   0.385   0.897   1.083  0.2775  0.5513  0.3028
 4625TP3     H125694   0.449   0.850   1.136 -0.9534 -0.4888  0.9135
 4625TP3     H225695   0.378   0.846   1.002 -0.7893 -0.1313  0.8137
 4626TP3      O25696   3.267   2.886   2.435  0.1107  0.2877  0.1435
 4626TP3     H125697   3.331   2.947   2.469 -0.8509  0.6069  1.4339
 4626TP3     H225698   3.213   2.938   2.375  2.5062 -0.5356 -2.8460
 4627TP3      O25699   0.824   3.938   9.920  0.1150 -0.5159 -0.0811
 4627TP3     H125700   0.769   3.870   9.960 -1.2560  1.0930  0.8457
 4627TP3     H225701   0.832   4.005   9.988  0.2973  0.8831 -1.4503
 4628TP3      O25702   4.549   3.397   8.723 -0.2257 -0.3214  0.2638
 4628TP3     H125703   4.618   3.341   8.759 -1.2260 -2.0225 -0.4355
 4628TP3     H225704   4.591   3.441   8.649  0.1887 -1.0918  0.0442
 4629TP3      O25705   2.427   2.186   3.093  0.4282 -0.1872  0.1172
 4629TP3     H125706   2.461   2.271   3.066 -0.2705 -0.7710 -2.7665
 4629TP3     H225707   2.504   2.129   3.097  0.3860 -0.5156 -2.4969
 4630TP3      O25708   1.019   3.894   2.972  0.6748  0.3080  0.0974
 4630TP3     H125709   1.020   3.989   2.960  0.7987  0.3425  0.3748
 4630TP3     H225710   0.992   3.859   2.887  0.6101  0.5923  0.0012
 4631TP3      O25711   0.815   2.489   1.725  0.5854 -0.1329 -0.5089
 4631TP3     H125712   0.750   2.527   1.784  1.7843  2.5902 -0.8398
 4631TP3     H225713   0.897   2.493   1.774  0.9702 -1.0847 -1.0636
 4632TP3      O25714   1.438   3.577   3.429 -0.4803  0.1397  0.5834
 4632TP3     H125715   1.408   3.641   3.493 -1.6105 -0.9655  1.1977
 4632TP3     H225716   1.357   3.544   3.389  0.1696  0.2458 -0.8521
 4633TP3      O25717   4.132   3.666   1.777 -0.2647 -0.2869 -0.0475
 4633TP3     H125718   4.201   3.731   1.769 -0.6858  0.1720 -0.0379
 4633TP3     H225719   4.136   3.638   1.869 -0.9388  0.7068  0.2944
 4634TP3      O25720   1.717   1.133  10.184  0.1142 -0.4188 -0.1414
 4634TP3     H125721   1.693   1.134  10.092  0.6751  0.9450 -0.2871
 4634TP3     H225722   1.763   1.051  10.196 -0.9797 -1.1382 -0.8057
 4635TP3      O25723   0.461   0.461   2.503  0.1586  0.0327  0.2037
 4635TP3     H125724   0.551   0.434   2.484 -0.1880 -0.5157 -0.6681
 4635TP3     H225725   0.429   0.394   2.564 -0.3956 -1.0369 -1.2411
 4636TP3      O25726   1.254   2.263   0.037 -0.1177  0.0990 -0.5179
 4636TP3     H125727   1.224   2.236  -0.050  0.9055 -0.3649 -0.7280
 4636TP3     H225728   1.246   2.184   0.091 -1.1976  0.5065 -0.0620
 4637TP3      O25729   1.155   4.065   0.654 -0.0221 -0.0570  0.0988
 4637TP3     H125730   1.066   4.095   0.636  0.2574  0.2633 -0.7907
 4637TP3     H225731   1.211   4.140   0.632  0.3714  0.2218  1.9816
 4638TP3      O25732   0.112   3.476   1.953 -0.3095 -0.1776  1.0937
 4638TP3     H125733   0.061   3.523   1.888  0.0835  0.6396  1.3707
 4638TP3     H225734   0.128   3.390   1.914  0.1330  0.3947  0.0027
 4639TP3      O25735   1.543   1.939   1.907  0.1499 -0.1966  0.0210
 4639TP3     H125736   1.610   1.895   1.855 -0.0048  1.0415 -1.2747
 4639TP3     H225737   1.472   1.956   1.845 -0.1505  1.0860  0.6934
 4640TP3      O25738   2.475   0.639   1.058 -0.0709  0.5717 -0.2914
 4640TP3     H125739   2.472   0.569   1.123 -1.3140  0.8340 -0.0514
 4640TP3     H225740   2.561   0.680   1.070  1.8582 -2.7025 -2.3429
 4641TP3      O25741   4.895   0.530   1.583  0.3502 -0.1729  0.1975
 4641TP3     H125742   4.877   0.621   1.560 -0.4588  0.7526  4.0791
 4641TP3     H225743   4.933   0.492   1.504 -1.4368  2.8967 -2.2585
 4642TP3      O25744   2.540   3.415   1.591 -0.4981 -0.2701  0.1237
 4642TP3     H125745   2.610   3.358   1.623 -0.1017  1.3651  2.2714
 4642TP3     H225746   2.562   3.431   1.500  1.6702 -0.1794  0.6360
 4643TP3      O25747   2.960   0.176   7.176  0.2652  0.4215  0.0366
 4643TP3     H125748   3.018   0.236   7.223  2.2406 -0.5381 -1.1171
 4643TP3     H225749   2.978   0.090   7.215 -0.0874  0.0501 -0.6051
 4644TP3      O25750   3.937   0.094   9.304 -0.4509 -0.0847  0.5254
 4644TP3     H125751   3.888   0.075   9.384 -1.5549  0.6535  0.0486
 4644TP3     H225752   3.876   0.146   9.251  0.6886  0.4398 -0.2899
 4645TP3      O25753   1.479   4.178   3.103  0.0970 -0.5321 -0.0127
 4645TP3     H125754   1.466   4.163   3.196  1.2155 -0.8451  0.1004
 4645TP3     H225755   1.574   4.185   3.093 -0.0737  0.3836 -0.9933
 4646TP3      O25756   0.812   3.090   0.654 -0.2385 -0.1698  0.1058
 4646TP3     H125757   0.726   3.076   0.614 -0.7246  0.3839  0.9539
 4646TP3     H225758   0.804   3.173   0.701  0.5653 -0.4307  0.7241
 4647TP3      O25759   4.901   0.267   0.275  0.4699  0.2416  0.2359
 4647TP3     H125760   4.980   0.216   0.259  0.0992 -0.4195  0.5229
 4647TP3     H225761   4.911   0.299   0.365  0.8296  0.9094 -0.0369
 4648TP3      O25762   2.219   3.973   3.025 -0.0530 -0.5267  0.4265
 4648TP3     H125763   2.167   3.977   2.945 -0.3033 -1.4060  0.5421
 4648TP3     H225764   2.304   4.009   3.001 -0.7107  0.9664  0.2424
 4649TP3      O25765   1.595   0.655   1.980 -0.9671 -0.2262  0.2195
 4649TP3     H125766   1.568   0.576   1.933 -1.4879  1.0331 -1.6217
 4649TP3     H225767   1.690   0.650   1.982 -0.9474 -0.3933 -0.8098
 4650TP3      O25768   0.559   1.730   2.853  0.1762  0.3084  0.0369
 4650TP3     H125769   0.612   1.651   2.844  0.3195  0.3584  0.4182
 4650TP3     H225770   0.572   1.757   2.943  0.3084  0.8911 -0.1532
 4651TP3      O25771   1.500   2.980   2.921  0.1343  0.3733 -0.7145
 4651TP3     H125772   1.555   2.918   2.969  2.4127  0.4374 -3.1308
 4651TP3     H225773   1.463   3.037   2.988  0.4240 -1.6908  1.2580
 4652TP3      O25774   1.537   5.083   2.131 -0.7550 -0.1834  0.4796
 4652TP3     H125775   1.597   5.031   2.077 -2.7049  0.2314 -2.2260
 4652TP3     H225776   1.551   5.052   2.220  2.3015 -1.2019 -0.2985
 4653TP3      O25777   1.873   4.058   2.140  0.4060  0.4462  0.3110
 4653TP3     H125778   1.928   3.993   2.182 -0.0531 -1.0696 -1.3910
 4653TP3     H225779   1.786   4.045   2.179  0.3624  0.1869  0.1255
 4654TP3      O25780   4.859   4.725   2.433 -0.1903 -0.6953  0.1189
 4654TP3     H125781   4.847   4.718   2.527 -3.9123 -0.7771 -0.3073
 4654TP3     H225782   4.863   4.635   2.402 -0.8839 -0.6813 -0.0135
 4655TP3      O25783   0.304   1.169  10.149 -0.4346  0.1321  0.0018
 4655TP3     H125784   0.222   1.119  10.155  0.2779 -1.1154 -0.5289
 4655TP3     H225785   0.281   1.246  10.097 -1.4032  0.0702  0.3181
 4656TP3      O25786   3.296   4.151   2.329  0.1114 -0.4325 -0.0431
 4656TP3     H125787   3.239   4.088   2.286  1.0069 -0.1665 -1.6680
 4656TP3     H225788   3.239   4.197   2.390 -0.5552 -2.7679  1.1300
 4657TP3      O25789   5.202   2.579   7.879  0.1665  0.2334  0.5851
 4657TP3     H125790   5.162   2.637   7.943 -1.7856  0.0508 -0.4283
 4657TP3     H225791   5.241   2.637   7.813 -0.7861  0.4051  0.1707
 4658TP3      O25792   1.743   3.829   9.847 -0.5721  0.2607 -0.1426
 4658TP3     H125793   1.718   3.921   9.843  0.0990  0.4648  0.3345
 4658TP3     H225794   1.659   3.782   9.844 -0.9096  0.8740 -0.5660
 4659TP3      O25795   2.105   0.709   2.174 -0.2104 -0.0901 -0.4903
 4659TP3     H125796   2.070   0.651   2.107 -0.5537 -1.0780  0.5427
 4659TP3     H225797   2.049   0.787   2.170 -1.5030 -0.9805  0.0361
 4660TP3      O25798   1.496   3.727   8.859  0.5130 -0.4049 -0.2102
 4660TP3     H125799   1.518   3.664   8.928  0.7453 -0.4259 -0.3030
 4660TP3     H225800   1.579   3.770   8.839  0.2497  0.3159  0.2341
 4661TP3      O25801   4.784   1.515   8.891 -0.3280 -0.1181 -0.5191
 4661TP3     H125802   4.777   1.495   8.798 -0.1577 -1.4590 -0.2539
 4661TP3     H225803   4.757   1.435   8.935 -0.9058  0.6684  0.5934
 4662TP3      O25804   0.549   3.380  10.305  0.1653 -0.4597  0.2203
 4662TP3     H125805   0.634   3.353  10.270 -0.1645 -0.6487 -0.4445
 4662TP3     H225806   0.485   3.343  10.244 -0.3875 -0.1368  0.5973
 4663TP3      O25807   1.532   2.614   0.637  0.0977  0.0892 -0.0634
 4663TP3     H125808   1.445   2.600   0.599  0.0841  1.1015 -0.4430
 4663TP3     H225809   1.576   2.670   0.573  0.4993  0.8254  0.8418
 4664TP3      O25810   3.315   3.614   2.375  0.0374 -0.5301  0.2363
 4664TP3     H125811   3.378   3.559   2.422 -1.0865 -1.6232  0.5042
 4664TP3     H225812   3.236   3.612   2.430 -0.8406 -0.6955 -1.0034
 4665TP3      O25813   3.721   1.415   2.717  0.0367 -0.2244 -0.2745
 4665TP3     H125814   3.708   1.454   2.804  0.8834  1.0422 -0.6946
 4665TP3     H225815   3.671   1.334   2.719  1.9765 -1.4107  2.2237
 4666TP3      O25816   3.591   1.065   2.546  0.2156 -0.3139  0.1174
 4666TP3     H125817   3.619   1.103   2.463 -0.5185  0.7145  0.3270
 4666TP3     H225818   3.508   1.109   2.565 -0.5379 -1.8650  0.4845
 4667TP3      O25819   4.188   3.871   2.568  0.0193  0.1002 -0.3330
 4667TP3     H125820   4.235   3.889   2.486  1.9581 -0.8083  0.5387
 4667TP3     H225821   4.177   3.776   2.568  1.2242 -0.0467  1.0862
 4668TP3      O25822   5.104   2.855   2.276  0.7373  0.0543  0.1008
 4668TP3     H125823   5.098   2.764   2.304  0.3730 -0.1020 -0.4926
 4668TP3     H225824   5.197   2.867   2.253  0.4349 -0.6851 -1.5684
 4669TP3      O25825   5.389   2.954   1.726 -0.1434 -0.2858  0.4785
 4669TP3     H125826   5.309   2.978   1.680  0.5778  0.9030 -0.1667
 4669TP3     H225827   5.391   2.858   1.721  0.0518 -0.1807 -2.2183
 4670TP3      O25828   0.247   3.931   0.734  0.2826 -0.1992 -0.4757
 4670TP3     H125829   0.240   3.837   0.750  1.6063 -0.1887  0.2086
 4670TP3     H225830   0.156   3.962   0.734 -0.1012 -1.2917  0.3835
 4671TP3      O25831   3.223   2.612   0.537 -0.3294 -0.2850  0.3986
 4671TP3     H125832   3.154   2.557   0.501 -0.5925  0.0478  0.3936
 4671TP3     H225833   3.179   2.668   0.601  0.0678 -0.6023  0.9609
 4672TP3      O25834   4.599   4.144   2.588  0.1542 -0.3569  0.3508
 4672TP3     H125835   4.582   4.238   2.601  0.7855 -0.3709  1.3577
 4672TP3     H225836   4.681   4.128   2.636  0.3972 -1.2851 -0.3731
 4673TP3      O25837   0.023   4.476   2.715  0.1519  0.3811  0.2533
 4673TP3     H125838  -0.068   4.459   2.738  0.3729  0.4454  1.1965
 4673TP3     H225839   0.044   4.559   2.758  0.0928  1.3481 -1.5345
 4674TP3      O25840   1.787   3.888   2.825  0.1706 -0.1933 -0.2263
 4674TP3     H125841   1.819   3.800   2.843 -0.3734 -0.6524 -1.4303
 4674TP3     H225842   1.829   3.943   2.891 -1.3570 -1.7036  2.0910
 4675TP3      O25843   4.137   0.322   3.458 -0.0624 -0.0085  0.2010
 4675TP3     H125844   4.051   0.305   3.419  0.4396 -1.3367 -0.3584
 4675TP3     H225845   4.173   0.394   3.407 -0.9140  0.6790  0.5541
 4676TP3      O25846   0.972   0.502   0.842 -0.0029 -0.3789 -0.3577
 4676TP3     H125847   1.021   0.580   0.816  1.5689 -1.3785 -0.4919
 4676TP3     H225848   0.916   0.482   0.767  1.8450 -1.1541 -1.5572
 4677TP3      O25849   4.559   2.882   1.418  0.5794  0.0910  0.4211
 4677TP3     H125850   4.476   2.842   1.440 -0.0085  1.2203  0.2807
 4677TP3     H225851   4.598   2.823   1.354  0.4581 -1.0812  1.4055
 4678TP3      O25852   0.107   0.748   0.003  0.0503 -0.3301  0.3450
 4678TP3     H125853   0.144   0.664  -0.024 -1.4274 -0.2153 -2.1682
 4678TP3     H225854   0.181   0.808   0.004  0.5971 -0.9739 -0.8881
 4679TP3      O25855   0.696   2.907   3.205  0.1573 -0.2920 -0.4484
 4679TP3     H125856   0.698   3.003   3.207 -0.5211 -0.2618 -1.1143
 4679TP3     H225857   0.622   2.883   3.260  0.8053 -0.4672  0.3606
 4680TP3      O25858   1.452   3.495   2.462  0.4822  0.0271 -0.2919
 4680TP3     H125859   1.456   3.584   2.496  1.8985 -0.3090  0.4547
 4680TP3     H225860   1.444   3.506   2.367  2.9267  0.9378 -0.4089
 4681TP3      O25861   1.318   1.993   0.146 -0.0441 -0.1745  0.0826
 4681TP3     H125862   1.250   1.982   0.212 -0.7229 -2.9189 -0.9955
 4681TP3     H225863   1.399   1.966   0.191 -0.1260  0.3404  0.5312
 4682TP3      O25864   1.855   2.832   2.872  0.5041 -0.4037 -0.6333
 4682TP3     H125865   1.791   2.820   2.942  1.1088 -1.6953 -0.2825
 4682TP3     H225866   1.802   2.846   2.794 -0.2066 -1.3465 -0.3294
 4683TP3      O25867   2.174   0.387   2.423 -0.0420 -0.4022  0.1429
 4683TP3     H125868   2.205   0.426   2.341 -0.0827  2.3479  1.3840
 4683TP3     H225869   2.096   0.437   2.445  0.4052 -0.6224  2.2637
 4684TP3      O25870   1.403   3.561   1.285  0.4093 -0.0041  0.2071
 4684TP3     H125871   1.461   3.484   1.284 -1.2520 -1.2833  0.7186
 4684TP3     H225872   1.365   3.564   1.198  0.1887  0.0184  0.3044
 4685TP3      O25873   1.402   1.040   2.908 -0.1847 -0.3335  0.2981
 4685TP3     H125874   1.387   1.055   3.001  1.7521 -0.4890  0.6574
 4685TP3     H225875   1.440   1.121   2.876 -0.4910 -0.4136 -0.2794
 4686TP3      O25876   4.526   0.902  10.198 -0.4532 -0.3450  0.3519
 4686TP3     H125877   4.441   0.881  10.237  0.4260  0.3692  2.7053
 4686TP3     H225878   4.572   0.818  10.195  0.2135 -0.1142  2.7750
 4687TP3      O25879   2.765   0.647   1.112 -0.2681 -0.5368 -0.7018
 4687TP3     H125880   2.801   0.592   1.042  0.2820 -0.1229 -0.7523
 4687TP3     H225881   2.814   0.729   1.105  0.1400 -0.6701  0.4856
 4688TP3      O25882   0.134   2.408   2.777  0.1787  0.1360  0.1203
 4688TP3     H125883   0.107   2.430   2.688 -0.7673  0.8751  0.5710
 4688TP3     H225884   0.054   2.417   2.829  1.0536  1.3251  1.3209
 4689TP3      O25885   1.096   5.154   2.165 -0.2896  0.3681  0.0625
 4689TP3     H125886   1.087   5.088   2.234 -0.0183  0.9729  0.6854
 4689TP3     H225887   1.154   5.113   2.101 -0.5231 -0.1902  0.2058
 4690TP3      O25888   1.066   1.534   3.522 -0.5958 -0.2573 -0.0018
 4690TP3     H125889   1.131   1.601   3.544 -0.2584 -0.4599 -0.3839
 4690TP3     H225890   1.046   1.549   3.430  0.3509 -1.4199 -0.4003
 4691TP3      O25891   0.178   2.410   3.580  0.4217  0.1933 -0.1894
 4691TP3     H125892   0.234   2.459   3.640 -0.6417  0.2103  0.8021
 4691TP3     H225893   0.089   2.434   3.606 -0.0476  0.0127 -1.6262
 4692TP3      O25894   2.984   4.169   9.886 -0.4891  0.3455 -0.0224
 4692TP3     H125895   2.931   4.249   9.889 -0.5841  0.3232 -0.8655
 4692TP3     H225896   3.067   4.193   9.926  0.3557  1.5561 -2.3925
 4693TP3      O25897   4.787   2.700   2.872 -0.4720  0.7682 -0.1981
 4693TP3     H125898   4.733   2.769   2.911 -0.9727 -0.1312  0.7352
 4693TP3     H225899   4.782   2.717   2.778 -1.0587  1.6657 -0.0187
 4694TP3      O25900   2.064   4.865   1.532  0.2509 -0.7299 -0.2194
 4694TP3     H125901   2.058   4.801   1.461 -0.5268 -2.6843  1.5346
 4694TP3     H225902   1.974   4.896   1.543  0.1394 -1.3391  0.6754
 4695TP3      O25903   5.490   1.742   1.844  0.0554 -0.1259 -0.1384
 4695TP3     H125904   5.475   1.833   1.819 -0.1677  0.2843  1.4738
 4695TP3     H225905   5.584   1.728   1.828  0.0462  0.3050 -0.5983
 4696TP3      O25906   2.667   3.399   2.560  0.2956 -0.3867  0.0611
 4696TP3     H125907   2.586   3.412   2.511 -0.8236 -0.4639  1.8650
 4696TP3     H225908   2.639   3.370   2.647  2.1653  1.3894  1.3077
 4697TP3      O25909   0.536   1.956   2.390  0.3060  0.3197 -0.7630
 4697TP3     H125910   0.624   1.929   2.366  0.5421  1.9318 -1.7949
 4697TP3     H225911   0.508   1.892   2.455  2.2944 -0.1004 -0.3009
 4698TP3      O25912   1.566   1.897   1.478 -0.2107 -0.6679 -0.0071
 4698TP3     H125913   1.573   1.826   1.542  0.2210 -1.0795 -0.5075
 4698TP3     H225914   1.529   1.970   1.528 -0.6747 -1.2451  0.5056
 4699TP3      O25915   1.891   2.860   3.291 -0.1133 -0.0088 -0.3503
 4699TP3     H125916   1.952   2.865   3.218 -1.6342 -0.9850 -1.7251
 4699TP3     H225917   1.820   2.920   3.268 -1.0821 -1.0641 -0.1552
 4700TP3      O25918   0.965   3.672   3.564 -0.8175  0.1776  0.4579
 4700TP3     H125919   0.926   3.624   3.491  0.4988  1.4518 -1.1028
 4700TP3     H225920   0.934   3.762   3.553 -0.8768  0.3120  1.6648
 4701TP3      O25921   2.286   5.491   0.761  0.6934  0.1820  0.5548
 4701TP3     H125922   2.273   5.537   0.678  2.0567 -0.1945  0.1196
 4701TP3     H225923   2.199   5.486   0.800 -0.4669 -2.1502 -2.1587
 4702TP3      O25924   0.985   4.718   2.289 -0.0367 -0.3829  0.2539
 4702TP3     H125925   1.033   4.637   2.272  0.5269  0.3052 -1.5426
 4702TP3     H225926   0.893   4.692   2.287  0.1302 -0.9366 -0.5475
 4703TP3      O25927   4.226   1.059   2.506  0.1171 -0.0307  0.1666
 4703TP3     H125928   4.183   1.116   2.442 -1.1677  0.9471  1.8420
 4703TP3     H225929   4.310   1.101   2.523  0.1369  0.1221 -0.3086
 4704TP3      O25930   4.720   1.998   1.445  0.0429 -0.0200 -0.0646
 4704TP3     H125931   4.636   1.967   1.479  0.8586 -0.5868  1.4426
 4704TP3     H225932   4.710   2.093   1.442 -1.1636 -0.1673 -1.2687
 4705TP3      O25933   0.329   4.542   2.916  0.0805 -0.6025  0.0326
 4705TP3     H125934   0.381   4.545   2.997 -1.3127 -1.4320  0.9706
 4705TP3     H225935   0.258   4.481   2.936 -1.7098  1.1425 -0.9785
 4706TP3      O25936   2.252   2.140   3.293 -0.0639  0.3222 -0.7694
 4706TP3     H125937   2.266   2.046   3.305  1.3271  0.6570  0.4331
 4706TP3     H225938   2.309   2.164   3.220  2.0543  0.7743  0.9554
 4707TP3      O25939   1.878   2.765   0.784  0.0984  0.7090  0.2650
 4707TP3     H125940   1.903   2.705   0.854  0.6336  1.7105  0.9311
 4707TP3     H225941   1.854   2.707   0.711 -2.4333 -0.4130  1.8967
 4708TP3      O25942   4.771   4.237   3.319 -0.2543 -0.6134  0.0781
 4708TP3     H125943   4.776   4.152   3.275 -0.7199 -1.6021  1.8900
 4708TP3     H225944   4.819   4.224   3.401 -1.9475  0.2984  1.2487
 4709TP3      O25945   0.721   4.095   2.868  0.4738 -0.0771 -0.0273
 4709TP3     H125946   0.724   4.094   2.773  0.3361  0.0648 -0.0328
 4709TP3     H225947   0.808   4.125   2.895 -0.2104  2.1339 -0.1505
 4710TP3      O25948   1.682   3.021   3.207 -0.0243 -0.4675 -0.4815
 4710TP3     H125949   1.610   3.082   3.190  0.3688  0.0104 -0.4579
 4710TP3     H225950   1.670   2.951   3.144 -1.5446 -1.2962  0.6780
 4711TP3      O25951   3.267   2.055   2.374 -0.7075  0.4306 -0.2835
 4711TP3     H125952   3.227   2.100   2.300 -0.7495 -0.3746 -0.7486
 4711TP3     H225953   3.229   2.099   2.451 -2.0167  0.0974 -0.7216
 4712TP3      O25954   2.361   2.613   3.008 -0.5099 -0.6775 -0.0296
 4712TP3     H125955   2.420   2.538   3.007 -0.4196 -0.6021 -0.3549
 4712TP3     H225956   2.336   2.623   3.100  0.1560 -0.5779  0.1400
 4713TP3      O25957   2.275   1.780   2.647  0.2035 -0.0654 -0.5213
 4713TP3     H125958   2.364   1.812   2.661 -0.2603  0.7385  0.6701
 4713TP3     H225959   2.219   1.856   2.665 -0.7741 -0.8172 -0.3369
 4714TP3      O25960   1.743   3.518   2.526 -0.3941 -0.3598  0.6404
 4714TP3     H125961   1.663   3.571   2.527  0.5528  1.1124  2.6158
 4714TP3     H225962   1.730   3.453   2.595 -0.1769 -0.5402  0.5105
 4715TP3      O25963   0.149   1.852   3.696 -0.1938  0.0342  0.9380
 4715TP3     H125964   0.227   1.809   3.662  0.2448  2.8052 -1.7233
 4715TP3     H225965   0.182   1.923   3.751 -0.9019 -0.7252  2.3874
 4716TP3      O25966   2.652   1.772   1.777 -0.2688  0.3112 -0.7169
 4716TP3     H125967   2.630   1.695   1.829  1.4818 -0.1961 -0.6892
 4716TP3     H225968   2.598   1.764   1.698  1.1865 -1.9374 -1.5649
 4717TP3      O25969   5.044   0.408   2.052 -0.2062 -0.0911  0.4319
 4717TP3     H125970   5.081   0.339   2.107 -0.4996  0.1590  0.9405
 4717TP3     H225971   5.103   0.482   2.064  0.2230 -0.3141 -0.2731
 4718TP3      O25972   5.164   1.418   0.669  0.0195 -0.1458  0.3939
 4718TP3     H125973   5.175   1.388   0.760 -1.5023  1.2000  1.0383
 4718TP3     H225974   5.205   1.504   0.668  1.3902 -0.7933 -0.6051
 4719TP3      O25975   1.730   1.177   9.482 -0.0789  0.3687 -0.1446
 4719TP3     H125976   1.691   1.208   9.563 -0.5334  0.8550 -0.5547
 4719TP3     H225977   1.659   1.133   9.436  0.2026  0.0067 -0.2434
 4720TP3      O25978   0.980   2.342   0.060 -0.3358  0.3215  0.2175
 4720TP3     H125979   0.957   2.257   0.099 -1.0798  0.0415 -0.7936
 4720TP3     H225980   1.009   2.320  -0.029 -0.3265  1.1034  0.0240
 4721TP3      O25981   2.487   0.866   1.881  0.6143  0.0270  0.4600
 4721TP3     H125982   2.469   0.797   1.817  0.7829 -0.2517  0.7081
 4721TP3     H225983   2.494   0.946   1.830  3.0726 -0.5435 -0.1773
 4722TP3      O25984   0.776   1.131   0.717 -0.5690  0.8891 -0.2047
 4722TP3     H125985   0.835   1.165   0.784 -2.6507  0.0176  2.1488
 4722TP3     H225986   0.750   1.208   0.667  1.6555  1.4369 -0.5746
 4723TP3      O25987   1.516   3.402  10.148  0.6213 -0.2626 -0.2173
 4723TP3     H125988   1.491   3.473  10.208  2.3274  0.0788  0.1192
 4723TP3     H225989   1.523   3.325  10.204  0.2508 -0.3739 -0.3244
 4724TP3      O25990   2.051   2.911   3.106  0.4532 -0.3570  0.2118
 4724TP3     H125991   2.134   2.954   3.082  0.1501 -0.4752 -1.0605
 4724TP3     H225992   2.015   2.879   3.023 -0.6655 -0.6827  0.8109
 4725TP3      O25993   2.061   5.124   0.427  0.0485  0.2527 -0.1385
 4725TP3     H125994   2.039   5.043   0.382 -0.8190  0.4952 -0.1584
 4725TP3     H225995   2.151   5.143   0.399  0.1563 -0.5416 -0.3566
 4726TP3      O25996   0.138   4.445   3.083 -0.0225  0.1105  0.6458
 4726TP3     H125997   0.142   4.514   3.149 -1.7742 -1.9115  2.9273
 4726TP3     H225998   0.160   4.365   3.130 -2.2579 -1.5138 -0.9408
 4727TP3      O25999   4.654   5.384   1.269  0.6738 -0.2046 -0.1537
 4727TP3     H126000   4.643   5.367   1.362 -0.2422 -0.2611 -0.2616
 4727TP3     H226001   4.723   5.325   1.241  1.3512  0.2214  0.6095
 4728TP3      O26002   2.924   0.239   0.314 -0.2489 -0.0463  0.3458
 4728TP3     H126003   2.978   0.182   0.260  1.1866  0.2605  1.4356
 4728TP3     H226004   2.836   0.232   0.276  0.2859 -1.5485 -0.6466
 4729TP3      O26005   2.265   1.962   2.956  0.6085 -0.5302  0.0236
 4729TP3     H126006   2.230   1.997   2.874  1.5932 -0.7344 -0.5025
 4729TP3     H226007   2.314   2.035   2.995  1.0156 -0.7334 -0.0982
 4730TP3      O26008   4.503   3.125   3.125  0.2436  0.3438  0.1748
 4730TP3     H126009   4.469   3.118   3.214 -0.4382 -0.2958 -0.1206
 4730TP3     H226010   4.597   3.110   3.133  0.1770  0.2566  0.7843
 4731TP3      O26011   3.327   4.403   2.841  0.4994 -0.6147 -0.0683
 4731TP3     H126012   3.332   4.332   2.778  2.1998 -0.6258  0.0610
 4731TP3     H226013   3.237   4.401   2.873  0.0254 -1.5071 -1.4456
 4732TP3      O26014   3.585   4.622   0.680 -0.1813  0.1845  0.3885
 4732TP3     H126015   3.655   4.687   0.685  0.1222 -0.0318 -0.9576
 4732TP3     H226016   3.540   4.629   0.764  1.5977  0.1801  1.3734
 4733TP3      O26017   0.934   2.143   0.269  0.0860 -0.5793 -0.6115
 4733TP3     H126018   0.982   2.064   0.294  0.7072  0.0733  0.2766
 4733TP3     H226019   0.955   2.207   0.337 -2.4299 -0.4324  0.0764
 4734TP3      O26020   0.243   3.874   2.463 -0.0193  0.1963  0.1321
 4734TP3     H126021   0.236   3.816   2.387  0.6004 -0.0038  0.2218
 4734TP3     H226022   0.284   3.820   2.530 -0.5524  0.3805  0.6076
 4735TP3      O26023   0.138   1.376   2.809  0.2987 -0.0538 -0.1836
 4735TP3     H126024   0.186   1.445   2.856 -3.1969  2.7973 -0.5689
 4735TP3     H226025   0.076   1.342   2.874  1.3693 -2.2155 -0.2769
 4736TP3      O26026   1.314   4.048   1.079 -0.2681  0.2520  0.1721
 4736TP3     H126027   1.366   4.111   1.030  0.1313  0.1870  0.5108
 4736TP3     H226028   1.337   4.063   1.171  3.6453 -3.6316  0.0280
 4737TP3      O26029   4.488   3.020   2.476 -0.2053 -0.0560  0.3695
 4737TP3     H126030   4.484   3.099   2.531 -1.5817 -0.1691  0.4442
 4737TP3     H226031   4.536   3.048   2.398  2.7199 -0.1696  2.0450
 4738TP3      O26032   1.898   2.686   1.802 -0.4566  0.5312  0.0536
 4738TP3     H126033   1.938   2.601   1.782 -1.5104  0.0767 -0.1540
 4738TP3     H226034   1.863   2.717   1.719 -0.4263  0.9850  0.2071
 4739TP3      O26035   0.787   1.547   9.172  0.0183 -0.1815  0.2523
 4739TP3     H126036   0.756   1.618   9.227  0.7661  0.4578 -0.1374
 4739TP3     H226037   0.716   1.483   9.173 -1.0974  1.0235 -0.2223
 4740TP3      O26038   0.573   1.157   9.325 -0.0696  0.3884 -1.2171
 4740TP3     H126039   0.559   1.250   9.305 -2.4396  0.4694  0.5526
 4740TP3     H226040   0.512   1.112   9.267 -1.2804  0.1486  0.2373
 4741TP3      O26041   1.101   0.260   3.316  0.3975  0.2529  0.0795
 4741TP3     H126042   1.148   0.217   3.387  0.8918  1.2417  0.3565
 4741TP3     H226043   1.137   0.221   3.236  2.4719  1.7562  0.2490
 4742TP3      O26044   1.063   1.920   0.463 -0.1908  0.0471 -0.2375
 4742TP3     H126045   1.067   1.884   0.374  0.2542 -0.4315 -0.0285
 4742TP3     H226046   1.135   1.878   0.509 -1.1956 -0.6809  0.7096
 4743TP3      O26047   1.306   0.076   1.573 -0.7870 -0.5920  0.0269
 4743TP3     H126048   1.386   0.120   1.602  0.2562 -2.7636  0.5603
 4743TP3     H226049   1.303   0.093   1.479  0.1965 -0.3209  0.0377
 4744TP3      O26050   1.535   1.646   0.264 -0.1378 -0.1500 -0.0365
 4744TP3     H126051   1.558   1.709   0.196  1.0761 -1.8528 -1.2362
 4744TP3     H226052   1.498   1.699   0.335 -0.3367  1.7596 -1.5400
 4745TP3      O26053   1.716   4.513   1.489  0.0456  0.9274 -0.4149
 4745TP3     H126054   1.638   4.462   1.511  1.3989 -0.8241  0.4786
 4745TP3     H226055   1.752   4.540   1.573  0.9204  0.9025 -0.7703
 4746TP3      O26056   4.336   2.276   1.839 -0.0335 -0.8894 -0.1120
 4746TP3     H126057   4.299   2.322   1.764  0.3895  1.0490  0.8282
 4746TP3     H226058   4.328   2.339   1.911  1.0259 -2.1135  1.0924
 4747TP3      O26059   0.175   2.444   0.179  0.2788  0.4011 -0.2383
 4747TP3     H126060   0.252   2.492   0.147  0.2807  0.4300 -0.1903
 4747TP3     H226061   0.147   2.493   0.256 -0.4149  0.9931 -0.8606
 4748TP3      O26062   0.990   1.928   1.525  0.1540 -0.1769 -0.0320
 4748TP3     H126063   0.967   1.836   1.534  0.6474 -0.1511  1.6395
 4748TP3     H226064   1.025   1.953   1.610 -0.5105  1.7148 -0.2781
 4749TP3      O26065   2.656   4.610   0.320  0.5992 -0.1378  0.0412
 4749TP3     H126066   2.689   4.526   0.289 -0.4866 -0.3591 -0.5272
 4749TP3     H226067   2.564   4.595   0.337  0.4174  0.9127  0.0339
 4750TP3      O26068   1.054   5.121   9.939  0.0324  0.1708 -0.0367
 4750TP3     H126069   1.027   5.048   9.993  0.5144  1.1202  1.5209
 4750TP3     H226070   1.059   5.085   9.850 -0.0220 -1.5867  0.6584
 4751TP3      O26071   5.476   2.530   3.657  0.2957  0.6176  0.0298
 4751TP3     H126072   5.413   2.571   3.597  0.5494 -0.0342 -0.6786
 4751TP3     H226073   5.515   2.604   3.704  0.9893  1.2318 -1.4804
 4752TP3      O26074   4.651   1.972   2.886 -0.5619  0.8857  0.3596
 4752TP3     H126075   4.615   2.047   2.932 -1.2329  1.0682 -0.4580
 4752TP3     H226076   4.621   1.982   2.795 -0.6477 -0.3511  0.2431
 4753TP3      O26077   4.471   1.230   8.882 -0.2615 -0.1397  0.3290
 4753TP3     H126078   4.474   1.163   8.814  1.2662  1.9433 -1.7690
 4753TP3     H226079   4.384   1.269   8.874  0.1222  0.5111 -0.9187
 4754TP3      O26080   0.476   2.447   1.989  0.2680 -0.5920 -0.5624
 4754TP3     H126081   0.477   2.461   2.083  1.6559  0.0502 -0.6625
 4754TP3     H226082   0.472   2.352   1.978  3.7753 -0.8932  0.1817
 4755TP3      O26083   0.045   3.723   1.605 -0.1059 -0.6786 -0.0099
 4755TP3     H126084   0.116   3.716   1.669  0.6128  0.6391 -0.6634
 4755TP3     H226085   0.035   3.817   1.590 -0.8205 -0.9414 -1.2206
 4756TP3      O26086   0.457   4.700   9.455  0.0321  0.4390  0.2604
 4756TP3     H126087   0.490   4.714   9.366 -1.4101  0.1187 -0.3573
 4756TP3     H226088   0.389   4.633   9.444 -2.3324  2.6141  1.1074
 4757TP3      O26089   4.970   5.118   7.812 -0.2475 -0.2321  0.2372
 4757TP3     H126090   5.007   5.201   7.783 -2.4290  0.1912 -1.4486
 4757TP3     H226091   4.907   5.142   7.880 -0.5379 -0.5416  0.0802
 4758TP3      O26092   0.365   1.313   2.005 -0.8735 -0.1589 -0.0157
 4758TP3     H126093   0.388   1.376   2.074 -1.0475 -0.9515  0.7843
 4758TP3     H226094   0.419   1.339   1.930  1.0728 -0.6988  1.1590
 4759TP3      O26095   0.473   1.729   0.996  0.0173  0.2264  0.1850
 4759TP3     H126096   0.492   1.643   0.957  1.3546  0.4534  0.2972
 4759TP3     H226097   0.475   1.713   1.090  0.8149  0.4900  0.2132
 4760TP3      O26098   3.715   2.597   2.037 -0.3282 -0.6867 -0.4028
 4760TP3     H126099   3.809   2.602   2.055 -0.2668 -0.9803 -0.6433
 4760TP3     H226100   3.705   2.521   1.980 -1.0488 -2.3797  1.9177
 4761TP3      O26101   2.912   0.603   0.851 -0.0692 -0.5316  0.1629
 4761TP3     H126102   2.972   0.567   0.916 -0.2493  0.6377  0.9926
 4761TP3     H226103   2.961   0.673   0.808 -0.7932  0.3547  0.7665
 4762TP3      O26104   4.269   2.075   0.882  0.4806 -0.1658 -0.6710
 4762TP3     H126105   4.282   2.082   0.976 -2.5307 -0.8528 -0.1272
 4762TP3     H226106   4.196   2.134   0.863  1.4663  0.4642 -2.6988
 4763TP3      O26107   1.261   2.920   2.567  0.5702 -0.2341 -0.0075
 4763TP3     H126108   1.283   3.006   2.602  0.7993 -0.5641  0.6599
 4763TP3     H226109   1.293   2.923   2.476 -0.8185  0.9324 -0.4813
 4764TP3      O26110   0.929   3.932   1.356 -0.0820 -0.1187  0.6503
 4764TP3     H126111   0.895   3.867   1.294  2.9296 -0.8604 -0.2771
 4764TP3     H226112   0.919   4.015   1.311  1.7083 -0.6127 -0.6755
 4765TP3      O26113   0.932   0.718   0.566 -0.0202  0.2373  0.2323
 4765TP3     H126114   0.894   0.806   0.557  0.8531  0.6459  0.4573
 4765TP3     H226115   0.859   0.663   0.595 -0.6298  0.8364 -0.1441
 4766TP3      O26116   2.589   2.319   3.689 -0.1245  0.0675  0.0843
 4766TP3     H126117   2.547   2.234   3.679  0.6520 -0.3367  0.2340
 4766TP3     H226118   2.519   2.383   3.673 -1.1042 -0.5974  1.5995
 4767TP3      O26119   2.404   3.315   2.465 -0.7228 -0.5114 -0.1106
 4767TP3     H126120   2.412   3.224   2.494 -0.1107 -0.4758 -0.1544
 4767TP3     H226121   2.369   3.309   2.377 -1.2156 -0.6799  0.0932
 4768TP3      O26122   1.116   0.264   0.920 -0.3044 -0.0403 -0.2117
 4768TP3     H126123   1.050   0.325   0.887  2.3194  0.8470 -4.1445
 4768TP3     H226124   1.114   0.190   0.859  0.8821 -0.9694  0.8439
 4769TP3      O26125   3.446   3.659   3.099 -0.3495 -0.0991  1.1212
 4769TP3     H126126   3.456   3.734   3.041 -0.1542 -0.2465  0.9646
 4769TP3     H226127   3.352   3.653   3.114 -0.3202  0.5343  1.6038
 4770TP3      O26128   4.922   0.610   9.433  0.1952 -0.2510 -0.0356
 4770TP3     H126129   4.908   0.517   9.414 -1.2777 -0.4114  1.7021
 4770TP3     H226130   4.841   0.638   9.477  0.6276  1.8487 -0.5165
 4771TP3      O26131   3.020   4.736   1.305 -0.0114 -0.2347 -0.3105
 4771TP3     H126132   2.941   4.698   1.265 -0.4264  0.3378 -0.0440
 4771TP3     H226133   3.084   4.738   1.234 -0.1920 -0.8375 -0.4962
 4772TP3      O26134   3.975   3.009   0.637  0.6644 -0.0891  0.5069
 4772TP3     H126135   4.004   2.943   0.700  1.0681  1.2425  1.7509
 4772TP3     H226136   4.055   3.052   0.608  0.3739  0.0985 -0.0238
 4773TP3      O26137   0.138   5.262   9.794 -0.0078 -0.0555 -0.2500
 4773TP3     H126138   0.206   5.322   9.766  0.9640 -0.2485  1.6639
 4773TP3     H226139   0.059   5.293   9.750  0.9580  1.2047 -1.1102
 4774TP3      O26140   1.356   4.804   9.116 -0.0339 -0.5050  0.1588
 4774TP3     H126141   1.404   4.727   9.147 -0.2714 -1.3225 -1.4340
 4774TP3     H226142   1.357   4.795   9.020 -2.0158  0.2784  0.0545
 4775TP3      O26143   3.730   3.370   1.585 -0.0587 -0.4865 -0.0814
 4775TP3     H126144   3.817   3.394   1.616  0.4438 -0.3494 -1.5478
 4775TP3     H226145   3.677   3.449   1.597  1.2419  1.0127 -3.6174
 4776TP3      O26146   4.097   2.929   1.881 -0.3154  0.0116 -0.0160
 4776TP3     H126147   4.050   2.994   1.829  0.5179  0.0366 -0.7517
 4776TP3     H226148   4.039   2.853   1.883 -0.9927  0.5313  0.2673
 4777TP3      O26149   2.616   3.943   2.079  0.0966  0.4211 -0.1194
 4777TP3     H126150   2.682   3.874   2.083  0.4429  0.7138 -0.7515
 4777TP3     H226151   2.620   3.976   1.989  1.0283  2.2949  0.5641
 4778TP3      O26152   3.400   0.870   1.235  0.5626  0.4295 -0.0671
 4778TP3     H126153   3.457   0.802   1.271 -1.4841 -0.8609  0.8632
 4778TP3     H226154   3.402   0.940   1.300 -0.5195 -0.4907  0.9740
 4779TP3      O26155   1.509   0.051  10.210 -0.1159 -0.2692 -0.1187
 4779TP3     H126156   1.551   0.130  10.244  0.5571 -0.1391 -1.2388
 4779TP3     H226157   1.538  -0.018  10.270 -2.1331  0.5985  1.9285
 4780TP3      O26158   3.354   3.144   1.243  0.1953  0.9740  0.1670
 4780TP3     H126159   3.326   3.235   1.250  0.4684  1.1992 -1.4830
 4780TP3     H226160   3.399   3.126   1.326 -0.3791  2.1474  0.7445
 4781TP3      O26161   0.866   1.079   9.999 -0.4715  0.0383 -0.3506
 4781TP3     H126162   0.858   0.989   9.967 -0.1138 -0.3001  0.4938
 4781TP3     H226163   0.776   1.112   9.998 -0.8492 -0.9153  0.9953
 4782TP3      O26164   3.774   3.098   1.523 -0.2185  0.5217  0.1510
 4782TP3     H126165   3.858   3.098   1.476 -0.5153  0.2742 -0.3828
 4782TP3     H226166   3.768   3.187   1.559 -1.1621  1.5664 -2.4406
 4783TP3      O26167   1.647   2.884   1.937 -0.3418 -0.4845 -0.1262
 4783TP3     H126168   1.563   2.900   1.981 -0.7494 -0.9809 -0.7023
 4783TP3     H226169   1.631   2.911   1.846  0.4118  0.2976 -0.0274
 4784TP3      O26170   3.003   1.776   1.475  0.0729  0.1851  0.5444
 4784TP3     H126171   2.989   1.777   1.570 -0.5875 -0.1452  0.4536
 4784TP3     H226172   3.087   1.733   1.464  0.6521  1.1651  1.0376
 4785TP3      O26173   3.150   3.234   2.595  0.4835 -0.5215 -0.7560
 4785TP3     H126174   3.205   3.302   2.633 -1.8436 -0.1266  2.1012
 4785TP3     H226175   3.178   3.153   2.640  0.4583 -0.7485 -1.1483
 4786TP3      O26176   4.653   3.113   1.287  0.4043 -0.0231 -0.3333
 4786TP3     H126177   4.730   3.064   1.259 -0.1493 -0.7310 -0.6290
 4786TP3     H226178   4.599   3.049   1.334  0.3859  0.6720  0.6033
 4787TP3      O26179   5.365   4.143   1.671  0.2561  0.6447 -0.3198
 4787TP3     H126180   5.348   4.223   1.719 -0.0721  0.8543 -0.7749
 4787TP3     H226181   5.312   4.076   1.715 -0.4684  0.9492 -0.7120
 4788TP3      O26182   2.362   0.415   0.200 -0.6138  0.2419  0.2604
 4788TP3     H126183   2.436   0.471   0.177 -1.0935  1.3122  1.2582
 4788TP3     H226184   2.387   0.377   0.284 -0.2496 -1.1245 -0.4574
 4789TP3      O26185   3.670   0.132   0.700 -0.1847  0.2293 -0.4976
 4789TP3     H126186   3.649   0.066   0.634 -1.5886  0.8060 -0.6412
 4789TP3     H226187   3.654   0.088   0.784  2.5235 -0.8112 -0.4982
 4790TP3      O26188   0.412   4.082   2.493  0.4236  0.3193  0.5494
 4790TP3     H126189   0.344   4.147   2.513  0.8727  1.0947 -0.3513
 4790TP3     H226190   0.364   4.000   2.483 -0.2002  0.5748  1.3572
 4791TP3      O26191   1.480   3.385   1.980  0.0850  0.0029 -0.4795
 4791TP3     H126192   1.573   3.404   1.975  0.3803 -1.1718  0.4299
 4791TP3     H226193   1.444   3.419   1.898  0.9688  2.2348  0.0172
 4792TP3      O26194   2.659   4.557   9.977 -0.2848  0.3389 -0.1338
 4792TP3     H126195   2.633   4.640   9.938 -2.0863 -0.0843  0.1208
 4792TP3     H226196   2.646   4.570  10.071 -1.4423 -0.5334 -0.1718
 4793TP3      O26197   5.473   3.881   0.248 -0.2136 -0.0191  0.1417
 4793TP3     H126198   5.522   3.837   0.317 -1.8141  2.4679  2.9769
 4793TP3     H226199   5.539   3.900   0.181  1.2478 -3.0383  0.6141
 4794TP3      O26200   4.132   1.511   1.162  0.1602  0.2078  0.1102
 4794TP3     H126201   4.201   1.564   1.123  0.7930  0.4018  1.4577
 4794TP3     H226202   4.050   1.557   1.140  0.4961  0.2305 -1.0856
 4795TP3      O26203   1.822   3.332  10.054  0.0259  0.2242 -0.0172
 4795TP3     H126204   1.800   3.361  10.143 -0.0489  0.2972 -0.0578
 4795TP3     H226205   1.763   3.259  10.038  0.4758 -0.1953  0.2290
 4796TP3      O26206   2.250   4.922   2.561 -0.5848 -0.3812  0.5693
 4796TP3     H126207   2.168   4.971   2.560  0.4284  1.3208 -0.2662
 4796TP3     H226208   2.271   4.908   2.469  1.7914  2.1866  0.6567
 4797TP3      O26209   2.325   0.798   1.386  0.1673  0.4641  0.1942
 4797TP3     H126210   2.269   0.771   1.458 -1.7856  3.9751  0.1166
 4797TP3     H226211   2.273   0.782   1.307  0.6614  0.4699 -0.1403
 4798TP3      O26212   2.261   3.242   1.339  0.5908 -0.0360  0.3221
 4798TP3     H126213   2.332   3.269   1.281  0.7740  0.1560  0.6354
 4798TP3     H226214   2.219   3.323   1.364 -0.6034 -0.2437 -0.9556
 4799TP3      O26215   2.897   1.734   2.284  0.0928  0.1784  0.4567
 4799TP3     H126216   2.979   1.769   2.319 -0.7146  1.2188  1.3745
 4799TP3     H226217   2.913   1.640   2.274  1.6147  0.4779 -0.0376
 4800TP3      O26218   0.889   1.670   1.843 -0.4029  0.4090  0.1491
 4800TP3     H126219   0.911   1.699   1.754 -2.2320 -1.3408 -0.9214
 4800TP3     H226220   0.811   1.721   1.866 -1.0386 -0.4829 -0.0085
 4801TP3      O26221   0.133   1.962   2.386  0.1512 -0.2800 -0.7490
 4801TP3     H126222   0.182   2.038   2.356  0.6096  0.4147  1.6368
 4801TP3     H226223   0.152   1.894   2.321  0.0557  1.4829 -2.6866
 4802TP3      O26224   1.860   2.505   1.393  0.0606 -0.5553 -0.0330
 4802TP3     H126225   1.865   2.597   1.368 -0.3204 -0.3564  0.6190
 4802TP3     H226226   1.868   2.457   1.310 -1.6703  0.1054 -0.6031
 4803TP3      O26227   3.267   1.515   1.895  0.0130  0.5359 -0.1963
 4803TP3     H126228   3.319   1.595   1.885  0.9511 -0.0842 -0.3796
 4803TP3     H226229   3.258   1.505   1.990  1.1111  0.0968 -0.1298
 4804TP3      O26230   2.613   2.683   2.476 -0.6753 -0.0251  0.0462
 4804TP3     H126231   2.582   2.735   2.550 -0.7497  1.7048 -1.1785
 4804TP3     H226232   2.708   2.694   2.476 -0.6522 -0.2115  0.0164
 4805TP3      O26233   4.010   3.632   1.116  0.1547 -0.0939  0.1671
 4805TP3     H126234   4.016   3.618   1.211 -0.5651  1.5302  0.4848
 4805TP3     H226235   3.927   3.678   1.105 -0.2069 -1.0971 -1.3687
 4806TP3      O26236   0.293   3.213   0.943  0.3045  0.3976  0.3137
 4806TP3     H126237   0.223   3.168   0.896 -0.3661  2.2677 -0.4898
 4806TP3     H226238   0.261   3.221   1.033  0.6238 -1.1168  0.5788
 4807TP3      O26239   2.716   2.301   2.110  0.3715 -0.2383 -0.3411
 4807TP3     H126240   2.693   2.385   2.149 -0.3931 -0.4862 -0.2489
 4807TP3     H226241   2.797   2.318   2.061  1.3615  0.0682  1.3736
 4808TP3      O26242   4.275   2.417   2.757  0.5017 -0.4759 -0.0625
 4808TP3     H126243   4.288   2.335   2.806  0.2012  0.7686  2.1928
 4808TP3     H226244   4.182   2.436   2.766  0.9917  1.3285  1.5014
 4809TP3      O26245   1.264   3.827   1.922  0.4395  0.2153 -0.0902
 4809TP3     H126246   1.206   3.828   1.998  1.1101 -0.6175  0.4445
 4809TP3     H226247   1.271   3.919   1.896  0.5746  0.5587  1.1412
 4810TP3      O26248   1.755   1.244   7.786 -0.0306  0.5070  0.0502
 4810TP3     H126249   1.749   1.161   7.738  0.6006  1.1337 -1.1463
 4810TP3     H226250   1.775   1.218   7.876  0.0727 -0.6470 -0.2944
 4811TP3      O26251   2.967   0.020   9.422 -0.2978 -0.2815 -0.2741
 4811TP3     H126252   2.988  -0.065   9.385 -0.2001  0.4666 -1.9651
 4811TP3     H226253   3.050   0.068   9.424 -0.1445 -0.5559  1.6452
 4812TP3      O26254   3.581   3.051   2.751  0.0960 -0.0229  0.1108
 4812TP3     H126255   3.604   2.960   2.768  2.6675  0.8084  1.3264
 4812TP3     H226256   3.494   3.060   2.790  0.3633 -1.6310  1.1517
 4813TP3      O26257   0.757   1.506   2.568  0.0491 -0.2084  0.0370
 4813TP3     H126258   0.740   1.506   2.662 -0.0359  1.4221  0.0321
 4813TP3     H226259   0.844   1.545   2.560  0.6892 -1.7257 -0.4557
 4814TP3      O26260   1.252   0.057   0.246 -0.6343 -0.1890 -0.3371
 4814TP3     H126261   1.290   0.145   0.253  0.5957 -0.6385 -1.2579
 4814TP3     H226262   1.262   0.020   0.334 -0.2410  0.2243 -0.2056
 4815TP3      O26263   5.168   2.984   1.582  0.0354 -0.0115  0.1416
 4815TP3     H126264   5.094   2.932   1.551  0.7023 -0.7719 -0.2031
 4815TP3     H226265   5.204   3.023   1.502  0.1500  0.1583  0.2777
 4816TP3      O26266   3.329   3.249   2.327 -0.1507 -0.4168  0.3628
 4816TP3     H126267   3.235   3.265   2.341  0.5493  1.7204  3.0107
 4816TP3     H226268   3.354   3.193   2.401  0.1284 -3.4899 -1.9318
 4817TP3      O26269   3.178   0.685   9.853 -0.6119  0.2208 -0.1753
 4817TP3     H126270   3.085   0.680   9.830 -0.9891 -0.7136  1.4569
 4817TP3     H226271   3.223   0.650   9.777 -1.6275  0.1214 -0.7501
 4818TP3      O26272   4.960   1.368   1.326  0.1988  0.0274  0.8140
 4818TP3     H126273   4.893   1.427   1.291 -0.4187 -0.0567  1.8279
 4818TP3     H226274   4.982   1.311   1.253 -0.2125  0.6146  0.2251
 4819TP3      O26275   3.318   2.399   2.555 -0.3046  0.0106  0.4445
 4819TP3     H126276   3.413   2.390   2.566 -0.2295 -1.3519 -1.0136
 4819TP3     H226277   3.306   2.486   2.517  0.2804  0.5115  1.3901
 4820TP3      O26278   1.931   2.950   3.621 -0.3499 -0.1046 -0.4667
 4820TP3     H126279   1.897   3.039   3.632  0.1190 -0.0154  0.3281
 4820TP3     H226280   1.879   2.898   3.682  1.9126  0.2929  1.8968
 4821TP3      O26281   2.067   4.422   1.409 -0.4271  0.1400  0.0913
 4821TP3     H126282   2.060   4.333   1.375  0.7397  0.4591 -1.0280
 4821TP3     H226283   2.128   4.416   1.482 -1.1155 -0.1450  0.6451
 4822TP3      O26284   1.481   0.704   2.219 -0.2364 -0.1249  0.0805
 4822TP3     H126285   1.535   0.722   2.142  0.0951  0.4880  0.4544
 4822TP3     H226286   1.405   0.657   2.184 -0.4948  0.8901 -0.7400
 4823TP3      O26287   3.465   2.981   1.520  0.1304 -0.5241  0.2969
 4823TP3     H126288   3.461   2.900   1.570  0.6027 -0.2628  0.7617
 4823TP3     H226289   3.525   2.962   1.447 -0.6500 -0.9407 -0.2463
 4824TP3      O26290   2.559   2.490   0.850 -0.3066 -0.3592  0.4120
 4824TP3     H126291   2.566   2.438   0.770  0.0087 -0.2911  0.3967
 4824TP3     H226292   2.586   2.431   0.920 -0.9968 -0.5554  0.5236
 4825TP3      O26293   4.953   2.446   2.686  0.1326  0.0673  0.1027
 4825TP3     H126294   4.866   2.442   2.726 -1.0089  2.0312 -2.0261
 4825TP3     H226295   5.014   2.448   2.760 -1.7589  0.8182  1.6770
 4826TP3      O26296   3.074   4.061   9.083  0.7041  0.2205 -0.1990
 4826TP3     H126297   3.066   4.147   9.042  1.4181 -0.3004 -1.4775
 4826TP3     H226298   2.992   4.049   9.131  0.6764  1.6824  0.1359
 4827TP3      O26299   2.503   1.374   8.406  0.5821 -0.0604 -0.4208
 4827TP3     H126300   2.413   1.408   8.411  0.1888 -0.8443 -1.6756
 4827TP3     H226301   2.558   1.446   8.437 -0.4266  0.7284 -0.4317
 4828TP3      O26302   3.130   2.127   9.737  0.1991  0.2489  0.4466
 4828TP3     H126303   3.182   2.099   9.813  0.2035 -0.6978  0.1003
 4828TP3     H226304   3.060   2.062   9.731 -0.4844  0.9810  0.3339
 4829TP3      O26305   2.056   2.868   1.055 -0.0953 -0.5667  0.1637
 4829TP3     H126306   2.013   2.887   0.971  1.0468 -1.2671 -0.5920
 4829TP3     H226307   2.067   2.954   1.096 -0.4232 -0.1888 -0.5219
 4830TP3      O26308   3.233   1.673   1.593 -0.2908 -0.2445 -0.0667
 4830TP3     H126309   3.313   1.657   1.542 -0.2479  3.0121 -1.1490
 4830TP3     H226310   3.257   1.653   1.683  2.2779  2.2579 -0.1412
 4831TP3      O26311   4.219   2.373   1.641  0.5478  0.1946 -0.0128
 4831TP3     H126312   4.225   2.333   1.554  4.1858 -0.1146  0.2902
 4831TP3     H226313   4.182   2.460   1.626  2.2298  0.5848 -2.0365
 4832TP3      O26314   3.972   4.209   2.856 -0.5603 -0.6893 -0.1022
 4832TP3     H126315   3.990   4.303   2.853  0.1834 -0.8410 -0.6402
 4832TP3     H226316   3.980   4.180   2.765 -0.1335 -1.3906  0.1503
 4833TP3      O26317   3.402   1.397   3.123 -0.4060 -0.5387 -0.1806
 4833TP3     H126318   3.478   1.339   3.116 -0.4040 -0.3336 -2.1136
 4833TP3     H226319   3.374   1.389   3.214  3.0888  0.8340  1.1139
 4834TP3      O26320   0.186   4.216   0.297 -0.1604  0.7836 -0.5158
 4834TP3     H126321   0.229   4.148   0.246 -0.8574 -1.1319  1.4192
 4834TP3     H226322   0.130   4.261   0.233  2.7966  1.7753 -2.5413
 4835TP3      O26323   0.991   0.733   2.090  0.9701  0.3251  0.1440
 4835TP3     H126324   1.011   0.695   2.176 -0.5733  1.4508  1.0365
 4835TP3     H226325   1.065   0.709   2.035  2.2560  0.0702  1.9524
 4836TP3      O26326   2.408   4.720   0.700 -0.2709 -0.1805 -0.1650
 4836TP3     H126327   2.414   4.786   0.631 -0.8091  0.2561  0.1971
 4836TP3     H226328   2.498   4.702   0.725 -0.1075  0.1844 -0.4941
 4837TP3      O26329   2.475   4.253   0.336  0.1962 -0.1426  0.4302
 4837TP3     H126330   2.567   4.277   0.321  0.2438 -1.2253 -1.1759
 4837TP3     H226331   2.480   4.169   0.382  0.0150 -0.7130 -0.5857
 4838TP3      O26332   1.538   3.275   1.560 -0.3024  0.1986  0.6023
 4838TP3     H126333   1.513   3.183   1.563  2.4344 -0.6020  0.8591
 4838TP3     H226334   1.567   3.289   1.470 -1.3267  1.0010  0.3885
 4839TP3      O26335   3.305   5.030   2.373  0.7394  0.2564 -0.0808
 4839TP3     H126336   3.385   5.013   2.324 -0.3588 -0.4246 -1.7043
 4839TP3     H226337   3.241   4.968   2.336 -0.6591  1.1374  0.8117
 4840TP3      O26338   3.958   0.900   1.596  0.1060  0.1277  0.0699
 4840TP3     H126339   4.046   0.865   1.586 -0.5343 -1.4675 -0.1630
 4840TP3     H226340   3.942   0.896   1.690  0.2339  0.2817  0.0978
 4841TP3      O26341   0.912   0.093   9.976 -0.5821  0.8784  0.4254
 4841TP3     H126342   0.954   0.007   9.982 -0.6815  0.8164  0.2496
 4841TP3     H226343   0.977   0.154  10.010 -0.3391  0.7846  0.1375
 4842TP3      O26344   1.907   1.997   2.840  0.2958 -0.0780  0.1722
 4842TP3     H126345   1.869   1.909   2.847  0.2442 -0.0030  0.9193
 4842TP3     H226346   1.843   2.047   2.791 -1.6594  0.6252  3.2795
 4843TP3      O26347   2.749   3.908   1.601 -0.3464 -0.4846 -0.2889
 4843TP3     H126348   2.821   3.942   1.654 -1.0833  0.8862 -0.1431
 4843TP3     H226349   2.754   3.957   1.520 -0.0159 -1.6709 -0.9952
 4844TP3      O26350   2.501   0.324   8.373  0.1827  0.7467 -0.5753
 4844TP3     H126351   2.481   0.416   8.356  0.3684  1.3674  2.2410
 4844TP3     H226352   2.460   0.306   8.458 -0.5392 -2.0125 -1.4775
 4845TP3      O26353   2.045   1.648   1.072 -0.0750  0.1773 -0.3244
 4845TP3     H126354   2.002   1.670   0.989  1.0406  0.2217 -0.9068
 4845TP3     H226355   2.062   1.554   1.066  0.3846  0.2595 -0.3342
 4846TP3      O26356   5.452   5.377   0.081 -0.1002  0.2913  0.2436
 4846TP3     H126357   5.401   5.455   0.101 -3.5635 -1.1439 -2.4124
 4846TP3     H226358   5.429   5.315   0.150  1.5052  1.0890  1.5180
 4847TP3      O26359   4.152   1.868   1.393 -0.1873 -0.0146 -0.4130
 4847TP3     H126360   4.176   1.802   1.327 -1.9899 -0.3189 -0.8038
 4847TP3     H226361   4.140   1.948   1.343 -0.0468  0.1146 -0.2376
 4848TP3      O26362   1.878   0.528   0.588 -0.1012  0.2417  0.2384
 4848TP3     H126363   1.799   0.538   0.642  0.6036  0.9369  1.1344
 4848TP3     H226364   1.927   0.608   0.601  1.6025 -0.8963  1.0387
 4849TP3      O26365   0.112   3.206   2.095  0.2325  0.0735  0.8069
 4849TP3     H126366   0.030   3.163   2.117 -0.6017  1.0375 -0.3276
 4849TP3     H226367   0.093   3.299   2.101  2.1476  0.3427  3.7070
 4850TP3      O26368   2.241   0.480   0.966  0.2119  0.1104 -0.6819
 4850TP3     H126369   2.276   0.476   0.877 -0.1338  1.6107 -0.9020
 4850TP3     H226370   2.293   0.548   1.009  1.5532 -1.7914  0.8234
 4851TP3      O26371   5.175   1.364   2.308 -0.1891 -0.1206  0.3335
 4851TP3     H126372   5.128   1.447   2.303 -0.8711 -0.4133  1.8268
 4851TP3     H226373   5.180   1.333   2.217  0.7809  1.9379 -0.3402
 4852TP3      O26374   0.279   1.984   9.806  0.2876 -0.7515 -0.6512
 4852TP3     H126375   0.253   1.895   9.782  1.6984 -1.1072 -0.9375
 4852TP3     H226376   0.271   1.987   9.901  0.7848 -1.3778 -0.5833
 4853TP3      O26377   0.492   4.985   2.168 -0.0250 -0.3607 -0.5510
 4853TP3     H126378   0.586   5.001   2.169 -0.0422 -0.0886 -2.0022
 4853TP3     H226379   0.455   5.063   2.125 -1.0999  0.4246  1.7072
 4854TP3      O26380   2.289   2.134   7.936  0.0062  0.2480  0.6078
 4854TP3     H126381   2.375   2.155   7.899 -0.4198  0.9268 -0.0133
 4854TP3     H226382   2.302   2.142   8.031  0.4072  1.2743  0.4820
 4855TP3      O26383   2.601   1.215   2.141  0.6120  0.3265  0.4217
 4855TP3     H126384   2.644   1.214   2.056 -2.9456 -1.4297 -1.4924
 4855TP3     H226385   2.590   1.123   2.164  1.2353  0.7757  2.6532
 4856TP3      O26386   4.869   1.173   1.940 -0.9461  0.4582  0.8222
 4856TP3     H126387   4.846   1.158   2.032 -1.2744 -0.8350  0.5283
 4856TP3     H226388   4.873   1.086   1.901 -0.6014  0.9871 -0.3496
 4857TP3      O26389   3.070   4.423   0.735  0.0606 -0.1336 -0.3432
 4857TP3     H126390   3.075   4.516   0.756  1.8954 -0.4051  0.5036
 4857TP3     H226391   3.130   4.412   0.661  0.6107 -0.8249  0.2022
 4858TP3      O26392   0.573   3.705   1.059 -0.3933 -0.0858  0.2353
 4858TP3     H126393   0.571   3.621   1.012 -1.2279 -0.7452  1.4099
 4858TP3     H226394   0.493   3.704   1.112  1.0406  0.1306  2.4794
 4859TP3      O26395   5.021   0.502   1.358 -0.1404  0.3830  0.1358
 4859TP3     H126396   5.061   0.566   1.299 -0.0208 -0.5726 -0.8255
 4859TP3     H226397   4.977   0.441   1.300 -2.5187  1.0799  1.1561
 4860TP3      O26398   1.699   2.109   2.150  0.3237  0.0059 -0.6603
 4860TP3     H126399   1.616   2.067   2.126  0.1241  1.0095 -1.7832
 4860TP3     H226400   1.766   2.047   2.120 -0.0024 -0.3143 -0.7340
 4861TP3      O26401   1.709   1.359   1.044 -0.8962  0.6050 -0.4629
 4861TP3     H126402   1.680   1.339   0.955 -2.0027  1.0083 -0.2030
 4861TP3     H226403   1.719   1.454   1.045 -1.9221  0.7084  0.1446
 4862TP3      O26404   0.884   3.212   1.748  0.2131  0.9031 -0.0491
 4862TP3     H126405   0.789   3.217   1.761  0.3044  1.7463  0.2753
 4862TP3     H226406   0.920   3.203   1.836  0.4533  0.8253 -0.1548
 4863TP3      O26407   2.173   3.451   2.825 -0.0168 -0.3087  0.3482
 4863TP3     H126408   2.104   3.516   2.806 -0.1778  0.0021  1.9555
 4863TP3     H226409   2.254   3.496   2.801 -0.2678 -0.2033 -0.3268
 4864TP3      O26410   2.256   1.085   1.372 -0.5252  0.2084 -0.2310
 4864TP3     H126411   2.161   1.097   1.364 -0.6703 -0.7796 -0.0716
 4864TP3     H226412   2.268   0.991   1.380  0.4079  0.3824  0.6059
 4865TP3      O26413   2.610   2.777   3.006 -0.1441  0.5019 -0.0717
 4865TP3     H126414   2.662   2.697   2.995  0.7685  0.9226  1.0903
 4865TP3     H226415   2.521   2.745   3.020 -0.0152 -0.2641 -0.9437
 4866TP3      O26416   1.611   0.570  10.185 -0.1560  0.3591  0.5270
 4866TP3     H126417   1.609   0.587  10.091  1.1190  0.6962  0.5477
 4866TP3     H226418   1.697   0.529  10.199  0.1794  1.4633  1.7263
 4867TP3      O26419   3.951   2.413   2.315  0.1439 -0.2137 -0.3047
 4867TP3     H126420   3.986   2.337   2.268 -1.0002  0.1477 -1.7944
 4867TP3     H226421   3.973   2.488   2.259  2.2550  0.7131  1.6983
 4868TP3      O26422   4.781   1.618   9.564 -0.3325  0.0181 -0.1177
 4868TP3     H126423   4.847   1.687   9.556 -1.4218  1.2295  1.0322
 4868TP3     H226424   4.815   1.546   9.511  2.4874  0.1751  1.3768
 4869TP3      O26425   3.609   3.467   0.568 -0.1059  0.5396 -0.1290
 4869TP3     H126426   3.637   3.482   0.478  0.7800  2.4105  0.4474
 4869TP3     H226427   3.651   3.385   0.592  0.9212  0.8301 -0.9016
 4870TP3      O26428   5.092   2.333   1.418 -0.1745 -0.1922  0.1315
 4870TP3     H126429   5.019   2.395   1.416 -1.1197 -1.2900 -0.9434
 4870TP3     H226430   5.154   2.367   1.354  0.6066  1.1468  1.5841
 4871TP3      O26431   2.176   2.398   3.391  0.3105  0.4986  0.9621
 4871TP3     H126432   2.080   2.403   3.400  0.0543 -0.6604 -0.8917
 4871TP3     H226433   2.192   2.310   3.359  1.9149  1.0705  0.1437
 4872TP3      O26434   0.743   2.473   9.734 -0.5706  0.6203 -0.1799
 4872TP3     H126435   0.694   2.396   9.704  0.2984  0.3244 -0.8741
 4872TP3     H226436   0.765   2.454   9.825 -1.1146  0.4332 -0.0861
 4873TP3      O26437   5.210   0.609   2.100 -0.0256  0.0600 -0.7999
 4873TP3     H126438   5.261   0.598   2.180 -0.1678  0.1316 -0.7000
 4873TP3     H226439   5.209   0.704   2.084 -1.9727  0.2592  0.4018
 4874TP3      O26440   3.831   2.073   2.316 -0.3035  0.6985  0.7451
 4874TP3     H126441   3.866   2.065   2.405 -0.2323 -1.8467  0.5199
 4874TP3     H226442   3.736   2.080   2.329 -0.2962  0.3217  1.0400
 4875TP3      O26443   0.951   0.461   0.320 -0.4480  0.1499  0.3879
 4875TP3     H126444   0.965   0.503   0.235  0.2957 -0.5147  0.1698
 4875TP3     H226445   0.962   0.531   0.384  0.9965  0.2707  0.0435
 4876TP3      O26446   3.794   1.901   3.335 -0.1046  0.1633 -0.0404
 4876TP3     H126447   3.789   1.890   3.240 -0.1791 -0.7298  0.0706
 4876TP3     H226448   3.704   1.922   3.361 -0.6161 -2.1639  0.1602
 4877TP3      O26449   1.883   3.285   0.235  0.2522 -0.0370 -0.1246
 4877TP3     H126450   1.805   3.327   0.272  1.3960  2.1613 -0.1397
 4877TP3     H226451   1.950   3.295   0.303  0.7480 -1.2360 -0.4213
 4878TP3      O26452   4.104   0.504   2.120  0.4506  0.6607 -0.6795
 4878TP3     H126453   4.180   0.519   2.177 -0.2079  0.6659  0.1981
 4878TP3     H226454   4.074   0.416   2.144  0.7529  0.2642 -1.7043
 4879TP3      O26455   1.486   2.146   2.880  0.4041 -0.0377 -0.0231
 4879TP3     H126456   1.430   2.074   2.851 -0.5239  1.3763 -1.8800
 4879TP3     H226457   1.426   2.218   2.896  1.4291  0.6558  0.7620
 4880TP3      O26458   1.843   2.757   2.603  0.2228  0.3207 -0.3258
 4880TP3     H126459   1.779   2.702   2.648  0.1234  1.0964  0.4688
 4880TP3     H226460   1.797   2.788   2.525 -0.6819  1.6571  0.7394
 4881TP3      O26461   3.751   0.135   2.739  0.0257 -0.1176 -0.4406
 4881TP3     H126462   3.788   0.047   2.748  1.1824  0.3634 -0.4383
 4881TP3     H226463   3.798   0.173   2.665  0.5867  1.0351  0.5074
 4882TP3      O26464   3.270   1.392   0.981  0.3042 -0.0953  0.1859
 4882TP3     H126465   3.234   1.371   0.895  2.5555 -0.2079 -0.7640
 4882TP3     H226466   3.265   1.311   1.030 -0.8085 -0.0824  0.1072
 4883TP3      O26467   4.126   5.043   1.359  0.3269 -0.3781  0.2434
 4883TP3     H126468   4.199   4.999   1.403 -1.0817 -1.4934  1.5487
 4883TP3     H226469   4.120   5.128   1.402  0.5457 -0.4819  0.4874
 4884TP3      O26470   3.055   2.518   2.216 -0.1663 -0.0375  0.4553
 4884TP3     H126471   3.089   2.569   2.142 -0.7954  0.7522  0.7076
 4884TP3     H226472   2.965   2.498   2.191  0.2735 -1.6157  0.0598
 4885TP3      O26473   0.585   2.213   1.683 -0.4690 -0.1057  0.0534
 4885TP3     H126474   0.636   2.170   1.615 -1.0427  2.1429 -1.8944
 4885TP3     H226475   0.631   2.193   1.765  1.4479 -1.1040 -1.2345
 4886TP3      O26476   0.019   3.151   1.683  0.3212  0.1891 -0.6680
 4886TP3     H126477  -0.043   3.183   1.618  0.6491  1.0721 -0.5444
 4886TP3     H226478  -0.030   3.084   1.731 -0.4447  0.6892 -0.7464
 4887TP3      O26479   1.982   3.382   1.116 -0.6139  0.2797  0.3308
 4887TP3     H126480   1.904   3.326   1.112 -0.8401  0.6059  0.1592
 4887TP3     H226481   1.947   3.471   1.120 -0.2427  0.4495 -0.1806
 4888TP3      O26482   2.994   4.643   3.364  0.3282 -0.5077  0.2816
 4888TP3     H126483   2.919   4.692   3.397  0.4328  0.0240 -0.2623
 4888TP3     H226484   2.985   4.647   3.269  1.1386 -0.2916  0.2121
 4889TP3      O26485   5.183   2.599   1.620 -0.6680  0.0399 -0.1469
 4889TP3     H126486   5.264   2.648   1.634 -0.2295 -0.3685 -1.2461
 4889TP3     H226487   5.190   2.524   1.680  1.2807 -1.7898 -2.5679
 4890TP3      O26488   2.991   4.410   1.871  0.1822 -0.0251 -0.1490
 4890TP3     H126489   3.050   4.443   1.939  1.0803  0.3807 -1.1151
 4890TP3     H226490   2.904   4.441   1.897  0.3486 -0.8376  1.4183
 4891TP3      O26491   4.996   3.117   1.251  0.1506  0.1287 -0.2037
 4891TP3     H126492   5.065   3.131   1.186  0.4652 -1.0095 -0.1371
 4891TP3     H226493   4.952   3.037   1.222 -0.7845  0.5484  0.0571
 4892TP3      O26494   0.037   2.808   0.196  0.4904  0.3224 -0.1148
 4892TP3     H126495  -0.007   2.883   0.234 -0.0515  0.6010 -1.2664
 4892TP3     H226496   0.001   2.800   0.108  2.5059  0.3818 -0.9893
 4893TP3      O26497   3.477   1.353   1.341 -0.1204 -0.0362  0.0598
 4893TP3     H126498   3.500   1.373   1.251  0.4379 -0.6222  0.0690
 4893TP3     H226499   3.561   1.337   1.385 -0.4217 -0.3099  0.5457
 4894TP3      O26500   2.754   5.227   8.474 -0.0221 -0.2299  0.0417
 4894TP3     H126501   2.847   5.222   8.496  0.3971 -1.0964 -1.8142
 4894TP3     H226502   2.711   5.174   8.542  0.6026  1.6553  1.9855
 4895TP3      O26503   2.451   2.339   2.495  0.0624  0.5631 -0.6221
 4895TP3     H126504   2.475   2.385   2.414  1.0226 -0.3181 -0.8474
 4895TP3     H226505   2.512   2.266   2.500 -0.3559  0.2881  0.6230
 4896TP3      O26506   3.459   0.823   2.535 -1.0650 -0.3545 -0.0914
 4896TP3     H126507   3.476   0.760   2.465 -0.6904 -1.3013  0.8606
 4896TP3     H226508   3.510   0.900   2.510 -0.4527 -0.9048 -0.5461
 4897TP3      O26509   4.067   0.837   8.134 -0.0159 -0.4073  0.2770
 4897TP3     H126510   3.999   0.771   8.119 -1.1445  0.8282 -0.0679
 4897TP3     H226511   4.019   0.917   8.155  1.3548  0.2147  1.1150
 4898TP3      O26512   2.064   4.211   2.501 -0.0549  0.3691  0.1764
 4898TP3     H126513   2.076   4.208   2.596  1.9948  1.7258 -0.0194
 4898TP3     H226514   2.135   4.157   2.466 -0.0421  0.9000 -0.6274
 4899TP3      O26515   4.033   3.201   1.743  0.5115  0.1221  0.4105
 4899TP3     H126516   4.031   3.282   1.692  0.7370  0.2468  0.5947
 4899TP3     H226517   3.964   3.212   1.809 -0.1217 -0.2551 -0.1895
 4900TP3      O26518   4.197   4.634   0.693 -0.6825  0.7267 -0.0371
 4900TP3     H126519   4.141   4.674   0.626 -0.9813  0.7986  0.2587
 4900TP3     H226520   4.249   4.706   0.728  2.4794  0.0844 -3.0739
 4901TP3      O26521   5.129   2.403   1.867 -0.1508  0.3058 -0.5445
 4901TP3     H126522   5.144   2.312   1.843  0.9655  0.5251 -0.7354
 4901TP3     H226523   5.041   2.405   1.903  0.1044 -0.9916  0.1640
 4902TP3      O26524   3.200   2.353   2.810  0.1444  0.1004  0.2587
 4902TP3     H126525   3.268   2.397   2.860 -0.3214  2.4922 -1.1592
 4902TP3     H226526   3.227   2.364   2.719 -1.3518 -0.2531 -0.2370
 4903TP3      O26527   3.528   5.174   0.584  0.7958 -0.3863  0.7940
 4903TP3     H126528   3.571   5.246   0.537 -0.7275  0.0739  0.0670
 4903TP3     H226529   3.591   5.102   0.581  1.1458 -0.0175 -1.0250
 4904TP3      O26530   3.606   2.838   1.268  0.0447  0.1003  0.2715
 4904TP3     H126531   3.695   2.817   1.295 -0.0501  0.3746  0.8048
 4904TP3     H226532   3.584   2.770   1.205 -0.5614 -1.9268  2.5791
 4905TP3      O26533   0.918   2.381   9.091  0.0797  0.0998  0.5502
 4905TP3     H126534   0.905   2.314   9.023  0.1981  0.0941  0.5325
 4905TP3     H226535   0.880   2.342   9.170 -3.6159  1.6436 -0.3296
 4906TP3      O26536   3.491   2.668   1.080  0.1335 -0.2339 -0.0721
 4906TP3     H126537   3.406   2.698   1.110  0.8158  1.0154  0.6363
 4906TP3     H226538   3.483   2.662   0.985 -0.9580 -0.8268  0.0533
 4907TP3      O26539   2.764   1.790   2.617 -0.0139 -0.0830  0.4986
 4907TP3     H126540   2.782   1.768   2.526  2.3959 -1.0296  1.1785
 4907TP3     H226541   2.813   1.871   2.633 -1.1549  0.5781  0.7112
 4908TP3      O26542   1.787   0.424   8.753 -0.1452  0.0385 -0.2717
 4908TP3     H126543   1.734   0.345   8.763  0.0867 -0.3577 -1.9626
 4908TP3     H226544   1.776   0.449   8.661  1.7467  0.5509 -0.3855
 4909TP3      O26545   5.317   2.784   1.325 -0.1478  0.0395  0.2176
 4909TP3     H126546   5.256   2.720   1.360 -0.8544  0.3242 -0.4986
 4909TP3     H226547   5.404   2.748   1.346 -0.5379  0.3469  2.5187
 4910TP3      O26548   1.630   4.107   1.159 -0.4621 -0.0212  0.2757
 4910TP3     H126549   1.620   4.150   1.244 -0.4663  0.5692 -0.0182
 4910TP3     H226550   1.585   4.164   1.098  0.6021  0.2074 -0.3179
 4911TP3      O26551   1.141   0.267  10.064 -0.5097 -0.8908 -0.1201
 4911TP3     H126552   1.217   0.322  10.043 -0.2201 -0.8575  0.9836
 4911TP3     H226553   1.178   0.188  10.103 -1.0669 -0.6452  0.9184
 4912TP3      O26554   4.631   3.251   1.891 -0.4495 -0.1139 -0.4714
 4912TP3     H126555   4.581   3.327   1.922 -0.0204 -0.3873  0.9345
 4912TP3     H226556   4.587   3.225   1.810 -0.6259  1.6098 -0.9537
 4913TP3      O26557   2.880   5.139   2.847  0.0514  0.3782  0.0674
 4913TP3     H126558   2.808   5.145   2.909 -0.8329 -2.3934 -0.6112
 4913TP3     H226559   2.953   5.183   2.891 -1.5264  1.5965  1.5344
 4914TP3      O26560   4.238   4.709   1.286 -0.1556  0.1375 -0.5331
 4914TP3     H126561   4.256   4.670   1.371 -0.8253  2.3191  0.6549
 4914TP3     H226562   4.317   4.759   1.265 -0.3504  0.3478 -0.7667
 4915TP3      O26563   3.881   3.914   2.899  0.0793 -0.0181 -0.1523
 4915TP3     H126564   3.875   3.940   2.991 -0.5313 -1.1229  0.1248
 4915TP3     H226565   3.974   3.917   2.880  0.2574 -0.2991  0.6485
 4916TP3      O26566   3.135   0.854   2.876  0.3455 -0.5167  0.0343
 4916TP3     H126567   3.092   0.906   2.808 -0.2823  0.2773  1.0145
 4916TP3     H226568   3.120   0.763   2.851 -0.2523 -0.2292 -0.6569
 4917TP3      O26569   0.354   3.991   3.180  0.6969 -0.3683 -0.2511
 4917TP3     H126570   0.406   3.928   3.229  0.6206 -0.4381 -0.2609
 4917TP3     H226571   0.419   4.049   3.139  0.7563 -0.2502  0.0118
 4918TP3      O26572   2.486   5.327   3.183 -0.5665  0.0014 -0.1943
 4918TP3     H126573   2.560   5.336   3.242  1.2400  0.6164 -2.4590
 4918TP3     H226574   2.409   5.348   3.237  1.0616  1.1394  1.7544
 4919TP3      O26575   3.510   1.433   1.094 -0.5206  0.1329  0.1942
 4919TP3     H126576   3.432   1.392   1.054  0.4635 -2.0230  0.4127
 4919TP3     H226577   3.519   1.516   1.047 -1.2643 -0.8982 -1.8749
 4920TP3      O26578   2.353   1.473   0.461 -0.0556 -0.2709  0.0797
 4920TP3     H126579   2.445   1.496   0.475  0.0885 -0.7645 -0.0354
 4920TP3     H226580   2.313   1.478   0.548  0.5083 -1.9178  0.4494
 4921TP3      O26581   3.009   3.552   2.129 -1.0436 -0.0485  0.4978
 4921TP3     H126582   3.018   3.503   2.047 -1.0732 -0.9927  1.0550
 4921TP3     H226583   3.044   3.494   2.196  0.1569  1.2071  1.0046
 4922TP3      O26584   1.700   3.674   1.287 -0.1553  0.6118  0.2597
 4922TP3     H126585   1.608   3.662   1.261  0.0061 -0.1480  0.0348
 4922TP3     H226586   1.750   3.635   1.216  0.3276  0.2057  0.8245
 4923TP3      O26587   2.679   4.571   2.377  0.2540  0.1049  0.4916
 4923TP3     H126588   2.696   4.484   2.414  0.9496  0.0380  0.0249
 4923TP3     H226589   2.729   4.573   2.296 -0.5324  0.5884  0.0019
 4924TP3      O26590   5.030   4.867   2.982  0.8377  0.3803 -0.1151
 4924TP3     H126591   4.996   4.956   2.992  0.8012  0.1612  1.9405
 4924TP3     H226592   5.102   4.862   3.044 -0.0763 -1.4841  0.8468
 4925TP3      O26593   1.324   3.489   1.589  0.0400 -0.6974 -0.1912
 4925TP3     H126594   1.398   3.428   1.581  2.1163  1.6891  0.1697
 4925TP3     H226595   1.317   3.504   1.683  0.3375  0.5315 -0.3596
 4926TP3      O26596   4.055   1.309   1.670 -0.4981  0.0235 -0.5814
 4926TP3     H126597   4.012   1.253   1.606 -2.1338  2.3665 -1.6093
 4926TP3     H226598   4.114   1.365   1.619 -0.2048  0.4441  0.1998
 4927TP3      O26599   5.298   3.002   9.703  0.2426  0.1398 -0.0750
 4927TP3     H126600   5.232   3.062   9.667  1.0465  0.5329 -0.9400
 4927TP3     H226601   5.309   3.030   9.794  0.0655  0.8243 -0.2593
 4928TP3      O26602   3.100   2.973   1.467 -0.0122  0.3061  0.3135
 4928TP3     H126603   3.173   2.913   1.482 -0.4019  0.0375  1.1875
 4928TP3     H226604   3.107   2.997   1.375  1.4331  0.6323  0.5007
 4929TP3      O26605   5.308   0.594   2.739 -0.2717  0.2046 -0.4979
 4929TP3     H126606   5.238   0.658   2.743  0.4463  1.1962 -2.8653
 4929TP3     H226607   5.374   0.634   2.682  2.7266 -0.2153  2.5061
 4930TP3      O26608   4.244   5.011   3.166 -0.4569 -0.1488 -0.4492
 4930TP3     H126609   4.151   5.033   3.167 -0.9229 -2.0243  1.1514
 4930TP3     H226610   4.248   4.925   3.125  0.4245 -0.5611  0.4644
 4931TP3      O26611   1.958   0.514   1.676 -0.1731  0.4388 -0.8282
 4931TP3     H126612   1.959   0.422   1.647  0.6410  0.1403  0.1170
 4931TP3     H226613   1.865   0.539   1.673 -0.4482 -0.5426 -0.7185
 4932TP3      O26614   0.110   1.316   9.528  0.1075  0.0959 -0.6711
 4932TP3     H126615   0.078   1.230   9.555  0.3470 -0.3678 -1.8365
 4932TP3     H226616   0.032   1.361   9.494 -0.3074  0.8889  1.2615
 4933TP3      O26617   3.475   4.927   2.783 -0.4451 -0.4150  0.3575
 4933TP3     H126618   3.498   4.993   2.718 -2.0050  0.4089  0.6207
 4933TP3     H226619   3.495   4.843   2.741  0.0155  0.1618 -0.5870
 4934TP3      O26620   0.600   3.457   2.365 -0.3305 -0.0983 -0.0899
 4934TP3     H126621   0.681   3.451   2.417  0.3826  1.1899 -1.0366
 4934TP3     H226622   0.555   3.374   2.381  0.6387 -0.3634  1.3410
 4935TP3      O26623   3.410   3.861   0.283  0.3118 -0.1377 -0.4473
 4935TP3     H126624   3.489   3.897   0.323  0.1730 -0.0631 -0.2368
 4935TP3     H226625   3.442   3.806   0.212  0.5037  0.9989 -1.2660
 4936TP3      O26626   3.717   3.604   1.973  0.5109 -0.0977  0.5912
 4936TP3     H126627   3.774   3.674   2.006 -0.3884  1.0427 -0.2506
 4936TP3     H226628   3.734   3.602   1.879 -0.3789 -0.1629  0.4276
 4937TP3      O26629   3.462   4.505   1.260  0.2441 -0.2600  0.1203
 4937TP3     H126630   3.526   4.469   1.199 -0.3849 -1.4586  0.1410
 4937TP3     H226631   3.435   4.430   1.314 -0.4216  0.4343  0.7705
 4938TP3      O26632   2.155   1.688   2.934  0.2601 -0.2406 -0.2297
 4938TP3     H126633   2.093   1.669   2.863  1.4248 -0.8324 -1.0948
 4938TP3     H226634   2.186   1.777   2.916  1.6823 -0.9462 -1.3134
 4939TP3      O26635   2.430   1.367   0.856 -0.1278 -0.3738  0.0503
 4939TP3     H126636   2.379   1.447   0.869 -1.4695 -1.1652 -0.2855
 4939TP3     H226637   2.495   1.369   0.927 -0.2580  0.9138  0.1525
 4940TP3      O26638   5.318   3.804  10.088 -0.4966  0.6835 -0.3174
 4940TP3     H126639   5.291   3.757  10.167  0.4835  0.5876 -0.0415
 4940TP3     H226640   5.412   3.816  10.097 -0.1361 -0.5762 -2.1436
 4941TP3      O26641   0.089   0.274   1.425 -0.1599  0.2690  0.0567
 4941TP3     H126642   0.152   0.263   1.496  0.1207 -0.7615 -0.3510
 4941TP3     H226643   0.140   0.310   1.353 -0.4515  1.3473  0.3746
 4942TP3      O26644   4.495   4.413   2.684  0.1833  0.2329 -0.0465
 4942TP3     H126645   4.418   4.433   2.737 -0.9013 -2.4497 -0.5266
 4942TP3     H226646   4.568   4.417   2.745 -0.6157  0.6622  0.8863
 4943TP3      O26647   5.491   3.043   2.382  0.5682 -0.5319 -0.2923
 4943TP3     H126648   5.585   3.059   2.385  0.3547  0.4662  2.1849
 4943TP3     H226649   5.451   3.120   2.422 -1.2546 -1.3445 -0.4581
 4944TP3      O26650   3.535   2.732   2.577  0.1651 -0.4332 -0.0413
 4944TP3     H126651   3.446   2.749   2.548 -0.3216 -1.4807  0.8019
 4944TP3     H226652   3.575   2.685   2.503 -0.2842 -0.8461 -0.0234
 4945TP3      O26653   1.073   1.383   0.314  0.2358  0.1556  0.5620
 4945TP3     H126654   0.977   1.377   0.305  0.2503 -0.2359  0.6528
 4945TP3     H226655   1.100   1.441   0.243  0.3474 -2.9435 -2.0745
 4946TP3      O26656   2.762   2.684  10.147  0.1231  0.5363  0.2875
 4946TP3     H126657   2.820   2.742  10.197  2.8716 -3.3246  1.8525
 4946TP3     H226658   2.784   2.702  10.056  2.2584  0.7291  0.7982
 4947TP3      O26659   0.036   1.687   9.992 -0.3060  0.2479 -0.1143
 4947TP3     H126660   0.067   1.719   9.908 -3.2643  1.1739 -0.9112
 4947TP3     H226661   0.066   1.596   9.995  0.2948  0.3700 -1.9189
 4948TP3      O26662   0.765   5.307   0.013 -0.5374 -0.1503 -0.6119
 4948TP3     H126663   0.691   5.346   0.059 -0.4906  0.3285 -0.9379
 4948TP3     H226664   0.733   5.223  -0.018 -1.4017  0.6711 -2.0005
 4949TP3      O26665   5.256   3.527   0.284  0.1029 -0.2090 -0.0774
 4949TP3     H126666   5.311   3.601   0.258 -1.6472  1.1475 -0.0311
 4949TP3     H226667   5.308   3.479   0.348  0.1820  2.5861  2.0279
 4950TP3      O26668   5.177   4.736   2.688 -0.4011 -0.1780 -0.0360
 4950TP3     H126669   5.195   4.662   2.745 -0.2104  0.2838  0.5104
 4950TP3     H226670   5.262   4.776   2.672 -0.2674 -1.1268 -1.8004
 4951TP3      O26671   3.661   3.187   0.842 -0.0805  0.2310 -0.0491
 4951TP3     H126672   3.710   3.190   0.924 -0.2827  0.7009  0.0540
 4951TP3     H226673   3.575   3.153   0.867  0.2326 -0.7208 -0.2511
 4952TP3      O26674   0.370   1.001   1.345  0.0765  0.1793 -0.1178
 4952TP3     H126675   0.357   0.983   1.252  2.5001  0.9364 -0.6536
 4952TP3     H226676   0.282   1.009   1.380 -0.8939  0.5233 -2.4899
 4953TP3      O26677   4.591   4.292   1.065 -0.2121  0.1419 -0.2921
 4953TP3     H126678   4.504   4.314   1.033  0.0644 -0.8022 -1.7326
 4953TP3     H226679   4.649   4.303   0.990  0.8547  0.3592  0.5413
 4954TP3      O26680   4.623   1.969   0.612 -0.6173 -0.1246 -0.1665
 4954TP3     H126681   4.697   2.029   0.605  0.7443 -1.8228 -0.6105
 4954TP3     H226682   4.609   1.938   0.522  0.0082 -2.0018  0.3641
 4955TP3      O26683   4.209   2.343  10.313 -0.5116  0.1238 -0.7064
 4955TP3     H126684   4.241   2.301  10.233  0.0471  0.8738 -0.8782
 4955TP3     H226685   4.118   2.314  10.320 -0.1675 -1.0248 -0.8860
 4956TP3      O26686   4.868   5.489   7.898 -0.5839 -0.5381  0.2205
 4956TP3     H126687   4.858   5.526   7.810  0.7887  1.3956  0.8333
 4956TP3     H226688   4.936   5.423   7.888  0.9989  1.0545  0.1739
 4957TP3      O26689   0.513   2.491   2.240  0.0355  0.1108 -0.5456
 4957TP3     H126690   0.445   2.527   2.297 -1.4728 -2.7271 -0.4814
 4957TP3     H226691   0.589   2.480   2.298 -0.8067 -0.7127  0.4235
 4958TP3      O26692   4.732   2.422   2.842 -0.4108  0.1891 -0.5226
 4958TP3     H126693   4.727   2.517   2.844 -0.2396  0.1872 -0.0423
 4958TP3     H226694   4.723   2.395   2.933  0.7820 -0.1845 -0.5042
 4959TP3      O26695   0.291   2.510   9.938 -0.3988 -0.6464 -0.7362
 4959TP3     H126696   0.360   2.539   9.878  0.2955 -1.2885 -0.2643
 4959TP3     H226697   0.229   2.463   9.882 -1.5268  1.6648 -1.5040
 4960TP3      O26698   0.674   2.069   7.074 -0.6603  0.0369  0.2594
 4960TP3     H126699   0.594   2.029   7.040 -0.7521 -1.4556  2.1512
 4960TP3     H226700   0.744   2.019   7.031 -0.7690 -0.5745  0.7783
 4961TP3      O26701   2.219   1.441   1.866  0.0542  0.0531 -0.2908
 4961TP3     H126702   2.141   1.390   1.847 -0.8368  0.9804  0.8178
 4961TP3     H226703   2.257   1.461   1.781 -1.7312  0.8733 -0.8941
 4962TP3      O26704   0.007   3.432   1.108  0.3241  0.3144 -0.0356
 4962TP3     H126705  -0.037   3.501   1.057 -1.1664  0.1396  0.9640
 4962TP3     H226706  -0.062   3.399   1.167  1.6758 -0.3564  1.1909
 4963TP3      O26707   5.471   5.189   9.253  0.1401 -0.0509  0.1161
 4963TP3     H126708   5.398   5.133   9.280 -1.6568  2.1958  0.1040
 4963TP3     H226709   5.533   5.186   9.325 -2.0890  1.5849  2.1723
 4964TP3      O26710   1.344   5.104   2.387  0.3104 -0.3601 -0.1137
 4964TP3     H126711   1.263   5.061   2.359  0.6754 -0.8006 -0.5074
 4964TP3     H226712   1.410   5.035   2.383  0.6408 -0.0787  0.5204
 4965TP3      O26713   1.589   0.398   0.711 -0.6306 -0.3294 -0.2107
 4965TP3     H126714   1.604   0.493   0.711  0.3858 -0.4223  2.7795
 4965TP3     H226715   1.498   0.389   0.739 -0.7271 -0.2326 -0.4917
 4966TP3      O26716   0.541   0.633   1.894 -0.2505 -0.2980  0.0110
 4966TP3     H126717   0.463   0.672   1.933  0.8971  1.4089  0.6305
 4966TP3     H226718   0.611   0.649   1.957  1.1756  0.5504 -1.7345
 4967TP3      O26719   0.384   1.652   0.502  0.5601  0.0090 -0.1686
 4967TP3     H126720   0.379   1.570   0.453 -0.3519  0.2461 -0.4743
 4967TP3     H226721   0.455   1.701   0.459  0.3244 -0.1293 -0.7223
 4968TP3      O26722   5.194   0.021   0.170  0.4186  0.3929 -0.3485
 4968TP3     H126723   5.251   0.096   0.187  2.1828 -0.9019 -0.4503
 4968TP3     H226724   5.203  -0.034   0.248 -1.0641  0.3986 -0.1598
 4969TP3      O26725   4.668   4.441   1.780 -0.0261  0.0556  0.6056
 4969TP3     H126726   4.689   4.471   1.691 -2.2372 -0.9930 -0.3044
 4969TP3     H226727   4.741   4.472   1.833  1.8323 -0.1276 -1.7387
 4970TP3      O26728   1.839   2.185   9.090 -0.1593  0.2649 -0.2070
 4970TP3     H126729   1.915   2.165   9.146 -1.0565  1.0308  1.3300
 4970TP3     H226730   1.861   2.148   9.005  0.8613 -1.7554  0.9072
 4971TP3      O26731   0.799   0.073   2.463 -0.1795  0.0334  0.3489
 4971TP3     H126732   0.892   0.093   2.475 -0.2727  1.0011 -0.4126
 4971TP3     H226733   0.754   0.122   2.532 -0.3110  1.6171 -0.8127
 4972TP3      O26734   1.212   3.034   1.654  0.4296  0.5985  0.0558
 4972TP3     H126735   1.187   3.101   1.590  0.3136  0.3792 -0.1258
 4972TP3     H226736   1.176   2.953   1.620 -0.4118  0.6325  0.8602
 4973TP3      O26737   3.823   4.480   3.104 -0.1977  0.7110  0.3617
 4973TP3     H126738   3.778   4.556   3.068 -2.0676 -0.9461 -0.8900
 4973TP3     H226739   3.759   4.439   3.162  0.1487 -0.9181 -0.3868
 4974TP3      O26740   5.055   1.021   9.569 -0.2594  0.6009 -0.4373
 4974TP3     H126741   5.132   0.979   9.607  1.1207  1.9051 -1.7095
 4974TP3     H226742   5.053   0.989   9.479 -1.6489  0.0164 -0.2132
 4975TP3      O26743   1.939   3.207   8.172  0.0791 -0.0889  0.7995
 4975TP3     H126744   1.969   3.174   8.256 -0.1813  0.6788  1.2018
 4975TP3     H226745   1.907   3.296   8.191  0.0473  0.1007 -0.1093
 4976TP3      O26746   0.942   3.858   2.644 -0.4241 -0.5430 -0.2982
 4976TP3     H126747   0.868   3.847   2.583 -0.7462  0.0877 -0.0300
 4976TP3     H226748   1.019   3.835   2.592 -0.8038 -1.1300 -0.6062
 4977TP3      O26749   5.187   2.064   1.066  0.6000  0.9253 -0.4688
 4977TP3     H126750   5.232   2.004   1.126  0.4795  2.3378  1.0724
 4977TP3     H226751   5.258   2.110   1.021  0.7039  1.3577  0.1284
 4978TP3      O26752   3.676   4.725   2.646  0.5500 -0.4750 -0.0596
 4978TP3     H126753   3.617   4.712   2.572 -0.7805  2.0832  0.4736
 4978TP3     H226754   3.760   4.749   2.607  0.1637 -0.2541 -0.7559
 4979TP3      O26755   1.007   1.711   9.264  0.3495  0.3002 -0.6216
 4979TP3     H126756   1.016   1.796   9.220 -0.5266 -0.3178 -2.0312
 4979TP3     H226757   0.920   1.713   9.303 -0.1148 -0.3588 -1.5934
 4980TP3      O26758   0.499   1.145   0.988  0.2592  0.1103 -0.4058
 4980TP3     H126759   0.442   1.069   0.978 -0.0225 -0.1739  2.7802
 4980TP3     H226760   0.569   1.115   1.045  0.3897  2.1093  0.5286
 4981TP3      O26761   5.192   4.553   9.964 -0.2596 -0.0228  0.3038
 4981TP3     H126762   5.255   4.481   9.968 -0.4263 -0.2631 -0.9534
 4981TP3     H226763   5.156   4.547   9.875  0.0484  1.8946  0.0495
 4982TP3      O26764   2.556   5.456   0.182  0.0730 -0.4284  0.5596
 4982TP3     H126765   2.528   5.463   0.273 -0.6003 -0.0267  0.3308
 4982TP3     H226766   2.474   5.449   0.133  0.2833  2.0834 -0.2519
 4983TP3      O26767   4.503   4.094   8.110 -0.3000  0.0871 -0.0655
 4983TP3     H126768   4.421   4.122   8.151  0.8544 -0.6664  2.8620
 4983TP3     H226769   4.557   4.174   8.107 -0.3869  0.1440 -0.1079
 4984TP3      O26770   5.020   1.409   0.062 -0.2950  0.1084  0.2941
 4984TP3     H126771   5.041   1.446  -0.024  1.0322 -0.0596  0.5330
 4984TP3     H226772   5.091   1.347   0.079 -0.8408 -0.2522  1.2766
 4985TP3      O26773   2.693   0.285   1.670  0.3499  0.0529 -0.5589
 4985TP3     H126774   2.683   0.380   1.667  1.1212  0.1805  0.3910
 4985TP3     H226775   2.663   0.254   1.584  0.2820  1.1695 -0.9408
 4986TP3      O26776   0.673   3.938   1.520 -0.1147  0.9261  0.4867
 4986TP3     H126777   0.650   4.012   1.464  0.8888 -0.2028 -1.4462
 4986TP3     H226778   0.766   3.922   1.502 -0.3365 -0.8537  0.8354
 4987TP3      O26779   2.969   1.791   1.757  0.0921 -0.4445 -0.9459
 4987TP3     H126780   2.874   1.784   1.748  0.1914 -2.5579 -0.6270
 4987TP3     H226781   2.987   1.754   1.843  0.9478  2.6350  0.2536
 4988TP3      O26782   5.218   4.997   7.770 -0.1884  0.1998 -0.4583
 4988TP3     H126783   5.146   5.057   7.788 -0.1211 -0.3977  2.0431
 4988TP3     H226784   5.281   5.050   7.720 -1.0066  1.6455 -0.0023
 4989TP3      O26785   4.877   4.101   2.403 -0.5850 -0.1602  0.3113
 4989TP3     H126786   4.848   4.114   2.493 -1.9992 -0.9017 -0.0230
 4989TP3     H226787   4.900   4.008   2.399 -1.2597 -0.3054 -0.2910
 4990TP3      O26788   5.343   3.230   2.088  0.6994 -0.1107 -0.0149
 4990TP3     H126789   5.330   3.320   2.057  0.0590  0.4518  1.8124
 4990TP3     H226790   5.281   3.221   2.160 -0.1716 -2.4606 -1.0176
 4991TP3      O26791   4.925   3.741   2.076 -0.6988 -0.1773 -0.1876
 4991TP3     H126792   4.929   3.783   1.990 -1.3306 -1.9345 -1.1251
 4991TP3     H226793   5.015   3.741   2.107 -0.8819  3.1330  0.5240
 4992TP3      O26794   5.242   4.561   1.849 -0.2683  0.1575  0.5269
 4992TP3     H126795   5.306   4.585   1.783  0.2168 -0.6521  0.6982
 4992TP3     H226796   5.223   4.643   1.896  1.2192  0.2555  0.9902
 4993TP3      O26797   3.025   4.125   1.367 -0.5327  0.1268 -0.5034
 4993TP3     H126798   3.081   4.128   1.445 -0.0209  1.3591 -0.9148
 4993TP3     H226799   2.945   4.082   1.397 -1.5470  3.2446  1.4884
 4994TP3      O26800   5.470   0.971   1.818 -0.0207 -0.0144 -0.5198
 4994TP3     H126801   5.490   0.878   1.806 -2.1558 -0.6450  0.5128
 4994TP3     H226802   5.390   0.972   1.869  1.1338  2.4486  1.3527
 4995TP3      O26803   4.501   4.034   3.162 -0.4989 -0.7480  0.2261
 4995TP3     H126804   4.485   4.129   3.163 -1.3659 -0.8893  0.7855
 4995TP3     H226805   4.596   4.026   3.169 -0.4021  0.0842 -0.0150
 4996TP3      O26806   0.081   0.550   1.852  0.5496 -0.6129 -0.8564
 4996TP3     H126807   0.093   0.514   1.940  1.2699  0.7613 -0.3826
 4996TP3     H226808   0.169   0.546   1.813  0.7581  1.2225 -0.5751
 4997TP3      O26809   3.356   4.472   2.292 -0.4016  0.1590  0.6975
 4997TP3     H126810   3.449   4.472   2.316  0.0641  2.1455 -0.9304
 4997TP3     H226811   3.316   4.535   2.351 -0.4611  0.3259  0.4775
 4998TP3      O26812   3.573   5.505   9.420  0.1520  0.2249  0.8381
 4998TP3     H126813   3.669   5.498   9.419  0.2094  0.9428 -0.3972
 4998TP3     H226814   3.555   5.583   9.473  0.1713 -0.8849  2.4823
 4999TP3      O26815   4.219   1.171   0.217 -0.0787  0.2976  0.1222
 4999TP3     H126816   4.161   1.158   0.142  1.7289 -0.8825 -1.1146
 4999TP3     H226817   4.235   1.083   0.250  1.2210  0.5805  0.2713
 5000TP3      O26818   0.437   5.036   1.672 -0.2154 -0.1361  0.3614
 5000TP3     H126819   0.360   5.056   1.725 -0.9653  0.0707 -0.7785
 5000TP3     H226820   0.457   4.944   1.692 -1.3254 -0.4691 -0.0177
 5001TP3      O26821   5.243   5.091   1.939 -0.0025 -0.0620  0.3081
 5001TP3     H126822   5.202   5.121   1.858 -0.3213 -0.9864  0.1282
 5001TP3     H226823   5.310   5.158   1.958  0.9172 -0.4711 -1.3781
 5002TP3      O26824   3.389   3.104   2.547  0.0660  0.2727 -0.9248
 5002TP3     H126825   3.383   3.185   2.597  1.9678 -0.8157  1.1600
 5002TP3     H226826   3.483   3.091   2.533 -0.2546 -1.2667 -1.7756
 5003TP3      O26827   1.734   1.958   3.140 -0.4553 -0.1987  0.0137
 5003TP3     H126828   1.693   2.045   3.138 -1.0236 -0.4584  0.1204
 5003TP3     H226829   1.827   1.975   3.126 -0.6742  0.3497 -0.8360
 5004TP3      O26830   4.063   4.167   2.561 -0.2633 -0.0039  0.0120
 5004TP3     H126831   4.146   4.189   2.519 -0.5469 -0.3161 -0.7232
 5004TP3     H226832   4.029   4.093   2.511 -1.0690  0.2284  0.1948
 5005TP3      O26833   4.951   1.482   9.338 -0.4019  0.3825 -0.2060
 5005TP3     H126834   4.868   1.443   9.312 -1.2630  2.0580 -0.0698
 5005TP3     H226835   4.977   1.535   9.263 -0.1244  0.8702  0.2246
 5006TP3      O26836   4.997   5.122   0.801 -0.1841 -0.2958 -0.0571
 5006TP3     H126837   5.001   5.161   0.888 -0.2293 -0.5379  0.0540
 5006TP3     H226838   5.008   5.196   0.741  0.8478 -0.2592  0.1709
 5007TP3      O26839   4.119   2.241   2.175 -0.1528  0.5247 -0.0940
 5007TP3     H126840   4.091   2.151   2.191 -0.3052  0.2175 -2.0754
 5007TP3     H226841   4.211   2.242   2.204 -0.7571  0.2983  1.8942
 5008TP3      O26842   0.747   1.965   1.627  0.1146 -0.4107  0.0934
 5008TP3     H126843   0.835   1.982   1.594 -0.5781 -2.4469 -3.0438
 5008TP3     H226844   0.760   1.906   1.701  1.4130 -0.3281 -0.0623
 5009TP3      O26845   4.429   3.860   1.476 -0.3194 -0.1798  0.1764
 5009TP3     H126846   4.447   3.902   1.392 -0.3522 -0.2720  0.1228
 5009TP3     H226847   4.425   3.767   1.455 -0.0577 -0.2261  0.3270
 5010TP3      O26848   2.154   0.681   9.771  0.3183 -0.1048 -0.3374
 5010TP3     H126849   2.106   0.626   9.709  0.4677 -0.3855 -0.2001
 5010TP3     H226850   2.223   0.722   9.718  1.2184 -1.2986 -0.0963
 5011TP3      O26851   5.411   4.360   3.083  0.0386  0.1687  0.0639
 5011TP3     H126852   5.505   4.378   3.095  0.1450  0.1130 -0.6781
 5011TP3     H226853   5.402   4.267   3.102  0.4067 -0.1823 -1.3711
 5012TP3      O26854   5.060   2.458   2.199 -0.1935  0.4621 -0.3882
 5012TP3     H126855   4.983   2.405   2.219  0.7168 -0.6489  0.2260
 5012TP3     H226856   5.075   2.509   2.278 -0.7497  1.2527 -0.7862
 5013TP3      O26857   3.259   4.622   9.561  0.0130 -0.0719  0.2655
 5013TP3     H126858   3.215   4.635   9.477  1.1323  0.6895 -0.2131
 5013TP3     H226859   3.210   4.552   9.603 -1.4451  0.5254 -0.4024
 5014TP3      O26860   0.087   4.041   2.884 -0.3073  0.2520 -0.4475
 5014TP3     H126861   0.065   4.090   2.805 -0.0861  0.3021 -0.4806
 5014TP3     H226862   0.004   4.027   2.928 -0.8259 -2.2171 -2.0803
 5015TP3      O26863   2.945   0.803   1.531 -0.2789  0.3776  0.1047
 5015TP3     H126864   2.859   0.843   1.535 -0.0487  1.1456 -1.8354
 5015TP3     H226865   3.000   0.868   1.487  1.2006 -0.2350  0.9952
 5016TP3      O26866   5.254   1.904   0.267  0.1888 -0.2842 -0.3300
 5016TP3     H126867   5.213   1.960   0.202  1.7311 -0.3713 -1.4066
 5016TP3     H226868   5.310   1.846   0.217 -0.4705 -1.9989  0.8842
 5017TP3      O26869   0.749   4.685   0.613 -0.0343 -0.0759  0.2483
 5017TP3     H126870   0.703   4.601   0.618  1.0697 -0.7981 -1.2147
 5017TP3     H226871   0.700   4.743   0.671 -1.8539 -1.2503 -0.0710
 5018TP3      O26872   3.394   3.313   2.701 -0.2578 -0.9392  0.4379
 5018TP3     H126873   3.480   3.353   2.685 -0.1585 -1.8393 -1.5065
 5018TP3     H226874   3.395   3.290   2.793  1.6915 -1.1106  0.3976
 5019TP3      O26875   3.434   0.470   9.764 -0.4428 -0.1034  0.2355
 5019TP3     H126876   3.387   0.531   9.708  1.5095  1.1994 -0.0447
 5019TP3     H226877   3.523   0.506   9.769  0.4856 -2.4081  0.8593
 5020TP3      O26878   1.280   1.986   2.783  0.2164 -0.2009  0.4548
 5020TP3     H126879   1.220   1.974   2.857 -0.0748  0.8315  0.3886
 5020TP3     H226880   1.231   2.040   2.721  0.1531 -1.7261 -0.8699
 5021TP3      O26881   5.517   1.078   9.261 -0.3935 -0.2304 -0.8889
 5021TP3     H126882   5.438   1.089   9.209 -1.3185  1.1115  0.7351
 5021TP3     H226883   5.526   0.983   9.273 -2.8439 -0.3270  0.5091
 5022TP3      O26884   5.034   2.598   2.954  0.3754 -0.8285  0.3172
 5022TP3     H126885   5.022   2.579   3.047 -2.3116 -2.4180 -0.2680
 5022TP3     H226886   4.947   2.627   2.924  0.6125 -2.4456 -2.1162
 5023TP3      O26887   4.945   0.987   1.679  0.5120  0.3263  0.3744
 5023TP3     H126888   4.925   0.922   1.611  2.7065 -0.4368  0.4082
 5023TP3     H226889   4.957   1.069   1.631 -2.0766  0.6948  0.3093
 5024TP3      O26890   1.177   0.302   1.391  0.3675 -0.6419  0.6374
 5024TP3     H126891   1.217   0.284   1.306 -0.1008 -0.3883  0.3616
 5024TP3     H226892   1.115   0.230   1.404 -2.6733  1.5267 -1.1909
 5025TP3      O26893   5.024   4.285   0.724  0.4441 -0.2826  0.0283
 5025TP3     H126894   5.065   4.252   0.644 -0.7837 -0.2419 -0.6297
 5025TP3     H226895   5.095   4.328   0.771  1.2021 -0.3848 -0.9979
 5026TP3      O26896   3.386   3.826   1.951  0.4291  0.2870  0.5263
 5026TP3     H126897   3.353   3.754   2.005 -0.9940  0.3954 -0.1591
 5026TP3     H226898   3.452   3.869   2.005 -1.2368  0.6347  2.3397
 5027TP3      O26899   4.792   1.175   1.433 -0.4437  0.2170 -0.4286
 5027TP3     H126900   4.720   1.213   1.483  0.2212 -0.2783  0.9297
 5027TP3     H226901   4.839   1.250   1.398 -1.9811  0.5351 -1.8705
 5028TP3      O26902   3.841   1.562   1.501  0.4309  0.4869  0.2989
 5028TP3     H126903   3.811   1.551   1.591 -2.4824 -0.0077 -0.6676
 5028TP3     H226904   3.812   1.482   1.456  1.2536  1.0168 -1.2156
 5029TP3      O26905   1.082   0.916   0.272 -0.0383 -0.2029 -0.2670
 5029TP3     H126906   1.003   0.891   0.224 -1.0015  0.0386  1.1487
 5029TP3     H226907   1.122   0.833   0.298 -0.1255 -0.3174 -0.4926
 5030TP3      O26908   0.337   2.968   1.592  0.4267  0.0551 -0.3885
 5030TP3     H126909   0.350   3.062   1.579 -0.9235  0.4986  1.2850
 5030TP3     H226910   0.243   2.955   1.577  0.6431 -1.0713 -0.8150
 5031TP3      O26911   5.478   0.734   1.301  0.0406  0.4053 -0.0422
 5031TP3     H126912   5.518   0.707   1.219  0.8851 -0.0880  0.5283
 5031TP3     H226913   5.514   0.675   1.367 -1.3760  0.1638  0.5408
 5032TP3      O26914   3.368   4.940   3.181  0.2795  0.4622 -0.1243
 5032TP3     H126915   3.358   5.003   3.252 -2.5513  1.4176 -1.3227
 5032TP3     H226916   3.447   4.969   3.134 -0.6138  2.7328 -0.2819
 5033TP3      O26917   0.183   3.734   9.755 -0.3904 -0.3361  0.1811
 5033TP3     H126918   0.131   3.761   9.830 -0.6199 -0.5025  0.0872
 5033TP3     H226919   0.267   3.708   9.791 -0.4330 -0.2260  0.3579
 5034TP3      O26920   1.713   1.522   1.871 -0.1600  0.3985 -0.5454
 5034TP3     H126921   1.779   1.462   1.836  0.5151  0.3080  0.8612
 5034TP3     H226922   1.752   1.557   1.951 -1.8637  0.2706  0.3629
 5035TP3      O26923   4.927   2.227   2.509 -0.3254 -0.5168 -0.4806
 5035TP3     H126924   4.923   2.303   2.567 -0.4974  0.1376 -1.3332
 5035TP3     H226925   5.014   2.190   2.524  0.6074  1.1355 -1.6267
 5036TP3      O26926   1.162   3.224   1.072 -0.0378  0.1749  0.2089
 5036TP3     H126927   1.102   3.297   1.056  0.5209  0.3785 -1.0295
 5036TP3     H226928   1.107   3.146   1.064 -0.4769  0.4172  0.7660
 5037TP3      O26929   1.427   1.235   9.958  0.1054  0.2375 -0.2357
 5037TP3     H126930   1.405   1.315  10.006  0.6647 -0.2916  0.9199
 5037TP3     H226931   1.386   1.165  10.008 -1.0143 -0.1365 -1.6704
 5038TP3      O26932   0.662   1.601   9.797 -0.4663 -0.0982 -0.3356
 5038TP3     H126933   0.596   1.640   9.854 -1.5492 -1.0200 -0.9505
 5038TP3     H226934   0.682   1.516   9.837  0.0547  0.0012 -0.3756
 5039TP3      O26935   1.087   2.558   2.104 -0.2713 -0.5830 -0.7745
 5039TP3     H126936   1.012   2.515   2.146  0.8701 -1.2186  0.6458
 5039TP3     H226937   1.097   2.513   2.021 -1.2353 -0.7391 -0.8101
 5040TP3      O26938   3.123   3.030   1.201  0.6142 -0.1196 -0.1240
 5040TP3     H126939   3.211   3.064   1.218 -0.1348  1.5923  0.4601
 5040TP3     H226940   3.100   3.067   1.115  0.1086  0.1926  0.1476
 5041TP3      O26941   5.436   0.923   3.099  0.1632  0.3038  0.1523
 5041TP3     H126942   5.390   1.003   3.073 -0.6483 -0.5797 -1.2128
 5041TP3     H226943   5.391   0.894   3.179  1.1977  1.7959  1.3176
 5042TP3      O26944   1.757   4.098   0.672  0.0564 -0.5948  0.1161
 5042TP3     H126945   1.721   4.173   0.718  1.0091  0.7530 -1.2970
 5042TP3     H226946   1.839   4.078   0.719 -0.2838 -0.8776  0.5972
 5043TP3      O26947   3.055   3.375   2.370  0.1765  0.4103  0.1813
 5043TP3     H126948   3.070   3.342   2.458 -0.4913 -0.1041  0.1074
 5043TP3     H226949   2.981   3.435   2.379 -1.3183 -1.2923 -0.3775
 5044TP3      O26950   5.444   2.594   9.190 -0.4545  0.1128 -0.5653
 5044TP3     H126951   5.495   2.538   9.131 -1.3891  0.9759 -2.2066
 5044TP3     H226952   5.358   2.553   9.194 -0.2805 -0.1756  0.5602
 5045TP3      O26953   1.096   2.493   0.742  0.6843 -0.1510  0.3689
 5045TP3     H126954   1.126   2.536   0.662  1.5410 -0.5040  0.4939
 5045TP3     H226955   1.035   2.555   0.781  0.1208 -0.0482 -0.6430
 5046TP3      O26956   4.710   0.534   0.455  0.3730 -0.1234 -0.0532
 5046TP3     H126957   4.726   0.626   0.478  1.4538  0.1717 -1.9003
 5046TP3     H226958   4.647   0.538   0.383  1.1252 -0.7866 -0.7554
 5047TP3      O26959   1.764   3.465   1.964  0.2849  0.1318  0.7343
 5047TP3     H126960   1.799   3.507   2.043 -3.2330  1.7330  1.5215
 5047TP3     H226961   1.813   3.505   1.892  0.4280  1.9722  1.8210
 5048TP3      O26962   2.396   4.395   0.107 -0.1339  0.2677 -0.1518
 5048TP3     H126963   2.312   4.356   0.081 -0.1808  0.1451  0.1831
 5048TP3     H226964   2.413   4.359   0.194 -1.3236  2.7969  1.2001
 5049TP3      O26965   5.017   0.023   1.769 -0.4296 -0.1266 -0.1923
 5049TP3     H126966   5.099   0.073   1.772  0.8655 -2.0623 -1.9223
 5049TP3     H226967   4.951   0.083   1.804  1.9683  0.9150  2.8078
 5050TP3      O26968   2.631   2.074   2.486 -0.4122 -1.1138  0.0760
 5050TP3     H126969   2.579   2.027   2.551 -0.3135 -0.9004  0.3055
 5050TP3     H226970   2.722   2.060   2.512 -0.3398 -1.6540 -0.4390
 5051TP3      O26971   1.387   2.854   9.997  0.1561 -0.4295  0.0508
 5051TP3     H126972   1.406   2.912  10.071 -1.1235 -0.7045  0.6100
 5051TP3     H226973   1.310   2.804  10.025  1.9980 -3.3674  0.1403
 5052TP3      O26974   5.501   2.253   7.369 -0.2027  0.0299  0.4200
 5052TP3     H126975   5.567   2.280   7.306  1.7925  0.0915  2.4737
 5052TP3     H226976   5.520   2.161   7.386 -1.7793 -0.4433 -0.3159
 5053TP3      O26977   2.153   2.011   2.708  0.9298 -0.0839  0.1899
 5053TP3     H126978   2.160   2.079   2.641  0.6447 -1.0210 -0.7939
 5053TP3     H226979   2.063   2.018   2.740  0.4448 -1.0045 -0.9794
 5054TP3      O26980   4.361   4.745   2.374 -0.1597  0.5689 -0.1812
 5054TP3     H126981   4.414   4.666   2.386  1.1060  1.6838  1.9275
 5054TP3     H226982   4.272   4.717   2.392  0.4414 -0.1031  1.8354
 5055TP3      O26983   5.381   5.301   2.260  0.1475 -0.2309  0.7387
 5055TP3     H126984   5.355   5.269   2.346 -2.2679 -0.9913 -0.2348
 5055TP3     H226985   5.398   5.222   2.208  1.2976  0.2148  0.4172
 5056TP3      O26986   0.997   1.750  10.039  0.2084  0.0968 -0.6030
 5056TP3     H126987   1.053   1.828  10.036 -0.2062  0.4755  1.0417
 5056TP3     H226988   0.908   1.785  10.039  0.0290 -0.2942  1.6796
 5057TP3      O26989   1.019   4.723   0.721 -0.3812  0.7662  0.8089
 5057TP3     H126990   1.026   4.678   0.805  0.6132 -0.9088 -0.1503
 5057TP3     H226991   0.936   4.693   0.685 -1.1058  1.9615  1.4453
 5058TP3      O26992   5.284   2.698   2.039  0.8199  0.3414  0.2098
 5058TP3     H126993   5.338   2.775   2.024 -0.1501  0.8405 -0.7872
 5058TP3     H226994   5.209   2.710   1.981  0.8381 -1.5300 -0.2367
 5059TP3      O26995   4.331   4.563   0.223  0.2681 -0.1635 -0.2512
 5059TP3     H126996   4.305   4.573   0.131  0.1429 -0.3506 -0.2355
 5059TP3     H226997   4.308   4.473   0.245 -0.4642  0.1327  0.2058
 5060TP3      O26998   0.418   3.637   2.540  0.4200 -0.5108  0.2868
 5060TP3     H126999   0.477   3.610   2.471  0.7035 -1.9734  1.0696
 5060TP3     H227000   0.378   3.555   2.571 -2.3718  0.4645 -0.5347
 5061TP3      O27001   3.786   2.986   3.377 -0.2931 -0.1373 -0.5963
 5061TP3     H127002   3.728   2.931   3.325 -0.7843 -0.0949 -0.1042
 5061TP3     H227003   3.863   2.931   3.393 -0.5843 -0.5207 -0.4950
 5062TP3      O27004   3.844   5.408   0.629 -0.1253 -0.1699 -0.4935
 5062TP3     H127005   3.885   5.350   0.565 -0.2538  0.8708 -1.5408
 5062TP3     H227006   3.774   5.452   0.580 -0.7657  0.0164  0.5829
 5063TP3      O27007   0.935   4.791   2.881 -0.4290  0.2802  0.1302
 5063TP3     H127008   0.906   4.849   2.810  1.1148  0.5689 -0.2910
 5063TP3     H227009   0.945   4.706   2.839  1.5387  0.6927 -0.2586
 5064TP3      O27010   4.802   2.591   1.013 -0.1273 -0.0434 -0.2539
 5064TP3     H127011   4.789   2.574   1.106 -1.4782 -0.2634 -0.4705
 5064TP3     H227012   4.866   2.525   0.985  1.1997  0.8034  0.7746
 5065TP3      O27013   0.020   0.119   2.078  0.4067 -0.4006 -0.2371
 5065TP3     H127014  -0.028   0.190   2.120  0.0515 -0.9820  0.3697
 5065TP3     H227015  -0.047   0.051   2.063  0.7897 -0.7087 -0.5451
 5066TP3      O27016   5.059   0.240   9.671 -0.7289  0.5106  0.1959
 5066TP3     H127017   5.124   0.309   9.659 -1.8005  1.4490 -0.3039
 5066TP3     H227018   5.043   0.239   9.766 -1.3301  1.5348  0.1117
 5067TP3      O27019   4.336   3.532   3.131  0.1330 -0.1014  0.2172
 5067TP3     H127020   4.333   3.624   3.105 -1.1328  0.0843  0.9488
 5067TP3     H227021   4.429   3.510   3.130  0.2981  0.4999 -2.2766
 5068TP3      O27022   2.100   3.479   2.179 -0.7534  0.1854  0.1625
 5068TP3     H127023   2.145   3.423   2.243 -1.0887  0.1738  0.3878
 5068TP3     H227024   2.121   3.439   2.094 -1.0582 -0.3296  0.3267
 5069TP3      O27025   0.374   1.477  10.062 -0.1674  0.0176 -0.2421
 5069TP3     H127026   0.439   1.472  10.131 -0.1559 -0.1967 -0.2686
 5069TP3     H227027   0.405   1.417   9.994 -1.4942 -1.7376  0.6580
 5070TP3      O27028   3.645   3.437   2.648 -0.1304 -0.3141  0.4795
 5070TP3     H127029   3.723   3.383   2.638  0.5396  0.7395 -0.1650
 5070TP3     H227030   3.679   3.525   2.667 -1.1825 -0.0435  1.1702
 5071TP3      O27031   4.150   1.896   3.030  0.6095  0.2924  0.9805
 5071TP3     H127032   4.217   1.963   3.038  1.4380 -0.5138  0.8610
 5071TP3     H227033   4.198   1.814   3.017 -0.4008 -0.2429  0.4987
 5072TP3      O27034   4.141   3.325   0.022  0.0085 -0.3074 -0.3813
 5072TP3     H127035   4.057   3.280   0.021 -0.8498  1.2562 -0.9653
 5072TP3     H227036   4.119   3.417   0.011  1.8741  0.0036 -1.8440
 5073TP3      O27037   3.853   4.688  10.238 -0.5554  0.1704  0.0975
 5073TP3     H127038   3.946   4.703  10.257 -0.2471  0.2210 -1.3707
 5073TP3     H227039   3.853   4.655  10.148 -2.0535  1.1625 -0.2692
 5074TP3      O27040   0.173   3.426   3.172  0.1913  0.1071  0.5442
 5074TP3     H127041   0.082   3.443   3.146  0.6542 -0.3998 -1.5257
 5074TP3     H227042   0.199   3.351   3.119  1.8573  0.3037  1.0608
 5075TP3      O27043   2.965   3.128   1.687 -0.0594  0.2415  0.4749
 5075TP3     H127044   3.041   3.126   1.746  1.4442  1.5048 -1.3779
 5075TP3     H227045   2.976   3.050   1.633 -0.2729  0.2440  0.4300
 5076TP3      O27046   4.297   0.833   9.621  0.4167  0.3108  0.3466
 5076TP3     H127047   4.315   0.833   9.715 -0.9356  0.9128  0.6157
 5076TP3     H227048   4.308   0.925   9.595  0.0161  0.2750  0.0596
 5077TP3      O27049   2.727   4.508   1.955 -0.1118  0.4304 -0.4563
 5077TP3     H127050   2.695   4.590   1.992 -0.9720  0.5899 -1.5329
 5077TP3     H227051   2.662   4.442   1.983  1.0619 -0.0760  1.1874
 5078TP3      O27052   0.621   5.110   0.479 -0.0094 -0.1207  1.0209
 5078TP3     H127053   0.654   5.200   0.468  0.5025 -0.3855  0.3690
 5078TP3     H227054   0.559   5.116   0.552  0.6549  0.5992  1.5303
 5079TP3      O27055   3.951   1.147   1.477 -0.1555  0.7434  0.2902
 5079TP3     H127056   3.980   1.109   1.394 -0.6391 -0.8122  0.8051
 5079TP3     H227057   3.942   1.071   1.535  1.2999  1.9428  2.1027
 5080TP3      O27058   5.109   0.619   1.090  0.3891 -0.2471  0.2378
 5080TP3     H127059   5.068   0.666   1.016  0.5087 -0.0658  0.2858
 5080TP3     H227060   5.159   0.686   1.135  2.1411 -0.8127 -0.8201
 5081TP3      O27061   1.206   0.534   1.187 -0.1820 -0.4997  0.2980
 5081TP3     H127062   1.165   0.497   1.108 -1.0942 -0.2711  0.6523
 5081TP3     H227063   1.300   0.527   1.171 -0.3378 -2.4699  0.1249
 5082TP3      O27064   4.643   3.016   2.026 -0.3377  0.5069 -0.4591
 5082TP3     H127065   4.732   3.018   2.061 -0.2813 -0.9196 -0.4755
 5082TP3     H227066   4.634   3.098   1.978  1.1152  0.4781 -0.8059
 5083TP3      O27067   3.263   2.600   2.381 -0.2113  0.1090  0.0463
 5083TP3     H127068   3.258   2.693   2.401  0.2720  0.2563 -0.5145
 5083TP3     H227069   3.179   2.580   2.339 -0.1973  0.3595 -0.1031
 5084TP3      O27070   4.566   2.172   3.040  0.5471  0.2150  0.0287
 5084TP3     H127071   4.498   2.162   3.106  2.1020 -0.6239  1.5437
 5084TP3     H227072   4.607   2.256   3.061  1.6399 -0.4744  0.7401
 5085TP3      O27073   3.594   1.875   2.212 -0.2501  0.0997  0.0587
 5085TP3     H127074   3.582   1.943   2.146 -0.0409  0.9771  0.9112
 5085TP3     H227075   3.676   1.832   2.187  1.2792  2.2232  1.2699
 5086TP3      O27076   3.846   1.305   3.097  0.1645  0.2924  0.0950
 5086TP3     H127077   3.760   1.269   3.117  1.2319 -1.1716  2.3098
 5086TP3     H227078   3.896   1.230   3.065  1.3757  0.4973  1.4092
 5087TP3      O27079   2.897   1.463   2.288  0.1079 -0.4455 -0.2299
 5087TP3     H127080   2.813   1.433   2.323 -0.9639  2.3430 -0.3098
 5087TP3     H227081   2.956   1.388   2.301 -2.2676 -2.3113  0.1741
 5088TP3      O27082   4.730   1.809   3.326 -0.1022 -0.0431  0.0618
 5088TP3     H127083   4.694   1.898   3.336  0.2346  0.2808 -1.4998
 5088TP3     H227084   4.662   1.752   3.362 -0.7851  0.7730  0.0875
 5089TP3      O27085   0.424   2.092   0.558 -0.5134 -0.5761  0.2691
 5089TP3     H127086   0.403   2.140   0.478  1.0530 -0.8104 -0.3054
 5089TP3     H227087   0.356   2.026   0.566  0.1680 -1.5562 -1.7276
 5090TP3      O27088   0.538   4.198  10.120  0.2741 -0.1263  0.2364
 5090TP3     H127089   0.524   4.194  10.026  2.8124  1.7712 -0.2637
 5090TP3     H227090   0.506   4.285  10.145  2.2754  0.5159  0.6290
 5091TP3      O27091   2.312   2.668   2.388  0.6924 -0.1807  0.2471
 5091TP3     H127092   2.283   2.723   2.460  1.8666  0.7683  0.0050
 5091TP3     H227093   2.404   2.649   2.407  0.4879 -1.5115 -0.0144
 5092TP3      O27094   5.059   3.152   1.773  0.2365 -0.2508 -0.2212
 5092TP3     H127095   5.082   3.085   1.709 -0.8979  0.9503 -1.9206
 5092TP3     H227096   5.110   3.129   1.851  0.9540 -2.2424 -1.2445
 5093TP3      O27097   5.407   2.439   0.467 -0.9284  0.0128 -0.2241
 5093TP3     H127098   5.448   2.517   0.431 -1.4130  0.7442  0.7761
 5093TP3     H227099   5.480   2.388   0.504 -0.6706  0.2517 -0.4054
 5094TP3      O27100   4.518   1.672   1.385  1.1463 -0.6086  0.4206
 5094TP3     H127101   4.557   1.600   1.335  0.6136 -0.5375 -0.1019
 5094TP3     H227102   4.482   1.630   1.463 -1.8466 -1.4172 -1.2966
 5095TP3      O27103   5.459   3.312   2.448 -0.1755  0.3132 -0.2264
 5095TP3     H127104   5.504   3.387   2.487  2.0807  0.7040 -3.4201
 5095TP3     H227105   5.378   3.349   2.412 -0.1404  0.7661  0.1527
 5096TP3      O27106   2.105   2.786   0.446  0.3895  0.1076 -0.4470
 5096TP3     H127107   2.063   2.824   0.369 -1.2372 -0.4925  0.1315
 5096TP3     H227108   2.137   2.861   0.495 -1.1404  0.6611 -0.2634
 5097TP3      O27109   4.299   2.120   8.548  0.1567  0.2270 -0.5395
 5097TP3     H127110   4.224   2.150   8.599  1.2768  1.0941  0.6006
 5097TP3     H227111   4.264   2.108   8.459 -2.1144 -2.4979  0.6429
 5098TP3      O27112   0.444   3.614   0.108  0.1942 -0.6651 -0.5557
 5098TP3     H127113   0.521   3.668   0.087 -0.4260  0.9224  1.1362
 5098TP3     H227114   0.464   3.529   0.070  2.1003  0.1758 -1.5206
 5099TP3      O27115   0.034   4.023   2.575 -0.3862 -0.0006 -0.4618
 5099TP3     H127116   0.025   4.084   2.501  0.2938 -0.1704 -0.6903
 5099TP3     H227117   0.093   3.954   2.542  2.2275  1.3848  1.1478
 5100TP3      O27118   1.208   3.731   9.843 -0.0588  0.3639 -0.1803
 5100TP3     H127119   1.225   3.770   9.929 -1.1443 -0.2717  0.3253
 5100TP3     H227120   1.123   3.766   9.817  0.4114  0.8059 -1.1526
 5101TP3      O27121   4.675   3.824   1.136  1.0516 -0.3023  0.5158
 5101TP3     H127122   4.695   3.808   1.044  2.0944 -1.1143  0.8699
 5101TP3     H227123   4.678   3.737   1.176  1.8983  0.1947  1.5540
 5102TP3      O27124   3.324   1.903   0.774 -0.0851  0.0037  0.3578
 5102TP3     H127125   3.275   1.861   0.845  0.1205 -1.5177 -0.3871
 5102TP3     H227126   3.375   1.833   0.735 -1.6908  0.3868 -2.5677
 5103TP3      O27127   5.182   0.738   1.345 -0.1405 -0.2011 -0.1367
 5103TP3     H127128   5.161   0.723   1.437 -0.7736  0.1346 -0.2243
 5103TP3     H227129   5.277   0.747   1.343 -0.1757  0.3115  0.5605
 5104TP3      O27130   0.780   1.502   0.812 -0.1202 -0.6427 -0.1071
 5104TP3     H127131   0.825   1.470   0.734  0.8386 -0.4615  0.3673
 5104TP3     H227132   0.691   1.520   0.782  0.4423  0.1413 -1.3403
 5105TP3      O27133   5.443   2.345   3.260 -0.6252  0.3525 -0.6598
 5105TP3     H127134   5.526   2.383   3.289  0.0416 -1.6616  0.1674
 5105TP3     H227135   5.447   2.348   3.164 -0.6060  2.3498 -0.6114
 5106TP3      O27136   0.727   1.497   2.835  0.4188  0.2571  0.3180
 5106TP3     H127137   0.673   1.422   2.857 -0.8075  0.9362 -0.3045
 5106TP3     H227138   0.798   1.495   2.899  0.2104 -1.2193  0.5211
 5107TP3      O27139   4.349   0.460   2.503 -0.0514  0.1125  0.2197
 5107TP3     H127140   4.404   0.382   2.497  0.2405  0.3671 -0.3845
 5107TP3     H227141   4.393   0.516   2.567  2.1162  1.7100 -2.5810
 5108TP3      O27142   5.463   3.369   2.810  0.4131  0.4282  0.0024
 5108TP3     H127143   5.372   3.391   2.789  0.4079  0.4575  0.0539
 5108TP3     H227144   5.469   3.383   2.904  0.0779 -0.9785  0.2473
 5109TP3      O27145   4.002   2.648   2.142 -0.1760  0.2372  0.1104
 5109TP3     H127146   4.002   2.664   2.047  2.9102 -0.1169  0.0007
 5109TP3     H227147   4.022   2.733   2.181 -0.1765  0.1049  0.3982
 5110TP3      O27148   3.953   2.074   2.574 -0.0586 -0.5604  0.0519
 5110TP3     H127149   4.043   2.076   2.607 -0.6280 -1.2090  1.6902
 5110TP3     H227150   3.918   1.990   2.604 -1.6526  0.3034  0.6812
 5111TP3      O27151   4.046   2.035   1.184 -0.0969  0.1425  0.4496
 5111TP3     H127152   3.957   2.006   1.202  0.2112 -0.2894  1.2922
 5111TP3     H227153   4.037   2.129   1.165 -0.7886 -0.0010  0.0503
 5112TP3      O27154   1.954   4.702   1.347  0.4426 -0.2400  0.8812
 5112TP3     H127155   1.869   4.691   1.305  0.4105 -1.3275  1.2255
 5112TP3     H227156   1.976   4.616   1.381  1.5525  0.0965  1.0562
 5113TP3      O27157   0.189   4.956   2.116  0.2530 -0.1191 -0.4449
 5113TP3     H127158   0.282   4.957   2.141 -0.4559  0.8888  2.3861
 5113TP3     H227159   0.150   4.890   2.174 -1.3225  1.6245  0.4995
 5114TP3      O27160   2.328   2.025   1.347 -0.1716 -0.0006  0.0953
 5114TP3     H127161   2.412   2.043   1.387 -0.5286  0.4504  0.6489
 5114TP3     H227162   2.301   1.940   1.383 -0.3383  0.2483  0.5606
 5115TP3      O27163   3.860   4.170  10.231 -0.6848 -0.2359  0.3296
 5115TP3     H127164   3.907   4.217  10.300 -1.5973  0.0644  0.7469
 5115TP3     H227165   3.925   4.108  10.197 -0.7635 -1.7041  2.7332
 5116TP3      O27166   0.117   2.486   2.531  0.1919  0.1842 -0.0108
 5116TP3     H127167   0.149   2.569   2.496  1.8821  0.5786  2.3078
 5116TP3     H227168   0.180   2.421   2.500 -0.5299 -0.0710 -0.9465
 5117TP3      O27169   3.885   2.673   2.887  0.1133  0.5057  0.3253
 5117TP3     H127170   3.918   2.587   2.861 -0.4663  0.6714 -1.0096
 5117TP3     H227171   3.914   2.683   2.977 -1.1385 -1.7762  1.0425
 5118TP3      O27172   3.946   1.816   8.507 -0.1703  0.0175 -0.0536
 5118TP3     H127173   3.889   1.873   8.456  0.7491  2.5376  1.6527
 5118TP3     H227174   3.887   1.771   8.567 -0.7144  0.3496 -0.3324
 5119TP3      O27175   5.421   3.444   1.708  0.0038 -0.2140 -0.0783
 5119TP3     H127176   5.378   3.476   1.629  1.2099 -0.0341 -0.6786
 5119TP3     H227177   5.490   3.385   1.676 -0.4249 -1.2834  0.8976
 5120TP3      O27178   2.100   2.850   2.537  0.3271  0.7308  0.1994
 5120TP3     H127179   2.147   2.856   2.620  0.9783  1.2637 -0.2055
 5120TP3     H227180   2.019   2.804   2.558  0.3232  1.1930  1.2032
 5121TP3      O27181   2.318   5.265  10.126  0.5639 -0.8699  0.3531
 5121TP3     H127182   2.314   5.346  10.076 -0.1316 -0.5232  0.9515
 5121TP3     H227183   2.311   5.196  10.060 -0.1323 -0.4230 -0.0517
 5122TP3      O27184   4.725   0.287   0.981 -0.6100 -0.2844 -0.2327
 5122TP3     H127185   4.663   0.215   0.967  0.3672 -0.9372 -1.2503
 5122TP3     H227186   4.670   0.366   0.982 -1.7014 -1.0356  0.9963
 5123TP3      O27187   2.202   1.696   1.946 -0.0819 -0.1842 -0.5602
 5123TP3     H127188   2.193   1.700   2.041 -3.0247 -0.1144 -0.7961
 5123TP3     H227189   2.190   1.603   1.925 -0.2648 -0.0777 -0.9325
 5124TP3      O27190   1.072   2.822   1.553 -0.6370  0.3620 -0.1350
 5124TP3     H127191   1.093   2.737   1.513 -0.5116  0.7634 -0.9409
 5124TP3     H227192   0.978   2.816   1.573 -0.3867 -0.3764  0.8376
 5125TP3      O27193   5.193   0.726   1.608 -0.0227  0.2756 -0.4231
 5125TP3     H127194   5.188   0.631   1.607 -2.9298  0.3605 -3.1581
 5125TP3     H227195   5.156   0.751   1.692  0.4049 -0.9920  0.1518
 5126TP3      O27196   4.885   0.486   9.944  0.3096  0.4879  0.2859
 5126TP3     H127197   4.926   0.572   9.942  0.5375  0.3523 -1.4237
 5126TP3     H227198   4.810   0.494   9.885  0.6158 -0.6252 -0.2587
 5127TP3      O27199   5.296   0.089   1.764 -0.2414  0.0489  0.3412
 5127TP3     H127200   5.336   0.140   1.835  2.0147 -1.3764  0.1463
 5127TP3     H227201   5.346   0.115   1.686 -0.7866 -0.5497 -0.2074
 5128TP3      O27202   4.034   0.386   1.108 -0.0451 -0.0899  0.3723
 5128TP3     H127203   4.008   0.393   1.016 -0.5668  0.4363  0.5562
 5128TP3     H227204   4.094   0.311   1.111  0.8242  0.5656 -0.5801
 5129TP3      O27205   1.259   2.310   2.863  0.0865  0.1162  0.0186
 5129TP3     H127206   1.182   2.335   2.915  1.0558  0.5101  1.2991
 5129TP3     H227207   1.223   2.275   2.782 -1.4199  1.7061 -0.0414
 5130TP3      O27208   1.218   4.277   2.034 -0.3837 -0.1180  0.7972
 5130TP3     H127209   1.274   4.228   2.095 -0.7195 -1.7068 -0.1449
 5130TP3     H227210   1.278   4.305   1.965 -0.5241 -0.6884  0.4505
 5131TP3      O27211   3.326   3.601   2.084  0.6362  0.3669 -0.1060
 5131TP3     H127212   3.300   3.511   2.066  2.0719  0.3236 -2.1315
 5131TP3     H227213   3.322   3.608   2.180 -3.1363 -0.6793 -0.1082
 5132TP3      O27214   4.667   0.353   1.815 -0.3150 -0.4689 -0.0282
 5132TP3     H127215   4.732   0.287   1.792  1.0473 -0.3772  3.3683
 5132TP3     H227216   4.634   0.327   1.901 -2.2643  1.3882 -0.1524
 5133TP3      O27217   5.191   3.378   2.361  0.1414  0.1944 -0.3767
 5133TP3     H127218   5.102   3.373   2.396  0.0582  0.8358 -0.5010
 5133TP3     H227219   5.195   3.307   2.297  0.0241 -0.4411  0.3148
 5134TP3      O27220   3.702   3.507  10.292 -0.0263  0.1575 -0.0386
 5134TP3     H127221   3.791   3.524  10.321  0.1529  0.9692 -1.0460
 5134TP3     H227222   3.705   3.520  10.197 -1.0094 -0.6890 -0.1859
 5135TP3      O27223   2.457   4.433   1.582  0.0289  0.6932  0.0747
 5135TP3     H127224   2.513   4.452   1.507  0.6725 -0.2863  0.2978
 5135TP3     H227225   2.418   4.518   1.605 -0.4971  0.9184 -1.6102
 5136TP3      O27226   2.641   4.416   1.056  0.0055  0.7662 -0.2466
 5136TP3     H127227   2.592   4.432   1.136 -1.0067  0.5907 -0.8160
 5136TP3     H227228   2.724   4.377   1.085 -0.2508  0.9407  0.7167
 5137TP3      O27229   4.709   1.990   2.425  0.8023 -0.0024 -0.5952
 5137TP3     H127230   4.774   2.061   2.428  0.4333  0.3009  0.4456
 5137TP3     H227231   4.752   1.917   2.468  0.4762  0.1866  0.0602
 5138TP3      O27232   3.059   2.249   1.578 -0.1386 -0.5655  0.0017
 5138TP3     H127233   3.040   2.185   1.647  0.1027  1.9429  2.4813
 5138TP3     H227234   3.151   2.271   1.590 -1.0856  2.8859  1.5577
 5139TP3      O27235   0.450   0.985   3.107  0.0554  0.1967 -0.3918
 5139TP3     H127236   0.505   1.063   3.115 -0.8380  0.8724 -0.7229
 5139TP3     H227237   0.389   0.991   3.180  0.1851 -0.3605 -0.2360
 5140TP3      O27238   0.826   2.536   2.830  0.1233 -0.1353 -0.1088
 5140TP3     H127239   0.853   2.545   2.739 -0.9857  0.3478 -0.4062
 5140TP3     H227240   0.896   2.487   2.872  1.0764  0.4404 -1.0118
 5141TP3      O27241   5.479   2.009   1.794  0.4934 -0.4924  0.9758
 5141TP3     H127242   5.540   2.082   1.800  0.5942 -0.3040 -1.8520
 5141TP3     H227243   5.401   2.046   1.753 -0.1417 -1.5733  1.1941
 5142TP3      O27244   2.170   0.034   9.654  0.3367  0.4537 -0.1867
 5142TP3     H127245   2.261   0.059   9.638  1.2283 -2.6228 -0.2595
 5142TP3     H227246   2.143  -0.011   9.574 -0.7457 -0.0013  0.4211
 5143TP3      O27247   0.958   0.898   1.745 -0.3252  0.0016 -0.2150
 5143TP3     H127248   0.904   0.972   1.716 -3.0292 -1.3516  1.2317
 5143TP3     H227249   0.981   0.920   1.835 -1.5851 -1.1235  0.3996
 5144TP3      O27250   2.188   5.324   2.549 -0.4725  0.0161  0.4405
 5144TP3     H127251   2.145   5.249   2.590  2.0775 -1.0442  1.3203
 5144TP3     H227252   2.165   5.398   2.606 -1.1601 -0.5176  0.8664
 5145TP3      O27253   3.712   1.770   8.172 -0.2070 -0.3754 -0.0641
 5145TP3     H127254   3.674   1.813   8.248 -0.1884 -1.5099  0.5984
 5145TP3     H227255   3.787   1.722   8.207 -0.1529 -0.8460 -0.8101
 5146TP3      O27256   0.815   1.921   1.074 -0.0821  0.5570 -0.3769
 5146TP3     H127257   0.836   1.827   1.078  0.3947  0.6564 -0.5836
 5146TP3     H227258   0.877   1.957   1.012 -1.1886  0.7595 -1.3899
 5147TP3      O27259   5.316   1.519   0.330 -0.3752  0.3960 -0.5738
 5147TP3     H127260   5.409   1.536   0.336 -0.2246 -0.1433 -1.2161
 5147TP3     H227261   5.276   1.604   0.312  0.2092  0.3128 -2.3536
 5148TP3      O27262   5.137   0.806   2.731 -0.3894 -0.0216 -0.0631
 5148TP3     H127263   5.158   0.846   2.816  1.6164  0.3696 -0.7097
 5148TP3     H227264   5.156   0.875   2.667  0.7779 -1.2170 -1.0224
 5149TP3      O27265   4.434   3.544   1.359 -0.1104  0.2887  0.1650
 5149TP3     H127266   4.399   3.469   1.311 -1.1191  1.2581 -0.6151
 5149TP3     H227267   4.398   3.535   1.448  0.7256 -0.7950  0.4001
 5150TP3      O27268   1.505   4.727   0.182  0.8003 -0.3810  0.0184
 5150TP3     H127269   1.518   4.649   0.129  0.1460  0.3710 -1.2644
 5150TP3     H227270   1.588   4.738   0.229  0.6309 -2.2533  0.7747
 5151TP3      O27271   4.011   2.493   0.325  0.2577  0.3122 -0.1193
 5151TP3     H127272   3.958   2.572   0.322 -0.9775 -0.5081 -0.7352
 5151TP3     H227273   4.098   2.521   0.296 -0.3706  1.2884 -1.1153
 5152TP3      O27274   2.328   4.211   1.310 -0.5032 -0.2788 -0.3748
 5152TP3     H127275   2.319   4.301   1.278  0.8907 -0.1490 -0.4234
 5152TP3     H227276   2.328   4.157   1.231  0.2079 -0.1889 -0.4371
 5153TP3      O27277   2.412   3.219   9.476  0.6079  0.4257  0.7580
 5153TP3     H127278   2.391   3.271   9.399 -2.1859  0.5045  1.5016
 5153TP3     H227279   2.391   3.129   9.451  0.9600  0.2688  1.0106
 5154TP3      O27280   0.010   4.833   1.332  0.6805  0.3690  0.0128
 5154TP3     H127281   0.068   4.798   1.399  0.9992  0.6791 -0.0989
 5154TP3     H227282   0.036   4.788   1.252  1.2706  1.0491 -0.1835
 5155TP3      O27283   3.247   1.278   0.740  0.0537 -0.4331 -0.0406
 5155TP3     H127284   3.241   1.292   0.646 -1.9568 -2.6851 -0.2793
 5155TP3     H227285   3.194   1.200   0.757 -1.0608  0.9405  3.1997
 5156TP3      O27286   1.446   2.270   0.508 -0.0842  0.0946 -0.1729
 5156TP3     H127287   1.358   2.237   0.525  0.8007 -2.2947 -0.1461
 5156TP3     H227288   1.479   2.218   0.435  0.9369  1.6810 -0.8868
 5157TP3      O27289   1.774   3.175   1.177 -0.0494 -0.0115  0.2386
 5157TP3     H127290   1.729   3.092   1.190  0.1404  0.2135  2.5089
 5157TP3     H227291   1.866   3.156   1.197 -0.0432  0.7929  0.9985
 5158TP3      O27292   1.760   1.145   1.180  0.2709  0.3636 -0.4877
 5158TP3     H127293   1.744   1.227   1.132  1.5333  0.8522 -0.0897
 5158TP3     H227294   1.754   1.077   1.113  0.8234  0.9321 -1.1294
 5159TP3      O27295   5.268   5.363   1.840  0.1823 -0.1334  0.2317
 5159TP3     H127296   5.203   5.329   1.779  0.9044 -0.4199 -0.3759
 5159TP3     H227297   5.287   5.451   1.808  1.4642 -0.7288 -0.6801
 5160TP3      O27298   1.268   2.865   1.298  0.0401 -0.1721 -0.0947
 5160TP3     H127299   1.326   2.922   1.248  0.4823 -1.4197 -1.0082
 5160TP3     H227300   1.189   2.918   1.311  0.7246  0.9149 -0.2892
 5161TP3      O27301   3.213   4.906   2.975 -0.5212 -0.1121  0.0961
 5161TP3     H127302   3.253   4.916   3.061 -1.2996  0.7777  0.3693
 5161TP3     H227303   3.276   4.854   2.924  1.4001  2.0280  0.2150
 5162TP3      O27304   0.204   5.492   1.423  0.6342 -0.2059  0.3154
 5162TP3     H127305   0.193   5.534   1.338 -1.9915  0.4424  0.9390
 5162TP3     H227306   0.273   5.427   1.408 -0.8498 -1.2011 -2.7070
 5163TP3      O27307   5.223   0.846   3.238  0.4431 -0.2961 -0.4685
 5163TP3     H127308   5.179   0.762   3.252  0.5425 -0.3318 -0.3707
 5163TP3     H227309   5.161   0.911   3.271  0.8666 -0.4116  0.5529
 5164TP3      O27310   1.593   3.474   9.880  0.2290 -0.2208 -0.2635
 5164TP3     H127311   1.680   3.433   9.882  0.4427  0.2588  0.1816
 5164TP3     H227312   1.550   3.444   9.960  0.6644  1.0295  0.4494
 5165TP3      O27313   5.157   2.983   1.029  0.2976 -0.3052  0.4622
 5165TP3     H127314   5.064   2.991   1.006  0.3061 -0.3863  0.3933
 5165TP3     H227315   5.183   2.898   0.992  1.1332  1.0043 -2.1056
 5166TP3      O27316   3.167   3.945   2.556 -0.6223  0.0674  0.1064
 5166TP3     H127317   3.108   4.012   2.589  0.6916  0.9838  0.6420
 5166TP3     H227318   3.219   3.918   2.632 -0.2297 -0.5879 -0.3820
 5167TP3      O27319   1.345   4.115   1.338 -0.0254  0.3062  0.4297
 5167TP3     H127320   1.429   4.104   1.382  0.5148 -0.6882 -0.8264
 5167TP3     H227321   1.280   4.103   1.408  0.8112 -1.6765  0.9040
 5168TP3      O27322   4.933   3.067   0.865 -0.2049  0.0620 -0.5923
 5168TP3     H127323   4.853   3.089   0.913 -0.1896 -2.3893  0.6487
 5168TP3     H227324   4.902   3.030   0.783 -0.3811 -1.1398  0.0017
 5169TP3      O27325   2.369   0.024   2.636 -0.1170  0.0520 -0.1976
 5169TP3     H127326   2.284   0.041   2.676 -0.1833  1.0816 -0.7466
 5169TP3     H227327   2.387  -0.067   2.656 -0.8981  0.0951  0.7697
 5170TP3      O27328   4.488   3.987   2.403  0.0143 -0.0591 -0.7729
 5170TP3     H127329   4.419   4.041   2.364 -0.1791 -0.3791 -0.8780
 5170TP3     H227330   4.515   4.035   2.481 -1.3382 -0.6297  0.0661
 5171TP3      O27331   1.474   0.524   1.106  0.1506  0.9553  0.0560
 5171TP3     H127332   1.449   0.530   1.013  1.2872  1.6462 -0.2193
 5171TP3     H227333   1.523   0.442   1.111  1.0722  1.4795 -0.2061
 5172TP3      O27334   5.310   3.494   1.947  0.3917 -0.1153  0.1236
 5172TP3     H127335   5.341   3.477   1.858  0.1991  0.1949 -0.0048
 5172TP3     H227336   5.242   3.429   1.962 -0.0434  0.2661 -0.2041
 5173TP3      O27337   0.087   0.533   8.887  0.1557  0.3788  0.0755
 5173TP3     H127338   0.070   0.468   8.819 -0.2549  1.9424 -1.3569
 5173TP3     H227339   0.113   0.482   8.964  0.2939 -1.4306 -1.1548
 5174TP3      O27340   1.028   4.492   3.411 -0.0526 -0.1053 -0.2627
 5174TP3     H127341   1.040   4.534   3.496 -4.4708  0.5781  0.1137
 5174TP3     H227342   1.036   4.398   3.429 -3.5056 -0.1139  1.4381
 5175TP3      O27343   1.028   3.496   2.229  0.2965 -0.2835  0.1046
 5175TP3     H127344   1.123   3.494   2.243  0.3027  0.3934  0.2179
 5175TP3     H227345   0.995   3.420   2.277  0.7268 -0.2036  0.5373
 5176TP3      O27346   4.055   3.342   2.603 -0.1371  0.2550 -0.2900
 5176TP3     H127347   4.084   3.264   2.557  0.0233  0.3145 -0.2916
 5176TP3     H227348   3.975   3.369   2.557  0.3812  0.6918 -0.9587
 5177TP3      O27349   1.626   4.987   0.346  0.5925 -0.7445  0.3510
 5177TP3     H127350   1.673   5.031   0.276  1.3099 -0.7666  0.8193
 5177TP3     H227351   1.534   4.990   0.318  0.6378  0.9671  0.3261
 5178TP3      O27352   4.627   1.581   2.600 -0.2088  0.1203  0.4595
 5178TP3     H127353   4.695   1.631   2.556 -1.7633  0.5938 -1.5276
 5178TP3     H227354   4.625   1.615   2.689  0.7062  1.6011 -0.0659
 5179TP3      O27355   0.011   0.113   3.014 -0.0383  0.2847  0.5028
 5179TP3     H127356  -0.048   0.110   3.089 -0.4929  2.3440  0.2650
 5179TP3     H227357   0.097   0.134   3.052  0.4425 -1.9449  0.7617
 5180TP3      O27358   2.688   4.781   2.575 -0.2290  0.7847 -0.0081
 5180TP3     H127359   2.694   4.715   2.506 -3.2554  0.4057  0.0450
 5180TP3     H227360   2.634   4.851   2.537 -0.8540  1.1495  1.5014
 5181TP3      O27361   0.182   4.473   0.672 -0.4195 -0.5913  0.3457
 5181TP3     H127362   0.207   4.504   0.759  1.1790 -1.1920  0.1281
 5181TP3     H227363   0.260   4.490   0.618 -1.6098  0.3453 -1.1181
 5182TP3      O27364   1.694   0.932   2.216 -0.0612  0.3472 -0.3194
 5182TP3     H127365   1.709   1.021   2.249 -0.4931  0.4138 -0.2945
 5182TP3     H227366   1.640   0.945   2.138  0.3703  0.1441 -0.6551
 5183TP3      O27367   0.010   4.705   3.375  0.1151 -0.3629  0.1318
 5183TP3     H127368  -0.009   4.796   3.349 -0.7251 -0.4462  0.4498
 5183TP3     H227369   0.096   4.687   3.337  0.0652  0.4054 -0.3543
 5184TP3      O27370   0.905   5.344   2.300  0.0557  0.1247 -0.5528
 5184TP3     H127371   0.951   5.271   2.258  1.3383  0.5654  0.0350
 5184TP3     H227372   0.946   5.351   2.386 -1.4630  0.2392  0.1774
 5185TP3      O27373   0.954   4.508   2.741 -0.0405  0.0114 -0.7189
 5185TP3     H127374   1.043   4.524   2.710 -0.1146  2.5651  0.2674
 5185TP3     H227375   0.965   4.455   2.820  0.7857  2.2044  0.6803
 5186TP3      O27376   3.938   4.015   9.290 -0.2753 -0.2907  0.1448
 5186TP3     H127377   3.915   3.999   9.381  1.4042  0.6134  0.7494
 5186TP3     H227378   4.034   4.014   9.289 -0.2685 -0.0377 -1.5625
 5187TP3      O27379   2.578   3.269   0.941  0.2580 -0.1065  0.6376
 5187TP3     H127380   2.601   3.360   0.925 -2.2716  0.0064 -2.8125
 5187TP3     H227381   2.485   3.271   0.962 -0.2885 -2.0780 -1.4560
 5188TP3      O27382   2.493   5.383   2.917  0.1129 -0.2588  0.3299
 5188TP3     H127383   2.514   5.300   2.873  1.8136  0.5503 -0.4238
 5188TP3     H227384   2.494   5.361   3.010  0.8963 -1.0163  0.1479
 5189TP3      O27385   2.708   5.006   0.436  0.3393  0.4096  0.2259
 5189TP3     H127386   2.724   4.969   0.349  0.1125 -0.5697  0.5891
 5189TP3     H227387   2.680   4.931   0.489  0.8790  0.9149  1.2506
 5190TP3      O27388   1.811   5.423   2.757  0.0905  0.4866  0.0081
 5190TP3     H127389   1.841   5.383   2.839 -0.5174 -0.6709 -0.3210
 5190TP3     H227390   1.749   5.491   2.784  1.3822  1.4491  0.5894
 5191TP3      O27391   5.025   3.079   9.572 -0.1229  0.1877  0.0522
 5191TP3     H127392   4.967   3.147   9.538 -0.5525  0.1857  0.7864
 5191TP3     H227393   5.005   3.002   9.518 -0.2204  0.4102 -0.2309
 5192TP3      O27394   5.395   0.493   8.645  0.2091 -0.2690 -0.2353
 5192TP3     H127395   5.351   0.413   8.674  0.7862  0.1883  2.0053
 5192TP3     H227396   5.488   0.478   8.664  0.0623  1.8374  2.6069
 5193TP3      O27397   2.225   5.157   2.951  0.4143  0.1810 -0.3091
 5193TP3     H127398   2.198   5.101   2.878  0.7187  0.6410 -0.7761
 5193TP3     H227399   2.309   5.121   2.979 -0.4159 -0.9320  0.8081
 5194TP3      O27400   1.685   4.707   3.137  0.1443  0.3975  0.2110
 5194TP3     H127401   1.664   4.622   3.098 -1.8569  0.9584 -0.0035
 5194TP3     H227402   1.779   4.702   3.157  0.0017 -1.9398  0.4288
 5195TP3      O27403   0.407   1.056   9.684 -0.0477 -0.0200  0.1789
 5195TP3     H127404   0.362   1.007   9.616  0.3426 -0.6300  0.3499
 5195TP3     H227405   0.481   1.000   9.708  0.1064  0.4217  0.7412
 5196TP3      O27406   5.248   4.151   1.404  0.2148 -0.1421 -0.0772
 5196TP3     H127407   5.332   4.118   1.438  0.1146  1.2486  1.5466
 5196TP3     H227408   5.185   4.083   1.428  0.2861  0.4413  1.8188
 5197TP3      O27409   1.821   3.900   1.213  0.1148  0.3871  0.0646
 5197TP3     H127410   1.765   3.829   1.244  0.4109 -0.4738 -1.3048
 5197TP3     H227411   1.772   3.939   1.140  1.1557 -0.2016 -0.9693
 5198TP3      O27412   0.965   2.900   0.238 -0.7117 -0.1124 -0.0156
 5198TP3     H127413   1.032   2.879   0.173  0.9308  0.0849  1.5744
 5198TP3     H227414   0.974   2.994   0.253 -0.8966 -0.2054  0.6944
 5199TP3      O27415   0.135   1.319   1.312  0.0527 -0.1597  0.6627
 5199TP3     H127416   0.121   1.391   1.375 -0.6632 -2.2296  2.9670
 5199TP3     H227417   0.178   1.251   1.364  0.6705 -1.4260 -1.4749
 5200TP3      O27418   0.452   5.006   2.553  0.3217 -0.1559  0.0117
 5200TP3     H127419   0.453   4.982   2.460  0.3709  0.6376 -0.1988
 5200TP3     H227420   0.492   4.931   2.597 -0.9917 -1.1542 -0.4590
 5201TP3      O27421   5.265   0.777  10.282  0.5914 -0.7646 -0.4241
 5201TP3     H127422   5.173   0.766  10.260  0.6172 -1.7422 -0.0712
 5201TP3     H227423   5.287   0.864  10.250 -0.5871 -0.3190 -0.0499
 5202TP3      O27424   0.589   4.094   3.113  0.5792 -0.3654  0.3449
 5202TP3     H127425   0.605   4.178   3.156  0.2658 -0.1037 -0.0439
 5202TP3     H227426   0.640   4.098   3.032  1.8591 -1.2020  1.0813
 5203TP3      O27427   0.211   4.401   1.247 -0.5639 -0.0455  0.2778
 5203TP3     H127428   0.210   4.497   1.249  1.7239 -0.0020  0.3638
 5203TP3     H227429   0.175   4.378   1.162 -0.0059  0.9229 -0.2160
 5204TP3      O27430   1.206   0.304   2.106  1.0593 -0.0447 -0.0484
 5204TP3     H127431   1.119   0.343   2.094  1.9206  2.3839  1.4469
 5204TP3     H227432   1.219   0.252   2.026 -1.3809  0.2372 -0.6922
 5205TP3      O27433   3.778   3.663   2.311  0.2821 -0.1291 -0.5048
 5205TP3     H127434   3.773   3.682   2.405  0.9500 -0.4484 -0.3985
 5205TP3     H227435   3.728   3.733   2.270 -2.2838 -1.4477  0.2383
 5206TP3      O27436   5.476   3.875   0.936 -0.5279  0.1317 -0.3944
 5206TP3     H127437   5.526   3.815   0.991 -1.5226 -0.4374 -0.1023
 5206TP3     H227438   5.413   3.820   0.890  0.1480  0.6372 -1.9564
 5207TP3      O27439   1.122   3.114   8.998 -0.2731 -0.3099 -0.5047
 5207TP3     H127440   1.097   3.023   9.016  0.6491 -0.2320  1.2303
 5207TP3     H227441   1.118   3.157   9.083  0.9939  0.8659 -1.0389
 5208TP3      O27442   5.346   0.982   1.470 -0.8376 -0.3839  0.3755
 5208TP3     H127443   5.371   0.914   1.532 -1.5361 -0.0188  1.0605
 5208TP3     H227444   5.282   1.035   1.516 -1.2684 -0.0264 -0.6097
 5209TP3      O27445   4.272   3.271   2.087 -0.4144  0.4020  0.1215
 5209TP3     H127446   4.314   3.185   2.093 -0.2698  0.4411 -0.3870
 5209TP3     H227447   4.264   3.299   2.179 -1.2290 -0.5247  0.3466
 5210TP3      O27448   4.690   4.682   8.721 -0.1088  0.0740 -0.3942
 5210TP3     H127449   4.683   4.726   8.636 -0.5513 -0.6805 -0.7468
 5210TP3     H227450   4.708   4.591   8.700 -1.6467 -0.4120  0.2801
 5211TP3      O27451   4.620   3.478   0.603 -0.2484 -0.1905  0.6436
 5211TP3     H127452   4.616   3.425   0.523  0.3215  0.5124  0.1470
 5211TP3     H227453   4.597   3.566   0.575  2.0401  0.4977  0.8630
 5212TP3      O27454   2.157   0.823   1.837 -0.2355 -0.4296  0.2941
 5212TP3     H127455   2.112   0.856   1.915  1.5159  0.3475  0.9819
 5212TP3     H227456   2.229   0.884   1.822  1.2868 -2.2718 -0.1299
 5213TP3      O27457   1.372   5.482   1.223  0.7576 -0.0787 -0.3287
 5213TP3     H127458   1.360   5.572   1.255 -1.2310 -0.6302  0.5974
 5213TP3     H227459   1.325   5.480   1.139 -1.9236 -1.0267  1.1172
 5214TP3      O27460   1.412   4.326   2.679  0.7477 -0.4420  0.4521
 5214TP3     H127461   1.412   4.355   2.770  0.4198  0.0755  0.2865
 5214TP3     H227462   1.413   4.230   2.684  1.7056 -0.4103  0.9963
 5215TP3      O27463   0.797   5.249   2.645 -0.1073  0.5513 -0.6908
 5215TP3     H127464   0.727   5.295   2.598  0.1232  0.6234 -0.9712
 5215TP3     H227465   0.867   5.242   2.580 -0.7267 -1.6108 -1.1446
 5216TP3      O27466   0.019   4.601   3.632  0.2079  0.2036 -0.0340
 5216TP3     H127467   0.049   4.511   3.625  0.2404  0.1155  1.0688
 5216TP3     H227468   0.009   4.631   3.542 -0.2347 -1.0450 -0.4030
 5217TP3      O27469   5.483   5.441   1.486  0.1643  0.0817  0.4384
 5217TP3     H127470   5.446   5.529   1.491  1.4671  0.5951  1.2173
 5217TP3     H227471   5.573   5.455   1.456 -0.3111 -1.1662 -1.7069
 5218TP3      O27472   2.586   0.143   2.215 -0.9215  0.6642  0.0141
 5218TP3     H127473   2.530   0.188   2.278 -0.3813  1.3155  0.0488
 5218TP3     H227474   2.653   0.208   2.193 -2.3015  1.2181 -2.8336
 5219TP3      O27475   4.842   2.552   1.952  0.1328  0.0135  0.1275
 5219TP3     H127476   4.902   2.570   2.024 -1.5005  0.1245  1.4661
 5219TP3     H227477   4.816   2.461   1.964 -0.6150  0.2116  0.0424
 5220TP3      O27478   1.940   2.421  10.215  0.5691 -0.4872 -0.6831
 5220TP3     H127479   1.863   2.372  10.246 -0.1590  0.0123 -1.6552
 5220TP3     H227480   1.905   2.506  10.188  1.8405  0.5842  1.0015
 5221TP3      O27481   3.235   5.340   2.252 -0.3516  0.0377  0.3793
 5221TP3     H127482   3.227   5.395   2.330  0.7095  0.2308  0.3568
 5221TP3     H227483   3.266   5.400   2.184  1.9147 -0.7954  0.6352
 5222TP3      O27484   1.151   4.047   2.749 -0.8350  0.2733  0.1222
 5222TP3     H127485   1.095   4.115   2.787 -0.6746  0.7410 -0.4548
 5222TP3     H227486   1.093   3.972   2.737 -0.9430  0.2122  1.0422
 5223TP3      O27487   4.952   3.887   1.053  0.2370 -0.4134 -0.6537
 5223TP3     H127488   4.968   3.796   1.080 -2.0711 -0.4757  0.6407
 5223TP3     H227489   4.894   3.922   1.121  0.0465  1.6317 -1.8404
 5224TP3      O27490   0.558   4.824   1.778  0.0620 -0.3729 -0.4010
 5224TP3     H127491   0.623   4.792   1.841  0.3093 -0.2520 -0.5970
 5224TP3     H227492   0.608   4.876   1.715 -0.6636  2.5329  1.3174
 5225TP3      O27493   2.637   0.667   9.579  0.6790 -0.3019 -0.2603
 5225TP3     H127494   2.688   0.748   9.588 -0.1055  0.2385 -0.6854
 5225TP3     H227495   2.675   0.624   9.502  0.4513  0.1384 -0.6222
 5226TP3      O27496   2.681   2.196   8.971  0.1392  0.3404  0.3636
 5226TP3     H127497   2.751   2.188   9.036 -0.0936 -0.2947  0.5401
 5226TP3     H227498   2.601   2.192   9.022 -0.0388  0.2259  0.0745
 5227TP3      O27499   2.578   5.003   2.416  0.4701 -0.8304  0.2542
 5227TP3     H127500   2.560   5.079   2.472  0.4832 -0.0849 -0.7279
 5227TP3     H227501   2.645   5.034   2.355 -0.0014 -1.4272 -0.5844
 5228TP3      O27502   1.491   3.201   0.733 -0.1208 -0.0179  0.3293
 5228TP3     H127503   1.421   3.262   0.709  1.3968  1.3606 -0.7729
 5228TP3     H227504   1.476   3.181   0.825 -1.2139  1.2821  0.4481
 5229TP3      O27505   0.545   4.132   2.209  0.2151  0.1176  0.4282
 5229TP3     H127506   0.568   4.044   2.180 -1.3136 -0.7018  1.6536
 5229TP3     H227507   0.518   4.122   2.300 -0.9541  1.6786  0.2905
 5230TP3      O27508   4.316   4.335   1.327 -0.0671 -0.4327  0.4116
 5230TP3     H127509   4.272   4.252   1.345  0.7924 -1.2777 -1.2517
 5230TP3     H227510   4.298   4.353   1.235 -0.4188  1.3461  0.8102
 5231TP3      O27511   1.063   3.810   3.245 -0.3273 -0.1769 -0.5812
 5231TP3     H127512   1.040   3.849   3.160 -1.4349 -2.7260 -1.5266
 5231TP3     H227513   1.035   3.719   3.237  0.8695 -0.8172  2.0415
 5232TP3      O27514   2.877   4.901   8.748  0.5844  0.5084 -0.4064
 5232TP3     H127515   2.915   4.971   8.800 -0.3784  1.4756 -0.9966
 5232TP3     H227516   2.914   4.912   8.660 -0.6667  1.1704 -0.8650
 5233TP3      O27517   2.417   0.665   2.070 -0.0660 -0.0620 -1.3756
 5233TP3     H127518   2.403   0.596   2.005 -0.2353 -0.9742 -0.3841
 5233TP3     H227519   2.436   0.743   2.018 -0.4492 -0.7188 -2.5292
 5234TP3      O27520   1.877   3.945   1.479  0.0519 -0.3281  0.2302
 5234TP3     H127521   1.968   3.923   1.499  0.6575  3.4255  2.1326
 5234TP3     H227522   1.866   3.919   1.387  2.2541 -3.0825  0.6853
 5235TP3      O27523   0.733   2.302   0.995 -0.6405  0.1057 -0.0089
 5235TP3     H127524   0.702   2.268   0.911  3.1167 -0.2927 -1.3073
 5235TP3     H227525   0.693   2.388   1.001 -2.7445 -0.7442 -1.1316
 5236TP3      O27526   1.135   3.670   0.481  0.0166  0.3112  0.1857
 5236TP3     H127527   1.201   3.682   0.412  2.7817 -2.1004  2.2433
 5236TP3     H227528   1.117   3.576   0.480  1.3770 -0.0674  3.7324
 5237TP3      O27529   5.094   3.623   2.737  0.6513  0.3306  0.0440
 5237TP3     H127530   5.150   3.694   2.768 -0.1430 -0.0210  2.4284
 5237TP3     H227531   5.102   3.556   2.805 -1.1329 -0.5172 -0.5573
 5238TP3      O27532   1.820   0.770   0.248 -0.0468  0.1309  0.6613
 5238TP3     H127533   1.879   0.832   0.291  0.3151 -0.3105  0.8007
 5238TP3     H227534   1.870   0.736   0.174 -0.8865  1.3558 -0.5077
 5239TP3      O27535   2.105   0.293  10.077  0.3409 -0.0160 -0.0185
 5239TP3     H127536   2.143   0.297   9.989  1.9327  0.2626  0.6747
 5239TP3     H227537   2.180   0.285  10.135 -0.6042  1.7026  1.4707
 5240TP3      O27538   1.411   1.129   0.562 -0.1725  0.3900  0.2679
 5240TP3     H127539   1.350   1.109   0.491 -0.4278 -0.5266  0.7319
 5240TP3     H227540   1.436   1.221   0.548 -1.6061  0.7596  0.0286
 5241TP3      O27541   0.310   5.457   9.729  0.6898  0.2892  0.0044
 5241TP3     H127542   0.395   5.422   9.754  1.6183  1.4867 -1.3657
 5241TP3     H227543   0.314   5.550   9.754 -0.2076  0.3535 -0.0701
 5242TP3      O27544   3.727   0.022   1.225 -0.3232 -0.2472 -0.5536
 5242TP3     H127545   3.637   0.012   1.194 -0.4263  1.0030 -0.6682
 5242TP3     H227546   3.739   0.116   1.235 -0.3423 -0.5631  3.3172
 5243TP3      O27547   0.313   3.748   8.595 -0.5232  0.2225 -0.2098
 5243TP3     H127548   0.364   3.667   8.586 -2.0290 -0.6621 -0.9309
 5243TP3     H227549   0.378   3.818   8.587  0.5870 -0.8828 -1.0366
 5244TP3      O27550   2.286   3.680   2.060 -0.0289 -0.0821 -0.1608
 5244TP3     H127551   2.243   3.634   2.133 -1.9722 -1.1614 -1.9269
 5244TP3     H227552   2.310   3.610   1.999  1.1910  0.8441 -0.7550
 5245TP3      O27553   0.747   3.817   2.473  0.1499 -0.2332 -0.0968
 5245TP3     H127554   0.666   3.767   2.462 -0.3186  0.2978  0.8246
 5245TP3     H227555   0.789   3.815   2.387 -0.0690 -1.8463 -0.1744
 5246TP3      O27556   1.717   5.106   9.946 -0.2806 -0.3419 -0.5396
 5246TP3     H127557   1.637   5.108   9.895 -0.6079  1.9134  0.0263
 5246TP3     H227558   1.687   5.100  10.037  0.2164 -0.1634 -0.3621
 5247TP3      O27559   1.398   0.827   1.069 -0.6651  0.6344  0.5057
 5247TP3     H127560   1.369   0.746   1.027 -0.1499  1.1306 -0.8052
 5247TP3     H227561   1.318   0.871   1.095 -1.0210  1.0041 -1.2234
 5248TP3      O27562   0.731   5.068   8.314  0.4874 -0.1532  0.2461
 5248TP3     H127563   0.653   5.074   8.369  1.2564  0.1472  1.3175
 5248TP3     H227564   0.706   5.009   8.243 -1.1442  0.9804 -0.1531
 5249TP3      O27565   5.122   3.085   2.543  0.0307  0.1814  0.4127
 5249TP3     H127566   5.037   3.059   2.508 -0.6065  1.5839  0.8532
 5249TP3     H227567   5.103   3.163   2.596  1.5303  0.2912  0.8222
 5250TP3      O27568   1.446   1.544   1.511  0.4243  0.3261 -0.1292
 5250TP3     H127569   1.370   1.497   1.544 -0.9337  1.1847 -1.9221
 5250TP3     H227570   1.487   1.483   1.449  1.5944 -0.3883  1.3356
 5251TP3      O27571   3.973   1.799   2.536 -0.4355 -0.2372 -0.3791
 5251TP3     H127572   3.904   1.760   2.482 -0.5923 -0.1613 -0.2313
 5251TP3     H227573   4.039   1.827   2.473 -1.7094  2.0674 -0.7248
 5252TP3      O27574   5.395   0.155   1.521  0.4275 -0.3396 -0.4221
 5252TP3     H127575   5.313   0.187   1.484  1.0459  0.5760 -1.0405
 5252TP3     H227576   5.462   0.212   1.483  1.2164 -0.2134  1.1207
 5253TP3      O27577   0.665   4.070   2.578  0.0257  0.6945 -0.0503
 5253TP3     H127578   0.670   3.980   2.545 -0.6217  0.9280 -0.8021
 5253TP3     H227579   0.575   4.097   2.558  0.2556  1.5467  0.0740
 5254TP3      O27580   1.427   4.646   1.212  0.2473  0.0372  0.0072
 5254TP3     H127581   1.339   4.633   1.176 -0.2702  3.2805  0.0282
 5254TP3     H227582   1.458   4.727   1.172  3.3113 -1.1283 -0.1050
 5255TP3      O27583   4.771   2.523   1.274 -0.0792 -1.0354 -0.0710
 5255TP3     H127584   4.769   2.451   1.338  0.9244 -0.7625  0.2767
 5255TP3     H227585   4.819   2.593   1.318 -0.8377 -0.2369 -0.5054
 5256TP3      O27586   1.704   5.500   1.542 -0.1302 -0.2892 -0.3041
 5256TP3     H127587   1.758   5.492   1.620  0.2971  0.2345 -0.5384
 5256TP3     H227588   1.686   5.410   1.515  2.1690 -0.4862 -1.2849
 5257TP3      O27589   1.239   3.703   3.595 -0.3309 -0.8476 -0.0759
 5257TP3     H127590   1.225   3.703   3.690  0.6464 -2.8143  0.0847
 5257TP3     H227591   1.153   3.686   3.558 -1.0370  1.4931  0.3602
 5258TP3      O27592   2.756   2.733   1.274  0.4105  0.0792 -0.0316
 5258TP3     H127593   2.841   2.774   1.255  0.3252 -0.3650 -1.4379
 5258TP3     H227594   2.738   2.757   1.365  1.7863  0.6342  0.1145
 5259TP3      O27595   0.581   3.174   2.386  0.1089  0.0640 -0.6483
 5259TP3     H127596   0.534   3.095   2.360  0.9460 -0.1927 -1.4116
 5259TP3     H227597   0.674   3.152   2.374  0.5057  0.0889  2.1986
 5260TP3      O27598   3.611   1.482   8.666  0.1029  0.3325 -0.0537
 5260TP3     H127599   3.588   1.531   8.587 -0.0134 -0.7815 -0.7272
 5260TP3     H227600   3.560   1.524   8.736  1.1661  2.1216 -0.3252
 5261TP3      O27601   1.588   2.903   0.930  0.5435 -0.8342 -0.1054
 5261TP3     H127602   1.544   2.861   0.856  0.3607 -1.1154  0.1602
 5261TP3     H227603   1.526   2.969   0.961  1.1215  0.1087 -0.9629
 5262TP3      O27604   4.926   1.341   9.929 -0.7813 -0.5336  0.3730
 5262TP3     H127605   4.898   1.359   9.839 -0.5017  0.1741  0.4242
 5262TP3     H227606   4.900   1.251   9.944  0.4717 -1.1502 -0.9326
 5263TP3      O27607   3.266   5.348   1.640  0.1598  0.8579  1.0724
 5263TP3     H127608   3.281   5.256   1.622 -0.3453  0.7597  1.1720
 5263TP3     H227609   3.212   5.379   1.567 -3.4003  0.0440  3.2818
 5264TP3      O27610   4.771   0.781   2.172  0.4135 -0.3776 -0.0516
 5264TP3     H127611   4.855   0.805   2.213  0.9644  0.1075 -1.4292
 5264TP3     H227612   4.795   0.720   2.103 -0.4645 -0.8354  0.0460
 5265TP3      O27613   1.791   3.757   1.688 -0.1863  0.0788  0.1615
 5265TP3     H127614   1.802   3.830   1.627 -0.0041 -0.1383 -0.0653
 5265TP3     H227615   1.879   3.739   1.720 -0.0008 -1.0620 -0.9657
 5266TP3      O27616   1.154   5.157   2.752  0.4222  0.1644 -0.0735
 5266TP3     H127617   1.238   5.202   2.749  0.4357  0.1286 -0.3038
 5266TP3     H227618   1.112   5.188   2.831  0.2286  0.9414 -0.4788
 5267TP3      O27619   2.827   4.320   9.603  0.1014  0.5171 -0.4372
 5267TP3     H127620   2.873   4.238   9.582  0.4006 -0.1151  2.4739
 5267TP3     H227621   2.736   4.293   9.616  0.2283  0.5932  0.6788
 5268TP3      O27622   1.646   3.902   0.996  0.1231  0.4362  0.3023
 5268TP3     H127623   1.628   3.985   1.040  1.7206  0.4220  1.0424
 5268TP3     H227624   1.560   3.865   0.977 -0.5940  1.1460  2.0925
 5269TP3      O27625   0.335   4.722   2.727  0.2699 -0.2404 -0.3182
 5269TP3     H127626   0.329   4.649   2.789  0.3848  0.4564  0.5199
 5269TP3     H227627   0.429   4.732   2.712  0.3526  0.6482  0.6818
 5270TP3      O27628   4.057   1.432   0.822 -0.3891  0.3310 -0.6282
 5270TP3     H127629   3.962   1.441   0.820 -0.5600 -1.4022 -1.0592
 5270TP3     H227630   4.085   1.451   0.732 -0.2198  1.7700 -0.2861
 5271TP3      O27631   1.395   4.477   1.449 -0.1289  0.2675 -0.2562
 5271TP3     H127632   1.353   4.396   1.419  0.8674 -0.4387  0.1877
 5271TP3     H227633   1.394   4.534   1.372  0.1418 -0.5839 -0.9048
 5272TP3      O27634   3.347   0.942   0.635  0.0981  0.0254  0.3765
 5272TP3     H127635   3.304   0.924   0.719 -1.2057  1.2542 -0.0186
 5272TP3     H227636   3.441   0.943   0.656 -0.0557 -2.2545  1.3272
 5273TP3      O27637   2.562   3.961   3.273  0.4975 -0.0539  0.1192
 5273TP3     H127638   2.497   3.944   3.204  1.2987 -0.4695 -0.5476
 5273TP3     H227639   2.580   4.054   3.267  1.1302 -0.2252 -0.7546
 5274TP3      O27640   2.659   3.415  10.306 -0.0376  0.1745  0.3859
 5274TP3     H127641   2.694   3.487  10.358  0.9655 -0.9816  1.3394
 5274TP3     H227642   2.605   3.364  10.367 -0.1009 -0.3329 -0.0791
 5275TP3      O27643   1.340   3.344   9.077  0.5568 -0.3890 -0.0017
 5275TP3     H127644   1.327   3.366   9.169  1.6311 -0.1673  0.1050
 5275TP3     H227645   1.352   3.249   9.077  0.2813 -0.4239  0.0541
 5276TP3      O27646   4.078   1.533  10.018 -0.3282 -0.0767 -0.1582
 5276TP3     H127647   4.000   1.588  10.004 -1.3599 -1.9209 -1.8845
 5276TP3     H227648   4.148   1.579   9.971 -0.5173  1.1773  0.7373
 5277TP3      O27649   5.279   3.789   1.808  0.3703  0.5028 -0.4120
 5277TP3     H127650   5.334   3.743   1.744 -1.3151 -1.3099 -0.6131
 5277TP3     H227651   5.295   3.744   1.891 -0.5565  0.1411 -0.4153
 5278TP3      O27652   4.111   2.618   1.563 -0.0415  0.3805  0.3301
 5278TP3     H127653   4.086   2.625   1.471 -0.0564 -1.3065  0.1879
 5278TP3     H227654   4.178   2.686   1.575 -0.2292  0.7857 -0.8499
 5279TP3      O27655   5.255   1.006   2.021  0.0948  0.0569  0.1000
 5279TP3     H127656   5.173   0.979   1.980 -0.6301  2.6589 -0.2360
 5279TP3     H227657   5.245   1.100   2.036  1.7152 -0.1859  3.0754
 5280TP3      O27658   4.125   2.659   1.279  0.2582  0.0595  0.0066
 5280TP3     H127659   4.146   2.571   1.247  3.2309  1.0548 -0.9884
 5280TP3     H227660   4.083   2.702   1.205 -0.2225 -0.1882  0.1362
 5281TP3      O27661   0.306   3.421   9.464  0.6721  0.6244 -0.4674
 5281TP3     H127662   0.246   3.423   9.389  1.5141  1.8926 -1.1119
 5281TP3     H227663   0.328   3.328   9.474  2.0516  0.6170 -3.0056
 5282TP3      O27664   1.947   1.291   0.834 -0.2805  0.3711 -0.6389
 5282TP3     H127665   1.929   1.337   0.916 -1.8920 -1.3242  0.0007
 5282TP3     H227666   1.864   1.292   0.787 -0.5894 -2.5509 -0.2438
 5283TP3      O27667   0.608   1.251   2.809 -0.3853 -0.0910  0.1464
 5283TP3     H127668   0.663   1.235   2.732 -1.3408  2.0582 -1.0346
 5283TP3     H227669   0.558   1.171   2.820  0.4673 -0.7802 -0.8873
 5284TP3      O27670   1.724   2.909   2.391 -0.0231  0.2396  0.3649
 5284TP3     H127671   1.666   2.983   2.412 -1.3955 -0.1799 -1.7900
 5284TP3     H227672   1.757   2.929   2.304  0.5705 -1.0806  0.2804
 5285TP3      O27673   5.438   2.914   2.162 -0.0402 -0.3521  0.3596
 5285TP3     H127674   5.531   2.890   2.161  0.2446  0.6353  1.4306
 5285TP3     H227675   5.429   2.968   2.241 -1.5962 -0.7160  0.4380
 5286TP3      O27676   1.196   3.448   3.322  0.0454 -0.4296 -0.2473
 5286TP3     H127677   1.122   3.465   3.264  0.2160 -0.4560 -0.4728
 5286TP3     H227678   1.229   3.362   3.294 -0.3883 -0.8202  0.4323
 5287TP3      O27679   0.595   0.298   0.744 -0.3645 -0.0659 -0.3402
 5287TP3     H127680   0.599   0.204   0.756  0.4535 -0.0677 -0.5910
 5287TP3     H227681   0.616   0.334   0.830  0.4820 -0.1089 -0.5252
 5288TP3      O27682   2.101   2.787   3.459 -0.2776 -0.3402 -0.5039
 5288TP3     H127683   2.088   2.843   3.535  0.4521 -0.2155 -0.4660
 5288TP3     H227684   2.021   2.797   3.408 -0.3627  0.3411 -0.2439
 5289TP3      O27685   0.338   4.541   2.521 -0.1467  0.0354 -0.0972
 5289TP3     H127686   0.333   4.608   2.589 -0.7282  0.7470 -0.8426
 5289TP3     H227687   0.394   4.472   2.559 -1.0962  0.0783  1.3785
 5290TP3      O27688   0.039   4.204   9.369 -0.4628  0.0895  0.7121
 5290TP3     H127689   0.083   4.144   9.310  1.0721  0.2435  1.6819
 5290TP3     H227690   0.030   4.285   9.318  0.4745  0.0941  0.5469
 5291TP3      O27691   0.945   1.419   1.564  0.2495 -0.0447  0.2730
 5291TP3     H127692   0.962   1.329   1.533 -2.4336 -0.5389  0.1523
 5291TP3     H227693   0.920   1.408   1.655 -1.8925  0.3810 -0.2461
 5292TP3      O27694   4.576   0.312   8.808 -1.1405 -0.1497 -0.3471
 5292TP3     H127695   4.650   0.287   8.862 -1.0945  1.1626  0.2290
 5292TP3     H227696   4.615   0.350   8.729 -1.2030 -0.7668 -0.6745
 5293TP3      O27697   4.380   0.597   1.723 -0.1896  0.2619 -0.2109
 5293TP3     H127698   4.390   0.507   1.693  0.7469 -0.2731  1.6551
 5293TP3     H227699   4.469   0.625   1.745 -0.6696  1.1507  0.6149
 5294TP3      O27700   4.982   4.210   1.248 -0.5763  0.2106 -0.0204
 5294TP3     H127701   5.054   4.219   1.311 -0.7541  0.2899  0.1728
 5294TP3     H227702   4.932   4.292   1.256 -1.2159 -0.2239  0.5161
 5295TP3      O27703   2.324   1.442   1.609 -0.3083 -0.3437 -0.0212
 5295TP3     H127704   2.388   1.500   1.651  0.2953  0.4632 -1.9781
 5295TP3     H227705   2.325   1.469   1.517 -1.6992 -1.9568 -0.5289
 5296TP3      O27706   2.310   4.622   1.762  0.0626  0.4272 -0.3670
 5296TP3     H127707   2.295   4.550   1.824  0.5555  0.8864  0.2891
 5296TP3     H227708   2.229   4.674   1.767 -1.1073 -1.1363 -2.2953
 5297TP3      O27709   4.260   1.320   1.019  0.0608 -0.5513  0.6112
 5297TP3     H127710   4.197   1.332   0.947  1.6952  2.4616 -0.4025
 5297TP3     H227711   4.220   1.366   1.093 -1.0762 -2.6724  1.3692
 5298TP3      O27712   2.945   0.114   2.016 -0.1790  0.6004  0.4196
 5298TP3     H127713   2.896   0.042   2.055  1.2747  0.0067  1.1751
 5298TP3     H227714   2.935   0.186   2.079 -1.4576  1.0140 -0.2363
 5299TP3      O27715   0.597   0.394   1.026 -0.3057 -0.4755 -0.0717
 5299TP3     H127716   0.555   0.424   1.106 -1.9888  1.0385 -1.4857
 5299TP3     H227717   0.670   0.455   1.013 -1.4531  0.7364 -0.9272
 5300TP3      O27718   5.517   0.776  10.089  0.3665 -0.7046  0.3100
 5300TP3     H127719   5.586   0.719  10.054  0.7418 -0.1053  0.0750
 5300TP3     H227720   5.529   0.773  10.184  0.0478 -1.4399  0.3329
 5301TP3      O27721   3.050   5.052   9.327  0.2371 -0.0435  0.0001
 5301TP3     H127722   3.018   4.986   9.390 -0.4059  1.4860  1.2984
 5301TP3     H227723   2.977   5.064   9.267 -0.5968  1.3389  1.2691
 5302TP3      O27724   3.135   5.459   7.274  0.7004 -0.0908 -0.5715
 5302TP3     H127725   3.185   5.405   7.212  0.8550 -1.2666  0.5768
 5302TP3     H227726   3.199   5.521   7.309  0.6492  0.4751 -1.4439
 5303TP3      O27727   0.960   5.231   9.208 -0.4734 -0.3728 -0.0367
 5303TP3     H127728   1.053   5.239   9.184 -0.2259 -0.6128  0.8109
 5303TP3     H227729   0.959   5.242   9.303 -1.1193 -1.9049  0.1519
 5304TP3      O27730   2.356   4.318   1.014  0.1336  0.0435  0.3024
 5304TP3     H127731   2.339   4.380   1.085 -0.3467 -0.0244  0.2448
 5304TP3     H227732   2.346   4.370   0.934 -1.1104 -0.3124  0.2267
 5305TP3      O27733   0.573   0.127   0.325 -0.0898  0.2779 -0.3971
 5305TP3     H127734   0.493   0.158   0.368  1.0867 -0.9615  2.8203
 5305TP3     H227735   0.643   0.180   0.363  1.0044 -0.9821 -0.6343
 5306TP3      O27736   0.740   5.037   3.077  0.0372  0.3931 -0.0626
 5306TP3     H127737   0.703   5.103   3.135  0.3089 -0.9963  1.7103
 5306TP3     H227738   0.832   5.032   3.100  0.1656 -0.1370 -0.6499
 5307TP3      O27739   0.838   5.064   1.282  0.3602 -0.5536 -0.2107
 5307TP3     H127740   0.794   5.146   1.258 -0.4720 -1.1137 -0.6463
 5307TP3     H227741   0.927   5.074   1.249  0.1673  0.0369 -0.5661
 5308TP3      O27742   1.572   2.484   2.234  0.4165  0.0420  0.2909
 5308TP3     H127743   1.534   2.477   2.321  0.2103 -0.5404  0.1573
 5308TP3     H227744   1.666   2.493   2.250  0.4251 -0.4911  0.5673
 5309TP3      O27745   1.881   2.745   9.100  0.4498  1.5002  0.1913
 5309TP3     H127746   1.811   2.680   9.105  0.0007  1.8975 -0.7413
 5309TP3     H227747   1.959   2.699   9.129  0.1662  0.5024 -0.6271
 5310TP3      O27748   1.339   2.717   1.654 -0.2981 -0.4089  0.5606
 5310TP3     H127749   1.259   2.721   1.706 -0.8779  1.6293 -0.4325
 5310TP3     H227750   1.310   2.686   1.568  0.1284 -0.5602  0.4709
 5311TP3      O27751   1.655   0.191   8.799 -0.0758  0.1859 -0.1900
 5311TP3     H127752   1.661   0.096   8.809 -2.0250 -0.0168 -0.7420
 5311TP3     H227753   1.575   0.205   8.748 -0.7070  2.2087  1.2859
 5312TP3      O27754   0.506   4.750   2.332 -0.4699  0.4479 -0.2976
 5312TP3     H127755   0.471   4.808   2.264  0.0680  2.5253  1.1679
 5312TP3     H227756   0.429   4.704   2.365 -1.1286  1.3965 -0.4698
 5313TP3      O27757   1.667   3.450   3.381 -0.0658 -0.0346 -0.4363
 5313TP3     H127758   1.699   3.461   3.292 -0.4200  0.7455 -0.4744
 5313TP3     H227759   1.582   3.495   3.382  0.9516  1.9332  0.8751
 5314TP3      O27760   0.794   2.334   1.351  0.5394  0.1935 -0.1221
 5314TP3     H127761   0.805   2.303   1.441 -0.3035 -0.6597 -0.3077
 5314TP3     H227762   0.840   2.418   1.349  0.9482  0.0049  0.9841
 5315TP3      O27763   4.782   0.979   9.692 -0.1451  0.6364 -0.1518
 5315TP3     H127764   4.770   0.994   9.785 -0.6205 -0.3609 -0.0518
 5315TP3     H227765   4.868   1.016   9.673 -0.4739  1.7417  0.4765
 5316TP3      O27766   0.187   5.500   0.731 -0.2324 -0.1653 -0.1155
 5316TP3     H127767   0.163   5.434   0.795  1.0765 -0.1822  0.3607
 5316TP3     H227768   0.187   5.582   0.780 -2.8980  0.3725 -0.9351
 5317TP3      O27769   5.100   5.253   1.037 -0.3944 -0.4952  0.5303
 5317TP3     H127770   5.124   5.333   0.990 -2.0459  0.6634  1.5849
 5317TP3     H227771   5.179   5.228   1.084  0.5288 -0.2334 -0.8566
 5318TP3      O27772   4.433   2.691   9.548 -0.0026 -0.5802 -0.1649
 5318TP3     H127773   4.425   2.714   9.456 -0.6614  0.7785  0.2177
 5318TP3     H227774   4.526   2.704   9.568 -0.0526  0.1564 -0.3821
 5319TP3      O27775   3.875   1.819   1.415 -0.0654  0.4913  0.0916
 5319TP3     H127776   3.970   1.824   1.423  0.0819  1.6501 -2.0243
 5319TP3     H227777   3.853   1.730   1.442  1.6300  0.1448  0.3682
 5320TP3      O27778   0.689   2.031   1.357 -0.2765 -0.5294 -0.2905
 5320TP3     H127779   0.691   2.015   1.451 -0.9309  2.4955  0.2980
 5320TP3     H227780   0.618   1.975   1.325 -1.5257  0.0668  1.3693
 5321TP3      O27781   0.179   4.196   9.908 -0.2205 -0.6504 -0.3463
 5321TP3     H127782   0.161   4.119   9.854 -0.5133  0.8360 -2.4334
 5321TP3     H227783   0.271   4.216   9.892 -0.5343  0.3115 -1.0019
 5322TP3      O27784   1.137   5.100   1.291 -0.7077  0.4177  0.2894
 5322TP3     H127785   1.141   5.193   1.312 -1.9442  0.3263  1.0109
 5322TP3     H227786   1.228   5.070   1.291 -0.3608  1.4722  0.7636
 5323TP3      O27787   1.207   4.521   2.617  0.5495 -0.3518  0.2429
 5323TP3     H127788   1.291   4.550   2.582  0.2516  1.2760  0.8159
 5323TP3     H227789   1.215   4.426   2.623  1.8270 -0.3533 -1.0335
 5324TP3      O27790   1.413   3.960   2.713 -0.2863 -0.0009 -0.1365
 5324TP3     H127791   1.325   3.971   2.750  0.0918 -0.2345  0.8302
 5324TP3     H227792   1.469   4.015   2.767  0.4236 -1.0707  0.2259
 5325TP3      O27793   0.644   5.329   2.121 -0.1300  0.1400  0.5596
 5325TP3     H127794   0.690   5.324   2.037 -1.1389  0.9670 -0.0468
 5325TP3     H227795   0.557   5.295   2.103 -0.6162  1.1082  1.0715
 5326TP3      O27796   5.014   3.330   2.689 -0.4737 -0.2496  0.0416
 5326TP3     H127797   4.959   3.358   2.762 -0.8808  0.6691 -0.6114
 5326TP3     H227798   5.021   3.408   2.632  0.5579 -0.6879 -0.4524
 5327TP3      O27799   3.940   2.917   2.638 -0.2930  0.6363  0.5638
 5327TP3     H127800   3.886   2.845   2.606 -0.0480  1.6491 -2.2708
 5327TP3     H227801   3.883   2.994   2.630  0.4533  1.2027  0.6962
 5328TP3      O27802   5.233   2.086   1.473 -0.0025  0.4114 -0.2003
 5328TP3     H127803   5.290   2.044   1.408  0.0652  1.2534 -0.7109
 5328TP3     H227804   5.179   2.145   1.421  0.0071  1.0520  0.5087
 5329TP3      O27805   4.226   5.029   3.463 -0.2236  0.6904  0.0280
 5329TP3     H127806   4.234   5.019   3.368 -0.9141 -0.0388  0.0392
 5329TP3     H227807   4.162   5.100   3.474  0.7782  1.6129 -0.0484
 5330TP3      O27808   0.822   1.280   0.204  0.2151 -0.1692 -0.1310
 5330TP3     H127809   0.885   1.269   0.132  0.7416 -2.0838  0.6001
 5330TP3     H227810   0.763   1.205   0.195 -0.7265  0.4934  0.4518
 5331TP3      O27811   2.775   4.030   2.852 -0.0756 -0.3057 -0.4740
 5331TP3     H127812   2.803   4.101   2.793  0.3441 -1.2020 -1.3679
 5331TP3     H227813   2.855   3.980   2.868 -0.5102 -0.9818 -0.4156
 5332TP3      O27814   1.241   1.775   2.260  0.2903  0.1982  0.5260
 5332TP3     H127815   1.304   1.847   2.264  1.5363 -0.7289 -1.4426
 5332TP3     H227816   1.190   1.792   2.181 -1.4984  0.5650  1.7289
 5333TP3      O27817   1.126   3.278   1.486  0.0108 -0.0539 -0.7514
 5333TP3     H127818   1.055   3.334   1.456 -0.5964 -0.8502 -0.8169
 5333TP3     H227819   1.198   3.338   1.505  0.2774  0.5268 -3.4071
 5334TP3      O27820   2.487   3.934   2.685  0.3308 -0.3123  1.2750
 5334TP3     H127821   2.572   3.893   2.674  0.4439  0.0514  0.7767
 5334TP3     H227822   2.505   4.016   2.731  0.4592  0.5558 -0.2796
 5335TP3      O27823   2.958   4.768   2.154  0.0330  0.3034 -0.2438
 5335TP3     H127824   2.991   4.761   2.064  1.6295  0.4656  0.3211
 5335TP3     H227825   2.863   4.756   2.145  0.2686 -0.5453 -1.8494
 5336TP3      O27826   0.120   0.145   8.566 -0.0292 -0.0913  0.0325
 5336TP3     H127827   0.061   0.103   8.504 -0.6774 -0.8699  1.1385
 5336TP3     H227828   0.207   0.121   8.536 -0.3274 -0.2163 -0.7406
 5337TP3      O27829   4.254   0.276   0.713 -0.0065  0.8502 -0.2922
 5337TP3     H127830   4.215   0.203   0.761 -1.1400  0.7334 -1.3533
 5337TP3     H227831   4.263   0.244   0.623 -0.0459  1.8342 -0.6564
 5338TP3      O27832   0.292   5.522   2.529 -0.2680 -0.0881  0.1625
 5338TP3     H127833   0.218   5.575   2.498  0.8563  0.1134 -2.3244
 5338TP3     H227834   0.264   5.491   2.615 -2.0279  2.4095  0.5771
 5339TP3      O27835   0.880   5.034   0.530 -0.4691  0.0414  0.5633
 5339TP3     H127836   0.789   5.057   0.511 -0.2135  1.5868  1.1708
 5339TP3     H227837   0.895   4.954   0.479 -2.2099 -0.3275  0.5920
 5340TP3      O27838   4.227   4.877   2.606  0.0141 -0.1021  0.5062
 5340TP3     H127839   4.291   4.845   2.542  0.1377  1.4177 -0.1648
 5340TP3     H227840   4.279   4.896   2.684 -0.0532 -1.4600  0.8879
 5341TP3      O27841   4.375   4.388   0.650 -0.2339 -0.0175  0.0860
 5341TP3     H127842   4.463   4.402   0.685 -0.6907 -0.2291  1.3556
 5341TP3     H227843   4.328   4.470   0.670  0.4437  1.1935 -3.0649
 5342TP3      O27844   1.123   2.066   3.387 -0.2513 -0.1268  0.2828
 5342TP3     H127845   1.047   2.089   3.441 -1.3119 -1.2129 -0.7053
 5342TP3     H227846   1.111   2.117   3.307 -0.3437 -0.8473 -0.1688
 5343TP3      O27847   1.134   0.954   2.381  0.0529  0.0220  0.0552
 5343TP3     H127848   1.195   0.881   2.379  0.8948  0.6643  1.4656
 5343TP3     H227849   1.063   0.924   2.438 -1.1988 -0.8946 -1.9416
 5344TP3      O27850   1.130   3.595   2.960  0.3165 -0.2521  0.8625
 5344TP3     H127851   1.089   3.604   3.046  1.4434 -0.6657  1.4465
 5344TP3     H227852   1.180   3.514   2.965  0.5381 -0.1833 -0.1244
 5345TP3      O27853   1.903   2.302   0.611 -0.4457 -0.3101 -0.4695
 5345TP3     H127854   1.912   2.397   0.604 -1.4920 -0.2864 -1.5930
 5345TP3     H227855   1.808   2.287   0.618 -0.2843 -1.2691 -0.1723
 5346TP3      O27856   1.900   3.090   1.819  0.0418 -0.5913 -0.1768
 5346TP3     H127857   1.839   3.126   1.883  1.8191 -0.3850  1.4265
 5346TP3     H227858   1.909   3.158   1.752 -0.0126  0.1527  0.5729
 5347TP3      O27859   1.718   4.202   1.937 -0.6815  0.0730  0.0661
 5347TP3     H127860   1.706   4.238   2.025 -0.0421 -1.3059  0.7458
 5347TP3     H227861   1.784   4.134   1.948  2.2433  2.4007 -2.1930
 5348TP3      O27862   0.695   0.855   1.475 -0.3555 -0.4778  0.1512
 5348TP3     H127863   0.680   0.927   1.536  1.1521  0.2221 -0.2958
 5348TP3     H227864   0.738   0.788   1.527  0.0941 -0.2455  0.0798
 5349TP3      O27865   4.371   4.868   2.878 -0.7411 -0.1847  0.0102
 5349TP3     H127866   4.442   4.807   2.858 -1.4249 -0.6561 -0.9776
 5349TP3     H227867   4.333   4.833   2.959 -0.2280 -0.2625  0.2224
 5350TP3      O27868   0.564   4.073   1.754 -0.2179 -0.2205 -0.1234
 5350TP3     H127869   0.604   4.159   1.768  0.6352 -0.8450  1.3372
 5350TP3     H227870   0.603   4.041   1.673  0.4963  0.1672  0.0670
 5351TP3      O27871   3.499   4.124   2.703 -0.9171  0.3637  0.3336
 5351TP3     H127872   3.428   4.063   2.720 -0.6459 -0.1422 -0.3055
 5351TP3     H227873   3.550   4.126   2.784 -1.7584  0.8710  0.8557
 5352TP3      O27874   4.534   2.309   9.744 -0.0358 -0.1064 -0.1707
 5352TP3     H127875   4.604   2.362   9.782  1.1102 -1.5959 -0.1930
 5352TP3     H227876   4.539   2.225   9.789 -0.8499 -0.7333 -1.2138
 5353TP3      O27877   2.004   2.237   0.343 -1.1182 -0.4522 -0.2334
 5353TP3     H127878   2.046   2.151   0.343  0.1255  0.1455  0.7584
 5353TP3     H227879   1.978   2.251   0.434 -0.1793  0.7614 -0.1373
 5354TP3      O27880   0.058   1.409   9.162 -0.7386  0.0126  0.6169
 5354TP3     H127881   0.019   1.394   9.076  0.6685  1.7821 -0.3590
 5354TP3     H227882   0.045   1.327   9.209 -1.8615 -0.8474 -1.1456
 5355TP3      O27883   0.953   4.440   8.994  0.2425 -0.6296 -0.1716
 5355TP3     H127884   0.923   4.354   8.964 -0.8297  0.1231 -1.3370
 5355TP3     H227885   1.048   4.435   8.991  0.1826 -1.7186 -0.3848
 5356TP3      O27886   1.930   4.725   2.426  0.5739  0.0554  0.3352
 5356TP3     H127887   1.950   4.652   2.368 -0.8596  0.8969 -1.2747
 5356TP3     H227888   1.997   4.791   2.405  0.4984  0.0779  0.1669
 5357TP3      O27889   3.447   0.122   1.822 -0.0839 -0.5356 -0.3313
 5357TP3     H127890   3.455   0.213   1.795 -0.6243 -0.2127  0.6118
 5357TP3     H227891   3.354   0.109   1.839 -0.4342 -2.0462 -3.1859
 5358TP3      O27892   3.493   0.385   1.758  0.4987 -0.1924  0.2107
 5358TP3     H127893   3.527   0.470   1.784 -0.5820  0.0186  1.0072
 5358TP3     H227894   3.462   0.397   1.669 -0.4279  0.4920  0.6185
 5359TP3      O27895   0.520   5.144   0.169 -0.5417  0.4348 -0.2247
 5359TP3     H127896   0.564   5.102   0.243 -0.7216 -1.3952 -1.1252
 5359TP3     H227897   0.531   5.238   0.184  1.4872  0.0417  0.8741
 5360TP3      O27898   0.258   0.009   1.113  0.3673 -0.3616  0.1042
 5360TP3     H127899   0.213   0.075   1.060 -1.7624 -1.3181  0.6443
 5360TP3     H227900   0.351   0.021   1.093 -0.1805  1.0924 -1.7480
 5361TP3      O27901   3.680   4.684   2.931  0.9156  0.2383 -0.1977
 5361TP3     H127902   3.626   4.606   2.939  0.3107  0.7880  1.1910
 5361TP3     H227903   3.691   4.696   2.836 -0.0591 -0.7788 -0.4468
 5362TP3      O27904   4.453   4.690   1.691 -0.2470 -0.5670  0.3662
 5362TP3     H127905   4.419   4.627   1.628 -2.6410  0.6718  0.3886
 5362TP3     H227906   4.392   4.687   1.765  1.8578 -1.1361  2.1370
 5363TP3      O27907   2.173   4.217   0.736  0.3084  0.2665 -0.3741
 5363TP3     H127908   2.178   4.206   0.641  2.1972 -2.3699 -0.0294
 5363TP3     H227909   2.226   4.295   0.754 -0.1033  0.8088 -1.4650
 5364TP3      O27910   1.521   0.941   1.964  0.0014  0.8063  0.2039
 5364TP3     H127911   1.502   0.848   1.961  0.3764  0.7666 -0.9831
 5364TP3     H227912   1.529   0.968   1.872 -0.1877  2.0197  0.5263
 5365TP3      O27913   2.838   5.108   2.363 -0.1937  0.6380  0.4358
 5365TP3     H127914   2.863   5.178   2.301  0.7569 -0.3444 -0.3032
 5365TP3     H227915   2.910   5.045   2.358 -1.6454 -1.0360  0.1218
 5366TP3      O27916   2.838   3.826   2.428 -0.2666  0.0803  0.6447
 5366TP3     H127917   2.923   3.845   2.389 -0.7261  0.0441 -0.4042
 5366TP3     H227918   2.775   3.842   2.358 -1.1764  0.6281  1.5648
 5367TP3      O27919   1.549   3.717   2.580  0.3413 -0.3658 -0.0975
 5367TP3     H127920   1.499   3.796   2.599  0.9362 -0.0626  0.2175
 5367TP3     H227921   1.553   3.670   2.664  3.0990  1.0472  0.6181
 5368TP3      O27922   5.359   3.604   2.390 -0.7440  0.3411  0.5745
 5368TP3     H127923   5.289   3.542   2.411  0.7028 -1.3181  0.6815
 5368TP3     H227924   5.319   3.666   2.330 -1.9696 -1.2914 -0.3470
 5369TP3      O27925   0.477   0.055   2.284  0.0120 -0.3830 -0.2817
 5369TP3     H127926   0.440   0.030   2.368 -2.3737  0.8245 -0.9296
 5369TP3     H227927   0.415   0.021   2.219  0.2372  1.3471 -1.4232
 5370TP3      O27928   3.166   3.022   2.786  0.0668  0.7354 -0.4939
 5370TP3     H127929   3.255   3.033   2.819 -0.9409  1.9835  1.8906
 5370TP3     H227930   3.118   3.097   2.821 -2.0162 -0.1100 -1.4577
 5371TP3      O27931   2.885   5.252   1.492 -0.0039  0.2417 -0.4241
 5371TP3     H127932   2.841   5.212   1.567  1.3797 -0.4228  0.0480
 5371TP3     H227933   2.901   5.180   1.432  0.0974  0.5473 -0.7697
 5372TP3      O27934   5.295   4.294  10.028 -0.1384  0.1576  0.5427
 5372TP3     H127935   5.209   4.280  10.068 -0.6198  0.1303 -0.4928
 5372TP3     H227936   5.357   4.262  10.094 -0.9672 -0.9858  0.7936
 5373TP3      O27937   3.463   3.841   9.578  0.2104 -0.1786  0.1854
 5373TP3     H127938   3.401   3.829   9.650 -0.6691 -0.6541 -0.6320
 5373TP3     H227939   3.424   3.910   9.524  0.3219 -0.5854 -0.4160
 5374TP3      O27940   2.373   2.238   1.097 -0.2413  0.3047 -0.2176
 5374TP3     H127941   2.400   2.180   1.168  0.3182  1.2560  0.3560
 5374TP3     H227942   2.454   2.261   1.053 -0.7543 -1.8449 -2.4281
 5375TP3      O27943   2.102   4.801   9.638 -0.0112 -0.2733  0.3761
 5375TP3     H127944   2.091   4.887   9.680  0.6428  0.9326 -1.8338
 5375TP3     H227945   2.014   4.764   9.635 -0.6469  1.2408 -0.5219
 5376TP3      O27946   2.636   1.784   2.297 -0.2209  0.2208 -0.3380
 5376TP3     H127947   2.726   1.754   2.306 -0.8853 -1.7450 -0.1079
 5376TP3     H227948   2.642   1.861   2.239  1.4842 -0.4611 -1.0908
 5377TP3      O27949   4.719   3.612   1.833 -0.3504 -0.3499  0.1826
 5377TP3     H127950   4.789   3.676   1.817 -1.1313  0.2765 -0.7941
 5377TP3     H227951   4.675   3.603   1.749 -0.9206 -1.3802  0.5819
 5378TP3      O27952   1.966   3.991   9.605 -0.3672 -0.5065  0.4607
 5378TP3     H127953   1.924   3.985   9.519  0.0619  0.0244  0.2072
 5378TP3     H227954   1.990   3.901   9.627  1.4178 -0.3904 -0.9346
 5379TP3      O27955   2.971   3.474   1.364  0.1566  0.2545  0.2316
 5379TP3     H127956   2.952   3.564   1.391  0.0528  0.0821  0.7488
 5379TP3     H227957   3.010   3.433   1.441 -2.2534 -0.8977  0.9042
 5380TP3      O27958   5.065   4.134   0.239 -0.1691 -0.3928  0.0177
 5380TP3     H127959   5.136   4.189   0.205  0.4938 -1.3912 -0.2155
 5380TP3     H227960   5.109   4.071   0.296 -0.9957 -0.3351  0.7205
 5381TP3      O27961   4.799   3.970   1.367  0.4521 -0.3886  0.6149
 5381TP3     H127962   4.733   3.936   1.307  0.5013  0.3577  0.1205
 5381TP3     H227963   4.801   4.064   1.348  0.5376 -0.1672  1.7275
 5382TP3      O27964   2.318   4.880   2.834 -0.6160 -0.1163  0.7039
 5382TP3     H127965   2.323   4.893   2.739 -0.7202 -2.0488  0.4169
 5382TP3     H227966   2.409   4.877   2.863 -0.5566 -1.5328  0.3724
 5383TP3      O27967   2.565   3.076   1.140  0.6324  0.4124 -0.3908
 5383TP3     H127968   2.652   3.098   1.173  0.8803  0.6187 -1.1832
 5383TP3     H227969   2.572   3.085   1.045  0.6852 -2.7887 -0.7541
 5384TP3      O27970   4.159   5.505   2.164  0.4475  0.0710  0.1649
 5384TP3     H127971   4.143   5.492   2.070  1.6190 -0.2348 -0.0048
 5384TP3     H227972   4.186   5.418   2.196  0.6426  0.3117  0.6569
 5385TP3      O27973   4.362   3.425   9.684  0.2059 -0.3445 -0.0837
 5385TP3     H127974   4.443   3.375   9.699  0.7189  0.8460  1.2013
 5385TP3     H227975   4.346   3.416   9.590 -0.1031 -3.5030  0.2066
 5386TP3      O27976   1.602   4.132   1.447 -0.4892  0.4881 -0.2523
 5386TP3     H127977   1.589   4.202   1.512  0.0512  1.4370 -1.1497
 5386TP3     H227978   1.691   4.101   1.463 -0.3572  0.7195 -0.5358
 5387TP3      O27979   2.685   4.439   3.387  0.2914 -0.0419  0.1592
 5387TP3     H127980   2.776   4.440   3.357 -0.5094 -1.3606 -2.5439
 5387TP3     H227981   2.655   4.529   3.374  0.4359 -0.2284 -1.5863
 5388TP3      O27982   2.306   5.290   1.938 -0.1525  0.2922 -0.2768
 5388TP3     H127983   2.385   5.256   1.895  0.0969  0.7392 -0.1797
 5388TP3     H227984   2.339   5.330   2.019 -0.7050 -1.2506  0.7361
 5389TP3      O27985   1.665   4.657   0.498  0.0375  0.4702  0.1104
 5389TP3     H127986   1.705   4.612   0.573 -1.7386 -0.8853  0.2912
 5389TP3     H227987   1.645   4.745   0.530  1.2550  0.5989  0.5435
 5390TP3      O27988   3.542   3.884   1.722  0.9259  0.2321 -0.0364
 5390TP3     H127989   3.485   3.861   1.795 -0.9980  0.5789 -1.3725
 5390TP3     H227990   3.631   3.877   1.757  0.1278 -1.8600  1.6609
 5391TP3      O27991   1.129   5.198   0.360 -0.1415 -0.3620  0.3833
 5391TP3     H127992   1.081   5.165   0.436 -2.9132 -0.0378 -1.1527
 5391TP3     H227993   1.084   5.279   0.337  0.5829 -0.5357 -1.7025
 5392TP3      O27994   1.043   4.645   3.625 -0.5427  0.3745 -0.4781
 5392TP3     H127995   1.079   4.705   3.559  0.8914 -1.5515 -1.4871
 5392TP3     H227996   0.952   4.673   3.635 -0.2443  1.9077 -1.8672
 5393TP3      O27997   4.249   2.452   2.017 -0.1308  0.3626 -0.3825
 5393TP3     H127998   4.189   2.392   2.061  0.4032 -0.4824 -0.7955
 5393TP3     H227999   4.262   2.523   2.079  0.3600 -0.6481  0.6954
 5394TP3      O28000   5.167   5.077   0.446 -0.0334  0.0695  0.5225
 5394TP3     H128001   5.127   5.012   0.503  2.2554 -1.5949  0.2733
 5394TP3     H228002   5.254   5.093   0.484  0.8228  0.2976 -1.4370
 5395TP3      O28003   3.327   1.067   2.900 -0.1184  0.4861  0.0429
 5395TP3     H128004   3.379   1.039   2.975 -0.1712 -2.4793 -0.9720
 5395TP3     H228005   3.243   1.022   2.912 -0.6986  1.2846 -0.9649
 5396TP3      O28006   4.121   4.789   2.062  0.4736 -0.3518  0.2121
 5396TP3     H128007   4.107   4.760   2.152 -1.6473  1.6950  0.5810
 5396TP3     H228008   4.044   4.841   2.040  0.8923 -0.8959 -2.8477
 5397TP3      O28009   4.893   1.690   0.907 -0.4504 -0.2075  0.3858
 5397TP3     H128010   4.927   1.670   0.820  0.1053  0.5629  0.4210
 5397TP3     H228011   4.937   1.771   0.932  1.0708 -1.5625  2.2957
 5398TP3      O28012   1.478   0.343  10.258 -0.5843  0.3371 -0.1247
 5398TP3     H128013   1.445   0.365  10.345 -1.8340 -0.7995 -0.3036
 5398TP3     H228014   1.527   0.422  10.231  1.6155 -0.0520  2.4298
 5399TP3      O28015   3.258   5.113   0.974 -0.6836  0.1110 -0.7767
 5399TP3     H128016   3.249   5.160   1.056 -0.0379 -1.6857  0.3600
 5399TP3     H228017   3.334   5.153   0.931 -1.8005  1.9059 -1.1112
 5400TP3      O28018   1.638   4.959   0.613  0.1365 -0.4918  0.9281
 5400TP3     H128019   1.636   4.973   0.519 -2.3761  1.3570  1.2037
 5400TP3     H228020   1.716   5.006   0.643 -0.8815  1.7128  0.1579
 5401TP3      O28021   1.433   5.343   2.153  0.1110  0.1737  0.5178
 5401TP3     H128022   1.434   5.248   2.149  1.6323  0.2245 -0.8489
 5401TP3     H228023   1.471   5.364   2.238 -1.6445 -0.4613  1.4598
 5402TP3      O28024   4.456   3.981   9.620 -0.1459 -0.1227  0.1244
 5402TP3     H128025   4.484   4.073   9.621  0.1181 -0.1613 -1.6759
 5402TP3     H228026   4.361   3.985   9.628 -0.0684  0.2566  0.9443
 5403TP3      O28027   4.890   2.935   2.420 -0.3264  0.1930 -0.1928
 5403TP3     H128028   4.818   2.954   2.360  0.1193 -0.8041 -1.0561
 5403TP3     H228029   4.958   2.897   2.364  0.1351 -0.6519  0.9264
 5404TP3      O28030   0.325   5.254   1.448  0.1421 -0.1074 -0.5702
 5404TP3     H128031   0.344   5.190   1.517 -3.2105  0.8764  1.3989
 5404TP3     H228032   0.266   5.209   1.388  0.5295  0.0440 -1.0650
 5405TP3      O28033   4.307   5.265   9.518  0.3295  0.2520  0.2654
 5405TP3     H128034   4.376   5.323   9.551  0.8641  0.2524 -0.8184
 5405TP3     H228035   4.352   5.210   9.454 -0.5529 -0.1667  0.0056
 5406TP3      O28036   1.779   4.956   1.596  0.4984  0.5122  0.0083
 5406TP3     H128037   1.789   4.998   1.682 -0.0707  2.3624 -0.7941
 5406TP3     H228038   1.698   4.906   1.603 -0.0381  1.3895  0.2903
 5407TP3      O28039   2.763   4.147   1.120 -0.5307  0.3989  0.1060
 5407TP3     H128040   2.700   4.124   1.052 -0.9628  2.7555 -0.3241
 5407TP3     H228041   2.848   4.131   1.079 -0.6195  6.1106 -2.7855
 5408TP3      O28042   2.278   1.559   9.473  0.2603 -0.2789 -0.5760
 5408TP3     H128043   2.285   1.466   9.455  0.3824 -0.6515  1.2672
 5408TP3     H228044   2.209   1.566   9.539  1.7484  0.6568  0.9510
 5409TP3      O28045   1.940   0.238   2.608  0.4953 -0.0849  0.0618
 5409TP3     H128046   1.891   0.314   2.575 -2.4720 -1.4459  1.1985
 5409TP3     H228047   2.003   0.275   2.669  0.1296  1.6181 -0.5557
 5410TP3      O28048   1.405   1.745   1.312 -0.1050  0.1054 -0.4472
 5410TP3     H128049   1.449   1.670   1.351  0.0189 -0.4077 -1.5612
 5410TP3     H228050   1.461   1.819   1.334 -0.1145 -0.1452  0.4679
 5411TP3      O28051   1.350   4.363   2.954 -0.3276  0.1463 -0.0373
 5411TP3     H128052   1.256   4.380   2.953 -0.2075  0.8803 -1.9871
 5411TP3     H228053   1.361   4.288   3.012 -2.2594 -0.7118 -0.7624
 5412TP3      O28054   0.643   3.291   1.493 -0.6738 -0.1166 -0.0190
 5412TP3     H128055   0.659   3.381   1.522 -1.4113  0.8163 -2.4585
 5412TP3     H228056   0.567   3.263   1.544 -0.7803  0.8176  0.3509
 5413TP3      O28057   4.184   4.956   9.247 -0.2528  0.0723 -0.1358
 5413TP3     H128058   4.259   5.009   9.221 -0.6714  1.1007  0.7143
 5413TP3     H228059   4.145   4.926   9.165  0.4388  0.4433 -0.6024
 5414TP3      O28060   5.027   4.789   1.467 -0.2465 -0.3175 -0.1402
 5414TP3     H128061   5.024   4.705   1.514  0.3041 -0.2503  0.0145
 5414TP3     H228062   5.117   4.795   1.435 -0.6559 -0.4325 -1.3266
 5415TP3      O28063   0.752   3.940   0.323  0.1391  0.4575 -0.4631
 5415TP3     H128064   0.788   4.029   0.323  2.1908 -0.3398  0.8737
 5415TP3     H228065   0.757   3.912   0.414 -0.7319 -0.9351 -0.8275
 5416TP3      O28066   2.748   3.824   3.429  0.0540  0.2017 -0.6749
 5416TP3     H128067   2.826   3.817   3.374  0.2614  0.8574 -0.4798
 5416TP3     H228068   2.686   3.876   3.377  0.7032  1.8762  0.1743
 5417TP3      O28069   2.129   1.669   2.220  0.2161 -0.0808  0.0498
 5417TP3     H128070   2.213   1.630   2.242  0.6248  1.2793  1.0077
 5417TP3     H228071   2.092   1.696   2.304 -0.0056  1.6388 -0.5633
 5418TP3      O28072   2.378   0.864   0.957  0.4771 -0.1889 -0.6152
 5418TP3     H128073   2.303   0.902   1.003  1.3080 -0.2749  0.8328
 5418TP3     H228074   2.384   0.775   0.991  2.0262  0.2336  0.2334
 5419TP3      O28075   3.640   3.480   3.050  0.0729  0.5398  0.1292
 5419TP3     H128076   3.604   3.401   3.089  1.4813  1.0410  2.5216
 5419TP3     H228077   3.573   3.546   3.064  0.2113  0.5090  0.9840
 5420TP3      O28078   0.120   0.775   8.200  0.2318  0.0781 -0.4086
 5420TP3     H128079   0.133   0.729   8.283 -0.2520  0.8158  0.0863
 5420TP3     H228080   0.035   0.817   8.209  0.2456  0.2900 -1.2218
 5421TP3      O28081   3.608   5.021   3.032 -0.2335 -0.1165  0.0964
 5421TP3     H128082   3.627   5.109   2.999 -0.6575 -0.3123 -0.6770
 5421TP3     H228083   3.560   4.978   2.961  0.0910 -1.0210  0.4108
 5422TP3      O28084   1.106   3.988   2.076  0.8875 -0.0841 -1.2934
 5422TP3     H128085   1.011   3.993   2.061  0.5962 -2.0368 -0.2976
 5422TP3     H228086   1.143   4.053   2.016 -1.0315  0.2603 -2.1538
 5423TP3      O28087   2.174   3.660   9.461  0.2715 -0.3833 -0.1322
 5423TP3     H128088   2.106   3.593   9.456 -0.6966  0.5361  0.3596
 5423TP3     H228089   2.169   3.692   9.552 -0.3267  1.3950 -0.7638
 5424TP3      O28090   3.533   1.708   1.008  0.0204 -0.6388 -0.5302
 5424TP3     H128091   3.571   1.717   1.095 -2.1451  1.2717  0.2893
 5424TP3     H228092   3.596   1.749   0.950  0.5134  0.0157  0.4463
 5425TP3      O28093   0.687   0.171   2.689  0.0984 -0.5530  0.2973
 5425TP3     H128094   0.597   0.183   2.659  0.0225 -1.6908  0.0426
 5425TP3     H228095   0.711   0.256   2.727 -0.7160  0.0807 -0.5695
 5426TP3      O28096   1.358   5.026   3.396 -0.1664  0.2153  0.6680
 5426TP3     H128097   1.434   4.967   3.394 -0.2352  0.1476 -0.7523
 5426TP3     H228098   1.395   5.113   3.380 -0.3768  0.1815 -0.0386
 5427TP3      O28099   3.938   1.127   9.394  0.1718 -0.2547 -0.3466
 5427TP3     H128100   3.849   1.164   9.391 -0.3586 -1.3512  1.2932
 5427TP3     H228101   3.974   1.156   9.478  1.0716 -0.4822 -0.6492
 5428TP3      O28102   2.808   2.281   1.472  0.4514 -0.2476  0.3754
 5428TP3     H128103   2.777   2.370   1.488 -1.0883 -0.5979 -0.5756
 5428TP3     H228104   2.901   2.283   1.497  0.9228  2.1351 -1.3396
 5429TP3      O28105   5.048   2.609   0.722  0.4352 -0.3811  0.1016
 5429TP3     H128106   5.055   2.515   0.739 -0.8029 -0.5305 -0.1899
 5429TP3     H228107   5.084   2.619   0.633 -4.1218 -1.3691 -2.0052
 5430TP3      O28108   2.927   3.434   2.793  1.0239 -0.1824 -0.2647
 5430TP3     H128109   2.935   3.525   2.820  1.0504 -0.2859  0.0711
 5430TP3     H228110   2.893   3.439   2.703 -0.4003  0.1347  0.2708
 5431TP3      O28111   3.614   4.122   8.524  0.3608  0.4211 -0.7511
 5431TP3     H128112   3.617   4.193   8.587 -1.1595  0.6496 -0.9264
 5431TP3     H228113   3.594   4.044   8.576  0.4313  0.3825 -0.7800
 5432TP3      O28114   3.498   2.561   2.828  0.7749 -0.1891  0.0595
 5432TP3     H128115   3.542   2.530   2.750 -0.1949  0.3551 -0.7128
 5432TP3     H228116   3.499   2.656   2.821 -0.6877 -0.1670 -0.0789
 5433TP3      O28117   3.999   0.613   0.743  0.0868  0.6926  0.4023
 5433TP3     H128118   4.073   0.646   0.693  1.1457 -0.1509  1.3792
 5433TP3     H228119   4.030   0.531   0.781 -1.1190  0.6592  1.3735
 5434TP3      O28120   5.226   4.828   1.957  0.2911  0.1157  0.5397
 5434TP3     H128121   5.195   4.785   2.037  0.9403 -1.2915  0.0399
 5434TP3     H228122   5.224   4.921   1.979  0.9873 -0.2734  2.3936
 5435TP3      O28123   1.262   0.070   7.759  0.3668  0.3976  0.3271
 5435TP3     H128124   1.174   0.092   7.791 -0.7926 -1.6911 -1.2912
 5435TP3     H228125   1.310   0.153   7.763 -1.9587  1.8037  0.3695
 5436TP3      O28126   3.496   5.078   2.567 -0.1055 -0.1044  0.1416
 5436TP3     H128127   3.546   5.102   2.489 -1.9475  2.2268 -0.3777
 5436TP3     H228128   3.413   5.044   2.532 -0.3287 -0.5340  1.0726
 5437TP3      O28129   3.905   4.194   1.534  0.4151 -0.1919 -0.2751
 5437TP3     H128130   3.891   4.174   1.442 -0.9813  1.4395 -0.4424
 5437TP3     H228131   3.819   4.185   1.575  0.6588  0.8261  0.5069
 5438TP3      O28132   5.344   4.408   1.377  0.4380  0.3188 -0.0655
 5438TP3     H128133   5.406   4.409   1.304  0.3854 -0.1868 -0.1186
 5438TP3     H228134   5.324   4.315   1.391  1.7707  0.2704  1.7065
 5439TP3      O28135   1.219   5.419   1.005  0.3726 -0.3993 -0.2174
 5439TP3     H128136   1.168   5.463   0.937 -0.1441 -0.7580 -0.0642
 5439TP3     H228137   1.303   5.401   0.964  0.9491  1.6129  0.0212
 5440TP3      O28138   1.236   0.502   1.795 -0.5242  0.0585  0.6332
 5440TP3     H128139   1.172   0.433   1.776 -0.2562  0.1042 -0.4704
 5440TP3     H228140   1.211   0.574   1.738  0.4945  0.0794  0.1987
 5441TP3      O28141   2.576   1.234   9.761 -0.4211 -0.2829 -0.3341
 5441TP3     H128142   2.577   1.151   9.808  0.6494 -0.2926 -0.3450
 5441TP3     H228143   2.664   1.270   9.775  0.1283 -0.5910 -2.8552
 5442TP3      O28144   1.809   3.269   1.613 -0.0690  0.1313 -0.5364
 5442TP3     H128145   1.718   3.298   1.624 -0.5383 -0.7927 -1.7622
 5442TP3     H228146   1.853   3.342   1.570 -0.1684  0.6561  0.2298
 5443TP3      O28147   3.206   4.608   2.517  0.1144  0.5972  0.5266
 5443TP3     H128148   3.179   4.687   2.470  0.9775  0.3820 -0.3323
 5443TP3     H228149   3.222   4.639   2.607  2.5884  1.8523 -0.3024
 5444TP3      O28150   2.119   5.236   1.431  0.2375 -0.4143 -0.6557
 5444TP3     H128151   2.066   5.228   1.351 -2.6485  1.8132  0.9269
 5444TP3     H228152   2.072   5.183   1.496  0.4640  0.8248  0.5328
 5445TP3      O28153   5.122   1.246   2.036  0.1507  0.2625  0.1843
 5445TP3     H128154   5.033   1.229   2.006 -0.2533  0.4147  1.2534
 5445TP3     H228155   5.153   1.318   1.982 -0.2864  0.0436 -0.3543
 5446TP3      O28156   4.316   1.900   0.560  0.4572  0.2481  0.5127
 5446TP3     H128157   4.239   1.949   0.532 -0.7604 -0.1673  3.0361
 5446TP3     H228158   4.336   1.843   0.486 -1.1524  0.9387 -0.4874
 5447TP3      O28159   5.075   5.461   1.317  0.1626 -0.2768 -0.2703
 5447TP3     H128160   5.140   5.440   1.250  1.3588 -1.3359  1.1720
 5447TP3     H228161   5.065   5.380   1.367  1.0738  1.1118  2.2852
 5448TP3      O28162   1.399   3.027   2.024 -0.6855  0.2867  0.1995
 5448TP3     H128163   1.461   3.099   2.026 -0.7130  0.3309 -0.7185
 5448TP3     H228164   1.316   3.067   1.998 -0.6297 -0.1324 -0.6200
 5449TP3      O28165   0.173   0.809   1.607 -0.4215  0.8010 -0.7213
 5449TP3     H128166   0.087   0.780   1.637  0.1016 -1.2780 -1.1635
 5449TP3     H228167   0.206   0.864   1.678 -2.1919  1.8117 -0.6383
 5450TP3      O28168   1.916   5.057   2.909  0.8225 -0.1601  0.0630
 5450TP3     H128169   1.916   5.152   2.912  0.9741 -0.1623  0.1709
 5450TP3     H228170   1.857   5.030   2.980  0.0119 -0.1310 -0.6019
 5451TP3      O28171   1.934   0.648   1.033  0.5552 -0.4821  0.0061
 5451TP3     H128172   1.853   0.672   1.078  0.7075 -1.5351  0.8674
 5451TP3     H228173   1.932   0.553   1.030  0.1513 -0.4073 -2.9807
 5452TP3      O28174   5.037   5.198   1.444 -0.1534 -0.7755 -0.2231
 5452TP3     H128175   5.019   5.246   1.524  0.6703 -1.7608  0.5685
 5452TP3     H228176   4.964   5.138   1.434  0.4960 -1.7182  0.6237
 5453TP3      O28177   1.786   4.563   0.725  0.0460  0.4075  0.3760
 5453TP3     H128178   1.879   4.580   0.716 -0.0165  0.1138 -0.9751
 5453TP3     H228179   1.764   4.594   0.813  1.0429  2.1553  0.0425
 5454TP3      O28180   2.237   4.295   1.675 -0.2178 -0.2973  0.1642
 5454TP3     H128181   2.223   4.294   1.770  0.5638 -1.2421  0.2734
 5454TP3     H228182   2.320   4.340   1.663 -0.3054 -0.1975 -0.0764
 5455TP3      O28183   2.606   0.274   1.141  0.0842 -0.0656  0.3569
 5455TP3     H128184   2.530   0.243   1.091  1.4518 -2.8087 -0.1549
 5455TP3     H228185   2.680   0.259   1.083  1.1002  2.0277  1.0780
 5456TP3      O28186   4.028   4.662   0.975 -0.1367 -0.0982  0.4303
 5456TP3     H128187   4.009   4.568   0.969 -1.1026 -0.0442  2.2244
 5456TP3     H228188   4.107   4.674   0.923  0.4236 -2.0435  0.7976
 5457TP3      O28189   4.221   4.105   0.393 -0.1597  0.2116 -0.4508
 5457TP3     H128190   4.288   4.049   0.432  1.3925  1.8143 -0.7478
 5457TP3     H228191   4.231   4.091   0.298 -0.1384  0.5870 -0.5027
 5458TP3      O28192   2.150   3.453   1.424  0.0046 -0.2476  0.1662
 5458TP3     H128193   2.187   3.513   1.359 -0.2260 -0.3331 -0.0469
 5458TP3     H228194   2.058   3.479   1.429 -0.0896 -0.5668  0.0929
 5459TP3      O28195   2.992   5.444   9.681 -0.2090  0.5024 -0.4873
 5459TP3     H128196   2.977   5.532   9.714 -0.5133 -0.0629  0.9428
 5459TP3     H228197   2.992   5.453   9.586  1.0180  2.2413 -0.3400
 5460TP3      O28198   3.177   2.195   2.169 -0.3335 -0.4427 -0.1463
 5460TP3     H128199   3.254   2.225   2.121  0.2672 -1.3796  0.2273
 5460TP3     H228200   3.110   2.184   2.101 -0.2083  0.5601 -0.4462
 5461TP3      O28201   0.762   4.641   2.609 -0.4298 -0.2827  0.5690
 5461TP3     H128202   0.766   4.620   2.516 -2.2812 -0.7585  0.5658
 5461TP3     H228203   0.830   4.587   2.649  0.8280  0.4279 -0.5874
 5462TP3      O28204   0.411   4.467   1.881  0.1040  0.7795  0.8135
 5462TP3     H128205   0.405   4.405   1.953  0.0622  0.9232  0.9354
 5462TP3     H228206   0.386   4.551   1.920  0.5771  0.9504  0.7562
 5463TP3      O28207   3.398   1.772   2.404  0.4577  0.2073  0.5757
 5463TP3     H128208   3.450   1.792   2.327 -1.3230  1.0748 -0.4275
 5463TP3     H228209   3.350   1.852   2.422 -1.6339 -1.0198  0.6019
 5464TP3      O28210   2.642   1.005   8.067  0.2642 -0.0003  0.1007
 5464TP3     H128211   2.642   1.096   8.036  1.4270  0.4626  1.4334
 5464TP3     H228212   2.626   0.953   7.988 -2.2707  1.4492 -0.3870
 5465TP3      O28213   2.199   5.490   1.531  0.3454 -0.3603 -0.1625
 5465TP3     H128214   2.148   5.409   1.529  0.5998 -0.5039 -1.0072
 5465TP3     H228215   2.258   5.483   1.456 -0.6656  1.2684 -1.1491
 5466TP3      O28216   3.453   0.884   1.679 -0.8867 -0.4568 -0.1644
 5466TP3     H128217   3.407   0.966   1.698 -0.4792 -0.1457 -0.5106
 5466TP3     H228218   3.383   0.821   1.660 -1.1705 -0.0197 -0.5615
 5467TP3      O28219   4.615   4.806   0.719  0.0622  0.6453 -0.5939
 5467TP3     H128220   4.669   4.886   0.721  1.9583 -0.6228  1.0646
 5467TP3     H228221   4.672   4.738   0.754 -2.6793 -0.7403  1.3510
 5468TP3      O28222   3.766   4.393   0.806 -0.0442 -0.1041 -0.2389
 5468TP3     H128223   3.717   4.365   0.883  1.0101 -0.3455  0.3593
 5468TP3     H228224   3.858   4.388   0.833  0.2568  2.3344 -0.6407
 5469TP3      O28225   5.166   4.529   0.453 -0.0741 -0.0287 -0.6700
 5469TP3     H128226   5.197   4.615   0.482 -2.6268  0.0801  2.0778
 5469TP3     H228227   5.117   4.547   0.373  1.6213  0.6765 -1.5714
 5470TP3      O28228   3.278   4.678   1.482 -0.5906  0.4243  0.3640
 5470TP3     H128229   3.241   4.680   1.394  0.9187  1.4905 -0.2814
 5470TP3     H228230   3.236   4.604   1.525  0.1208 -1.3706 -1.9308
 5471TP3      O28231   5.135   5.041   1.688 -0.4391  0.1767 -0.4308
 5471TP3     H128232   5.055   5.037   1.636  0.0718  0.1423 -1.2299
 5471TP3     H228233   5.183   5.116   1.652 -0.8740  1.2534  1.1633
 5472TP3      O28234   5.277   4.180   9.786 -0.2949  0.1533 -0.7392
 5472TP3     H128235   5.315   4.219   9.864  0.3062  1.1991 -1.5357
 5472TP3     H228236   5.340   4.200   9.716 -0.3824 -1.5343 -1.3196
 5473TP3      O28237   2.705   3.536   0.974  0.2360 -0.0911 -0.2214
 5473TP3     H128238   2.654   3.612   0.946 -0.9468 -1.3148 -1.4765
 5473TP3     H228239   2.775   3.572   1.029 -2.6304  1.5337  2.4921
 5474TP3      O28240   1.608   5.117   2.786 -0.5171  0.3359  0.3501
 5474TP3     H128241   1.692   5.132   2.744 -0.5410  0.3206  0.2969
 5474TP3     H228242   1.577   5.204   2.811 -0.1974  0.2825  0.9238
 5475TP3      O28243   1.996   1.162   1.640  0.0772 -0.1266 -0.3445
 5475TP3     H128244   2.083   1.201   1.636 -0.2504  0.6602  0.0708
 5475TP3     H228245   1.976   1.138   1.549  0.1362  1.0058 -0.6558
 5476TP3      O28246   2.104   5.417   2.956 -0.1059  0.5148 -0.1596
 5476TP3     H128247   2.018   5.390   2.989 -0.6076  2.3731  0.1353
 5476TP3     H228248   2.157   5.338   2.960 -1.0805 -0.0620  2.0819
 5477TP3      O28249   1.981   1.133   0.550 -0.4539 -0.3845 -0.3014
 5477TP3     H128250   2.043   1.148   0.621 -1.4411  1.2149  0.2572
 5477TP3     H228251   2.000   1.203   0.487 -0.4682 -0.9941 -0.9864
 5478TP3      O28252   2.611   0.380   9.213  0.4040  0.2313  0.6377
 5478TP3     H128253   2.562   0.310   9.255  0.0060  0.6516  0.8861
 5478TP3     H228254   2.544   0.444   9.189  0.5897 -0.1221 -0.8699
 5479TP3      O28255   2.168   3.881   2.761  0.3164 -0.1061 -0.3569
 5479TP3     H128256   2.238   3.829   2.722 -0.4853 -1.1192 -0.4448
 5479TP3     H228257   2.094   3.822   2.767 -1.2829  1.5819 -2.3984
 5480TP3      O28258   3.454   4.916   1.021 -0.6207  0.0724  0.8032
 5480TP3     H128259   3.371   4.954   0.992  0.8751  2.0925 -1.0352
 5480TP3     H228260   3.493   4.983   1.077  1.0580  0.3864 -0.6859
 5481TP3      O28261   2.501   3.777   2.994  0.3520  0.1275  0.1190
 5481TP3     H128262   2.462   3.739   2.916  2.3310 -0.9584 -0.3597
 5481TP3     H228263   2.497   3.871   2.979  1.4437 -0.0800 -1.6839
 5482TP3      O28264   4.017   1.924   9.176 -0.0557 -0.6045  0.0491
 5482TP3     H128265   4.096   1.885   9.138 -0.1395  0.2724 -1.0408
 5482TP3     H228266   3.985   1.858   9.237  0.1612 -1.9746 -1.3057
 5483TP3      O28267   2.521   4.064   2.960  0.2777  0.0190 -0.3965
 5483TP3     H128268   2.614   4.043   2.955  0.3798  0.5898 -0.9753
 5483TP3     H228269   2.513   4.150   2.919 -0.7347 -0.7549 -1.8928
 5484TP3      O28270   1.256   3.822   1.645  0.2929  0.1220 -0.3832
 5484TP3     H128271   1.269   3.802   1.738 -1.7173 -1.8190 -0.4727
 5484TP3     H228272   1.181   3.881   1.643  1.3457  1.4785 -0.6904
 5485TP3      O28273   3.117   4.475   1.599  0.1444  0.1347 -0.2326
 5485TP3     H128274   3.038   4.495   1.548  0.8129 -0.8351 -1.6778
 5485TP3     H228275   3.084   4.453   1.686 -1.3465 -1.8039 -1.2440
 5486TP3      O28276   2.920   4.845   3.022  0.1907 -0.2508  0.7007
 5486TP3     H128277   2.938   4.753   3.040  0.8450  0.0059  1.3895
 5486TP3     H228278   2.996   4.876   2.972  0.0446 -0.0443  0.6030
 5487TP3      O28279   4.704   1.427   1.570  0.3333  0.3995 -0.4832
 5487TP3     H128280   4.788   1.473   1.558  1.3767 -1.2891  0.1043
 5487TP3     H228281   4.686   1.434   1.664 -0.1069  0.6194 -0.5831
 5488TP3      O28282   3.594   3.123   2.355  0.3801 -0.5736  0.2602
 5488TP3     H128283   3.552   3.070   2.287 -0.9342 -0.4286  0.9422
 5488TP3     H228284   3.617   3.204   2.310 -1.4991 -0.0262  0.2144
 5489TP3      O28285   1.956   4.730   3.146 -0.3445  0.4441 -0.0628
 5489TP3     H128286   2.006   4.771   3.075  1.3855 -1.7382 -0.1594
 5489TP3     H228287   1.954   4.796   3.214 -1.2131  2.2354 -1.7836
 5490TP3      O28288   3.043   4.184   2.770  0.3050  0.5417 -0.1422
 5490TP3     H128289   3.041   4.251   2.839 -2.2997  0.9587 -0.5708
 5490TP3     H228290   3.057   4.233   2.690  2.3335  0.1563 -0.0318
 5491TP3      O28291   3.328   0.411   2.286 -0.0481  0.6577 -0.5962
 5491TP3     H128292   3.294   0.404   2.375  2.2474 -1.8720  0.1638
 5491TP3     H228293   3.253   0.395   2.229 -0.7137 -1.9615  0.9709
 5492TP3      O28294   2.694   4.918   3.147  0.5121  0.1626  0.0254
 5492TP3     H128295   2.719   4.857   3.216 -1.8508 -1.9096 -0.8951
 5492TP3     H228296   2.742   4.888   3.070  1.5919  1.2693  0.2365
 5493TP3      O28297   5.058   0.255   2.973  0.1358  0.1583 -0.3555
 5493TP3     H128298   5.003   0.188   2.933  1.7578 -0.9336 -0.8403
 5493TP3     H228299   5.085   0.217   3.056 -0.9649  1.2695  0.5237
 5494TP3      O28300   2.637   5.223   2.590  0.2630 -0.8455  0.0553
 5494TP3     H128301   2.729   5.206   2.569 -0.2339 -1.5878 -1.5839
 5494TP3     H228302   2.621   5.312   2.559  0.4143 -0.7242  0.3211
 5495TP3      O28303   5.464   0.509   1.472 -0.1632  0.2677 -0.3124
 5495TP3     H128304   5.470   0.436   1.410 -0.8192  0.4471 -0.5894
 5495TP3     H228305   5.407   0.477   1.542  1.6497 -0.4130  0.8831
 5496TP3      O28306   4.073   0.403   2.376  0.1725 -0.4469 -0.2817
 5496TP3     H128307   4.158   0.425   2.415  0.2521 -1.8569  0.3618
 5496TP3     H228308   4.011   0.459   2.423  0.5367 -0.5984  0.3937
 5497TP3      O28309   4.101   2.999   8.203 -0.0996 -0.4114  0.0536
 5497TP3     H128310   4.173   3.024   8.145  1.2478 -1.5258  1.2116
 5497TP3     H228311   4.056   3.081   8.221  0.8356  0.2940 -0.7457
 5498TP3      O28312   2.359   0.092   2.992 -0.1524  0.2058 -0.7024
 5498TP3     H128313   2.376   0.014   2.940  0.3318  0.0747 -0.3522
 5498TP3     H228314   2.313   0.060   3.070  0.0371  0.2631 -0.5636
 5499TP3      O28315   1.606   2.607   0.296 -0.8890 -0.0588 -0.4663
 5499TP3     H128316   1.607   2.658   0.215  1.1642 -0.1688 -0.5146
 5499TP3     H228317   1.607   2.674   0.365  0.4550  0.0040 -0.5349
 5500TP3      O28318   3.582   5.352   2.171 -0.0542 -0.3258  0.1576
 5500TP3     H128319   3.657   5.398   2.209 -0.5056  2.9391 -2.6320
 5500TP3     H228320   3.536   5.316   2.247  2.9713 -0.3407  2.1004
 5501TP3      O28321   4.581   0.100   3.377  0.1276 -0.2200 -0.0863
 5501TP3     H128322   4.602   0.192   3.364 -0.3489 -0.2950 -1.4592
 5501TP3     H228323   4.660   0.054   3.349 -0.3957 -0.3155 -1.4540
 5502TP3      O28324   3.810   2.239   0.952 -0.1740  0.3432  0.1326
 5502TP3     H128325   3.879   2.304   0.965 -0.6822  1.0321 -0.5536
 5502TP3     H228326   3.826   2.205   0.864  1.0244 -1.5975  1.0700
 5503TP3      O28327   2.147   2.615   0.951 -0.1724  0.4318 -0.1471
 5503TP3     H128328   2.133   2.699   0.994 -1.9147  0.5943 -1.0090
 5503TP3     H228329   2.122   2.550   1.017 -0.6959  0.6289 -0.1522
 5504TP3      O28330   4.925   4.813   1.943  0.2032 -0.1347  0.3450
 5504TP3     H128331   5.012   4.847   1.922  0.2712 -0.8643 -0.5882
 5504TP3     H228332   4.907   4.847   2.030  0.4087  2.0151 -0.4192
 5505TP3      O28333   4.889   5.124   2.970  0.0019 -0.0130  0.3665
 5505TP3     H128334   4.847   5.171   2.898  1.5791  0.0569 -0.5208
 5505TP3     H228335   4.873   5.179   3.047  0.3370  1.1039 -0.3543
 5506TP3      O28336   0.864   3.475   0.265 -0.3720 -0.2171 -0.5513
 5506TP3     H128337   0.827   3.425   0.193  2.7293 -2.5396 -0.6524
 5506TP3     H228338   0.919   3.541   0.222 -2.0656  1.3765 -0.3463
 5507TP3      O28339   3.035   3.937   2.857 -0.0877  0.1480 -0.3811
 5507TP3     H128340   3.120   3.938   2.899  0.5105  1.0048 -1.5820
 5507TP3     H228341   3.022   4.026   2.826 -0.8887 -0.2572 -1.2547
 5508TP3      O28342   2.583   4.262   2.040 -0.0463  0.0265 -0.2078
 5508TP3     H128343   2.533   4.226   1.967 -1.4272  0.4397  0.5296
 5508TP3     H228344   2.528   4.248   2.117  0.8086  0.8251  0.5642
 5509TP3      O28345   3.797   1.361   1.944 -0.1150  0.3272  0.5554
 5509TP3     H128346   3.706   1.331   1.943  0.2186 -0.6612 -0.4095
 5509TP3     H228347   3.849   1.281   1.957  0.6335  0.8279  0.6800
 5510TP3      O28348   2.343   0.960   0.679 -0.0769  0.6253  0.5007
 5510TP3     H128349   2.267   1.015   0.695 -0.1541  0.5713  0.3303
 5510TP3     H228350   2.348   0.902   0.755  0.8186  1.7827  1.3368
 5511TP3      O28351   4.159   0.127   0.065  0.3622 -0.4773  0.1316
 5511TP3     H128352   4.221   0.200   0.063 -0.9685  0.6187 -1.2291
 5511TP3     H228353   4.196   0.062   0.006  0.6538 -0.1944  0.0045
 5512TP3      O28354   2.869   5.091   1.787  0.1998  0.3803 -0.6271
 5512TP3     H128355   2.809   5.067   1.858 -0.4087  0.6947 -1.0286
 5512TP3     H228356   2.909   5.173   1.816  0.4412  0.1699 -0.3592
 5513TP3      O28357   4.356   4.081   0.134 -0.2148  0.5710 -0.2246
 5513TP3     H128358   4.443   4.051   0.111 -1.0102 -1.4367 -0.6974
 5513TP3     H228359   4.356   4.174   0.110  1.9089  0.7116  0.2107
 5514TP3      O28360   1.422   1.604   2.397  0.4185  0.0507  0.4723
 5514TP3     H128361   1.362   1.620   2.325 -0.9833  0.5763  1.7272
 5514TP3     H228362   1.466   1.688   2.411  0.4968  0.0215  0.4004
 5515TP3      O28363   3.599   4.529   2.410 -0.0483  0.0479  0.5993
 5515TP3     H128364   3.630   4.440   2.424  2.0168  0.2106 -2.3971
 5515TP3     H228365   3.678   4.583   2.414 -0.6975  1.2052 -1.5959
 5516TP3      O28366   1.274   3.369   2.944  0.0157 -0.0521  0.4834
 5516TP3     H128367   1.367   3.352   2.929 -0.1491  0.6419 -1.3925
 5516TP3     H228368   1.239   3.284   2.973  1.0415 -0.5272  0.3616
 5517TP3      O28369   2.072   4.732   1.787  0.3636 -0.2406 -0.3849
 5517TP3     H128370   2.013   4.660   1.764  1.4450 -0.8123 -1.4209
 5517TP3     H228371   2.082   4.781   1.705  0.7626  0.2688 -0.0318
 5518TP3      O28372   2.236   3.310   1.002 -0.4140  0.1565 -0.3002
 5518TP3     H128373   2.159   3.317   1.058  0.2284  0.2334  0.5929
 5518TP3     H228374   2.309   3.332   1.060  0.0955  2.1945 -1.6445
 5519TP3      O28375   0.304   0.580   1.666  0.0070  0.5749 -0.2289
 5519TP3     H128376   0.264   0.664   1.646  0.7640  1.4799  1.9193
 5519TP3     H228377   0.395   0.588   1.636 -0.1950  0.1574 -0.9552
 5520TP3      O28378   3.920   4.992   2.340 -0.1893 -0.1690 -0.3010
 5520TP3     H128379   3.932   4.947   2.423  2.3216 -0.5198 -0.8129
 5520TP3     H228380   3.964   5.076   2.351 -0.1787 -0.0556 -1.1502
 5521TP3      O28381   0.409   4.373   2.148  0.7991  0.2924 -0.1938
 5521TP3     H128382   0.431   4.281   2.165  0.5783 -0.4447 -3.5088
 5521TP3     H228383   0.478   4.423   2.191  0.5972 -1.4030  2.1531
 5522TP3      O28384   3.688   2.448   0.233 -0.1380 -0.8874  0.3709
 5522TP3     H128385   3.742   2.521   0.263 -0.4903 -0.6787  0.4977
 5522TP3     H228386   3.629   2.429   0.306 -0.0780 -1.2702  0.3224
 5523TP3      O28387   0.518   4.153   1.096 -0.5635 -0.0900  0.1977
 5523TP3     H128388   0.509   4.061   1.071  0.5377 -0.7170  1.9950
 5523TP3     H228389   0.537   4.199   1.014 -0.0267 -1.6356 -0.5516
 5524TP3      O28390   0.303   4.486   1.589 -0.6042  0.5218 -0.1694
 5524TP3     H128391   0.231   4.424   1.573 -1.6282  1.6435 -0.0088
 5524TP3     H228392   0.319   4.479   1.683  0.1574 -0.4309 -0.3653
 5525TP3      O28393   0.540   0.842   2.571 -0.4333 -0.1562  0.1977
 5525TP3     H128394   0.481   0.917   2.580  1.4065  1.2902  0.3289
 5525TP3     H228395   0.602   0.868   2.503 -1.3788 -2.6490 -1.7270
 5526TP3      O28396   0.988   3.102   2.642 -0.6008 -0.4243 -0.5301
 5526TP3     H128397   1.062   3.135   2.693  0.4004 -1.5262 -1.2503
 5526TP3     H228398   0.998   3.007   2.643 -2.2129 -0.5961 -0.3350
 5527TP3      O28399   4.988   5.111   2.094 -0.7340 -0.0147 -0.0936
 5527TP3     H128400   5.027   5.083   2.177  1.1552  3.5821  0.3251
 5527TP3     H228401   5.062   5.141   2.041 -2.0293 -1.2625 -2.7150
 5528TP3      O28402   5.304   1.886   9.989 -0.0923 -0.3292  0.1310
 5528TP3     H128403   5.390   1.894   9.949 -0.6771 -0.1224 -1.1140
 5528TP3     H228404   5.318   1.907  10.081  1.1333 -0.0048 -0.1279
 5529TP3      O28405   4.143   1.532   1.496 -0.1667 -0.3517  0.8586
 5529TP3     H128406   4.053   1.564   1.495  0.6095  1.8827 -0.7059
 5529TP3     H228407   4.157   1.498   1.407 -0.1315 -2.7200  1.7318
 5530TP3      O28408   0.655   3.043   1.911  0.4030 -0.0274 -0.2380
 5530TP3     H128409   0.677   2.997   1.991  0.4114 -0.7347 -0.6448
 5530TP3     H228410   0.641   2.974   1.846  0.1311  0.5250 -0.7778
 5531TP3      O28411   1.595   4.899   3.286  1.0788  1.2964  0.3409
 5531TP3     H128412   1.625   4.827   3.231  0.5830  0.9344  0.5346
 5531TP3     H228413   1.613   4.978   3.235 -3.0621  0.7565 -2.1879
 5532TP3      O28414   3.248   2.983   0.003 -0.5053 -0.0434  0.5790
 5532TP3     H128415   3.276   2.965   0.092 -0.4871 -0.4719  0.4879
 5532TP3     H228416   3.242   2.896  -0.039  2.4874  0.3399 -0.7352
 5533TP3      O28417   1.626   4.280   1.689  1.2476 -0.3119  0.5340
 5533TP3     H128418   1.705   4.281   1.636  1.3726 -1.2766  0.6958
 5533TP3     H228419   1.654   4.244   1.773  0.4582 -1.5185  0.2953
 5534TP3      O28420   2.655   0.238   0.182  0.6621 -0.1591  0.3004
 5534TP3     H128421   2.603   0.263   0.258  0.8353  0.6920  0.1449
 5534TP3     H228422   2.618   0.154   0.154 -0.2389  0.1534  0.5383
 5535TP3      O28423   5.061   4.076   3.110 -0.0197  0.0600 -0.4031
 5535TP3     H128424   5.036   3.987   3.134  0.8474 -0.2058 -0.4722
 5535TP3     H228425   5.137   4.095   3.165 -0.9433  1.2121  0.4937
 5536TP3      O28426   1.427   3.553   1.001 -0.1254  0.2516 -0.3457
 5536TP3     H128427   1.398   3.638   0.968 -0.0951  0.1804 -0.5565
 5536TP3     H228428   1.366   3.490   0.960  0.7648  0.0286 -1.3558
 5537TP3      O28429   0.483   1.772   8.558 -0.5341  0.0362 -0.1158
 5537TP3     H128430   0.449   1.763   8.647  2.6332 -0.4090  1.1090
 5537TP3     H228431   0.465   1.688   8.516  1.2624 -1.1014  1.3317
 5538TP3      O28432   3.426   1.398   1.706 -0.2200  0.0201 -0.4985
 5538TP3     H128433   3.358   1.430   1.767 -0.7268 -0.4182 -0.8295
 5538TP3     H228434   3.381   1.332   1.653  1.0135 -1.8203  0.6889
 5539TP3      O28435   3.674   5.093   1.535  0.1691  0.2124  0.4424
 5539TP3     H128436   3.671   5.149   1.612  0.5810  1.1725 -0.2308
 5539TP3     H228437   3.663   5.153   1.461  1.0888 -0.5280 -0.3129
 5540TP3      O28438   2.092   2.952   8.637 -0.3560  0.1696  0.1866
 5540TP3     H128439   2.158   2.893   8.601 -0.4379 -0.5444  1.1991
 5540TP3     H228440   2.087   2.930   8.730 -1.3014  0.9045  0.3260
 5541TP3      O28441   1.824   2.005   1.812  0.2727 -0.3940  0.9567
 5541TP3     H128442   1.743   2.039   1.850 -0.1957 -0.1818 -0.2153
 5541TP3     H228443   1.867   1.961   1.885 -1.3870 -1.4176  1.3580
 5542TP3      O28444   2.475   3.875   0.212 -0.6210  0.2675 -0.2797
 5542TP3     H128445   2.508   3.940   0.274  0.0705 -0.9592  0.6660
 5542TP3     H228446   2.552   3.825   0.186 -1.2405 -0.6192 -0.4586
 5543TP3      O28447   2.724   3.778   2.684 -0.1926 -0.3862  0.1811
 5543TP3     H128448   2.765   3.752   2.601  0.5473 -1.3259  0.8412
 5543TP3     H228449   2.796   3.812   2.737 -0.5896 -0.2364  0.6259
 5544TP3      O28450   4.538   1.573   2.907  0.3450  0.3068  0.3758
 5544TP3     H128451   4.451   1.603   2.934  0.4250  1.1826 -0.3056
 5544TP3     H228452   4.533   1.477   2.911 -1.5268  0.2404 -2.2892
 5545TP3      O28453   1.682   1.092   1.723 -0.1446  0.5275  0.2822
 5545TP3     H128454   1.634   1.042   1.657 -0.4015  0.1703  0.7346
 5545TP3     H228455   1.651   1.182   1.713  1.0017  0.7660 -1.1569
 5546TP3      O28456   2.955   3.903   0.907  0.3485  0.1392  0.0333
 5546TP3     H128457   2.939   3.834   0.971 -0.4559 -0.4322 -0.7609
 5546TP3     H228458   2.874   3.907   0.856  0.2418  1.9235  0.3013
 5547TP3      O28459   3.074   0.481   1.781  0.3373 -0.0565 -0.3445
 5547TP3     H128460   3.132   0.417   1.742 -0.7300 -1.5448  0.4553
 5547TP3     H228461   3.011   0.502   1.712 -0.0490 -0.8000 -0.2186
 5548TP3      O28462   4.212   4.932  10.196  0.3115 -0.1435 -0.3455
 5548TP3     H128463   4.158   4.904  10.122 -1.4077  1.4221  0.2942
 5548TP3     H228464   4.286   4.978  10.155 -0.9234  1.2088 -1.0973
 5549TP3      O28465   5.515   5.134   2.036 -0.2917 -0.3209  0.0531
 5549TP3     H128466   5.564   5.073   2.092  0.4634  0.9199  0.7558
 5549TP3     H228467   5.576   5.206   2.020 -1.0921  0.1355 -0.9974
 5550TP3      O28468   0.572   3.211   2.913  0.4445 -0.3371 -0.3457
 5550TP3     H128469   0.667   3.214   2.912  0.3976  0.7228 -1.1321
 5550TP3     H228470   0.548   3.155   2.839  0.4873 -1.7710  0.6896
 5551TP3      O28471   5.457   3.631  10.253 -0.2850  0.2129  0.3486
 5551TP3     H128472   5.525   3.651  10.317 -0.0961  0.5250  0.0508
 5551TP3     H228473   5.502   3.583  10.184 -0.9074 -2.0708  1.4779
 5552TP3      O28474   4.297   0.702   9.311  0.4135  0.3808 -0.0810
 5552TP3     H128475   4.268   0.787   9.280  0.5204  0.7005  0.6868
 5552TP3     H228476   4.241   0.639   9.265 -0.8257  0.9358  0.6385
 5553TP3      O28477   5.413   1.395   1.979 -0.7166 -0.4975  0.5393
 5553TP3     H128478   5.489   1.344   2.006 -1.5783 -1.8046  0.5291
 5553TP3     H228479   5.427   1.482   2.016  1.1232 -0.5229 -0.0551
 5554TP3      O28480   4.330   2.986   2.070 -0.2832  0.1107  0.4475
 5554TP3     H128481   4.307   2.952   1.984 -0.2156 -1.3099  0.9689
 5554TP3     H228482   4.423   2.963   2.081  0.0657  1.4643  0.3500
 5555TP3      O28483   0.466   1.770   1.662 -0.0079 -0.1110 -0.3147
 5555TP3     H128484   0.473   1.740   1.572 -1.0311  1.4360 -0.9253
 5555TP3     H228485   0.544   1.824   1.675 -0.1220  0.0911 -0.4555
 5556TP3      O28486   1.396   4.132   2.162  0.0196 -0.0246 -0.2375
 5556TP3     H128487   1.364   4.109   2.250 -0.0192  0.7932 -0.0333
 5556TP3     H228488   1.477   4.081   2.153 -0.7853 -1.3223 -0.3568
 5557TP3      O28489   4.104   2.473   2.530 -0.0744 -0.1625 -0.2429
 5557TP3     H128490   4.049   2.443   2.459 -0.1421 -0.6216 -0.0014
 5557TP3     H228491   4.142   2.393   2.566  1.2093  0.1884 -0.7831
 5558TP3      O28492   0.894   0.631   1.277 -0.1846  0.5688  0.0696
 5558TP3     H128493   0.947   0.709   1.295  1.5941 -0.1923 -1.6748
 5558TP3     H228494   0.919   0.569   1.345  2.3196 -0.3085 -1.5901
 5559TP3      O28495   3.392   2.136   1.692  0.0957 -0.2146  0.7046
 5559TP3     H128496   3.376   2.218   1.739 -2.5568 -0.0604 -0.3531
 5559TP3     H228497   3.311   2.086   1.703  1.2771 -2.2450  0.4117
 5560TP3      O28498   3.612   0.860   0.162 -0.1595  0.3887  0.0259
 5560TP3     H128499   3.665   0.931   0.200  0.1029  0.8356 -1.1179
 5560TP3     H228500   3.539   0.850   0.222 -0.4537  1.9691 -0.0314
 5561TP3      O28501   0.569   3.428   1.002  0.0675  0.2678  0.1209
 5561TP3     H128502   0.565   3.349   1.055  1.0155  0.2794  0.2265
 5561TP3     H228503   0.556   3.398   0.912 -0.9928  0.1786  0.2956
 5562TP3      O28504   3.665   1.013   1.178 -0.2038 -0.1136  0.6253
 5562TP3     H128505   3.729   1.084   1.168 -0.0774 -0.1283  1.3462
 5562TP3     H228506   3.620   1.010   1.094 -1.4969  2.0846  1.2114
 5563TP3      O28507   0.160   3.126   3.164  0.4800  0.2707 -0.1069
 5563TP3     H128508   0.201   3.157   3.084 -0.7239  0.7472 -0.5543
 5563TP3     H228509   0.232   3.112   3.225  1.3401  0.5332 -1.0623
 5564TP3      O28510   5.107   4.670   2.143 -0.7721 -0.3765 -0.1240
 5564TP3     H128511   5.105   4.704   2.232  0.8744  1.3505 -0.6942
 5564TP3     H228512   5.101   4.575   2.152  0.5154 -0.2810  1.8850
 5565TP3      O28513   4.617   1.571   2.125 -0.4802 -1.1407 -0.7878
 5565TP3     H128514   4.635   1.477   2.119  1.1404 -0.9903  1.5165
 5565TP3     H228515   4.562   1.580   2.203 -0.0192 -0.0919 -0.5753
 5566TP3      O28516   2.545   1.971   0.972  0.1797  0.2404 -0.0462
 5566TP3     H128517   2.599   2.028   0.917 -1.6606  2.1504  0.0414
 5566TP3     H228518   2.471   1.948   0.917 -0.2015 -0.2432  0.6584
 5567TP3      O28519   4.274   1.109   9.553 -0.2244  0.0919  0.3112
 5567TP3     H128520   4.189   1.146   9.576 -0.3067 -0.8470  1.5156
 5567TP3     H228521   4.337   1.161   9.602 -0.1788  0.0521  0.2950
 5568TP3      O28522   4.221   3.826   2.158 -0.1246 -0.0983 -0.0159
 5568TP3     H128523   4.309   3.833   2.121  0.9896 -0.0612  2.4916
 5568TP3     H228524   4.171   3.894   2.114  1.3209  0.4301 -0.8904
 5569TP3      O28525   3.899   1.973   1.715  0.3380  0.4533  0.0821
 5569TP3     H128526   3.952   2.048   1.740  0.3883 -0.3499  2.5138
 5569TP3     H228527   3.956   1.897   1.726 -0.0283 -0.0648 -1.3587
 5570TP3      O28528   4.222   4.660   1.837  0.0648  0.1812  0.3614
 5570TP3     H128529   4.151   4.687   1.778  0.6129  3.6992  1.1805
 5570TP3     H228530   4.196   4.696   1.922  1.4538 -0.9851  1.2901
 5571TP3      O28531   4.871   0.203   1.917 -0.2107  0.3268  0.0501
 5571TP3     H128532   4.922   0.285   1.920  1.5040 -0.6393 -1.5447
 5571TP3     H228533   4.837   0.193   2.006  0.8484  1.9835  0.6666
 5572TP3      O28534   4.808   2.370   1.534 -0.4285  0.4539 -0.2340
 5572TP3     H128535   4.850   2.309   1.594 -0.3214  0.1929 -0.5722
 5572TP3     H228536   4.836   2.457   1.564 -1.8580  0.4410  1.2266
 5573TP3      O28537   1.500   2.722   1.333 -0.1003  0.1299  0.0703
 5573TP3     H128538   1.486   2.682   1.247  1.6520  1.7214 -0.9945
 5573TP3     H228539   1.418   2.769   1.351 -0.3690  0.0378 -0.8665
 5574TP3      O28540   5.173   0.321   2.734  0.2377 -0.4273 -0.1170
 5574TP3     H128541   5.112   0.321   2.809  0.0475  0.8483 -0.2646
 5574TP3     H228542   5.232   0.395   2.751 -0.7192  0.7994 -1.9566
 5575TP3      O28543   5.083   3.075   0.327 -0.1160  0.1400 -0.1568
 5575TP3     H128544   5.081   3.087   0.422 -0.8682 -0.2541 -0.1181
 5575TP3     H228545   5.093   3.163   0.292  1.3883  0.1684  0.3164
 5576TP3      O28546   1.297   3.428   2.209 -0.6928  0.3699 -0.0554
 5576TP3     H128547   1.293   3.332   2.216 -1.6996  0.4523  0.5731
 5576TP3     H228548   1.358   3.444   2.137 -0.7243 -0.7472 -0.3376
 5577TP3      O28549   0.557   3.653   1.900  0.3418 -0.6106 -0.1331
 5577TP3     H128550   0.539   3.600   1.977 -0.4755 -1.2057 -0.7187
 5577TP3     H228551   0.502   3.730   1.910  1.8274  0.3491  0.9159
 5578TP3      O28552   4.471   1.621   2.345  0.0623  0.1827  0.4286
 5578TP3     H128553   4.477   1.716   2.353 -1.2258  0.2537  0.6478
 5578TP3     H228554   4.470   1.590   2.436  1.1064 -0.0938  0.3550
 5579TP3      O28555   0.008   1.272   9.884 -0.0781  0.1132  0.5857
 5579TP3     H128556   0.031   1.179   9.896 -1.1614 -0.1232  0.9076
 5579TP3     H228557   0.009   1.284   9.789 -0.8512 -0.4874  0.4884
 5580TP3      O28558   3.475   0.029   1.149  0.5666  0.0747  0.0798
 5580TP3     H128559   3.380   0.012   1.145  0.6036  0.1242 -1.0149
 5580TP3     H228560   3.481   0.117   1.185  0.1740  0.3046 -0.4088
 5581TP3      O28561   0.754   2.206   0.511  0.1543  0.3897  0.2661
 5581TP3     H128562   0.724   2.287   0.470 -1.1621  0.0027  0.4363
 5581TP3     H228563   0.728   2.137   0.450 -0.5569 -0.0705  1.0744
 5582TP3      O28564   1.356   0.302   9.690 -0.1320 -0.4146 -0.0611
 5582TP3     H128565   1.352   0.230   9.754  0.2293 -0.0109  0.4145
 5582TP3     H228566   1.434   0.283   9.638 -0.1530 -0.4750 -0.0718
 5583TP3      O28567   0.851   2.593   1.347 -0.3689  0.5633 -0.1620
 5583TP3     H128568   0.936   2.625   1.317 -0.1294 -0.8242 -1.0206
 5583TP3     H228569   0.819   2.661   1.406  2.0566  0.3643  1.4511
 5584TP3      O28570   2.236   1.784   1.430 -0.2094  0.1483  0.2719
 5584TP3     H128571   2.216   1.798   1.523  1.1771 -1.2169  0.7986
 5584TP3     H228572   2.201   1.698   1.411 -1.3895  0.8487 -0.7545
 5585TP3      O28573   1.949   2.449   1.645 -0.4872 -0.4472  0.1500
 5585TP3     H128574   1.920   2.477   1.558  0.9220 -1.0620 -0.5448
 5585TP3     H228575   1.934   2.355   1.646 -0.4550 -0.4491  0.5594
 5586TP3      O28576   0.758   2.124   9.795  0.7416 -0.1519 -0.3023
 5586TP3     H128577   0.663   2.120   9.783  0.3987 -1.8286  2.4417
 5586TP3     H228578   0.792   2.057   9.735  0.1350 -0.0734 -0.7431
 5587TP3      O28579   2.443   4.725   9.284  0.5641 -0.4987  0.0656
 5587TP3     H128580   2.469   4.808   9.244 -1.5945 -1.2565 -3.0413
 5587TP3     H228581   2.362   4.746   9.331  0.8390 -0.5365  0.5626
 5588TP3      O28582   5.426   4.855   3.028 -0.6337 -0.3778 -0.1411
 5588TP3     H128583   5.332   4.871   3.033 -0.2038  2.4074 -0.1861
 5588TP3     H228584   5.459   4.877   3.115  0.3677  1.7201 -1.0086
 5589TP3      O28585   3.001   0.927   2.635 -0.1636 -0.0014  0.2532
 5589TP3     H128586   2.917   0.881   2.637 -0.2864  0.1967 -0.1545
 5589TP3     H228587   2.978   1.019   2.647 -0.0536  0.1088 -0.3554
 5590TP3      O28588   1.554   1.421   9.402 -0.1377 -0.7528  0.3063
 5590TP3     H128589   1.584   1.413   9.311  0.0189  0.3190  0.2587
 5590TP3     H228590   1.519   1.510   9.408 -0.6995 -1.0247  1.1396
 5591TP3      O28591   4.810   1.594   1.228  0.3336  0.2793 -0.2301
 5591TP3     H128592   4.852   1.639   1.155 -2.2110  2.0687 -0.6687
 5591TP3     H228593   4.717   1.614   1.217 -0.3935 -1.7934  1.8905
 5592TP3      O28594   1.875   5.279  10.203 -0.1148 -0.1036  0.8063
 5592TP3     H128595   1.927   5.342  10.253  1.5564 -0.9299  0.1155
 5592TP3     H228596   1.871   5.314  10.115  1.6936 -1.4376  0.1585
 5593TP3      O28597   0.490   4.448   9.191  0.2112  0.6356 -0.9579
 5593TP3     H128598   0.457   4.368   9.151 -0.6214  0.5741 -0.1450
 5593TP3     H228599   0.584   4.433   9.199  0.0729 -0.2234 -0.8904
 5594TP3      O28600   4.980   5.269   2.398 -0.1651  0.3326  0.0043
 5594TP3     H128601   5.031   5.188   2.390 -1.2626 -0.4185  0.4573
 5594TP3     H228602   4.945   5.283   2.310  1.4275  1.2777 -0.5034
 5595TP3      O28603   0.057   1.151   2.639 -0.0793 -0.2277 -0.3833
 5595TP3     H128604   0.065   1.228   2.694 -0.3284  0.4546 -1.2876
 5595TP3     H228605   0.048   1.186   2.550 -0.4374 -1.2871 -0.7713
 5596TP3      O28606   5.445   4.644   0.611  0.7013  0.2335 -0.4711
 5596TP3     H128607   5.397   4.574   0.568  0.0118  0.5685 -0.2487
 5596TP3     H228608   5.522   4.657   0.556 -1.2453  2.1673 -2.8416
 5597TP3      O28609   0.862   4.525   1.847  0.6318 -0.6926 -0.2343
 5597TP3     H128610   0.864   4.616   1.876 -1.0358 -0.9257  0.6828
 5597TP3     H228611   0.904   4.476   1.917  0.9898 -0.6945 -0.4514
 5598TP3      O28612   5.437   4.731   2.552  0.1358 -0.4267 -0.0007
 5598TP3     H128613   5.481   4.678   2.485 -0.0849 -0.4177 -0.1484
 5598TP3     H228614   5.507   4.786   2.588 -0.1536  0.9736 -1.5633
 5599TP3      O28615   4.946   2.613   1.492  0.3995 -0.2954 -0.5790
 5599TP3     H128616   4.942   2.707   1.475  1.3663 -0.5424 -2.2688
 5599TP3     H228617   5.036   2.597   1.519  0.5116 -0.9092 -1.3190
 5600TP3      O28618   5.102   1.729   9.926 -0.3174  0.2003  0.1671
 5600TP3     H128619   5.184   1.779   9.928 -0.2223  0.1073 -1.0395
 5600TP3     H228620   5.034   1.795   9.941 -0.0338  0.2672  1.2391
 5601TP3      O28621   4.190   0.072   3.558 -0.2889 -0.0745  0.1958
 5601TP3     H128622   4.193   0.167   3.544  2.3780 -0.4010 -1.7948
 5601TP3     H228623   4.111   0.045   3.510 -0.7881  1.0545  0.3418
 5602TP3      O28624   2.756   4.454   0.554  0.0620  0.2322  0.4393
 5602TP3     H128625   2.699   4.422   0.623  0.3462 -0.3426  0.4050
 5602TP3     H228626   2.842   4.418   0.574 -0.1518 -1.1408 -1.0188
 5603TP3      O28627   0.074   3.551   9.557  0.0569 -0.3044  0.1355
 5603TP3     H128628   0.154   3.500   9.558 -0.3367 -1.0135 -2.0260
 5603TP3     H228629   0.091   3.623   9.619  2.5998 -0.0725 -0.7558
 5604TP3      O28630   1.873   4.661   9.612 -0.1152  0.2399 -0.1037
 5604TP3     H128631   1.834   4.584   9.655 -0.8624  0.1218 -0.9857
 5604TP3     H228632   1.821   4.672   9.532  0.2361  1.4356 -0.1629
 5605TP3      O28633   3.814   4.035   2.387  0.2555  0.3882 -0.5829
 5605TP3     H128634   3.811   3.976   2.462 -0.7515 -0.0011 -0.9217
 5605TP3     H228635   3.722   4.049   2.364  0.6075 -3.3885 -4.8159
 5606TP3      O28636   4.071   2.464   8.826 -0.2473 -0.2461  0.1761
 5606TP3     H128637   4.096   2.458   8.918 -1.3470  0.1888  0.5064
 5606TP3     H228638   4.057   2.557   8.810  0.3168 -0.2767 -0.5407
 5607TP3      O28639   3.307   3.281   2.053 -0.1442  0.2754  0.5144
 5607TP3     H128640   3.324   3.260   2.144 -2.9028  0.1955  1.0652
 5607TP3     H228641   3.389   3.317   2.020  2.1176 -3.3489  1.9209
 5608TP3      O28642   5.367   3.945   2.297  0.0708 -0.3790 -0.8779
 5608TP3     H128643   5.462   3.953   2.290  0.0621 -0.0860 -0.6633
 5608TP3     H228644   5.333   4.001   2.227  0.0048  1.8808  0.8922
 5609TP3      O28645   3.921   0.734  10.012  0.7194 -0.3670 -0.3148
 5609TP3     H128646   3.942   0.743   9.919 -0.4633  2.0597 -0.3871
 5609TP3     H228647   3.837   0.687  10.013 -0.1150  1.0715 -0.5833
 5610TP3      O28648   2.261   0.577   2.852  0.7677 -0.3070  0.3797
 5610TP3     H128649   2.247   0.503   2.793 -0.3498 -0.1751  0.4676
 5610TP3     H228650   2.327   0.546   2.914  1.0334 -0.8832 -0.1815
 5611TP3      O28651   4.390   4.764   9.595 -0.1603 -0.5317  0.2244
 5611TP3     H128652   4.322   4.743   9.658 -1.4118  0.9969 -0.5840
 5611TP3     H228653   4.352   4.742   9.510  0.4673  0.0037 -0.2025
 5612TP3      O28654   0.239   4.261   2.630  0.1903 -0.2814  0.9109
 5612TP3     H128655   0.159   4.304   2.660  0.5376  2.1507 -1.4906
 5612TP3     H228656   0.293   4.254   2.709 -1.5165 -0.0207  2.1419
 5613TP3      O28657   4.874   3.408   1.594  0.2179 -0.4544 -0.2087
 5613TP3     H128658   4.841   3.484   1.545  1.0011 -0.3610 -0.5873
 5613TP3     H228659   4.808   3.340   1.580  0.6615 -0.5814 -1.7815
 5614TP3      O28660   2.448   4.132   2.269 -0.4887  0.1384 -0.4025
 5614TP3     H128661   2.394   4.132   2.349 -2.6437 -0.9712 -1.7919
 5614TP3     H228662   2.425   4.050   2.225  1.8358 -0.0079 -1.4183
 5615TP3      O28663   0.984   0.851   2.635  0.1322 -0.0749  0.4945
 5615TP3     H128664   1.070   0.884   2.660  1.0368 -1.0547 -1.2066
 5615TP3     H228665   0.997   0.757   2.623 -0.8652 -0.0395 -1.0216
 5616TP3      O28666   4.480   0.087   1.302  0.5856 -0.7069 -0.3411
 5616TP3     H128667   4.524   0.002   1.295  0.0543 -1.2551  2.3979
 5616TP3     H228668   4.549   0.146   1.333  0.5955 -0.4723 -0.8121
 5617TP3      O28669   0.698   3.095   0.287 -0.8986  0.2779  0.2735
 5617TP3     H128670   0.782   3.127   0.319 -0.5022 -0.4449 -0.0516
 5617TP3     H228671   0.687   3.010   0.329 -1.1205  0.0392 -0.2677
 5618TP3      O28672   4.009   4.116   0.597 -0.2269 -0.1066 -0.2824
 5618TP3     H128673   4.066   4.150   0.666  0.1612 -0.8709 -0.2153
 5618TP3     H228674   4.063   4.118   0.518 -0.8329  1.2347 -0.6702
 5619TP3      O28675   2.630   2.945   1.832 -0.5501 -0.1074 -0.0926
 5619TP3     H128676   2.590   2.858   1.832  0.8477 -0.8121 -2.5328
 5619TP3     H228677   2.725   2.928   1.832 -0.2679  1.3903 -0.4061
 5620TP3      O28678   4.147   1.844   1.666  0.2755 -0.3471 -0.5247
 5620TP3     H128679   4.209   1.789   1.714 -0.0528 -0.6408 -0.4358
 5620TP3     H228680   4.174   1.836   1.575  0.8846  0.1904 -0.4014
 5621TP3      O28681   4.476   3.264   2.903  0.0006  0.2640  0.1366
 5621TP3     H128682   4.481   3.212   2.983  0.3421 -0.0892 -0.1138
 5621TP3     H228683   4.383   3.287   2.896 -0.2272 -0.6581  0.0286
 5622TP3      O28684   4.619   3.563  10.040  0.1192  0.3291  0.6051
 5622TP3     H128685   4.543   3.577   9.985  0.2618 -0.5353  0.1763
 5622TP3     H228686   4.594   3.490  10.097  1.0919 -0.8366 -0.4318
 5623TP3      O28687   3.947   2.461   2.754 -0.2279  0.0035 -0.7583
 5623TP3     H128688   3.881   2.396   2.728 -0.4090  0.2473 -0.9167
 5623TP3     H228689   3.997   2.478   2.674 -0.6207  0.5651 -0.8924
 5624TP3      O28690   0.263   2.462   8.762  0.7080 -0.1272 -0.0502
 5624TP3     H128691   0.276   2.500   8.675  0.8686  0.3712  0.1910
 5624TP3     H228692   0.172   2.480   8.783  0.0271 -2.2526 -1.0755
 5625TP3      O28693   0.008   0.336   2.272 -0.4600 -0.2171 -0.1494
 5625TP3     H128694   0.009   0.342   2.367  0.5396  0.8059 -0.2114
 5625TP3     H228695  -0.076   0.373   2.246  0.2258  1.6838  0.2325
 5626TP3      O28696   0.080   1.795   1.430  0.2066 -1.0310 -0.5674
 5626TP3     H128697   0.123   1.874   1.464  0.7058 -0.1736 -3.1315
 5626TP3     H228698   0.096   1.729   1.498  1.2832  0.5897  0.8075
 5627TP3      O28699   1.638   1.270   2.120 -0.0970 -0.2529 -0.2716
 5627TP3     H128700   1.695   1.260   2.196  2.2623  0.7454 -1.8535
 5627TP3     H228701   1.681   1.218   2.051 -1.5569 -0.1770 -1.2718
 5628TP3      O28702   2.715   2.571   2.044  0.5413  0.1830  0.1463
 5628TP3     H128703   2.747   2.583   1.955  0.8991  0.7378  0.3431
 5628TP3     H228704   2.711   2.660   2.080 -0.8788  0.0987  0.2417
 5629TP3      O28705   4.591   0.532   1.443  0.0223  0.6595 -1.1287
 5629TP3     H128706   4.623   0.607   1.492 -0.4975  0.3158 -0.2589
 5629TP3     H228707   4.563   0.568   1.359  1.1943  1.2003 -1.2894
 5630TP3      O28708   1.703   0.400   1.578  0.3654  0.7040  0.7291
 5630TP3     H128709   1.692   0.465   1.647 -1.9345  1.0508  0.0945
 5630TP3     H228710   1.624   0.409   1.524  0.8244 -1.4235 -0.3716
 5631TP3      O28711   4.712   0.013   2.741  0.1135  0.0628  0.1244
 5631TP3     H128712   4.623   0.035   2.713  0.8798 -0.5974 -3.0416
 5631TP3     H228713   4.764   0.018   2.661  2.4591 -2.0559  1.4442
 5632TP3      O28714   4.583   4.075   2.137  0.1680  0.5480  0.1035
 5632TP3     H128715   4.509   4.089   2.078  1.5116 -1.4402 -2.1366
 5632TP3     H228716   4.553   4.007   2.197 -1.3304  2.8277  2.0447
 5633TP3      O28717   2.743   1.273   2.510 -0.0830  0.7435  0.1382
 5633TP3     H128718   2.740   1.345   2.573  1.0448  0.7830  0.1555
 5633TP3     H228719   2.812   1.215   2.542 -0.1653  0.2637 -0.5298
 5634TP3      O28720   4.976   1.979   0.883  0.1668 -0.4247  0.2378
 5634TP3     H128721   4.953   2.030   0.805 -0.1963 -0.9737 -0.0187
 5634TP3     H228722   5.060   2.016   0.911 -1.3403  2.0565  1.6164
 5635TP3      O28723   2.740   4.059   1.374  0.1543 -0.3706 -0.0868
 5635TP3     H128724   2.668   4.110   1.411  0.5983  0.0678  0.1825
 5635TP3     H228725   2.753   4.096   1.287  0.9286  0.4556  0.3620
 5636TP3      O28726   2.297   0.826   2.743  0.2561 -0.1991  0.6154
 5636TP3     H128727   2.236   0.880   2.794  2.3539 -0.4795  3.5242
 5636TP3     H228728   2.284   0.737   2.776 -0.7084 -0.9709 -1.7326
 5637TP3      O28729   3.496   0.714   0.378  0.3328  0.3012 -0.3511
 5637TP3     H128730   3.548   0.667   0.444  1.2248 -0.6683 -1.6977
 5637TP3     H228731   3.513   0.666   0.297 -1.9531  0.5541 -0.9960
 5638TP3      O28732   3.242   0.820   3.130 -0.1069  0.4599 -0.0974
 5638TP3     H128733   3.208   0.822   3.041  1.5219 -0.8194 -0.7604
 5638TP3     H228734   3.312   0.886   3.130  0.1693  0.1658  0.1235
 5639TP3      O28735   2.546   5.113   2.827 -0.6796 -0.0629  0.1896
 5639TP3     H128736   2.566   5.122   2.734  2.1490  0.4150  0.8142
 5639TP3     H228737   2.567   5.021   2.847 -0.6686  0.0039  0.4872
 5640TP3      O28738   2.816   5.397   0.122  0.0700  0.6188 -0.3363
 5640TP3     H128739   2.813   5.303   0.105  0.5895  0.4909  0.2524
 5640TP3     H228740   2.725   5.421   0.140  0.0332  0.1063  0.1628
 5641TP3      O28741   1.040   5.275   2.530 -0.3563  0.2983 -0.1672
 5641TP3     H128742   1.114   5.334   2.513 -0.5886  1.0011  1.1563
 5641TP3     H228743   1.072   5.217   2.599 -0.7181  0.0187 -0.2354
 5642TP3      O28744   0.310   4.198   1.679  0.2228  0.2269  0.5576
 5642TP3     H128745   0.307   4.175   1.586  2.5336  0.9943  0.2852
 5642TP3     H228746   0.391   4.158   1.711  0.4291  1.6100  1.7968
 5643TP3      O28747   4.889   4.729   3.602  0.2396  0.0372 -0.3235
 5643TP3     H128748   4.945   4.745   3.679  0.1184  0.3292 -0.2955
 5643TP3     H228749   4.887   4.813   3.557  0.3366 -0.1454 -0.6675
 5644TP3      O28750   2.060   3.530   2.485 -0.3925  0.1902 -0.1678
 5644TP3     H128751   1.965   3.525   2.488 -0.2771 -1.8262  1.3823
 5644TP3     H228752   2.088   3.440   2.472  1.3233  0.6333  0.3450
 5645TP3      O28753   4.786   4.004   1.854  0.3141  0.6342  0.0713
 5645TP3     H128754   4.696   3.971   1.854  0.8336 -0.8483  0.1423
 5645TP3     H228755   4.796   4.048   1.938  0.3221 -1.1541  1.0312
 5646TP3      O28756   4.572   5.431   0.715  0.8160 -0.0644 -0.1316
 5646TP3     H128757   4.593   5.454   0.805  2.2893 -0.3251 -0.3958
 5646TP3     H228758   4.592   5.510   0.665  1.1896 -0.3140 -0.3842
 5647TP3      O28759   3.098   0.449   2.046 -0.1339  0.2811 -0.1098
 5647TP3     H128760   3.016   0.494   2.066 -0.8601 -0.5026 -1.2293
 5647TP3     H228761   3.095   0.436   1.951  1.0791 -0.1548 -0.0959
 5648TP3      O28762   5.498   2.689   2.990  0.3400  0.4872 -0.4154
 5648TP3     H128763   5.504   2.737   3.072 -1.9054 -0.1177  0.1336
 5648TP3     H228764   5.536   2.748   2.925 -0.1438  1.9990  0.6418
 5649TP3      O28765   3.339   2.395   1.736  0.2787  0.0065  0.0514
 5649TP3     H128766   3.279   2.456   1.694  0.1797 -1.0919 -1.4336
 5649TP3     H228767   3.388   2.449   1.798 -2.4666  0.8463  1.5641
 5650TP3      O28768   0.062   0.290   2.798 -0.4637  0.1694 -0.4130
 5650TP3     H128769   0.025   0.210   2.836  1.4809 -0.9182 -0.7551
 5650TP3     H228770   0.150   0.296   2.835 -1.0338  2.8840  0.6273
 5651TP3      O28771   5.263   4.070   2.512  0.1831  0.0332 -0.1340
 5651TP3     H128772   5.313   4.027   2.442  1.3958 -0.0604  0.7804
 5651TP3     H228773   5.248   4.158   2.479 -0.2251 -0.3498 -0.9909
 5652TP3      O28774   5.084   0.016   2.393  0.7766 -0.0550  0.0613
 5652TP3     H128775   5.063   0.017   2.300 -0.0715 -1.0181  0.2371
 5652TP3     H228776   5.100  -0.076   2.413  2.5379  0.3333  0.5248
 5653TP3      O28777   0.306   3.695   1.181 -0.3375  0.2076 -0.3410
 5653TP3     H128778   0.334   3.642   1.256 -0.3012  0.5913 -0.0850
 5653TP3     H228779   0.217   3.721   1.203  0.2832  1.8105  0.3955
 5654TP3      O28780   2.282   3.941   1.944  0.2762  0.0812 -0.1757
 5654TP3     H128781   2.285   3.849   1.972 -0.2445  0.2212  0.3428
 5654TP3     H228782   2.318   3.940   1.855  0.7758 -0.5450  0.0299
 5655TP3      O28783   4.590   4.183   1.623 -0.3872 -0.2917 -0.6422
 5655TP3     H128784   4.622   4.179   1.533  0.7121  0.7299 -0.3109
 5655TP3     H228785   4.618   4.269   1.654  0.8285 -1.3393  1.2656
 5656TP3      O28786   3.981   4.785   2.886 -0.3304  0.8639 -0.4061
 5656TP3     H128787   3.920   4.792   2.959  0.3630  1.1616  0.1532
 5656TP3     H228788   4.068   4.795   2.926  0.1740 -0.9533 -0.9895
 5657TP3      O28789   2.462   5.385   2.174 -0.0118 -0.2800  0.2220
 5657TP3     H128790   2.380   5.361   2.218 -0.0573 -1.0807 -0.2773
 5657TP3     H228791   2.527   5.385   2.244 -0.6987  1.7954  0.8717
 5658TP3      O28792   5.237   1.899   1.996  0.1866 -0.3233 -0.8196
 5658TP3     H128793   5.167   1.848   2.038 -0.6338  2.3597  1.2324
 5658TP3     H228794   5.223   1.886   1.902 -1.6283 -1.7011 -0.3981
 5659TP3      O28795   5.323   5.112   2.542  0.2750 -0.4429  0.0583
 5659TP3     H128796   5.356   5.183   2.597 -0.7036  0.4894 -0.5464
 5659TP3     H228797   5.334   5.033   2.596 -2.2759  0.6463  2.3319
 5660TP3      O28798   0.432   3.887   1.879 -0.0373  0.2125 -0.1130
 5660TP3     H128799   0.372   3.868   1.807 -0.0813 -0.9393  0.2262
 5660TP3     H228800   0.493   3.952   1.843  1.3719 -2.0382 -1.9505
 5661TP3      O28801   0.174   3.385   9.218  0.7858  0.0313  0.1860
 5661TP3     H128802   0.257   3.414   9.179  0.9494 -2.4258 -1.3891
 5661TP3     H228803   0.117   3.368   9.143 -0.5028 -0.2074  1.2075
 5662TP3      O28804   4.431   0.247   2.801 -0.0908  0.6097  0.0220
 5662TP3     H128805   4.486   0.197   2.861 -3.1571 -0.8817  1.7372
 5662TP3     H228806   4.482   0.325   2.781  2.2286 -0.2563  2.2582
 5663TP3      O28807   3.532   5.014   9.068  0.4376  0.5944  0.1840
 5663TP3     H128808   3.534   5.083   9.002 -0.5186 -0.1349 -0.6191
 5663TP3     H228809   3.595   5.043   9.135  1.3777  1.3554 -1.0128
 5664TP3      O28810   0.217   0.316   1.678 -0.3030  0.5006  0.0358
 5664TP3     H128811   0.129   0.320   1.714 -0.4474  0.6480 -0.3353
 5664TP3     H228812   0.235   0.404   1.647 -0.2968  0.3031 -0.5319
 5665TP3      O28813   4.993   3.596   0.473  0.5338 -0.7447  0.5456
 5665TP3     H128814   4.936   3.669   0.497 -1.3151 -1.9534 -0.0774
 5665TP3     H228815   5.055   3.633   0.411 -0.2369  0.3515  0.4180
 5666TP3      O28816   0.380   3.364  10.045  0.4401 -0.0322 -0.2166
 5666TP3     H128817   0.469   3.385  10.016  0.7082  1.1162  1.3795
 5666TP3     H228818   0.337   3.450  10.051  0.3756 -0.2484  2.7107
 5667TP3      O28819   4.339   3.148   0.862 -0.4999 -0.5779 -0.2460
 5667TP3     H128820   4.292   3.232   0.856  1.2687  0.5010  0.7960
 5667TP3     H228821   4.408   3.155   0.796 -0.6802 -1.4622 -0.5361
 5668TP3      O28822   3.574   5.369   3.412 -0.3583  0.0969 -0.0998
 5668TP3     H128823   3.603   5.439   3.470  2.8184 -1.8658  0.8521
 5668TP3     H228824   3.540   5.302   3.471 -0.0802 -0.5899 -0.7049
 5669TP3      O28825   0.379   5.478   8.268 -0.6030  0.3062  0.1295
 5669TP3     H128826   0.286   5.472   8.245 -0.9094 -1.8971  1.8690
 5669TP3     H228827   0.422   5.498   8.185 -2.2286 -2.3461 -1.4175
 5670TP3      O28828   4.235   3.325   3.287  0.0045  0.3336  0.6309
 5670TP3     H128829   4.142   3.338   3.266 -0.2402  0.5140  1.8222
 5670TP3     H228830   4.278   3.400   3.246 -0.3317  0.1056 -0.1661
 5671TP3      O28831   5.092   4.169  10.198 -0.2001 -0.1263 -0.5377
 5671TP3     H128832   5.118   4.122  10.119  0.1732  1.5798 -1.4516
 5671TP3     H228833   5.167   4.163  10.256  0.0557 -0.1553 -0.8739
 5672TP3      O28834   4.503   4.713   3.800 -0.0816 -0.3265  0.0436
 5672TP3     H128835   4.478   4.798   3.836 -0.8349 -0.8967  0.8698
 5672TP3     H228836   4.439   4.696   3.731 -0.5643 -0.7032  0.5817
 5673TP3      O28837   2.457   3.597   2.787 -0.1820 -0.0628 -0.7048
 5673TP3     H128838   2.477   3.503   2.782  0.8747 -0.1051  2.6796
 5673TP3     H228839   2.537   3.640   2.757 -0.2228 -0.2411 -1.0726
 5674TP3      O28840   4.336   3.812   3.088  0.6713  0.3401  0.2136
 5674TP3     H128841   4.281   3.863   3.028  0.3239 -0.6388 -0.3187
 5674TP3     H228842   4.405   3.872   3.114 -1.0151  1.8106  1.4129
 5675TP3      O28843   2.194   3.778   2.501 -0.1238 -0.2117 -0.1371
 5675TP3     H128844   2.118   3.720   2.511 -0.8636  0.7971  0.1838
 5675TP3     H228845   2.269   3.719   2.497 -0.8398 -1.1805  0.5455
 5676TP3      O28846   5.287   4.295   1.929 -0.0818  0.3234 -0.5041
 5676TP3     H128847   5.262   4.374   1.879  0.1429  2.1551  2.1867
 5676TP3     H228848   5.350   4.327   1.993  0.5070 -2.2200  0.2219
 5677TP3      O28849   2.364   4.870   2.286  0.1559  0.4267  0.1337
 5677TP3     H128850   2.397   4.818   2.212 -0.2650 -1.4906  1.2503
 5677TP3     H228851   2.438   4.878   2.345  0.0408  0.5527  0.2623
 5678TP3      O28852   2.205   1.189   0.724  0.3996  0.5314 -0.0962
 5678TP3     H128853   2.296   1.219   0.729 -0.1258  2.2161 -0.4065
 5678TP3     H228854   2.166   1.216   0.807 -0.4447  1.9687 -0.9409
 5679TP3      O28855   5.368   0.832   2.193  0.3302  0.5823 -0.3872
 5679TP3     H128856   5.448   0.879   2.217 -0.4865  1.5663  0.4378
 5679TP3     H228857   5.314   0.898   2.149  0.3812 -0.3445 -1.8898
 5680TP3      O28858   1.504   4.845   0.999 -0.2293 -0.1992  0.7468
 5680TP3     H128859   1.466   4.838   0.911  1.6399 -1.0921 -0.0190
 5680TP3     H228860   1.527   4.937   1.008  1.0101 -0.3857 -0.3458
 5681TP3      O28861   2.116   4.445   0.361 -0.1123 -0.1455  0.6554
 5681TP3     H128862   2.162   4.376   0.408 -0.6817 -0.1602  1.2039
 5681TP3     H228863   2.036   4.459   0.412 -1.4870 -1.2296 -1.1562
 5682TP3      O28864   5.189   3.012   1.962 -0.2070 -0.7716 -0.1944
 5682TP3     H128865   5.260   3.071   1.990  0.4388 -2.8648  2.8856
 5682TP3     H228866   5.231   2.952   1.902 -0.2588  0.2844 -1.2987
 5683TP3      O28867   3.281   4.715   1.192 -0.5455  0.0880  0.1807
 5683TP3     H128868   3.340   4.641   1.205  1.2800  1.5761  0.6610
 5683TP3     H228869   3.256   4.711   1.100 -1.2814 -1.6930  0.4380
 5684TP3      O28870   5.305   3.588   1.104 -0.8383 -0.2815 -0.3337
 5684TP3     H128871   5.230   3.593   1.045 -0.5416  1.1741 -0.5911
 5684TP3     H228872   5.268   3.604   1.191 -0.9608 -0.4610 -0.3522
 5685TP3      O28873   0.145   0.418   0.439  0.1172 -0.1828 -0.1036
 5685TP3     H128874   0.168   0.472   0.363  0.2616 -0.4339 -0.2384
 5685TP3     H228875   0.225   0.372   0.462 -0.3648 -1.4744 -0.9198
 5686TP3      O28876   3.600   3.864   2.935 -1.1943  0.3300 -0.2915
 5686TP3     H128877   3.577   3.921   3.009 -1.4142 -0.6230  0.3864
 5686TP3     H228878   3.695   3.870   2.929 -1.1368  0.1430  0.3109
 5687TP3      O28879   2.834   4.039   9.208 -0.3411 -0.2743 -0.1199
 5687TP3     H128880   2.781   4.108   9.247  0.6912  0.5228 -0.1180
 5687TP3     H228881   2.797   4.027   9.120  0.2557  1.1312 -0.5679
 5688TP3      O28882   0.128   2.728   1.546  0.1473  0.1438 -0.5928
 5688TP3     H128883   0.218   2.701   1.561 -0.1678 -1.2601 -1.2200
 5688TP3     H228884   0.123   2.748   1.453  0.2295  1.8532 -0.2488
 5689TP3      O28885   5.370   3.990   2.987  0.5190 -0.0876  0.1422
 5689TP3     H128886   5.298   3.928   2.989  0.1517  0.3373  0.2291
 5689TP3     H228887   5.357   4.044   3.065  1.0640 -0.1591  0.2848
 5690TP3      O28888   3.246   4.683   2.790  0.4441  0.1136  0.4801
 5690TP3     H128889   3.155   4.681   2.818  0.4682  0.7633  0.6056
 5690TP3     H228890   3.282   4.599   2.820  0.1309  0.2518  1.2549
 5691TP3      O28891   2.823   4.144   1.865 -0.0578  0.7155  0.2046
 5691TP3     H128892   2.729   4.154   1.881  0.3192  2.3041  1.5500
 5691TP3     H228893   2.850   4.229   1.829  0.7861  0.1147 -0.6133
 5692TP3      O28894   4.313   4.474   2.876 -0.4206 -0.1654  0.4703
 5692TP3     H128895   4.220   4.491   2.866 -0.4164 -0.0750  0.5879
 5692TP3     H228896   4.332   4.496   2.967 -0.4913 -1.1318  0.7295
 5693TP3      O28897   0.233   3.658   1.770 -0.2450 -0.4871  0.3765
 5693TP3     H128898   0.230   3.607   1.851  0.7314 -0.2027  0.6038
 5693TP3     H228899   0.305   3.619   1.720  0.5611  0.6957  0.5845
 5694TP3      O28900   1.788   1.182   2.338  0.1803 -0.1910 -0.0077
 5694TP3     H128901   1.871   1.231   2.337  0.5923 -0.8784  0.6083
 5694TP3     H228902   1.742   1.214   2.415  1.1060 -1.8454  1.2680
 5695TP3      O28903   4.797   4.876   2.210 -0.2530  0.6440  0.0224
 5695TP3     H128904   4.755   4.947   2.258 -0.1936 -0.1390  1.2686
 5695TP3     H228905   4.828   4.816   2.278  1.9729  0.6893 -0.8939
 5696TP3      O28906   0.175   4.898   0.898  0.6536 -0.3484 -0.4010
 5696TP3     H128907   0.212   4.829   0.954 -0.0758 -0.1783  0.2989
 5696TP3     H228908   0.211   4.979   0.934 -0.1196 -0.2088  0.0695
 5697TP3      O28909   0.175   3.749   2.816  0.0362  0.5487  0.3211
 5697TP3     H128910   0.094   3.724   2.859  0.4701  1.3587  1.6544
 5697TP3     H228911   0.176   3.845   2.821  1.1305  0.5440  0.4777
 5698TP3      O28912   5.278   2.475   1.261  0.5286  0.5751 -0.0999
 5698TP3     H128913   5.362   2.433   1.277  0.1600 -0.6211 -1.2139
 5698TP3     H228914   5.297   2.545   1.198  0.6190  0.0800 -0.6160
 5699TP3      O28915   0.625   3.750   0.565 -0.2090 -0.4343  0.1375
 5699TP3     H128916   0.620   3.655   0.557 -0.3167 -0.3436 -1.0280
 5699TP3     H228917   0.716   3.767   0.589  0.0546 -0.7806 -0.6022
 5700TP3      O28918   4.515   1.938   1.748  0.1119  0.2478  1.0979
 5700TP3     H128919   4.483   1.860   1.793  1.8661 -0.3670  1.3081
 5700TP3     H228920   4.497   1.922   1.655  0.9533 -0.6672  1.0817
 5701TP3      O28921   5.469   2.147   1.086 -1.0769  0.1526 -0.3507
 5701TP3     H128922   5.504   2.091   1.155 -1.1247  1.0971  0.4573
 5701TP3     H228923   5.468   2.235   1.125  1.0783  1.1156 -2.3485
 5702TP3      O28924   1.330   4.551   2.161 -0.3340  0.0824  0.0928
 5702TP3     H128925   1.255   4.514   2.207 -0.5792  2.1330  1.4435
 5702TP3     H228926   1.399   4.485   2.169 -1.1996 -0.7208  1.0964
 5703TP3      O28927   1.297   3.841   0.666 -0.5411 -0.0220  0.2547
 5703TP3     H128928   1.267   3.798   0.586  0.3726  1.4289 -0.8956
 5703TP3     H228929   1.248   3.923   0.669  0.5755  0.6603  0.3173
 5704TP3      O28930   1.803   3.228   2.387 -0.0569 -0.1166  0.5571
 5704TP3     H128931   1.780   3.318   2.410  1.2834  0.3757  0.0618
 5704TP3     H228932   1.875   3.206   2.446 -1.5181 -1.4894  1.8475
 5705TP3      O28933   2.131   3.389   1.931 -0.0545  0.3183 -0.1573
 5705TP3     H128934   2.120   3.296   1.950 -0.6222 -0.0326 -2.1354
 5705TP3     H228935   2.200   3.393   1.866 -0.6537  1.1987 -0.7562
 5706TP3      O28936   0.146   1.945   2.900 -0.3670 -0.2240  0.4929
 5706TP3     H128937   0.156   1.923   2.807 -0.3743 -0.4235  0.5377
 5706TP3     H228938   0.087   2.020   2.900  0.0015  0.0686  0.3106
 5707TP3      O28939   3.718   2.833   0.755  0.1205  0.5128 -0.2956
 5707TP3     H128940   3.738   2.749   0.714 -0.1371 -0.0941  0.8157
 5707TP3     H228941   3.795   2.887   0.737  0.9847 -0.4803  0.3882
 5708TP3      O28942   2.484   3.788   2.264 -0.1414 -0.4456 -0.6458
 5708TP3     H128943   2.423   3.742   2.207 -1.0613  1.9334 -1.6476
 5708TP3     H228944   2.523   3.855   2.208  2.3032 -0.9628  0.3675
 5709TP3      O28945   5.289   0.295   9.124  0.2668 -0.4164 -0.2666
 5709TP3     H128946   5.221   0.362   9.112 -0.4971 -0.7258  2.1420
 5709TP3     H228947   5.243   0.212   9.113  0.2813 -0.6205  1.0877
 5710TP3      O28948   4.552   4.670   2.943 -0.0803  0.2738  0.0798
 5710TP3     H128949   4.588   4.585   2.917  0.9915  1.2567 -1.7300
 5710TP3     H228950   4.493   4.649   3.016  0.3647 -1.9831 -0.1567
 5711TP3      O28951   4.805   5.167   1.894  0.3881 -0.2620 -0.1506
 5711TP3     H128952   4.875   5.155   1.958  0.6415  0.0390 -0.3714
 5711TP3     H228953   4.742   5.098   1.914  0.3204  0.0184  0.6233
 5712TP3      O28954   2.631   1.077   1.462  0.2036  0.3371  0.8258
 5712TP3     H128955   2.723   1.082   1.440  0.1425 -0.2391  0.4406
 5712TP3     H228956   2.586   1.124   1.392  0.0943 -0.5830  0.2756
 5713TP3      O28957   4.454   1.130   2.611  1.2451  0.2809  0.0295
 5713TP3     H128958   4.425   1.118   2.702  0.4688  3.6547  0.3086
 5713TP3     H228959   4.502   1.213   2.612  0.0527  1.0717 -2.8732
 5714TP3      O28960   2.462   3.470   2.040 -0.2169 -0.6279  0.0408
 5714TP3     H128961   2.525   3.511   1.981  0.9416 -2.3850  0.0388
 5714TP3     H228962   2.494   3.491   2.128  0.9736 -2.3511  0.0502
 5715TP3      O28963   5.378   1.329   2.995 -0.1440  0.2555 -0.0805
 5715TP3     H128964   5.443   1.388   3.033 -2.7821  2.4453  1.1922
 5715TP3     H228965   5.361   1.265   3.064 -0.0313  0.2362 -0.0706
 5716TP3      O28966   5.128   0.920   2.990 -0.2646  0.4121 -0.3945
 5716TP3     H128967   5.202   0.889   3.043 -1.6308 -2.2532  0.0363
 5716TP3     H228968   5.061   0.944   3.055 -1.0040 -0.4291 -0.8375
 5717TP3      O28969   4.824   4.179   2.992  0.0172  0.0259 -0.0972
 5717TP3     H128970   4.814   4.103   3.049 -1.5590 -0.5614 -1.1253
 5717TP3     H228971   4.912   4.212   3.011  0.1352 -1.1315  1.4698
 5718TP3      O28972   0.386   4.508   0.121 -0.2609  0.2100 -0.2886
 5718TP3     H128973   0.297   4.484   0.096 -0.5199 -0.9441  1.6725
 5718TP3     H228974   0.390   4.603   0.106 -2.2671  0.5113  0.9063
 5719TP3      O28975   2.094   4.140   2.782 -0.4444  0.4585 -0.3162
 5719TP3     H128976   2.136   4.055   2.766  0.3619  0.6487  0.6855
 5719TP3     H228977   2.017   4.119   2.834  0.0599  0.3820  0.4102
 5720TP3      O28978   0.346   0.705   2.067  0.1280 -0.2592 -0.1930
 5720TP3     H128979   0.397   0.702   2.148 -2.0979  0.6520  1.3086
 5720TP3     H228980   0.274   0.644   2.082 -1.0750  0.9447 -0.9290
 5721TP3      O28981   1.193   2.053   8.610  0.5282 -0.0289 -0.1194
 5721TP3     H128982   1.114   2.015   8.571 -0.1889  0.9231  0.3743
 5721TP3     H228983   1.163   2.090   8.693  1.7772 -0.8559  0.7162
 5722TP3      O28984   5.175   3.655   8.504  0.1269  0.0919  0.1175
 5722TP3     H128985   5.214   3.743   8.506  1.8255 -0.6627  1.0767
 5722TP3     H228986   5.081   3.671   8.498  0.4697  1.9742 -0.8779
 5723TP3      O28987   0.471   3.237   8.473 -0.0656  0.0960  0.1457
 5723TP3     H128988   0.482   3.157   8.422  3.6759 -0.0746  1.0273
 5723TP3     H228989   0.514   3.218   8.556 -1.0798  2.2935  1.2179
 5724TP3      O28990   3.300   5.011   1.944 -0.0659 -0.2163  0.0019
 5724TP3     H128991   3.361   5.084   1.933  1.0187 -0.9391  1.0764
 5724TP3     H228992   3.216   5.045   1.913  0.8459  0.8384 -1.3774
 5725TP3      O28993   5.033   3.432   0.700 -0.0153 -0.3574 -0.1354
 5725TP3     H128994   4.964   3.369   0.682 -1.2238  1.1535 -0.8654
 5725TP3     H228995   5.042   3.482   0.619 -0.2080  1.4729  0.9357
 5726TP3      O28996   4.638   4.964   1.963  0.3569  0.0477  0.2285
 5726TP3     H128997   4.550   4.930   1.976  0.7996 -0.9951  0.5696
 5726TP3     H228998   4.688   4.933   2.038  1.0923  0.3674 -0.1153
 5727TP3      O28999   3.528   1.991   1.200  0.0039 -0.2164  0.4977
 5727TP3     H129000   3.497   2.001   1.110 -0.8221  1.6246  0.9676
 5727TP3     H229001   3.583   1.913   1.198  1.3310  0.7554 -1.9523
 5728TP3      O29002   2.109   3.825   0.927  0.3987 -0.2313  0.2191
 5728TP3     H129003   2.039   3.761   0.911 -0.3716 -0.0268  2.5628
 5728TP3     H229004   2.188   3.772   0.933 -0.1065 -0.9156  1.2240
 5729TP3      O29005   1.937   1.555   2.067  0.1750 -0.3742  0.0336
 5729TP3     H129006   2.018   1.579   2.110 -0.4896  2.9768 -0.4257
 5729TP3     H229007   1.924   1.463   2.088  2.2467 -0.0220  3.0420
 5730TP3      O29008   5.363   5.354   2.681  0.1106 -0.0772  0.4870
 5730TP3     H129009   5.319   5.438   2.672 -1.1272 -0.8643 -1.0888
 5730TP3     H229010   5.447   5.375   2.721 -0.6003  1.7804  1.0410
 5731TP3      O29011   4.117   3.434   2.294 -0.0521 -0.1835 -0.5511
 5731TP3     H129012   4.171   3.376   2.348 -0.4551 -0.4208 -0.4046
 5731TP3     H229013   4.107   3.513   2.347 -1.7363 -1.0004  0.3855
 5732TP3      O29014   3.265   5.178   2.980 -0.0670  0.0310  0.1612
 5732TP3     H129015   3.188   5.233   2.964 -0.2889 -0.3767 -0.1845
 5732TP3     H229016   3.233   5.088   2.967  0.8882 -0.0475 -1.7219
 5733TP3      O29017   3.508   0.191  10.159 -0.6909 -0.6575 -0.1891
 5733TP3     H129018   3.539   0.118  10.105 -0.7516  0.0055 -1.1362
 5733TP3     H229019   3.586   0.223  10.203 -0.1097  0.5625 -2.0333
 5734TP3      O29020   4.941   4.608   2.910 -0.6124  0.0627 -0.1110
 5734TP3     H129021   5.029   4.576   2.927 -0.2088  1.9867  1.5992
 5734TP3     H229022   4.951   4.703   2.904 -2.2670  0.1631 -1.9447
 5735TP3      O29023   5.363   1.041   0.181 -0.0795 -0.1711  0.8480
 5735TP3     H129024   5.447   1.018   0.221  0.2240  1.1243  0.9846
 5735TP3     H229025   5.302   1.048   0.255 -0.1647 -0.4895  0.8094
 5736TP3      O29026   4.130   3.592   2.040  0.4921  0.8425  0.6266
 5736TP3     H129027   4.152   3.676   2.079 -1.2929  0.5598  2.3396
 5736TP3     H229028   4.151   3.528   2.107 -0.2442  0.1177  0.1788
 5737TP3      O29029   5.276   2.268   2.347  0.4374 -0.1552  0.5868
 5737TP3     H129030   5.232   2.215   2.281 -0.8709 -0.2924  1.5435
 5737TP3     H229031   5.292   2.352   2.304 -1.8120  0.3017  0.5610
 5738TP3      O29032   0.473   3.555   1.660 -0.0523  0.2390  0.2208
 5738TP3     H129033   0.500   3.626   1.602 -0.3611 -1.0828 -1.5787
 5738TP3     H229034   0.520   3.572   1.742  0.0187  2.3915 -0.2449
 5739TP3      O29035   1.184   0.631   3.112  0.1870  0.0402 -0.1073
 5739TP3     H129036   1.235   0.649   3.034  0.8218 -1.4033 -0.0287
 5739TP3     H229037   1.236   0.666   3.184 -0.1622  0.9117 -0.2715
 5740TP3      O29038   0.603   1.920   3.265  0.5068 -0.0294 -0.2258
 5740TP3     H129039   0.547   1.994   3.290 -0.9835 -0.5297 -1.9456
 5740TP3     H229040   0.684   1.934   3.314 -1.4201  0.2072  3.0489
 5741TP3      O29041   1.136   1.255   3.400 -0.1380 -0.4580  0.0613
 5741TP3     H129042   1.130   1.283   3.308  0.6533 -0.9759 -0.1573
 5741TP3     H229043   1.116   1.334   3.450 -3.0308 -0.7511 -0.5377
 5742TP3      O29044   0.319   1.895   3.119 -0.1146 -0.4251  0.0856
 5742TP3     H129045   0.312   1.920   3.027  0.4884 -0.1780  0.1033
 5742TP3     H229046   0.282   1.807   3.124 -1.8246  0.2698 -0.0713
 5743TP3      O29047   0.933   1.830   3.157 -0.4123 -0.2488 -0.4124
 5743TP3     H129048   0.957   1.743   3.188  1.3562  0.2312 -0.3774
 5743TP3     H229049   0.893   1.872   3.233  0.4392 -0.3987  0.1297
 5744TP3      O29050   0.675   5.229   1.778  0.6851  0.0585  0.2351
 5744TP3     H129051   0.602   5.274   1.735  0.8865  0.4280  0.2789
 5744TP3     H229052   0.672   5.140   1.744  0.5814  0.2354 -0.2174
 5745TP3      O29053   2.274   3.270   2.203  0.1173  0.4575  0.5982
 5745TP3     H129054   2.339   3.317   2.151  0.2425 -0.7463 -0.3409
 5745TP3     H229055   2.267   3.184   2.163  0.9021 -0.8580  3.1489
 5746TP3      O29056   0.152   2.423   0.952  0.3291 -0.2488 -0.3908
 5746TP3     H129057   0.108   2.338   0.940 -1.5147  0.8231 -1.5304
 5746TP3     H229058   0.190   2.443   0.866 -0.0605  0.4980 -0.3986
 5747TP3      O29059   1.062   1.659   2.910 -0.0786 -0.4952 -0.4458
 5747TP3     H129060   0.998   1.610   2.963 -0.8718 -0.2942 -1.2004
 5747TP3     H229061   1.008   1.713   2.852  0.7894 -0.1188 -0.9051
 5748TP3      O29062   5.362   5.408   3.543 -0.2480  0.3369 -0.3698
 5748TP3     H129063   5.274   5.379   3.570  0.1251 -0.0750  0.4453
 5748TP3     H229064   5.376   5.488   3.593 -0.5767  0.9790 -1.2984
 5749TP3      O29065   4.666   3.124   2.284 -0.1359 -0.1925  0.4274
 5749TP3     H129066   4.648   3.089   2.197  2.0977 -0.3965  0.0189
 5749TP3     H229067   4.686   3.216   2.270 -0.1711 -0.1256  0.7940
 5750TP3      O29068   3.847   4.768   0.769  0.3009  0.2158 -0.1707
 5750TP3     H129069   3.885   4.733   0.849  0.3993 -0.6418 -0.5837
 5750TP3     H229070   3.791   4.840   0.798 -0.4211 -0.7079  0.7555
 5751TP3      O29071   2.414   4.517   2.340  0.2787 -0.0162  0.2081
 5751TP3     H129072   2.399   4.433   2.383  0.7272  0.1319  0.6593
 5751TP3     H229073   2.502   4.543   2.367  0.7218 -0.1125 -1.1274
 5752TP3      O29074   5.472   0.893   2.694  0.2619  0.4250  0.0800
 5752TP3     H129075   5.512   0.976   2.666  1.9700  0.1577  1.6204
 5752TP3     H229076   5.472   0.839   2.615 -2.1060  2.3350 -1.2711
 5753TP3      O29077   2.873   0.456   3.182  0.4714 -0.5660  0.4765
 5753TP3     H129078   2.809   0.456   3.110 -0.5635  1.3033  1.3681
 5753TP3     H229079   2.933   0.385   3.160 -1.0455 -1.3902 -1.1610
 5754TP3      O29080   2.032   0.107   3.475  0.3000  0.5564  0.6318
 5754TP3     H129081   1.979   0.180   3.509  2.0713  0.6656  3.3548
 5754TP3     H229082   2.122   0.132   3.495  1.2700 -0.4405 -2.3162
 5755TP3      O29083   4.474   0.363   1.625  0.4521 -0.1549  0.3008
 5755TP3     H129084   4.540   0.358   1.694  1.3560  1.1598 -0.4342
 5755TP3     H229085   4.514   0.420   1.559 -2.0828  2.1028  0.6134
 5756TP3      O29086   2.322   1.600   3.124 -0.5466 -0.1442  0.2093
 5756TP3     H129087   2.322   1.681   3.174 -0.7802  0.3154 -0.5324
 5756TP3     H229088   2.250   1.610   3.061  1.0537  0.1447 -1.5997
 5757TP3      O29089   3.373   1.762   1.835 -0.1375 -0.5711  0.0738
 5757TP3     H129090   3.456   1.791   1.874 -1.1517 -1.9989  3.4773
 5757TP3     H229091   3.334   1.842   1.800  2.3195  0.2372 -0.9005
 5758TP3      O29092   2.212   0.013   3.254  0.1661 -0.0322 -0.1949
 5758TP3     H129093   2.216  -0.059   3.317 -0.5631  0.4703  0.4305
 5758TP3     H229094   2.156   0.078   3.295  2.1204  1.6028 -0.0312
 5759TP3      O29095   1.876   0.589   3.411  0.0629 -1.0535  0.1787
 5759TP3     H129096   1.900   0.501   3.441  0.5327 -1.5422 -1.5801
 5759TP3     H229097   1.800   0.575   3.354  1.7617 -0.6716 -2.2662
 5760TP3      O29098   3.329   0.394   0.837  1.0335  0.4233  0.0753
 5760TP3     H129099   3.264   0.338   0.880  0.2485  1.9131  0.8758
 5760TP3     H229100   3.277   0.458   0.789  1.9147  1.0577 -0.0404
 5761TP3      O29101   3.022   1.282   3.365  0.4460 -0.4172  0.2050
 5761TP3     H129102   2.956   1.352   3.373  1.8366  0.9543 -0.1229
 5761TP3     H229103   3.069   1.303   3.284  0.6798 -1.9294 -0.0634
 5762TP3      O29104   3.702   4.785   1.201 -0.0530  0.1003  0.5167
 5762TP3     H129105   3.789   4.818   1.181  0.7336 -2.8042 -1.1000
 5762TP3     H229106   3.645   4.829   1.138  0.4458  0.8690  0.5923
 5763TP3      O29107   4.079   0.843   3.154 -0.5885  0.5439 -0.1847
 5763TP3     H129108   4.060   0.890   3.235 -1.9212  0.9946 -0.7512
 5763TP3     H229109   4.167   0.807   3.167 -0.9278  0.3418  1.5752
 5764TP3      O29110   1.814   2.955   2.129  0.6778  0.4168 -1.1149
 5764TP3     H129111   1.763   2.912   2.060  0.0785 -0.7434  0.0151
 5764TP3     H229112   1.802   3.048   2.113 -1.9982  0.1888 -0.7605
 5765TP3      O29113   1.785   1.075   3.502 -0.2625 -0.1672 -0.4222
 5765TP3     H129114   1.771   1.166   3.477 -1.2539 -0.5236 -1.1786
 5765TP3     H229115   1.874   1.073   3.539 -0.8586  1.4205  1.1467
 5766TP3      O29116   3.428   2.024   2.643  0.0613  0.6962 -0.6636
 5766TP3     H129117   3.499   2.020   2.708  0.7866  0.2557 -1.4635
 5766TP3     H229118   3.468   2.070   2.568  0.5465 -2.4402 -2.3935
 5767TP3      O29119   3.760   5.241   2.966 -0.3126  0.2374 -0.1167
 5767TP3     H129120   3.826   5.192   2.918  0.4372 -1.3012  2.3491
 5767TP3     H229121   3.806   5.316   3.003 -0.5104  0.5048 -0.4058
 5768TP3      O29122   4.986   1.308   1.729  0.0332 -0.4302  0.7041
 5768TP3     H129123   5.018   1.387   1.772 -1.2910  0.3241  0.3463
 5768TP3     H229124   4.914   1.278   1.786 -0.1928 -0.7443  0.2586
 5769TP3      O29125   2.762   1.261   1.646 -0.3463  0.0992  0.1519
 5769TP3     H129126   2.769   1.350   1.611 -3.6236  0.5014  0.3570
 5769TP3     H229127   2.790   1.204   1.574  0.2950  1.2304 -0.5042
 5770TP3      O29128   2.694   5.341   3.359 -0.0381 -0.1101  0.5188
 5770TP3     H129129   2.726   5.270   3.415 -0.7761 -1.1332 -0.3418
 5770TP3     H229130   2.773   5.376   3.318  0.2702 -0.7915  0.5261
 5771TP3      O29131   2.876   1.690   3.178  0.0058  0.4526  0.4615
 5771TP3     H129132   2.871   1.785   3.179 -0.6370  0.5342 -2.6240
 5771TP3     H229133   2.819   1.664   3.105  0.4458 -2.2636  1.0106
 5772TP3      O29134   2.549   4.127   1.806  0.2413 -0.1634  0.0800
 5772TP3     H129135   2.461   4.089   1.802 -1.1614  3.0379 -0.5488
 5772TP3     H229136   2.583   4.118   1.716 -0.7137  1.4490 -0.4601
 5773TP3      O29137   5.462   0.135   3.602  0.6566  0.4399  0.3448
 5773TP3     H129138   5.532   0.120   3.538  0.5183  1.5759 -0.0846
 5773TP3     H229139   5.389   0.168   3.550  0.1392  0.2365  0.9335
 5774TP3      O29140   5.313   2.223   3.465 -0.0379  0.3202  0.4136
 5774TP3     H129141   5.270   2.287   3.522  1.5315 -0.4910  2.5653
 5774TP3     H229142   5.365   2.276   3.404 -0.2563  1.1531  0.9383
 5775TP3      O29143   3.925   0.543   3.170  0.6483  0.3408  0.1616
 5775TP3     H129144   3.897   0.541   3.262  1.8036 -0.0398  0.5194
 5775TP3     H229145   3.866   0.482   3.126 -2.0779  3.0055 -0.0182
 5776TP3      O29146   0.345   4.729   1.919  0.2299  0.1810 -0.1331
 5776TP3     H129147   0.298   4.793   1.865  1.2796  0.6574 -0.5103
 5776TP3     H229148   0.437   4.754   1.910  1.0526 -3.3824 -2.9839
 5777TP3      O29149   0.694   2.836   2.520 -0.0163 -0.5138  0.0151
 5777TP3     H129150   0.739   2.901   2.465  0.6031 -1.1475 -0.2466
 5777TP3     H229151   0.607   2.828   2.481 -0.0016 -0.0576 -0.1218
 5778TP3      O29152   3.874   0.300   3.354 -0.4240 -0.0467 -0.3145
 5778TP3     H129153   3.821   0.379   3.342 -0.3669  0.2013  1.0140
 5778TP3     H229154   3.842   0.239   3.287  0.0605  1.3563 -1.8780
 5779TP3      O29155   4.481   1.502   3.209  0.1561  0.1035 -0.1688
 5779TP3     H129156   4.389   1.475   3.204 -0.2472  1.5071 -0.6374
 5779TP3     H229157   4.522   1.462   3.133 -0.2267  0.0261 -0.3351
 5780TP3      O29158   5.426   3.148   3.082  0.3264  0.1224 -0.5441
 5780TP3     H129159   5.518   3.122   3.078 -0.3269 -2.2961 -1.0328
 5780TP3     H229160   5.426   3.229   3.133  2.7847  0.5543 -1.1708
 5781TP3      O29161   5.088   0.628   3.260 -0.0488  0.4286  0.1732
 5781TP3     H129162   5.085   0.616   3.355  1.1243  1.8744  0.4050
 5781TP3     H229163   4.996   0.629   3.233 -0.4332  1.8136  1.5279
 5782TP3      O29164   4.213   1.529   3.309 -0.6870 -0.0949  0.2272
 5782TP3     H129165   4.237   1.611   3.352 -1.1665  0.5485 -0.7159
 5782TP3     H229166   4.212   1.464   3.380 -1.0904  0.8680  1.1188
 5783TP3      O29167   4.158   0.138   1.030 -0.7976 -0.3847  0.0744
 5783TP3     H129168   4.106   0.088   1.094 -0.3216 -1.0542 -0.0524
 5783TP3     H229169   4.155   0.084   0.950 -1.4503  0.4821 -0.4898
 5784TP3      O29170   4.505   2.100   3.563 -0.2633 -0.0646 -0.4558
 5784TP3     H129171   4.431   2.047   3.534  0.0007 -1.0908  0.6940
 5784TP3     H229172   4.567   2.095   3.490 -1.0558  0.2684 -1.1536
 5785TP3      O29173   4.842   0.615   3.185  0.3335 -0.1050  0.5630
 5785TP3     H129174   4.869   0.583   3.100 -0.2829 -1.5330  0.8863
 5785TP3     H229175   4.750   0.640   3.173  0.3583  0.0577  0.7089
 5786TP3      O29176   5.080   1.639   3.438 -0.4529 -0.2208  0.1260
 5786TP3     H129177   5.158   1.591   3.411 -0.1156  0.0741  0.5723
 5786TP3     H229178   5.007   1.581   3.415 -0.3023  0.6569 -2.8747
 5787TP3      O29179   2.442   1.263   1.297  0.5892 -0.4102  0.2933
 5787TP3     H129180   2.376   1.332   1.291  0.5798 -0.4161  0.3269
 5787TP3     H229181   2.397   1.192   1.344  0.0458 -1.0853 -1.2156
 5788TP3      O29182   0.397   3.105   3.304 -0.3868 -0.5189 -0.2383
 5788TP3     H129183   0.472   3.151   3.266  0.6559 -2.0177 -0.0527
 5788TP3     H229184   0.435   3.028   3.346 -2.0953 -1.6133 -0.6412
 5789TP3      O29185   1.173   2.662   2.635 -0.2418 -0.8119 -0.6080
 5789TP3     H129186   1.124   2.743   2.648 -1.4790 -1.2324 -2.3461
 5789TP3     H229187   1.259   2.690   2.604 -0.2959 -0.1327 -0.1477
 5790TP3      O29188   0.797   2.783   1.522 -0.3096 -0.3961 -0.0746
 5790TP3     H129189   0.798   2.867   1.475  0.0113 -0.2485  0.1920
 5790TP3     H229190   0.705   2.771   1.546 -0.3103  0.0294  0.1496
 5791TP3      O29191   5.300   3.842   2.682 -0.2415  0.1085  0.1306
 5791TP3     H129192   5.376   3.839   2.740  0.0303 -0.9687 -0.2832
 5791TP3     H229193   5.320   3.913   2.621 -0.2636  0.8510  0.9785
 5792TP3      O29194   0.924   3.367   2.866 -0.4969 -0.2479  0.1783
 5792TP3     H129195   0.933   3.298   2.932 -2.9498 -0.1490  0.6593
 5792TP3     H229196   1.012   3.403   2.857  0.1574 -1.2196  2.3649
 5793TP3      O29197   0.583   2.445   3.524  0.5933 -0.4250 -0.0056
 5793TP3     H129198   0.650   2.507   3.556  1.2687 -0.2773 -1.6428
 5793TP3     H229199   0.533   2.495   3.460 -1.3974 -0.4124  1.5097
 5794TP3      O29200   2.125   3.734   1.638 -0.1405  0.2919  0.2061
 5794TP3     H129201   2.201   3.726   1.581  0.6599  0.8594  1.1691
 5794TP3     H229202   2.146   3.808   1.695 -0.4356 -0.9434  1.9606
 5795TP3      O29203   3.058   1.560   2.766 -0.0884  0.7909 -0.0253
 5795TP3     H129204   3.034   1.539   2.856  0.4446  0.1902 -0.0154
 5795TP3     H229205   3.131   1.622   2.774 -0.7339  1.5491 -0.0471
 5796TP3      O29206   1.047   2.393   1.867 -0.5392 -0.0463  0.4867
 5796TP3     H129207   1.030   2.300   1.850 -0.5513 -0.1492  1.0276
 5796TP3     H229208   1.137   2.407   1.838 -1.1414  0.2056 -1.2702
 5797TP3      O29209   0.358   3.372   3.370  0.1256 -0.5242  0.2992
 5797TP3     H129210   0.289   3.407   3.313  0.1445 -0.1591  0.4985
 5797TP3     H229211   0.341   3.278   3.374  0.5568 -0.6678 -0.9124
 5798TP3      O29212   0.703   0.073   1.670 -0.3903 -0.3420  0.2761
 5798TP3     H129213   0.627   0.129   1.685  0.0106  0.5549 -0.9468
 5798TP3     H229214   0.672   0.007   1.607 -0.2717 -0.2344  0.1056
 5799TP3      O29215   0.334   5.512   2.808 -0.2362  0.2708 -0.3632
 5799TP3     H129216   0.421   5.487   2.777 -0.3522  1.5842 -1.7987
 5799TP3     H229217   0.347   5.599   2.847 -0.7308  0.0919  0.2022
 5800TP3      O29218   0.816   2.935   2.927  0.1907  0.2595  0.0245
 5800TP3     H129219   0.862   3.016   2.949  1.1317 -0.6529  1.5300
 5800TP3     H229220   0.800   2.893   3.012 -0.2194 -1.1681 -0.7348
 5801TP3      O29221   0.908   3.153   3.384  0.0948 -0.4067 -0.3258
 5801TP3     H129222   0.860   3.228   3.349 -0.4469 -1.2558 -1.4344
 5801TP3     H229223   0.995   3.187   3.403 -0.7012  0.9667  0.9751
 5802TP3      O29224   0.912   1.980   2.501  0.2440  0.0745  0.2327
 5802TP3     H129225   0.876   1.948   2.418 -2.1632  3.1425  0.0210
 5802TP3     H229226   0.963   2.057   2.477  1.9665 -0.7177  1.2914
 5803TP3      O29227   1.870   4.285   1.551  0.9055 -0.1594  0.2562
 5803TP3     H129228   1.922   4.207   1.531  0.3491 -0.4836  0.0796
 5803TP3     H229229   1.902   4.352   1.490  1.6434 -0.1332  0.6577
 5804TP3      O29230   0.452   2.324   3.244  0.0052 -0.9984 -0.2097
 5804TP3     H129231   0.449   2.281   3.330  2.7610 -1.0221 -0.0869
 5804TP3     H229232   0.466   2.417   3.265 -1.7879 -0.6308 -0.5884
 5805TP3      O29233   1.563   3.672   1.550  0.3356 -0.1667 -0.1758
 5805TP3     H129234   1.628   3.677   1.621 -0.0925 -0.7994  0.2664
 5805TP3     H229235   1.611   3.699   1.472  1.3578 -1.3529  0.0140
 5806TP3      O29236   5.416   2.605   1.025 -0.7445 -0.1738  0.1620
 5806TP3     H129237   5.342   2.664   1.008 -1.1717 -1.0229 -0.9258
 5806TP3     H229238   5.429   2.558   0.943  0.3156 -0.8118  0.6842
 5807TP3      O29239   2.734   3.779   1.236 -0.3395  0.1444 -0.1946
 5807TP3     H129240   2.644   3.800   1.211  0.2312  1.0526 -1.5553
 5807TP3     H229241   2.751   3.835   1.312 -0.2369  1.5316 -1.2184
 5808TP3      O29242   4.876   4.094  10.014  0.0795 -0.6824 -0.0685
 5808TP3     H129243   4.851   4.039   9.940 -0.6764  1.0046 -1.0802
 5808TP3     H229244   4.970   4.079  10.024  0.3143 -0.3778 -1.8029
 5809TP3      O29245   2.588   3.533   2.275 -0.1943  0.4747  0.1285
 5809TP3     H129246   2.593   3.629   2.269 -1.6555  0.4985 -0.6891
 5809TP3     H229247   2.529   3.517   2.349  0.7388  0.1856  0.8297
 5810TP3      O29248   3.377   4.093   3.174  0.6277  0.6654 -0.0199
 5810TP3     H129249   3.470   4.072   3.162  0.3076 -0.3214 -0.9024
 5810TP3     H229250   3.363   4.173   3.124  0.9892  0.7511  0.0190
 5811TP3      O29251   2.732   3.022   2.972  0.0739 -0.1694 -0.4940
 5811TP3     H129252   2.660   3.077   2.942  1.0795  1.6446  0.3355
 5811TP3     H229253   2.699   2.932   2.964 -1.7891  0.5729 -1.3488
 5812TP3      O29254   3.120   2.642   3.388  0.4231 -0.1824 -0.1792
 5812TP3     H129255   3.177   2.695   3.443  2.0008 -0.5831 -1.3773
 5812TP3     H229256   3.078   2.581   3.448  0.3893  0.8584  0.8774
 5813TP3      O29257   2.964   3.100   3.111 -0.0048 -0.0385 -0.1462
 5813TP3     H129258   3.012   3.145   3.042  0.1120  1.4594  0.8765
 5813TP3     H229259   2.880   3.076   3.071  1.1179 -1.5980 -1.5845
 5814TP3      O29260   3.377   2.435   3.052  0.5550  0.7499  0.0663
 5814TP3     H129261   3.429   2.425   3.131  0.0211 -1.5567  0.1728
 5814TP3     H229262   3.439   2.465   2.985  1.7428 -0.6242  0.5272
 5815TP3      O29263   1.909   3.153   2.787  0.0492 -0.5606  0.6150
 5815TP3     H129264   1.943   3.066   2.766  2.2198  0.2369  0.6777
 5815TP3     H229265   1.919   3.162   2.881 -1.9684 -0.9473  0.9002
 5816TP3      O29266   3.685   2.752   3.214 -0.2050  0.0678  0.0048
 5816TP3     H129267   3.772   2.752   3.175 -0.3494 -1.1241 -0.3471
 5816TP3     H229268   3.667   2.660   3.231 -1.5724  0.2595 -0.3358
 5817TP3      O29269   3.424   2.129   3.072  0.0839  0.0734 -0.1397
 5817TP3     H129270   3.500   2.101   3.021  0.4020  0.5860  0.0471
 5817TP3     H229271   3.460   2.193   3.134 -0.0364 -1.6353  1.7116
 5818TP3      O29272   2.488   2.813   2.688  0.1608  0.0479  0.5087
 5818TP3     H129273   2.564   2.783   2.739 -1.8436 -3.5352  1.6135
 5818TP3     H229274   2.418   2.824   2.753 -0.8771  1.1209 -0.7611
 5819TP3      O29275   4.183   3.281   2.834 -0.3561  0.0653  0.0750
 5819TP3     H129276   4.142   3.284   2.747 -0.3140  0.5498  0.0715
 5819TP3     H229277   4.153   3.361   2.877 -0.4329 -0.2087  0.5317
 5820TP3      O29278   4.868   1.799   0.096  0.5095  0.3641 -0.0491
 5820TP3     H129279   4.819   1.749   0.161 -0.9240  0.9704 -0.6629
 5820TP3     H229280   4.885   1.737   0.025  0.3370  0.2512  0.0093
 5821TP3      O29281   5.196   3.776   3.073  0.1083  0.7559  0.0342
 5821TP3     H129282   5.191   3.685   3.103 -1.0043  0.6297 -0.5410
 5821TP3     H229283   5.124   3.820   3.118  0.4283  1.2870  0.0328
 5822TP3      O29284   0.200   3.268   2.614  0.1434  0.1506  0.6442
 5822TP3     H129285   0.176   3.359   2.597  2.2632  0.5244 -0.5008
 5822TP3     H229286   0.220   3.232   2.528 -1.2010 -1.5830  1.0265
 5823TP3      O29287   4.481   4.872   1.152 -0.1979 -0.2166 -0.1563
 5823TP3     H129288   4.538   4.882   1.076 -0.9295  0.5759 -0.6077
 5823TP3     H229289   4.519   4.930   1.218  1.7316 -2.5698  0.8729
 5824TP3      O29290   0.341   4.173   2.868 -0.1773 -0.0727 -0.3839
 5824TP3     H129291   0.378   4.183   2.955 -0.9796  0.8834 -0.1442
 5824TP3     H229292   0.252   4.142   2.883 -0.5785  0.8506 -0.8309
 5825TP3      O29293   2.988   3.992   2.068 -0.0700  0.9165  0.3015
 5825TP3     H129294   3.053   3.976   2.137  0.5087 -0.9188 -0.6434
 5825TP3     H229295   2.921   3.926   2.084 -0.7940  1.6009  0.1239
 5826TP3      O29296   4.639   2.555   2.302  0.2142 -0.0056  0.0765
 5826TP3     H129297   4.594   2.572   2.219  0.2936 -1.7873 -0.3588
 5826TP3     H229298   4.574   2.575   2.369  0.2613  1.8070 -0.3775
 5827TP3      O29299   5.524   3.109   2.729 -0.0639  0.2824 -0.1142
 5827TP3     H129300   5.517   3.187   2.784 -1.2949  0.3236 -0.3161
 5827TP3     H229301   5.586   3.134   2.660 -0.5743  1.1329 -0.2680
 5828TP3      O29302   3.023   4.733   1.894  0.2199 -0.4737  0.4321
 5828TP3     H129303   2.937   4.719   1.853 -0.0550  1.0940  0.4289
 5828TP3     H229304   3.075   4.775   1.826  0.2131  0.8261  1.2153
 5829TP3      O29305   4.303   2.511   3.056 -0.2178  0.0666  0.0997
 5829TP3     H129306   4.244   2.562   3.112  0.2841  0.1037  0.5938
 5829TP3     H229307   4.288   2.420   3.083  1.4921  0.2307  1.7230
 5830TP3      O29308   1.825   4.497   0.341  0.7839  0.4800  0.4578
 5830TP3     H129309   1.800   4.482   0.249  2.3182 -1.1608  0.2888
 5830TP3     H229310   1.751   4.547   0.377 -1.5500 -1.9450 -0.7340
 5831TP3      O29311   2.518   3.332   2.779 -0.0674 -0.1168 -0.6454
 5831TP3     H129312   2.439   3.320   2.725 -0.5399 -0.5806  0.1439
 5831TP3     H229313   2.514   3.261   2.843 -1.0602  2.1223  1.8889
 5832TP3      O29314   0.342   2.438   7.823 -0.5675 -0.4454 -0.4718
 5832TP3     H129315   0.281   2.405   7.889  0.4743 -0.9492  0.2642
 5832TP3     H229316   0.319   2.392   7.743  0.9453 -3.1198  0.5649
 5833TP3      O29317   5.406   2.144   2.905 -0.3491 -0.5790 -0.2523
 5833TP3     H129318   5.438   2.150   2.815 -0.0731 -0.3699 -0.1421
 5833TP3     H229319   5.392   2.235   2.931  0.3096 -0.5991  0.1772
 5834TP3      O29320   5.219   3.473  10.170 -0.3314 -0.0143  0.4058
 5834TP3     H129321   5.233   3.378  10.170  1.1556  0.1771 -1.3477
 5834TP3     H229322   5.305   3.510  10.191 -1.0183  0.9473  1.5602
 5835TP3      O29323   0.530   4.338   3.239 -0.4805 -0.0539 -0.2339
 5835TP3     H129324   0.443   4.325   3.276 -0.8053 -1.1392 -1.3848
 5835TP3     H229325   0.521   4.415   3.183 -0.6815 -0.1586 -0.3423
 5836TP3      O29326   1.544   2.792   2.699 -0.5049 -0.0262  0.2000
 5836TP3     H129327   1.528   2.874   2.745  0.6516  0.7396 -0.6900
 5836TP3     H229328   1.545   2.725   2.767 -1.0303  0.7688  0.9952
 5837TP3      O29329   1.509   0.921   2.527 -0.6885  1.1223 -0.4160
 5837TP3     H129330   1.420   0.889   2.540 -1.3346  2.4141 -1.4899
 5837TP3     H229331   1.523   0.982   2.600 -0.0347 -0.3875  0.7358
 5838TP3      O29332   1.130   4.834   3.456 -0.1429 -0.1510 -0.3016
 5838TP3     H129333   1.206   4.885   3.427 -0.0650 -0.0971 -0.0061
 5838TP3     H229334   1.066   4.900   3.484 -0.0382 -0.2118  0.0900
 5839TP3      O29335   0.171   4.234   3.245  0.4819 -0.1007  0.1710
 5839TP3     H129336   0.220   4.152   3.233  0.6979 -0.0243  0.5207
 5839TP3     H229337   0.094   4.209   3.296  1.6682  0.2903  2.1960
 5840TP3      O29338   0.618   5.221   3.265 -0.6631 -0.3283  0.2007
 5840TP3     H129339   0.547   5.216   3.328  0.5931  0.7041  1.7456
 5840TP3     H229340   0.689   5.264   3.313  0.5699 -0.2086 -1.6888
 5841TP3      O29341   5.050   3.963   2.751 -0.2749 -0.3716  0.0128
 5841TP3     H129342   5.094   4.040   2.787 -0.8777  0.3122 -0.6777
 5841TP3     H229343   5.120   3.907   2.720  0.2257 -0.6266  1.5542
 5842TP3      O29344   0.043   4.323   3.590  0.2862  0.1182  0.2114
 5842TP3     H129345  -0.004   4.255   3.541 -2.7626  1.5507  1.0182
 5842TP3     H229346   0.107   4.357   3.529  0.8506 -2.4617 -0.6919
 5843TP3      O29347   0.405   5.181   3.436  0.8054  0.4859  0.0055
 5843TP3     H129348   0.337   5.238   3.400  0.5240  0.4411  0.4576
 5843TP3     H229349   0.362   5.136   3.509  1.6243  1.2288  0.9624
 5844TP3      O29350   5.459   5.404   3.279  0.2442 -0.3513 -0.0384
 5844TP3     H129351   5.437   5.491   3.246  0.8863 -0.9732 -2.1362
 5844TP3     H229352   5.399   5.391   3.353 -1.0147  1.1702 -0.7662
 5845TP3      O29353   1.580   1.735   1.698  0.4021  0.6157  0.9128
 5845TP3     H129354   1.530   1.664   1.657 -0.7350  1.3110  1.0569
 5845TP3     H229355   1.617   1.696   1.777 -1.3319  0.5092  1.7060
 5846TP3      O29356   4.174   4.087   1.311  0.3349  0.2965 -0.1203
 5846TP3     H129357   4.093   4.114   1.267  0.8493 -1.0751 -2.0225
 5846TP3     H229358   4.145   4.028   1.381 -0.2871 -1.1347 -1.5370
 5847TP3      O29359   0.923   5.278   3.383 -0.1282  0.2484 -0.3522
 5847TP3     H129360   1.010   5.309   3.408  0.3386 -1.3712  0.0952
 5847TP3     H229361   0.939   5.215   3.313 -0.9699  0.1915 -0.4977
 5848TP3      O29362   0.629   3.193   3.188 -0.3284 -0.1807 -0.1057
 5848TP3     H129363   0.693   3.263   3.200  1.6120 -1.9767  0.3337
 5848TP3     H229364   0.597   3.205   3.099  2.9396 -1.0515 -1.5029
 5849TP3      O29365   3.204   5.401   3.359  0.3916  0.4197  0.9401
 5849TP3     H129366   3.206   5.469   3.427 -0.0580  0.4668  0.9064
 5849TP3     H229367   3.132   5.427   3.302  1.3445  0.8683 -0.0654
 5850TP3      O29368   2.463   3.297   3.605 -0.5017 -0.0949  0.3164
 5850TP3     H129369   2.527   3.338   3.547 -2.4015  0.6047 -1.3711
 5850TP3     H229370   2.512   3.228   3.650  1.6362  1.0338 -0.2128
 5851TP3      O29371   2.126   0.194   1.966  0.2562 -0.2618  0.2843
 5851TP3     H129372   2.114   0.110   1.923 -0.5779  0.5115 -1.0261
 5851TP3     H229373   2.221   0.209   1.964  0.5172 -1.6701  1.5256
 5852TP3      O29374   1.729   4.474   2.241 -0.0212  0.1485  0.1808
 5852TP3     H129375   1.710   4.476   2.335 -2.0083 -1.1898 -0.1606
 5852TP3     H229376   1.812   4.427   2.234  1.0494  1.7993  1.3680
 5853TP3      O29377   4.795   5.011   0.648  0.2473  0.1830  0.4588
 5853TP3     H129378   4.793   5.094   0.600  1.8875  0.7768  1.3882
 5853TP3     H229379   4.840   5.032   0.730 -1.1208 -1.1823  1.5759
 5854TP3      O29380   4.865   5.192   1.188 -0.4706  0.3824  0.2892
 5854TP3     H129381   4.952   5.211   1.153 -0.9300 -1.2334 -1.8391
 5854TP3     H229382   4.858   5.096   1.186 -2.4008  0.4954  0.1460
 5855TP3      O29383   2.411   0.449   1.275  0.0433 -0.0958  0.1066
 5855TP3     H129384   2.398   0.480   1.365 -1.3211 -0.7967  0.1603
 5855TP3     H229385   2.468   0.373   1.284 -0.0128 -0.1081  0.3704
 5856TP3      O29386   0.925   5.307   1.693  0.3344  0.0523 -0.0142
 5856TP3     H129387   0.943   5.213   1.687 -0.0313  0.0239 -0.8299
 5856TP3     H229388   0.833   5.312   1.722  0.1627  0.1507 -0.5711
 5857TP3      O29389   3.490   5.344   2.437 -0.3797 -0.1032  0.2728
 5857TP3     H129390   3.501   5.416   2.499 -0.5918 -2.0689  2.6642
 5857TP3     H229391   3.396   5.326   2.439 -0.5220  0.4015 -1.3337
 5858TP3      O29392   2.912   2.007   0.576 -0.5921  0.1558  0.2319
 5858TP3     H129393   2.995   2.054   0.583 -0.4618 -0.0776  0.2542
 5858TP3     H229394   2.923   1.929   0.630 -0.7085 -0.0408 -0.0232
 5859TP3      O29395   1.646   3.970   2.230  0.2586  0.1084 -0.1881
 5859TP3     H129396   1.662   3.876   2.222 -0.3847 -0.0563  0.3660
 5859TP3     H229397   1.609   3.981   2.318  0.8620  0.9569 -0.0260
 5860TP3      O29398   3.980   5.176   2.782  0.3019  0.5022  0.2505
 5860TP3     H129399   3.910   5.124   2.745 -0.6877  1.0655  1.3167
 5860TP3     H229400   4.060   5.130   2.757 -0.4787 -0.5864 -0.2565
 5861TP3      O29401   3.699   5.151   3.259  0.0298  0.0934  0.0658
 5861TP3     H129402   3.655   5.080   3.213 -0.8177  0.0643  0.9110
 5861TP3     H229403   3.628   5.208   3.289  0.5387 -0.1278  1.7263
 5862TP3      O29404   3.550   3.989   2.104  0.1119 -0.4130 -0.0164
 5862TP3     H129405   3.558   4.072   2.150  0.9102  1.0030 -2.6243
 5862TP3     H229406   3.538   3.924   2.173  2.8985  1.4210  2.2758
 5863TP3      O29407   3.672   2.512   2.334  0.2223 -0.2141  0.1681
 5863TP3     H129408   3.610   2.467   2.278  0.9263  0.3373 -1.0721
 5863TP3     H229409   3.758   2.480   2.306  0.5687 -0.1525  1.1251
 5864TP3      O29410   3.542   4.053   2.442 -0.0048  0.6005  0.2872
 5864TP3     H129411   3.477   4.109   2.399  0.6896  0.5284 -0.9058
 5864TP3     H229412   3.532   4.070   2.535 -0.1691  2.3165 -0.0313
 5865TP3      O29413   2.897   3.238   3.481  0.3280  0.1242 -0.3929
 5865TP3     H129414   2.978   3.210   3.525  1.0186  0.6439 -1.3296
 5865TP3     H229415   2.827   3.194   3.531  1.1466  0.0325  0.7065
 5866TP3      O29416   2.603   0.551   1.662  0.6006  0.4953 -0.5843
 5866TP3     H129417   2.522   0.538   1.614 -0.9005  1.8176  1.4794
 5866TP3     H229418   2.649   0.620   1.614  0.1222  0.3163 -1.2981
 5867TP3      O29419   5.057   3.642   3.345 -0.2594  0.5604 -0.2980
 5867TP3     H129420   5.021   3.719   3.300  1.3460  1.8562  0.5633
 5867TP3     H229421   5.131   3.615   3.291 -0.1766  0.2644 -0.0375
 5868TP3      O29422   4.740   0.304   3.138  0.4280 -0.0510  0.3627
 5868TP3     H129423   4.801   0.231   3.149  0.6427  0.2320  1.1595
 5868TP3     H229424   4.777   0.373   3.193 -0.4795  0.2041  0.6630
 5869TP3      O29425   4.590   4.138   3.658 -0.3452 -0.0180 -0.0521
 5869TP3     H129426   4.632   4.055   3.681 -0.6073 -0.2231 -0.3215
 5869TP3     H229427   4.661   4.202   3.659 -0.1766 -0.2123  0.3380
 5870TP3      O29428   4.030   4.756   0.527 -0.6383 -0.2592  0.0628
 5870TP3     H129429   3.956   4.745   0.468 -0.4661  1.0878 -0.4038
 5870TP3     H229430   3.994   4.800   0.604 -0.3088  0.4647 -0.1969
 5871TP3      O29431   4.592   0.112   2.976 -0.3751  0.2545  0.2075
 5871TP3     H129432   4.623   0.180   3.036  0.7702 -0.2904  0.2651
 5871TP3     H229433   4.664   0.102   2.913  1.0307 -3.2916  2.2059
 5872TP3      O29434   4.938   4.965   3.447 -0.5019  0.0291  0.6138
 5872TP3     H129435   5.031   4.966   3.422 -0.2448 -2.8478  1.3167
 5872TP3     H229436   4.905   5.051   3.419  1.8055  0.2180 -1.7684
 5873TP3      O29437   3.912   5.439   2.774  0.5199  0.2626  0.5166
 5873TP3     H129438   3.909   5.445   2.870  0.5103 -1.0519  0.6064
 5873TP3     H229439   3.933   5.347   2.757 -1.5319  0.0272 -0.7808
 5874TP3      O29440   1.174   2.831  10.309 -0.3383 -0.5172  0.3508
 5874TP3     H129441   1.251   2.855  10.362  1.6583 -0.7820 -2.3443
 5874TP3     H229442   1.157   2.908  10.256  0.1570 -1.6253 -1.4576
 5875TP3      O29443   4.375   3.130   3.374 -0.6158  0.4725 -0.4507
 5875TP3     H129444   4.328   3.207   3.344 -0.9420  0.7688  0.7954
 5875TP3     H229445   4.409   3.154   3.460 -1.1440 -0.9439  0.1758
 5876TP3      O29446   3.079   1.233   2.121  0.2501  0.4269  0.2408
 5876TP3     H129447   3.024   1.300   2.080 -2.8505 -2.6691 -0.8290
 5876TP3     H229448   3.106   1.176   2.049 -0.6610 -1.8697  1.6568
 5877TP3      O29449   4.678   4.518   3.659 -0.2265 -0.8983  0.4380
 5877TP3     H129450   4.617   4.568   3.714 -0.7335 -0.7604 -0.2445
 5877TP3     H229451   4.756   4.572   3.654 -0.8156 -0.1018 -0.3922
 5878TP3      O29452   4.306   4.190   2.872  0.1272  0.6822  0.5959
 5878TP3     H129453   4.283   4.272   2.829 -2.3483 -0.2040  0.1854
 5878TP3     H229454   4.402   4.187   2.867  0.1166  2.4382 -1.4408
 5879TP3      O29455   0.107   0.122   3.362  0.1634 -0.2407 -0.1066
 5879TP3     H129456   0.030   0.120   3.305  0.3094 -1.3685 -0.2647
 5879TP3     H229457   0.178   0.152   3.305  0.0730 -0.2592 -0.2282
 5880TP3      O29458   4.802   4.495   3.395  0.0140 -0.4881 -0.8759
 5880TP3     H129459   4.775   4.481   3.485 -2.4528  2.3753 -1.1080
 5880TP3     H229460   4.771   4.417   3.348  0.3586 -1.4862  0.5168
 5881TP3      O29461   3.014   0.233   3.165  0.7142  0.4240  0.1451
 5881TP3     H129462   3.082   0.271   3.110 -1.1114  0.5969 -2.0870
 5881TP3     H229463   3.038   0.140   3.173  2.2288  0.8876  0.9955
 5882TP3      O29464   4.480   4.331   3.480 -0.2815  0.1392  0.4553
 5882TP3     H129465   4.444   4.281   3.554  0.0631  0.3154  0.7423
 5882TP3     H229466   4.570   4.349   3.505  0.0642 -0.4366 -0.3392
 5883TP3      O29467   3.840   3.584   2.888 -0.1642 -0.1796  0.3434
 5883TP3     H129468   3.770   3.537   2.932 -0.4978 -0.0755 -0.0664
 5883TP3     H229469   3.841   3.670   2.930 -0.6389  0.0000 -0.0147
   5.52806   5.52806  10.31600
