Title
29469
    1NLYS     N    1   1.942   2.721   1.937  0.0438 -0.5597 -0.4835
    1NLYS    H1    2   1.908   2.644   1.882  1.4056 -0.3175 -1.6981
    1NLYS    H2    3   1.867   2.789   1.934 -0.6383 -1.2843  0.3359
    1NLYS    H3    4   1.940   2.697   2.035 -1.8469  0.4320 -0.2699
    1NLYS    CA    5   2.072   2.772   1.889 -0.8965 -0.0384 -0.1041
    1NLYS    HA    6   2.141   2.688   1.878 -0.8635  0.2648 -2.5088
    1NLYS    CB    7   2.062   2.845   1.752 -0.2351 -0.0313  0.1050
    1NLYS   HB2    8   1.989   2.788   1.695  1.5613  0.2769 -2.6392
    1NLYS   HB3    9   2.030   2.948   1.771 -0.0569 -0.3054  1.9605
    1NLYS    CG   10   2.198   2.841   1.683 -0.3496  0.4834 -0.3147
    1NLYS   HG2   11   2.271   2.904   1.734 -1.8067  2.4496 -0.5602
    1NLYS   HG3   12   2.229   2.737   1.679 -0.9453  0.2807  0.3144
    1NLYS    CD   13   2.185   2.898   1.542  0.0111 -0.0343  0.0737
    1NLYS   HD2   14   2.115   2.834   1.489  1.0432 -1.1534  0.0407
    1NLYS   HD3   15   2.146   2.997   1.567 -1.4705 -0.3798 -0.8455
    1NLYS    CE   16   2.321   2.899   1.473 -0.4093  0.0190 -0.3841
    1NLYS   HE2   17   2.395   2.958   1.527 -0.2595 -0.0564 -0.5040
    1NLYS   HE3   18   2.355   2.797   1.453 -1.1466 -0.4770  0.8479
    1NLYS    NZ   19   2.319   2.964   1.341  0.1489  0.0059 -0.3011
    1NLYS   HZ1   20   2.252   2.926   1.276 -0.6594 -0.3758  0.7384
    1NLYS   HZ2   21   2.310   3.064   1.353  1.9328  0.3177 -1.4108
    1NLYS   HZ3   22   2.411   2.953   1.302  1.8302 -0.2019  3.5018
    1NLYS     C   23   2.143   2.861   1.992  0.0322  0.1650  0.1103
    1NLYS     O   24   2.093   2.963   2.038 -0.3489  0.0425 -0.0052
    2GLY      N   25   2.263   2.816   2.030  0.9335 -0.3709  0.4090
    2GLY      H   26   2.299   2.738   1.976  1.4651 -0.3830  0.7805
    2GLY     CA   27   2.346   2.870   2.136  0.2645  0.0191  0.4550
    2GLY    HA2   28   2.321   2.972   2.164 -0.3620 -0.5497  2.0227
    2GLY    HA3   29   2.327   2.814   2.228  1.5536  0.0852  0.7699
    2GLY      C   30   2.496   2.848   2.113 -0.1256 -0.1310 -0.0895
    2GLY      O   31   2.537   2.732   2.096  0.2908 -0.5051 -0.6575
    3PRO      N   32   2.582   2.956   2.114  0.8524 -1.0910 -0.4505
    3PRO     CD   33   2.544   3.089   2.064  0.6401  0.7639 -0.3499
    3PRO    HD2   34   2.529   3.161   2.145 -0.4809  0.0812  0.0656
    3PRO    HD3   35   2.448   3.084   2.013  0.6538  0.8064 -0.3795
    3PRO     CG   36   2.651   3.134   1.967  0.1139  0.3270  0.1535
    3PRO    HG2   37   2.657   3.242   1.956  0.6155  0.0792 -2.2962
    3PRO    HG3   38   2.647   3.079   1.873  1.0527 -0.6577  0.6869
    3PRO     CB   39   2.769   3.079   2.041  0.8266 -0.0788 -0.2447
    3PRO    HB2   40   2.782   3.147   2.126 -0.1493 -1.5485  1.1195
    3PRO    HB3   41   2.865   3.065   1.993  0.5350 -0.4899 -0.7156
    3PRO     CA   42   2.722   2.944   2.102 -0.1525  0.1322 -0.4650
    3PRO     HA   43   2.743   2.869   2.027  0.7128  0.4020 -0.4917
    3PRO      C   44   2.801   2.912   2.230 -0.7361  0.3831  0.0835
    3PRO      O   45   2.918   2.872   2.210  0.0492  0.0974  0.4261
    4PRO      N   46   2.751   2.923   2.355  0.5198 -0.3324  0.1087
    4PRO     CD   47   2.619   2.976   2.402  0.0875 -0.0622 -0.2428
    4PRO    HD2   48   2.531   2.935   2.354  0.4775 -0.0284 -0.9986
    4PRO    HD3   49   2.619   3.081   2.374 -0.9109  0.5973  2.0865
    4PRO     CG   50   2.619   2.943   2.551 -0.1306  0.0869 -0.5309
    4PRO    HG2   51   2.584   2.840   2.566 -0.6439 -0.1253 -2.9706
    4PRO    HG3   52   2.560   3.017   2.605  1.2182  0.2528  0.7459
    4PRO     CB   53   2.765   2.952   2.584 -0.0271 -0.0733 -0.5399
    4PRO    HB2   54   2.786   2.904   2.679 -4.1423 -2.1535 -0.5582
    4PRO    HB3   55   2.798   3.056   2.583  0.4954 -0.1821  2.3441
    4PRO     CA   56   2.836   2.880   2.469 -0.0381  0.0018  1.0131
    4PRO     HA   57   2.936   2.924   2.463 -0.3935  0.6113 -0.8059
    4PRO      C   58   2.836   2.726   2.491 -0.8120  0.9324  0.1676
    4PRO      O   59   2.790   2.643   2.410 -0.1096 -0.1516 -0.3537
    5ARG      N   60   2.878   2.688   2.612  0.6059 -0.3939 -0.2978
    5ARG      H   61   2.905   2.765   2.671 -1.8165 -0.0383  0.3781
    5ARG     CA   62   2.866   2.555   2.671 -0.5458  0.1434  0.2795
    5ARG     HA   63   2.927   2.488   2.610 -0.5813  2.7927 -2.8289
    5ARG     CB   64   2.925   2.570   2.814 -0.2145  0.4828 -0.3602
    5ARG    HB2   65   2.917   2.473   2.863 -1.2614  1.1959  0.9260
    5ARG    HB3   66   3.031   2.591   2.804  0.7095 -2.7333  1.8210
    5ARG     CG   67   2.846   2.667   2.905  0.2567  0.0589 -0.1396
    5ARG    HG2   68   2.844   2.764   2.856 -1.0499 -0.5396 -1.2998
    5ARG    HG3   69   2.743   2.631   2.915  0.1322  0.3975 -0.1857
    5ARG     CD   70   2.921   2.683   3.042 -0.1235 -0.3203  0.4126
    5ARG    HD2   71   2.853   2.734   3.110 -0.4046 -0.4256  0.2112
    5ARG    HD3   72   2.944   2.584   3.083 -1.4145 -1.0597 -0.6144
    5ARG     NE   73   3.044   2.755   3.033 -0.1248 -0.0800  0.5971
    5ARG     HE   74   3.046   2.847   2.991 -0.0054  1.1301  3.2055
    5ARG     CZ   75   3.166   2.721   3.062  0.4636 -1.1692  0.2090
    5ARG    NH1   76   3.189   2.609   3.123 -0.2844 -1.0846 -0.1128
    5ARG   HH11   77   3.105   2.565   3.158 -1.8586 -0.2646 -2.6896
    5ARG   HH12   78   3.281   2.591   3.159  0.1330 -0.2049 -0.6975
    5ARG    NH2   79   3.263   2.806   3.040 -0.2526  0.3911  0.1656
    5ARG   HH21   80   3.248   2.888   2.983 -0.5144  0.6495  0.6044
    5ARG   HH22   81   3.359   2.775   3.045  0.0407  1.2898  0.1837
    5ARG      C   82   2.722   2.499   2.684 -0.7267  0.2603  0.1143
    5ARG      O   83   2.628   2.582   2.679  0.0767 -0.2844 -0.2846
    6CARG     N   84   2.714   2.365   2.696  0.1459  0.1547 -0.2717
    6CARG     H   85   2.800   2.315   2.677 -0.1097 -0.7773  0.9269
    6CARG    CA   86   2.582   2.301   2.696 -0.7670 -0.2621  0.3196
    6CARG    HA   87   2.531   2.348   2.612  2.5058  3.5208  0.3001
    6CARG    CB   88   2.591   2.144   2.679 -0.4382  0.1185 -0.2446
    6CARG   HB2   89   2.488   2.110   2.666  0.0931 -1.4249 -0.3975
    6CARG   HB3   90   2.656   2.116   2.596  2.3485  0.6372  1.6903
    6CARG    CG   91   2.642   2.055   2.798  0.1529  0.1080  0.3832
    6CARG   HG2   92   2.595   2.087   2.891  0.8280  1.9921  0.0941
    6CARG   HG3   93   2.613   1.951   2.782  0.9571 -0.0850  0.1621
    6CARG    CD   94   2.794   2.066   2.827 -0.4994 -0.4987 -0.4488
    6CARG   HD2   95   2.845   2.033   2.736 -0.1582 -0.1724 -0.3802
    6CARG   HD3   96   2.823   2.168   2.852 -0.4795 -0.7523  0.5699
    6CARG    NE   97   2.849   1.975   2.933  0.1802 -0.0628  0.3260
    6CARG    HE   98   2.781   1.923   2.986 -1.4155 -0.6305 -2.1974
    6CARG    CZ   99   2.970   1.987   2.975  0.0030  0.1632 -0.5443
    6CARG   NH1  100   3.052   2.076   2.935 -0.2835 -1.2702 -0.2984
    6CARG  HH11  101   3.034   2.142   2.860 -0.6542  1.2435  1.9137
    6CARG  HH12  102   3.130   2.088   2.999 -0.6996  1.6872 -0.2572
    6CARG   NH2  103   3.005   1.925   3.083 -0.1265  1.0374  0.1328
    6CARG  HH21  104   2.934   1.862   3.115 -0.4045  1.1176 -0.3116
    6CARG  HH22  105   3.099   1.934   3.118  0.3465 -0.7789 -0.6187
    6CARG     C  106   2.497   2.331   2.819  0.3319  0.5244  0.2905
    6CARG     O  107   2.544   2.389   2.913  0.4938 -0.0378  0.8717
    6CARG   OXT  108   2.381   2.299   2.818  0.3170 -0.5901 -0.2486
    1PA    C116  109   2.971   2.192   5.449 -0.1855 -0.2231 -0.0263
    1PA    H16R  110   2.945   2.091   5.479 -2.4626 -0.8829 -3.9191
    1PA    H16S  111   3.067   2.188   5.396 -0.2492  4.9905 -0.8362
    1PA    H16T  112   2.900   2.238   5.380  1.8022  2.4641 -0.3612
    1PA    C115  113   3.000   2.272   5.581 -0.6384 -0.1212 -0.4153
    1PA    H15R  114   2.989   2.379   5.563 -2.3730 -0.1191  0.4671
    1PA    H15S  115   2.922   2.254   5.656 -0.1324  1.6736  0.5803
    1PA    C114  116   3.137   2.243   5.648 -0.6691  0.7952 -0.6897
    1PA    H14R  117   3.219   2.264   5.578  0.9958  0.1509  1.0323
    1PA    H14S  118   3.155   2.314   5.729  0.5097 -1.5423  1.1273
    1PA    C113  119   3.158   2.102   5.705  0.2860  0.9108  0.0674
    1PA    H13R  120   3.138   2.035   5.621  2.0948 -0.0479  0.3842
    1PA    H13S  121   3.261   2.090   5.739  0.4990 -0.4583 -1.0262
    1PA    C112  122   3.067   2.052   5.823  0.0072 -1.0151 -0.5645
    1PA    H12R  123   2.972   2.106   5.819  1.3209  1.4031  0.2170
    1PA    H12S  124   3.051   1.946   5.804  1.3486 -0.7600 -3.4211
    1PA    C111  125   3.120   2.079   5.965 -0.4608 -0.3313 -0.3203
    1PA    H11R  126   3.227   2.062   5.962 -0.3705  0.5494 -5.1797
    1PA    H11S  127   3.100   2.181   5.998  1.6983 -0.2682  0.8937
    1PA    C110  128   3.048   1.990   6.072  0.3275  0.6094  0.5456
    1PA    H10R  129   2.950   2.034   6.091  0.0637 -0.5123  1.8220
    1PA    H10S  130   3.035   1.889   6.031 -2.2213  1.7499 -1.6109
    1PA     C19  131   3.119   1.993   6.209 -0.0794  0.6657  0.4036
    1PA     H9R  132   3.227   1.984   6.195  0.1642  3.3035  0.3526
    1PA     H9S  133   3.105   2.091   6.255 -1.2596  1.1872 -1.0257
    1PA     C18  134   3.073   1.883   6.311  0.3281  0.1714 -0.0534
    1PA     H8R  135   2.969   1.881   6.343  0.8303 -0.8890  1.5753
    1PA     H8S  136   3.077   1.785   6.263  0.5943  0.1540 -0.0007
    1PA     C17  137   3.175   1.877   6.428  0.1002  0.2254 -0.5879
    1PA     H7R  138   3.166   1.779   6.475 -0.1262 -0.2935 -1.6908
    1PA     H7S  139   3.282   1.887   6.405  0.1272  1.4372  0.0313
    1PA     C16  140   3.136   1.993   6.523 -0.1415 -0.0539 -0.3393
    1PA     H6R  141   3.149   2.088   6.471  0.0319  0.5782  0.8236
    1PA     H6S  142   3.034   1.968   6.551  0.5301 -1.9331  0.4887
    1PA     C15  143   3.223   1.989   6.649 -0.1101  0.6688 -0.4735
    1PA     H5R  144   3.196   1.912   6.721  0.1938  2.3424  1.4633
    1PA     H5S  145   3.326   1.963   6.623  0.2655  0.3542  1.2505
    1PA     C14  146   3.193   2.122   6.723 -0.4081 -0.4469 -0.2008
    1PA     H4R  147   3.228   2.200   6.656 -1.1289  0.6633  0.6968
    1PA     H4S  148   3.085   2.132   6.739 -0.7981 -1.2309 -2.1555
    1PA     C13  149   3.259   2.130   6.864  0.3642  0.0592  0.4349
    1PA     H3R  150   3.202   2.060   6.926 -0.3255  0.4018  0.1903
    1PA     H3S  151   3.364   2.100   6.861  0.8117  1.7075 -0.9360
    1PA     C12  152   3.265   2.274   6.928 -0.4579  0.0884 -0.3534
    1PA     H2R  153   3.327   2.262   7.017 -2.2337 -1.9470  0.6655
    1PA     H2S  154   3.316   2.341   6.859  1.7109 -1.0403  0.1057
    1PC     C11  155   3.122   2.320   6.956  0.3608  0.9463  0.0918
    1PC     O12  156   3.047   2.373   6.877 -0.4016  0.2732  0.7306
    1PC     O11  157   3.091   2.286   7.086  0.2912  0.0862  0.1049
    1PC      C1  158   2.959   2.328   7.149 -0.6298  0.6909 -0.7891
    1PC      HR  159   2.982   2.372   7.247  0.9435 -1.0240 -0.3566
    1PC      HS  160   2.912   2.408   7.091 -1.1536  1.5779  0.8285
    1PC      C2  161   2.861   2.214   7.171  0.8414 -0.8915  0.2901
    1PC      HX  162   2.763   2.244   7.209  0.8165  0.6196 -0.9328
    1PC      C3  163   2.909   2.111   7.277  0.0125  0.6037 -0.0287
    1PC      HA  164   2.984   2.044   7.233  0.0200  0.0833  0.7807
    1PC      HB  165   2.953   2.168   7.359 -1.1792  2.1496 -0.4367
    1PC     O31  166   2.795   2.035   7.323 -0.2637 -0.1263  0.4237
    1PC     P31  167   2.720   2.064   7.458  0.5284 -0.2310 -0.5419
    1PC     O32  168   2.777   1.963   7.566 -0.0822  0.4788  0.1660
    1PC     C31  169   2.689   1.906   7.669  0.1406  0.4624 -0.5882
    1PC     H1A  170   2.602   1.855   7.628  0.2994  1.6580 -2.4590
    1PC     H1B  171   2.741   1.831   7.729 -0.1763 -0.2664 -1.2291
    1PC     C32  172   2.633   2.007   7.773 -0.4006  0.0009  0.3116
    1PC     H2A  173   2.589   2.085   7.710  0.4994 -0.7128 -1.2261
    1PC     H2B  174   2.554   1.951   7.822 -0.8449 -0.9455 -1.4410
    1PC     N31  175   2.731   2.080   7.870 -0.0540  0.2809  0.2108
    1PC     C33  176   2.845   2.152   7.803  0.1469 -0.1972 -0.2301
    1PC     H3A  177   2.882   2.226   7.874  0.5556 -0.9982  0.3967
    1PC     H3B  178   2.927   2.090   7.767  0.5739 -0.9716  2.0061
    1PC     H3C  179   2.791   2.212   7.729 -1.1657 -0.5639  0.4270
    1PC     C34  180   2.652   2.173   7.952  0.3353  0.1023  0.0998
    1PC     H4A  181   2.596   2.232   7.879  0.0501 -0.4791 -0.1589
    1PC     H4B  182   2.583   2.118   8.016  1.3962 -1.9049 -0.4450
    1PC     H4C  183   2.724   2.234   8.006  0.0016  2.1352 -1.6649
    1PC     C35  184   2.777   1.980   7.973 -0.5381  0.1129 -0.1893
    1PC     H5A  185   2.832   1.901   7.922  1.1183  0.6920  0.6637
    1PC     H5B  186   2.686   1.942   8.019 -0.6363  0.3408 -0.1926
    1PC     H5C  187   2.839   2.032   8.046 -1.9451  1.1656  0.2600
    1PC     O33  188   2.750   2.205   7.498 -0.2546  0.3014 -0.4967
    1PC     O34  189   2.575   2.026   7.443 -0.0225 -0.1863  0.0975
    1PC     O21  190   2.832   2.158   7.038 -0.5168 -0.1531 -0.5158
    1PC     C21  191   2.753   2.228   6.958 -0.0907 -0.4537  0.6991
    1PC     O22  192   2.698   2.326   6.979 -0.2434  0.1912 -0.5998
    1OL     C12  193   2.742   2.170   6.821 -1.3204 -0.2735  0.1988
    1OL     H2R  194   2.660   2.098   6.808 -1.8841  0.3653  0.1437
    1OL     H2S  195   2.836   2.116   6.816 -0.2191  1.5010  1.4954
    1OL     C13  196   2.735   2.282   6.714 -0.0082  0.1112 -0.2387
    1OL     H3R  197   2.812   2.350   6.750 -1.7889  0.4920  3.0738
    1OL     H3S  198   2.638   2.331   6.716  0.2414  0.5727  0.7790
    1OL     C14  199   2.770   2.224   6.572 -0.8476  0.0568  0.2941
    1OL     H4R  200   2.693   2.152   6.546  0.2107 -0.3071 -1.9164
    1OL     H4S  201   2.862   2.165   6.579  0.4553  2.0413  0.6862
    1OL     C15  202   2.772   2.330   6.461  1.0197 -0.2223 -0.1756
    1OL     H5R  203   2.851   2.405   6.459  0.5506  0.3091  0.8542
    1OL     H5S  204   2.679   2.386   6.472  0.3048 -0.9641 -2.2828
    1OL     C16  205   2.783   2.258   6.325 -0.0365 -0.2640 -0.3008
    1OL     H6R  206   2.717   2.172   6.315 -0.1906 -0.1761 -0.0575
    1OL     H6S  207   2.886   2.222   6.317  0.9578  2.2210  0.7393
    1OL     C17  208   2.757   2.351   6.203  0.3782  0.1673  0.3199
    1OL     H7R  209   2.810   2.447   6.200  0.5237  0.0596 -0.6451
    1OL     H7S  210   2.652   2.383   6.203  0.1946 -0.3954 -1.1373
    1OL     C18  211   2.792   2.275   6.073 -0.9063  0.6047  0.6974
    1OL     H8R  212   2.735   2.181   6.071  1.2860 -0.7589  0.0975
    1OL     H8S  213   2.896   2.242   6.083 -0.2711  2.6735  1.2442
    1OL     C19  214   2.778   2.350   5.949  0.3940  0.9219  0.4012
    1OL     H9R  215   2.855   2.416   5.910 -0.4439 -0.7283 -4.4394
    1OL    C110  216   2.664   2.356   5.876 -0.1519  0.2563  0.0113
    1OL    H10R  217   2.657   2.427   5.794  1.7063 -0.2870 -0.6270
    1OL    C111  218   2.537   2.286   5.911 -0.7009 -0.1802 -0.4006
    1OL    H11R  219   2.539   2.229   6.004  0.4965  0.4468 -0.0234
    1OL    H11S  220   2.508   2.213   5.836  1.7197 -0.8263 -0.7340
    1OL    C112  221   2.418   2.385   5.915 -0.1930  0.0420 -0.0582
    1OL    H12R  222   2.329   2.325   5.938 -0.5053  0.7495  0.6005
    1OL    H12S  223   2.399   2.432   5.818 -0.1375 -0.7021 -0.4322
    1OL    C113  224   2.433   2.494   6.021 -0.6487  0.3401  0.2353
    1OL    H13R  225   2.526   2.546   5.996 -2.2307  2.1727 -2.0361
    1OL    H13S  226   2.453   2.453   6.120 -1.2745 -1.9860 -0.5650
    1OL    C114  227   2.316   2.587   6.032  0.1363 -0.7115  0.5451
    1OL    H14R  228   2.290   2.641   5.941 -1.4866 -0.7858  0.9629
    1OL    H14S  229   2.343   2.657   6.111 -0.0914  0.6769 -0.5872
    1OL    C115  230   2.181   2.523   6.071 -0.4599  0.0321  0.9082
    1OL    H15R  231   2.193   2.458   6.157 -0.8685  1.5222  2.1047
    1OL    H15S  232   2.129   2.461   5.997 -0.5619  0.2113  0.8287
    1OL    C116  233   2.080   2.628   6.126 -0.0999  0.2416  0.0465
    1OL    H16R  234   2.119   2.680   6.214  1.4600 -1.2137  0.2505
    1OL    H16S  235   1.987   2.583   6.160  0.6456 -1.2899  0.0899
    1OL    C117  236   2.031   2.722   6.020 -0.2036  0.1760 -0.4912
    1OL    H17R  237   2.126   2.744   5.971 -0.2037  1.7181  0.1619
    1OL    H17S  238   1.991   2.814   6.063  1.3862  0.4335  0.5079
    1OL    C118  239   1.943   2.652   5.912 -0.4348  0.5697 -0.4116
    1OL    H18R  240   1.850   2.607   5.949  0.9820 -0.8662  1.5081
    1OL    H18S  241   2.005   2.583   5.855  0.2890  0.5433  0.3929
    1OL    H18T  242   1.918   2.732   5.841  1.5280  0.8030 -0.8581
    1PA    C116  243   3.611   3.423   5.190 -0.0997  0.8007 -0.3440
    1PA    H16R  244   3.594   3.389   5.088 -0.4093 -1.6773  0.5035
    1PA    H16S  245   3.660   3.340   5.240 -0.0074  1.4131  0.5956
    1PA    H16T  246   3.692   3.496   5.186  1.5665 -0.9593  0.5435
    1PA    C115  247   3.481   3.464   5.264  1.1891 -0.3766 -0.0455
    1PA    H15R  248   3.428   3.540   5.206  1.4464  0.2898  0.5684
    1PA    H15S  249   3.421   3.373   5.266  2.4817 -1.2364  1.7022
    1PA    C114  250   3.490   3.510   5.409 -0.1159 -0.1889  0.2899
    1PA    H14R  251   3.533   3.433   5.474 -1.4463  1.0093  2.6226
    1PA    H14S  252   3.563   3.590   5.425  2.5235 -2.2493 -0.9613
    1PA    C113  253   3.357   3.561   5.470 -0.4596  0.0584 -0.8044
    1PA    H13R  254   3.385   3.622   5.555  0.5832 -1.4124 -0.0750
    1PA    H13S  255   3.300   3.623   5.399 -0.3968 -0.4023 -1.2636
    1PA    C112  256   3.265   3.446   5.520 -0.6260 -0.5051 -0.5498
    1PA    H12R  257   3.229   3.399   5.428 -1.8460 -0.8901  0.1112
    1PA    H12S  258   3.317   3.369   5.577  0.6967  0.0104 -1.0559
    1PA    C111  259   3.145   3.486   5.598 -0.2527 -0.1490 -0.0616
    1PA    H11R  260   3.090   3.567   5.551 -0.7381 -1.3066 -1.5140
    1PA    H11S  261   3.075   3.402   5.601 -1.6612  0.9773 -1.3276
    1PA    C110  262   3.158   3.535   5.741  0.7626 -0.0317  0.6463
    1PA    H10R  263   3.229   3.617   5.750 -0.4447  1.2447 -1.1733
    1PA    H10S  264   3.060   3.572   5.773  1.7496  1.8893  1.5289
    1PA     C19  265   3.217   3.435   5.848 -0.1593 -0.0361 -0.3387
    1PA     H9R  266   3.169   3.339   5.829  0.3131 -0.7326  1.8938
    1PA     H9S  267   3.323   3.425   5.820  0.8467  1.8073  2.5801
    1PA     C18  268   3.190   3.475   5.995 -0.0525  0.8868 -0.6743
    1PA     H8R  269   3.235   3.572   6.018 -0.4064  0.6721  0.9382
    1PA     H8S  270   3.084   3.483   6.019  0.2637  2.5612  0.2151
    1PA     C17  271   3.256   3.367   6.086  0.2467 -0.7124 -0.4607
    1PA     H7R  272   3.206   3.270   6.076 -0.1870 -0.4903 -0.4864
    1PA     H7S  273   3.358   3.351   6.052  0.5633 -1.3086  0.7427
    1PA     C16  274   3.256   3.413   6.231  0.2616  0.1561  0.0310
    1PA     H6R  275   3.263   3.522   6.235 -0.1446  0.1846 -0.0511
    1PA     H6S  276   3.159   3.387   6.274 -0.2330  0.8212 -0.6684
    1PA     C15  277   3.348   3.341   6.324  0.4490  0.0761  0.1865
    1PA     H5R  278   3.455   3.353   6.302  0.1712 -0.1423 -1.3047
    1PA     H5S  279   3.343   3.389   6.423  0.8326 -0.7161  0.5971
    1PA     C14  280   3.328   3.190   6.349 -0.3250 -0.7516  0.6627
    1PA     H4R  281   3.362   3.173   6.451  0.3981 -1.2350  0.3508
    1PA     H4S  282   3.221   3.168   6.350 -0.0660 -2.0430  0.8422
    1PA     C13  283   3.403   3.095   6.252  0.6546 -0.7399 -0.0001
    1PA     H3R  284   3.365   3.118   6.152 -1.3615 -2.1193  0.4245
    1PA     H3S  285   3.509   3.118   6.261  0.4076  0.5960 -0.3445
    1PA     C12  286   3.383   2.944   6.298  0.0111 -0.0407  0.3505
    1PA     H2R  287   3.280   2.907   6.300  0.5471 -1.5232  2.3993
    1PA     H2S  288   3.432   2.877   6.227 -0.6310 -2.6489  2.2803
    1PC     C11  289   3.437   2.892   6.435  1.1521 -0.2129  0.0010
    1PC     O12  290   3.545   2.929   6.483  0.3749 -0.5002 -0.7285
    1PC     O11  291   3.356   2.802   6.498  0.2896  0.1919  0.3520
    1PC      C1  292   3.407   2.745   6.622  0.3605 -0.4192  0.3923
    1PC      HR  293   3.491   2.680   6.597  1.2942  1.0354 -0.3463
    1PC      HS  294   3.425   2.826   6.693  1.2847 -0.9311  0.7392
    1PC      C2  295   3.293   2.661   6.684 -0.0756 -0.2578 -0.4938
    1PC      HX  296   3.200   2.717   6.696 -0.0888 -0.6584  1.4725
    1PC      C3  297   3.323   2.600   6.824 -0.2254 -0.1967 -0.0677
    1PC      HA  298   3.236   2.536   6.835  0.2074 -0.8258 -0.2805
    1PC      HB  299   3.414   2.539   6.829 -0.1919 -0.5168 -3.5526
    1PC     O31  300   3.336   2.704   6.920 -0.1412 -0.5099  0.0472
    1PC     P31  301   3.241   2.719   7.043  0.0276 -0.0971  0.7471
    1PC     O32  302   3.243   2.571   7.108 -0.1931  0.1062 -0.5474
    1PC     C31  303   3.364   2.506   7.155  0.4518 -0.2314  0.8925
    1PC     H1A  304   3.404   2.444   7.075 -1.0168  1.4724 -1.2170
    1PC     H1B  305   3.434   2.588   7.174 -0.3763  0.4781  0.9323
    1PC     C32  306   3.330   2.423   7.280 -0.6705 -0.2141  0.5643
    1PC     H2A  307   3.249   2.354   7.260 -0.6538  0.1079 -0.6333
    1PC     H2B  308   3.417   2.366   7.315  0.8671  0.9046 -1.3031
    1PC     N31  309   3.292   2.503   7.404 -0.1249 -0.0329 -0.1861
    1PC     C33  310   3.167   2.580   7.375  0.4582 -0.7800 -0.9809
    1PC     H3A  311   3.123   2.614   7.469 -0.8015 -1.9031 -1.1446
    1PC     H3B  312   3.189   2.672   7.321  0.0093  0.5091  0.9649
    1PC     H3C  313   3.099   2.518   7.316 -0.7300  0.3544 -0.8244
    1PC     C34  314   3.255   2.400   7.508 -0.1043 -0.9074  0.2815
    1PC     H4A  315   3.203   2.436   7.597  0.8846  0.4606  0.3333
    1PC     H4B  316   3.203   2.321   7.455  3.0237 -1.3484 -2.2396
    1PC     H4C  317   3.350   2.362   7.545  1.0841  0.3432 -1.4313
    1PC     C35  318   3.407   2.589   7.446 -0.0832 -0.1139  0.2491
    1PC     H5A  319   3.365   2.652   7.525 -0.2733 -0.6235  0.5571
    1PC     H5B  320   3.434   2.654   7.362  0.7249  0.4289  0.9194
    1PC     H5C  321   3.488   2.525   7.480  0.8902  1.4050  0.8453
    1PC     O33  322   3.307   2.799   7.153 -0.5351  0.5762 -0.2825
    1PC     O34  323   3.102   2.759   7.000 -0.8962 -0.2330 -0.4566
    1PC     O21  324   3.265   2.544   6.610 -0.0883 -0.1139 -0.3192
    1PC     C21  325   3.160   2.531   6.524  0.6193 -0.4191 -0.0019
    1PC     O22  326   3.073   2.611   6.521 -0.2031  0.6687  0.3487
    1OL     C12  327   3.180   2.411   6.436  0.4214 -0.1873  0.7132
    1OL     H2R  328   3.082   2.365   6.423  1.3435 -2.1190  0.3801
    1OL     H2S  329   3.255   2.350   6.487 -0.5302 -0.2921  1.9832
    1OL     C13  330   3.240   2.446   6.296 -0.0940 -0.5355 -0.4045
    1OL     H3R  331   3.272   2.357   6.243  0.4457 -1.2546  1.0813
    1OL     H3S  332   3.328   2.511   6.308  0.3924 -1.4243  1.0083
    1OL     C14  333   3.136   2.516   6.202  0.0700  0.0626 -0.1627
    1OL     H4R  334   3.100   2.611   6.243 -3.0980 -0.7690 -0.8580
    1OL     H4S  335   3.059   2.438   6.198 -1.2437  1.1663  2.5891
    1OL     C15  336   3.185   2.528   6.058 -0.3363 -0.7347 -0.4981
    1OL     H5R  337   3.096   2.518   5.994 -0.7718 -2.5636  0.3506
    1OL     H5S  338   3.253   2.447   6.030 -0.3154 -1.0612  0.4869
    1OL     C16  339   3.257   2.669   6.047  0.0693 -0.9343  0.3019
    1OL     H6R  340   3.349   2.660   6.105 -0.3998 -0.1876  1.1816
    1OL     H6S  341   3.196   2.746   6.095  0.1189 -0.8921  0.2972
    1OL     C17  342   3.273   2.717   5.898  0.1638 -0.8138 -0.1475
    1OL     H7R  343   3.173   2.723   5.853 -1.5111 -0.3078  3.4664
    1OL     H7S  344   3.326   2.635   5.849  3.6508  0.4135  1.4861
    1OL     C18  345   3.342   2.855   5.889  0.1696  0.0857 -0.1300
    1OL     H8R  346   3.383   2.871   5.789 -1.7050 -0.4804 -1.0086
    1OL     H8S  347   3.423   2.855   5.962 -0.4899  0.5614  0.6113
    1OL     C19  348   3.248   2.969   5.920 -1.0851  0.4619  0.0805
    1OL     H9R  349   3.225   2.971   6.026  0.3617 -0.4085  0.4237
    1OL    C110  350   3.196   3.059   5.839 -0.6070 -0.2266  0.1941
    1OL    H10R  351   3.130   3.131   5.886  0.1063  0.3799  0.2791
    1OL    C111  352   3.215   3.067   5.690 -0.1724  0.6372  0.5167
    1OL    H11R  353   3.292   2.999   5.654  0.0920  1.8111 -1.1625
    1OL    H11S  354   3.236   3.169   5.655  1.6068  0.2042  0.2610
    1OL    C112  355   3.075   3.016   5.643 -0.3997 -0.2401  0.7313
    1OL    H12R  356   3.000   3.086   5.683  0.0035  0.2363  0.6572
    1OL    H12S  357   3.057   2.918   5.689 -1.8357 -1.0684 -1.5306
    1OL    C113  358   3.054   2.985   5.493  0.0726  0.5213 -0.0533
    1OL    H13R  359   2.945   2.979   5.482  0.1928 -0.9206 -0.5580
    1OL    H13S  360   3.093   2.886   5.469  1.0598  0.7270  0.6736
    1OL    C114  361   3.122   3.103   5.411 -0.6742  0.3747  0.1840
    1OL    H14R  362   3.228   3.105   5.439 -0.4484 -2.2246 -0.3729
    1OL    H14S  363   3.083   3.199   5.445 -0.9805  0.0546  0.7504
    1OL    C115  364   3.108   3.096   5.255  0.0802  0.3248 -0.2005
    1OL    H15R  365   3.007   3.133   5.236  0.9179  3.7243  1.6289
    1OL    H15S  366   3.115   3.000   5.203 -1.4222  0.1723 -0.1481
    1OL    C116  367   3.196   3.201   5.184  0.5206  0.4027  0.0627
    1OL    H16R  368   3.299   3.165   5.187 -0.2910 -1.8992  1.5331
    1OL    H16S  369   3.182   3.294   5.240  0.7961  0.5786 -0.1563
    1OL    C117  370   3.144   3.238   5.043  0.4358  0.4487  0.1415
    1OL    H17R  371   3.112   3.153   4.983 -0.3910  1.3055 -0.6399
    1OL    H17S  372   3.227   3.286   4.991  0.6197  1.6921  1.5491
    1OL    C118  373   3.030   3.334   5.054  0.1428 -0.1399  0.6536
    1OL    H18R  374   3.018   3.390   4.961  0.0997  0.1636  0.8414
    1OL    H18S  375   3.053   3.399   5.138 -0.5064  1.0976 -0.1191
    1OL    H18T  376   2.943   3.276   5.087  0.8929 -1.9413 -0.4342
    1PA    C116  377   4.346   2.107   5.259  0.2097 -1.0422 -0.5821
    1PA    H16R  378   4.305   2.071   5.354 -2.1190  1.1643 -0.6801
    1PA    H16S  379   4.455   2.101   5.254  0.2715 -1.7869  1.3127
    1PA    H16T  380   4.316   2.041   5.178  1.6420 -1.0018 -1.1579
    1PA    C115  381   4.292   2.246   5.234 -0.6310  0.4064 -0.6227
    1PA    H15R  382   4.320   2.313   5.315 -0.4524 -0.1880 -0.1898
    1PA    H15S  383   4.353   2.297   5.160 -1.1759  3.1091  0.7175
    1PA    C114  384   4.144   2.251   5.194  0.2135 -0.0641 -0.0976
    1PA    H14R  385   4.121   2.352   5.159  2.8754  0.2727 -0.9467
    1PA    H14S  386   4.144   2.192   5.102 -0.9490  0.8623 -0.7048
    1PA    C113  387   4.033   2.203   5.286  0.0938 -0.1484  0.5920
    1PA    H13R  388   3.943   2.176   5.231  0.1324  0.1066  0.4019
    1PA    H13S  389   4.060   2.112   5.341 -1.7619  0.5264  2.7201
    1PA    C112  390   3.990   2.312   5.386 -0.2773  0.0397 -0.7108
    1PA    H12R  391   4.083   2.370   5.395  0.0830 -0.4872 -0.9978
    1PA    H12S  392   3.922   2.372   5.325 -0.0905 -0.1960 -1.1571
    1PA    C111  393   3.940   2.275   5.524  0.1493  0.5328 -0.4716
    1PA    H11R  394   3.925   2.373   5.572 -0.4406  0.5951 -0.7787
    1PA    H11S  395   3.842   2.229   5.510  0.9364 -0.8222 -1.5936
    1PA    C110  396   4.021   2.189   5.622  0.0464  0.9402  0.4996
    1PA    H10R  397   3.964   2.185   5.715  0.3795 -0.8251  0.6475
    1PA    H10S  398   4.022   2.088   5.580  1.6597  0.7950  0.8394
    1PA     C19  399   4.165   2.226   5.652 -0.2106  0.7303 -0.0512
    1PA     H9R  400   4.225   2.177   5.575 -0.8485  0.8067 -0.6035
    1PA     H9S  401   4.179   2.334   5.649 -2.2640  0.9915 -1.0186
    1PA     C18  402   4.227   2.162   5.782  0.4052  0.0863 -0.1115
    1PA     H8R  403   4.248   2.058   5.756  2.8028  0.1403  1.5006
    1PA     H8S  404   4.326   2.204   5.801  0.2756 -0.0071  0.7837
    1PA     C17  405   4.154   2.155   5.917  0.0024 -0.0908  0.7256
    1PA     H7R  406   4.138   2.258   5.948 -2.9328  0.2989 -1.8154
    1PA     H7S  407   4.054   2.118   5.894  0.2343  0.6859 -1.6531
    1PA     C16  408   4.219   2.068   6.026 -0.2991 -0.1424  0.7727
    1PA     H6R  409   4.235   1.969   5.982  1.6167 -0.1076  1.3545
    1PA     H6S  410   4.317   2.110   6.048 -0.5777  0.8051  0.1995
    1PA     C15  411   4.136   2.074   6.153  0.8289 -0.1214 -0.7444
    1PA     H5R  412   4.128   2.178   6.183 -0.9690 -0.3609 -0.3493
    1PA     H5S  413   4.037   2.033   6.131 -0.7275  2.6616  0.7407
    1PA     C14  414   4.209   1.988   6.255  0.3648  0.1410 -0.3528
    1PA     H4R  415   4.190   1.882   6.238  0.7491 -0.2734  1.7427
    1PA     H4S  416   4.314   2.017   6.244  0.5076 -0.1396  0.2733
    1PA     C13  417   4.171   2.031   6.397  0.1305  0.2400 -0.1140
    1PA     H3R  418   4.233   1.980   6.471  1.0525 -0.2500 -1.2248
    1PA     H3S  419   4.187   2.139   6.405 -0.0115  0.3062 -0.7363
    1PA     C12  420   4.026   2.011   6.428 -0.1083  0.1722  0.5839
    1PA     H2R  421   3.964   2.059   6.352  0.7586  2.3716  1.2438
    1PA     H2S  422   4.013   1.902   6.431 -1.6495  0.3614  1.7558
    1PC     C11  423   3.976   2.064   6.564  0.1328 -0.5135 -0.4024
    1PC     O12  424   4.039   2.150   6.625 -0.1935  0.1011 -0.5917
    1PC     O11  425   3.851   2.044   6.588  0.0089  0.1885 -0.1541
    1PC      C1  426   3.787   2.117   6.697 -0.0766 -0.1901 -0.3584
    1PC      HR  427   3.838   2.097   6.791 -0.2553  0.7261 -0.0689
    1PC      HS  428   3.799   2.222   6.670  1.2766 -1.3076 -4.5295
    1PC      C2  429   3.643   2.068   6.712  0.3623  0.0047 -0.3241
    1PC      HX  430   3.595   2.129   6.789 -1.3774 -0.7546 -0.7650
    1PC      C3  431   3.642   1.917   6.739  0.2150 -0.5615  0.7520
    1PC      HA  432   3.540   1.879   6.726  0.3658 -0.6250 -0.2252
    1PC      HB  433   3.704   1.880   6.657  0.7672  1.4491  0.2325
    1PC     O31  434   3.699   1.884   6.867 -0.0998  0.2296 -0.4179
    1PC     P31  435   3.627   1.889   7.003  0.2289 -0.0247  0.3658
    1PC     O32  436   3.510   1.784   6.972 -0.1884  0.0209 -0.4205
    1PC     C31  437   3.531   1.643   7.003 -0.0825  0.1969 -0.1517
    1PC     H1A  438   3.638   1.625   6.983  0.0941 -0.3417  1.2373
    1PC     H1B  439   3.511   1.628   7.109  0.4635 -1.5155 -0.2674
    1PC     C32  440   3.453   1.550   6.906  0.0094 -0.2280 -0.0342
    1PC     H2A  441   3.489   1.558   6.803 -2.1743  1.8633 -0.6661
    1PC     H2B  442   3.467   1.450   6.948  1.0682 -0.6689 -1.3552
    1PC     N31  443   3.302   1.565   6.909 -0.3552  0.2723  0.0750
    1PC     C33  444   3.261   1.689   6.836 -0.0132  0.2355 -0.0726
    1PC     H3A  445   3.291   1.772   6.901  1.1794 -0.2355 -0.0043
    1PC     H3B  446   3.306   1.691   6.737 -0.8197 -1.1020 -0.4756
    1PC     H3C  447   3.154   1.690   6.815  0.4207 -0.2040 -2.4581
    1PC     C34  448   3.244   1.452   6.839  0.0346 -0.0054  0.1692
    1PC     H4A  449   3.266   1.362   6.897 -1.3964  1.1667  2.6408
    1PC     H4B  450   3.137   1.472   6.851  0.2832 -0.0438  2.6286
    1PC     H4C  451   3.281   1.434   6.738 -0.0020  1.2596 -0.0723
    1PC     C35  452   3.249   1.582   7.046 -0.6109 -0.1517 -0.5067
    1PC     H5A  453   3.141   1.577   7.056 -0.5828 -0.3165 -0.2744
    1PC     H5B  454   3.291   1.676   7.083 -1.4160 -0.8875  2.3947
    1PC     H5C  455   3.286   1.495   7.100  2.9641  0.3423 -1.9814
    1PC     O33  456   3.712   1.832   7.112 -0.6675  0.2648  0.3953
    1PC     O34  457   3.565   2.017   7.023 -0.3392  0.5830 -0.0297
    1PC     O21  458   3.567   2.088   6.593 -0.1494 -0.5042  0.6331
    1PC     C21  459   3.568   2.205   6.527 -0.8407 -0.4199  0.2780
    1PC     O22  460   3.602   2.312   6.577 -0.0235  0.1851  0.0919
    1OL     C12  461   3.525   2.198   6.386  0.3944  0.7558 -0.4536
    1OL     H2R  462   3.499   2.298   6.351  2.0094  1.4780  0.3537
    1OL     H2S  463   3.437   2.133   6.385  0.4343  0.6922 -0.1291
    1OL     C13  464   3.634   2.121   6.310  0.5791 -0.2962  0.3757
    1OL     H3R  465   3.667   2.034   6.367 -1.2986 -0.6656  0.9217
    1OL     H3S  466   3.718   2.192   6.307  0.7183 -0.4848 -0.1406
    1OL     C14  467   3.599   2.095   6.165 -0.0404 -0.0154  0.0734
    1OL     H4R  468   3.557   2.188   6.127 -0.9482 -0.6302 -0.4390
    1OL     H4S  469   3.531   2.010   6.163  0.3348 -0.3089 -0.4818
    1OL     C15  470   3.718   2.052   6.075 -0.1822  0.1534 -0.2383
    1OL     H5R  471   3.752   1.957   6.115  0.7835 -0.1597 -1.7749
    1OL     H5S  472   3.806   2.115   6.087  0.5799 -1.0584  0.6652
    1OL     C16  473   3.686   2.024   5.928 -0.6372 -0.4215  0.5675
    1OL     H6R  474   3.782   2.003   5.880 -2.1824 -0.8399 -2.4440
    1OL     H6S  475   3.648   2.116   5.883  3.6297  1.9152  1.5151
    1OL     C17  476   3.611   1.896   5.926  0.3978 -0.1686 -0.6160
    1OL     H7R  477   3.509   1.908   5.964  0.6399  1.6602 -0.4874
    1OL     H7S  478   3.656   1.823   5.992  2.5997  0.2525 -1.5939
    1OL     C18  479   3.605   1.838   5.781 -0.8620 -0.0187  0.2135
    1OL     H8R  480   3.557   1.913   5.718 -2.6468 -1.6684 -0.4476
    1OL     H8S  481   3.533   1.756   5.784 -1.6019  0.6640  2.4618
    1OL     C19  482   3.737   1.774   5.739  0.6625  0.0402 -0.3946
    1OL     H9R  483   3.827   1.812   5.788  0.0863  2.4748 -1.1527
    1OL    C110  484   3.746   1.693   5.633  0.1540  0.8342  0.3062
    1OL    H10R  485   3.848   1.669   5.603  0.4984  2.1027  0.4598
    1OL    C111  486   3.635   1.645   5.539 -0.8050  0.1242  0.1143
    1OL    H11R  487   3.665   1.667   5.437 -2.0767 -1.1031 -0.5417
    1OL    H11S  488   3.548   1.707   5.561 -0.1586  1.7288 -1.7999
    1OL    C112  489   3.617   1.491   5.550  0.4175  0.4867  0.4776
    1OL    H12R  490   3.533   1.471   5.483 -0.4645  0.4384  1.5938
    1OL    H12S  491   3.581   1.460   5.648  1.5560  1.9642  1.4008
    1OL    C113  492   3.740   1.404   5.503  0.7612  0.0764 -0.4338
    1OL    H13R  493   3.828   1.413   5.567  0.4159 -0.3073  0.0938
    1OL    H13S  494   3.769   1.437   5.402  0.1950  0.8699 -0.3446
    1OL    C114  495   3.704   1.254   5.505 -0.4204 -0.2705  0.0017
    1OL    H14R  496   3.601   1.252   5.541 -1.0853 -0.3379 -1.8723
    1OL    H14S  497   3.765   1.199   5.577 -0.2129 -0.8411 -0.6070
    1OL    C115  498   3.719   1.189   5.374 -0.4422  0.5034 -0.0310
    1OL    H15R  499   3.818   1.210   5.333  0.1013  0.0638  1.0248
    1OL    H15S  500   3.658   1.242   5.301 -0.3393  0.3161 -0.2526
    1OL    C116  501   3.686   1.038   5.369 -1.2561  0.3240  0.2435
    1OL    H16R  502   3.579   1.022   5.382 -1.3335  0.7874  0.1896
    1OL    H16S  503   3.729   0.998   5.461  1.3797  2.7634  0.1528
    1OL    C117  504   3.739   0.955   5.256  0.2027  0.2818 -0.3355
    1OL    H17R  505   3.847   0.970   5.247  0.3951  0.7025  2.1151
    1OL    H17S  506   3.690   0.992   5.166 -0.9954  0.2162  0.2754
    1OL    C118  507   3.710   0.810   5.273  0.1724  0.1000 -1.2081
    1OL    H18R  508   3.751   0.752   5.190 -0.6057 -1.9864 -0.1706
    1OL    H18S  509   3.603   0.786   5.277  0.0501  0.4495 -2.3432
    1OL    H18T  510   3.758   0.766   5.361  0.3333  1.5850 -0.5531
    1PA    C116  511   3.149   1.352   4.994  0.2349 -0.0771  0.0487
    1PA    H16R  512   3.043   1.377   5.003  0.7509  1.7107  1.2577
    1PA    H16S  513   3.180   1.314   5.091  1.6754  0.6063 -0.1307
    1PA    H16T  514   3.153   1.278   4.914 -1.1951  0.5495 -0.6372
    1PA    C115  515   3.235   1.471   4.967  0.0035  0.0137  0.1268
    1PA    H15R  516   3.330   1.425   4.939 -0.5809 -1.0901 -0.0822
    1PA    H15S  517   3.186   1.519   4.882  1.9900  2.8888  0.5204
    1PA    C114  518   3.272   1.576   5.077  0.2704  0.8651  0.2776
    1PA    H14R  519   3.321   1.515   5.153  1.1790 -0.1113 -1.0642
    1PA    H14S  520   3.344   1.653   5.050 -1.3054  2.0526 -0.5769
    1PA    C113  521   3.148   1.653   5.117 -0.0023  0.3789  0.1885
    1PA    H13R  522   3.119   1.723   5.039  1.4319  1.0751  0.2798
    1PA    H13S  523   3.070   1.577   5.130 -0.8040  1.4429  1.7600
    1PA    C112  524   3.167   1.736   5.241 -0.2631  0.5095  0.0241
    1PA    H12R  525   3.239   1.817   5.230 -0.1306  0.6012  1.4813
    1PA    H12S  526   3.063   1.766   5.258 -0.2849  1.0890 -1.0948
    1PA    C111  527   3.215   1.656   5.364  0.1105 -0.6256  0.6128
    1PA    H11R  528   3.166   1.559   5.376 -0.0028 -0.3746  2.4193
    1PA    H11S  529   3.322   1.639   5.354  0.2249 -0.2728  1.2195
    1PA    C110  530   3.190   1.758   5.479  0.2827 -0.0366  0.0833
    1PA    H10R  531   3.265   1.835   5.459  2.0833 -1.5360  0.8390
    1PA    H10S  532   3.092   1.804   5.473 -0.8821 -2.2296  1.6179
    1PA     C19  533   3.211   1.712   5.620 -0.4104 -0.0517  0.5104
    1PA     H9R  534   3.305   1.656   5.625  0.1278  0.8561  0.8779
    1PA     H9S  535   3.223   1.800   5.684 -1.0368  0.1842  0.2992
    1PA     C18  536   3.102   1.626   5.678  0.9291  0.1242 -0.1494
    1PA     H8R  537   3.007   1.681   5.677  0.1393 -0.9389  4.1602
    1PA     H8S  538   3.092   1.536   5.617  1.0644  0.2891 -0.4162
    1PA     C17  539   3.127   1.608   5.834  1.0713  0.7618 -0.0987
    1PA     H7R  540   3.221   1.553   5.841  0.7966  0.3297  0.2924
    1PA     H7S  541   3.153   1.702   5.883 -2.1595  0.8954  1.4688
    1PA     C16  542   3.018   1.532   5.909 -0.1801 -0.8095  0.5057
    1PA     H6R  543   2.922   1.563   5.866  0.5586 -0.5555 -0.9803
    1PA     H6S  544   3.026   1.426   5.884  0.5612 -1.0530  1.7428
    1PA     C15  545   3.016   1.537   6.060 -0.2427  0.2716 -0.1740
    1PA     H5R  546   3.119   1.515   6.090 -0.3246 -0.4738 -0.4127
    1PA     H5S  547   2.993   1.642   6.080 -2.0622 -0.3317  1.0745
    1PA     C14  548   2.908   1.443   6.120 -0.4985  0.0765  0.1167
    1PA     H4R  549   2.816   1.449   6.062  1.2013 -1.4331 -2.8200
    1PA     H4S  550   2.924   1.338   6.098 -1.6614 -0.4210  1.5170
    1PA     C13  551   2.904   1.471   6.269 -0.2582  0.1661  0.0842
    1PA     H3R  552   2.883   1.575   6.294  3.2069  0.8410  0.3636
    1PA     H3S  553   2.822   1.408   6.307  0.7675 -1.2166  0.0418
    1PA     C12  554   3.031   1.431   6.343 -0.0084  0.3588 -0.5730
    1PA     H2R  555   3.048   1.327   6.315 -2.4500 -0.0125 -0.7564
    1PA     H2S  556   3.121   1.480   6.307 -0.7247  2.4755  0.4052
    1PC     C11  557   3.012   1.439   6.492  0.8400  0.3713  0.6705
    1PC     O12  558   3.048   1.538   6.555  0.4877 -0.5519  0.0300
    1PC     O11  559   2.960   1.322   6.543  0.1949  0.2382  0.1388
    1PC      C1  560   2.951   1.298   6.687 -0.2378 -0.2257  0.1831
    1PC      HR  561   2.945   1.189   6.695  0.8575 -0.3914 -1.0694
    1PC      HS  562   3.048   1.319   6.733  0.9107 -2.1952 -1.2312
    1PC      C2  563   2.835   1.364   6.754 -0.1244  0.1360 -0.4283
    1PC      HX  564   2.850   1.472   6.755  2.4755 -0.2095  1.9434
    1PC      C3  565   2.834   1.312   6.897 -0.1814  0.0189 -0.9664
    1PC      HA  566   2.778   1.383   6.960  2.1912 -1.2727  2.7695
    1PC      HB  567   2.787   1.214   6.909  0.0438 -0.0500 -0.6280
    1PC     O31  568   2.968   1.307   6.953 -0.0673  0.0660  0.2438
    1PC     P31  569   2.990   1.294   7.112 -0.1792  0.2806 -0.2338
    1PC     O32  570   3.001   1.447   7.166  0.1474  0.6464 -0.1093
    1PC     C31  571   2.884   1.514   7.215 -0.2141  0.0174  0.1094
    1PC     H1A  572   2.900   1.617   7.182 -0.4790  0.8362  2.5068
    1PC     H1B  573   2.793   1.476   7.168  0.7825 -1.2032 -0.8916
    1PC     C32  574   2.868   1.493   7.369  0.9385  0.2318 -0.8158
    1PC     H2A  575   2.771   1.540   7.386 -0.0747 -2.9935  2.8531
    1PC     H2B  576   2.856   1.386   7.386 -1.3760  0.6992  0.6391
    1PC     N31  577   2.968   1.555   7.460 -0.1895 -0.2502 -0.3533
    1PC     C33  578   2.978   1.705   7.454 -0.4310 -0.5830 -0.1305
    1PC     H3A  579   2.883   1.752   7.481  1.0068  2.1537  0.3558
    1PC     H3B  580   3.061   1.738   7.516  0.0136  0.1643 -1.1031
    1PC     H3C  581   2.998   1.733   7.350 -0.8855 -0.6529 -0.2387
    1PC     C34  582   2.924   1.527   7.597 -0.0208  0.3890 -0.2418
    1PC     H4A  583   2.829   1.576   7.617 -0.4855 -1.3796  2.0570
    1PC     H4B  584   2.917   1.419   7.608  0.5781  0.3019 -0.6743
    1PC     H4C  585   2.993   1.583   7.661  0.4494  0.6635 -0.9785
    1PC     C35  586   3.097   1.493   7.453 -0.8864  0.0301  0.0369
    1PC     H5A  587   3.075   1.387   7.459 -0.3395 -0.2189 -2.1477
    1PC     H5B  588   3.154   1.521   7.542  1.0143  0.3937 -1.2630
    1PC     H5C  589   3.137   1.536   7.361 -0.2925 -0.5873  0.0057
    1PC     O33  590   2.873   1.230   7.179 -0.1610 -0.0061 -0.3423
    1PC     O34  591   3.125   1.238   7.136 -0.0965  0.3966 -0.0130
    1PC     O21  592   2.708   1.313   6.695  0.6095 -0.4036  0.3694
    1PC     C21  593   2.669   1.366   6.579 -0.2352 -0.0731  0.1513
    1PC     O22  594   2.722   1.464   6.527 -0.1933 -0.1816 -0.1667
    1OL     C12  595   2.553   1.297   6.520 -0.2447  0.0111 -0.0406
    1OL     H2R  596   2.469   1.360   6.552 -0.0292  1.2314 -1.8295
    1OL     H2S  597   2.545   1.195   6.558  1.2280 -0.0048  0.2562
    1OL     C13  598   2.562   1.296   6.365  0.1629  0.8979 -0.0254
    1OL     H3R  599   2.653   1.250   6.325 -1.3294 -2.9247  0.8082
    1OL     H3S  600   2.559   1.402   6.338  0.1513  0.8601 -0.1731
    1OL     C14  601   2.452   1.221   6.292 -0.0956 -0.0992  0.1161
    1OL     H4R  602   2.371   1.294   6.290  0.1369  0.1496 -3.3804
    1OL     H4S  603   2.415   1.141   6.357  0.2761  0.6566  1.2747
    1OL     C15  604   2.487   1.161   6.153  0.1098  0.0729  0.1039
    1OL     H5R  605   2.412   1.097   6.106  0.4429  0.5499 -1.0899
    1OL     H5S  606   2.564   1.085   6.169  0.5141  0.4000 -0.2917
    1OL     C16  607   2.531   1.257   6.033 -0.1662  0.1183 -0.0228
    1OL     H6R  608   2.615   1.317   6.070  0.6886 -0.2614 -1.3200
    1OL     H6S  609   2.453   1.332   6.020 -0.7955 -0.5509 -0.1364
    1OL     C17  610   2.585   1.176   5.913  0.1799 -0.2327 -0.1845
    1OL     H7R  611   2.515   1.095   5.890 -0.4426  0.9670 -2.7586
    1OL     H7S  612   2.680   1.132   5.943  0.7312  1.1664  0.1722
    1OL     C18  613   2.605   1.255   5.780  0.6324  0.4287 -0.2504
    1OL     H8R  614   2.663   1.345   5.799 -0.4894  0.5160  3.0377
    1OL     H8S  615   2.507   1.284   5.742 -1.0041 -0.4977  3.0888
    1OL     C19  616   2.676   1.164   5.675  0.2132  0.4535  0.2814
    1OL     H9R  617   2.741   1.084   5.711  2.7478  1.9202 -0.9442
    1OL    C110  618   2.667   1.169   5.544  0.2174  0.6060  0.1328
    1OL    H10R  619   2.720   1.096   5.484  1.1904  2.0416 -0.7888
    1OL    C111  620   2.578   1.268   5.469 -0.5424  0.3385  0.3760
    1OL    H11R  621   2.554   1.353   5.533 -0.8370  1.9328 -1.8133
    1OL    H11S  622   2.481   1.225   5.443  0.4935 -3.1865  2.0512
    1OL    C112  623   2.659   1.332   5.347 -0.3504  1.0969 -0.0197
    1OL    H12R  624   2.599   1.394   5.280 -1.3984 -0.9503 -1.0122
    1OL    H12S  625   2.691   1.249   5.284  0.1974  2.0921 -1.0555
    1OL    C113  626   2.784   1.415   5.378 -0.1981 -0.1782 -0.9027
    1OL    H13R  627   2.820   1.447   5.280 -0.3639 -0.1967 -0.9693
    1OL    H13S  628   2.863   1.357   5.428  1.1076  2.5312  0.2600
    1OL    C114  629   2.763   1.541   5.467  0.0911  0.3719 -0.3877
    1OL    H14R  630   2.862   1.586   5.477  0.2826  0.4805 -2.5769
    1OL    H14S  631   2.734   1.505   5.566  1.4844 -0.0412 -0.1090
    1OL    C115  632   2.658   1.643   5.418 -0.1700  0.0184 -0.0093
    1OL    H15R  633   2.629   1.709   5.501 -1.8682  0.9117 -1.2814
    1OL    H15S  634   2.567   1.584   5.412 -1.2118  1.6605 -0.5952
    1OL    C116  635   2.690   1.714   5.286 -0.7910 -0.0538  0.2956
    1OL    H16R  636   2.659   1.660   5.196  0.3011  0.4149 -0.3703
    1OL    H16S  637   2.799   1.727   5.282 -0.2937 -3.6621  0.0058
    1OL    C117  638   2.632   1.855   5.268 -0.4583  0.2455  0.5343
    1OL    H17R  639   2.687   1.914   5.195 -1.3878  0.4239 -0.0332
    1OL    H17S  640   2.639   1.909   5.363  1.6988 -0.5149  0.8287
    1OL    C118  641   2.486   1.863   5.231  0.8739 -1.2397 -0.0056
    1OL    H18R  642   2.462   1.824   5.132  0.8510 -2.2627  0.3999
    1OL    H18S  643   2.453   1.967   5.245 -1.0285 -1.3735 -2.9344
    1OL    H18T  644   2.438   1.798   5.304  0.5247 -1.4485 -0.4217
    1PA    C116  645   2.838   3.591   5.231  0.1017  0.3218 -0.2059
    1PA    H16R  646   2.893   3.637   5.314 -0.6042  0.3144  0.2674
    1PA    H16S  647   2.781   3.671   5.183 -1.8324 -1.0346 -0.2507
    1PA    H16T  648   2.913   3.541   5.170 -2.1511 -1.9994 -1.1595
    1PA    C115  649   2.731   3.483   5.275  0.7734  0.3143  0.3318
    1PA    H15R  650   2.657   3.521   5.346  1.4686 -1.6506  2.1865
    1PA    H15S  651   2.670   3.457   5.188  0.9860  3.0943 -0.6817
    1PA    C114  652   2.801   3.367   5.337 -0.2176 -0.2730 -0.1343
    1PA    H14R  653   2.888   3.342   5.275  1.9548  1.5503  2.0456
    1PA    H14S  654   2.832   3.399   5.437  1.2168 -0.9209 -0.3650
    1PA    C113  655   2.713   3.242   5.349  0.2012  0.3177  0.7504
    1PA    H13R  656   2.680   3.210   5.250  0.1773 -0.4696  1.0080
    1PA    H13S  657   2.772   3.160   5.392 -1.0761 -1.3546 -0.6158
    1PA    C112  658   2.591   3.264   5.426  0.4361 -0.6456 -0.0333
    1PA    H12R  659   2.525   3.332   5.373  0.8772  0.2495  0.5466
    1PA    H12S  660   2.537   3.169   5.433 -1.6909  0.6124  1.2906
    1PA    C111  661   2.596   3.330   5.571  0.4809 -0.2846  0.5630
    1PA    H11R  662   2.640   3.428   5.555 -1.2599  0.5386  0.7930
    1PA    H11S  663   2.495   3.352   5.605 -0.4149 -1.8839 -0.9376
    1PA    C110  664   2.682   3.258   5.676 -0.3125 -0.5416 -0.1883
    1PA    H10R  665   2.622   3.199   5.745 -1.1856 -0.1966 -0.6443
    1PA    H10S  666   2.760   3.206   5.619  0.7471  1.6921 -0.8433
    1PA     C19  667   2.735   3.373   5.768 -0.4602 -0.3569  0.2936
    1PA     H9R  668   2.790   3.437   5.699  1.5750 -1.0172  1.2814
    1PA     H9S  669   2.654   3.439   5.798  0.3044  1.1300 -0.8374
    1PA     C18  670   2.831   3.335   5.880  0.6943 -0.7330  0.0754
    1PA     H8R  671   2.889   3.244   5.865  1.3901 -0.1560 -0.7273
    1PA     H8S  672   2.913   3.406   5.889  0.6109 -0.7720  1.2050
    1PA     C17  673   2.752   3.319   6.011  0.3387 -0.0959  0.4608
    1PA     H7R  674   2.685   3.404   6.026  0.6212  0.3016 -0.5002
    1PA     H7S  675   2.699   3.226   5.993  2.2077 -0.9501 -0.7360
    1PA     C16  676   2.845   3.293   6.135 -0.2042 -1.3611  0.1446
    1PA     H6R  677   2.796   3.212   6.190 -1.7518 -1.1623 -0.9325
    1PA     H6S  678   2.941   3.253   6.100 -0.7105 -1.6858 -0.8847
    1PA     C15  679   2.865   3.419   6.215  0.1868 -0.3321 -0.6662
    1PA     H5R  680   2.957   3.424   6.273  0.5089 -0.2083 -1.1865
    1PA     H5S  681   2.880   3.499   6.142 -0.3495 -0.4113 -0.8657
    1PA     C14  682   2.748   3.465   6.308 -0.1423 -0.1111  0.7918
    1PA     H4R  683   2.652   3.441   6.262 -0.2585 -0.0219  0.9885
    1PA     H4S  684   2.754   3.407   6.400 -1.6953  0.4513  1.2729
    1PA     C13  685   2.747   3.612   6.347 -0.8267  0.2003  0.6052
    1PA     H3R  686   2.844   3.648   6.380 -0.7963  0.7145 -0.0315
    1PA     H3S  687   2.703   3.661   6.259 -1.0655 -0.2584  0.4655
    1PA     C12  688   2.641   3.636   6.460 -0.4479 -0.1736  0.0972
    1PA     H2R  689   2.607   3.739   6.452 -0.3768 -0.3779 -3.5043
    1PA     H2S  690   2.557   3.570   6.437  1.9460 -3.8381  1.4158
    1PC     C11  691   2.702   3.619   6.598 -0.0025 -0.0194 -0.8727
    1PC     O12  692   2.817   3.612   6.628  0.2521  0.0515  0.2279
    1PC     O11  693   2.603   3.608   6.692 -1.2120  0.0609 -0.2118
    1PC      C1  694   2.623   3.553   6.825  0.1166  0.4286 -0.0739
    1PC      HR  695   2.730   3.561   6.848  1.1359 -2.9759 -3.2703
    1PC      HS  696   2.553   3.613   6.884 -2.2040 -3.1276  0.8760
    1PC      C2  697   2.571   3.409   6.824  0.6561 -0.2318 -1.0721
    1PC      HX  698   2.466   3.417   6.794  0.0164 -0.6908  0.9593
    1PC      C3  699   2.574   3.336   6.966  0.3872  0.8157 -0.8904
    1PC      HA  700   2.501   3.255   6.970  0.6573  0.6462  1.0348
    1PC      HB  701   2.669   3.287   6.987 -0.4109  0.2294  1.4767
    1PC     O31  702   2.544   3.432   7.078 -0.2654  0.0608 -0.0804
    1PC     P31  703   2.664   3.464   7.175  0.3000  0.2400 -0.1715
    1PC     O32  704   2.678   3.325   7.253  0.3159 -0.5199  0.2252
    1PC     C31  705   2.655   3.308   7.392  0.5742  0.3014  0.7917
    1PC     H1A  706   2.566   3.362   7.426 -1.0812 -0.0363 -2.8448
    1PC     H1B  707   2.647   3.203   7.421  1.4912  0.1490  0.5151
    1PC     C32  708   2.770   3.387   7.468 -0.2048  0.1031  0.8141
    1PC     H2A  709   2.865   3.380   7.415  0.0549 -0.6473  1.3742
    1PC     H2B  710   2.741   3.492   7.464 -1.2104 -0.1951  0.1482
    1PC     N31  711   2.805   3.359   7.613  0.3157  0.0637  0.1582
    1PC     C33  712   2.837   3.215   7.627 -0.1902  0.5844  0.3155
    1PC     H3A  713   2.929   3.197   7.571 -0.0950  0.3456  0.5496
    1PC     H3B  714   2.862   3.195   7.731  0.8763  0.4475  0.0382
    1PC     H3C  715   2.758   3.158   7.577  2.0953 -1.7521 -0.7490
    1PC     C34  716   2.927   3.443   7.656  0.1598 -0.0513  0.4755
    1PC     H4A  717   3.005   3.392   7.601 -0.3703  1.6160 -1.8970
    1PC     H4B  718   2.909   3.544   7.620  0.5424  0.2707  1.1640
    1PC     H4C  719   2.955   3.450   7.761 -1.4849  2.0356  0.8201
    1PC     C35  720   2.693   3.385   7.700 -0.3208  0.2884 -0.4924
    1PC     H5A  721   2.732   3.379   7.802 -1.1766 -1.9926 -0.2739
    1PC     H5B  722   2.615   3.309   7.688  0.9482 -1.2853  1.0190
    1PC     H5C  723   2.658   3.487   7.681  2.1575  1.2870  0.0079
    1PC     O33  724   2.793   3.486   7.098 -0.0586 -0.1978 -0.0549
    1PC     O34  725   2.609   3.566   7.271  0.0737  0.0957  0.2182
    1PC     O21  726   2.646   3.329   6.725 -0.6341 -0.2648  0.0559
    1PC     C21  727   2.563   3.242   6.668 -0.4010 -0.3728  0.7383
    1PC     O22  728   2.455   3.212   6.708  0.0191 -0.0715  0.0489
    1OL     C12  729   2.619   3.187   6.538 -0.5699 -0.6402  0.7153
    1OL     H2R  730   2.725   3.208   6.549 -0.5878  0.1229 -0.4907
    1OL     H2S  731   2.567   3.243   6.460  1.1428 -0.4534 -0.2951
    1OL     C13  732   2.593   3.039   6.516 -0.2510  0.3149  0.1813
    1OL     H3R  733   2.484   3.026   6.514 -0.0595 -1.4851  0.9020
    1OL     H3S  734   2.632   2.980   6.599  0.6516  0.8713  0.1577
    1OL     C14  735   2.677   2.994   6.387  0.0667  0.4221 -0.0827
    1OL     H4R  736   2.783   3.011   6.404  0.3529 -1.6380  0.2812
    1OL     H4S  737   2.648   3.060   6.305  2.2310  1.2895 -0.1733
    1OL     C15  738   2.645   2.849   6.349  0.0010  0.4053 -0.9357
    1OL     H5R  739   2.536   2.844   6.346 -0.1951  0.5132  3.1242
    1OL     H5S  740   2.680   2.791   6.434 -0.9342  2.2796  0.7905
    1OL     C16  741   2.706   2.801   6.216  0.1621  0.5040 -0.4857
    1OL     H6R  742   2.666   2.851   6.128  0.2266  1.5359  0.0730
    1OL     H6S  743   2.679   2.698   6.190 -0.9934  0.7139 -0.1675
    1OL     C17  744   2.858   2.808   6.202 -0.8703 -0.1496  0.2952
    1OL     H7R  745   2.896   2.716   6.248 -1.3875 -0.6218 -0.2146
    1OL     H7S  746   2.898   2.888   6.264 -1.5336 -0.7646  1.5233
    1OL     C18  747   2.907   2.819   6.058  0.9009 -0.0827 -0.4206
    1OL     H8R  748   2.870   2.729   6.009  2.5899  0.3657 -2.6262
    1OL     H8S  749   3.016   2.823   6.047  1.2276 -2.0068  1.7738
    1OL     C19  750   2.847   2.948   5.998  0.1455 -0.6272  0.6681
    1OL     H9R  751   2.875   3.044   6.043 -0.6527  0.6803 -1.5391
    1OL    C110  752   2.767   2.948   5.896  0.2355 -0.0643 -0.2101
    1OL    H10R  753   2.739   3.047   5.861  0.0482  0.3507  1.0627
    1OL    C111  754   2.727   2.832   5.814  0.4334 -0.1054 -0.7555
    1OL    H11R  755   2.636   2.797   5.862  0.6427  1.1933  0.6185
    1OL    H11S  756   2.810   2.761   5.816  0.0933 -0.4968 -0.4940
    1OL    C112  757   2.705   2.860   5.659 -0.6863 -0.3512  0.0397
    1OL    H12R  758   2.798   2.893   5.614 -0.8475 -1.0514 -0.8127
    1OL    H12S  759   2.632   2.941   5.659 -0.3693  0.0206  3.5321
    1OL    C113  760   2.650   2.733   5.588 -0.1283 -0.0008  0.4648
    1OL    H13R  761   2.613   2.764   5.489  3.3600 -0.4882 -1.0853
    1OL    H13S  762   2.568   2.691   5.645 -0.0966  0.1081  0.5901
    1OL    C114  763   2.755   2.625   5.570  0.1426  0.4949  0.4701
    1OL    H14R  764   2.720   2.543   5.633  2.0250 -0.9190 -0.2623
    1OL    H14S  765   2.857   2.650   5.600  0.7220 -1.1014 -0.1017
    1OL    C115  766   2.755   2.572   5.418 -0.6399  0.5386 -0.0834
    1OL    H15R  767   2.650   2.560   5.391 -0.6667 -0.2086  0.3313
    1OL    H15S  768   2.808   2.476   5.415  1.7032  1.7378  1.4155
    1OL    C116  769   2.820   2.664   5.315  0.2496 -0.1904 -0.3911
    1OL    H16R  770   2.927   2.673   5.337  0.0336 -1.5787  1.3479
    1OL    H16S  771   2.772   2.761   5.331  1.0205  0.0047  0.8889
    1OL    C117  772   2.796   2.619   5.167 -0.0142 -0.5912  0.1262
    1OL    H17R  773   2.687   2.624   5.157 -0.0212  0.8895  0.8085
    1OL    H17S  774   2.832   2.519   5.143 -2.0660 -1.4530  0.4678
    1OL    C118  775   2.862   2.713   5.057  0.0127 -0.7376  0.1802
    1OL    H18R  776   2.878   2.655   4.966 -1.3665  0.7152 -1.0152
    1OL    H18S  777   2.959   2.752   5.087  0.2725 -2.2141  1.3548
    1OL    H18T  778   2.797   2.798   5.037  0.7161  0.2175  1.8063
    1PA    C116  779   2.169   2.477   4.990  0.3526  0.2235  0.1654
    1PA    H16R  780   2.129   2.558   5.051  1.5683  1.3879 -0.5635
    1PA    H16S  781   2.094   2.398   4.985  2.3743 -1.7174 -0.0639
    1PA    H16T  782   2.164   2.506   4.885  0.0990 -1.7584 -0.3876
    1PA    C115  783   2.306   2.420   5.042  0.2067  0.1566  0.4661
    1PA    H15R  784   2.337   2.345   4.969 -1.0623  0.0074  0.0661
    1PA    H15S  785   2.380   2.499   5.052  0.5904  0.3360 -3.0328
    1PA    C114  786   2.278   2.351   5.170 -0.3146  0.4551  0.0916
    1PA    H14R  787   2.213   2.410   5.236 -1.0000 -0.5084  0.2947
    1PA    H14S  788   2.228   2.257   5.145  0.0492 -0.1022  1.4257
    1PA    C113  789   2.406   2.315   5.247 -0.1872 -0.2887 -0.0020
    1PA    H13R  790   2.471   2.254   5.184  1.6608  3.6205 -2.0261
    1PA    H13S  791   2.461   2.401   5.285 -0.0328  0.2767 -1.4477
    1PA    C112  792   2.383   2.230   5.373  0.6286 -0.0823  0.3903
    1PA    H12R  793   2.314   2.297   5.425  0.2585  0.4729 -0.8069
    1PA    H12S  794   2.322   2.143   5.349  1.0061  0.4039 -2.5218
    1PA    C111  795   2.508   2.209   5.455  0.6590 -0.3536  0.2341
    1PA    H11R  796   2.600   2.199   5.398  0.1730  0.3756 -0.6984
    1PA    H11S  797   2.521   2.303   5.509  0.7393 -0.7482  0.9073
    1PA    C110  798   2.492   2.103   5.562 -0.1279  0.2311  0.1068
    1PA    H10R  799   2.418   2.135   5.636 -0.1645 -0.8534  0.5380
    1PA    H10S  800   2.466   2.010   5.514  0.4997 -1.0164  2.1032
    1PA     C19  801   2.622   2.076   5.631  0.0071  0.2811  0.4805
    1PA     H9R  802   2.695   2.040   5.558  1.2629 -0.2628  1.9765
    1PA     H9S  803   2.652   2.163   5.690 -4.2878  0.8093  2.0581
    1PA     C18  804   2.616   1.973   5.740 -0.3766 -0.4472 -0.3836
    1PA     H8R  805   2.543   1.998   5.817  0.7450  1.3567  0.1436
    1PA     H8S  806   2.579   1.883   5.690  0.7267 -0.7138 -0.7355
    1PA     C17  807   2.755   1.942   5.806  0.4583 -0.3382 -0.0076
    1PA     H7R  808   2.833   1.927   5.731 -0.0570  0.5674 -0.7320
    1PA     H7S  809   2.783   2.028   5.867 -1.0754  0.9803 -1.1105
    1PA     C16  810   2.754   1.827   5.909  0.2077  0.1913 -0.3287
    1PA     H6R  811   2.716   1.742   5.852 -1.5653  0.5783  0.2440
    1PA     H6S  812   2.860   1.820   5.934 -0.0871 -1.6579  0.4857
    1PA     C15  813   2.669   1.851   6.037 -0.0901  0.6595 -0.0418
    1PA     H5R  814   2.694   1.953   6.066 -0.3855  0.9835 -0.9032
    1PA     H5S  815   2.564   1.846   6.008 -0.4045 -2.8880  1.4513
    1PA     C14  816   2.696   1.749   6.148  0.4797 -0.8107  0.3734
    1PA     H4R  817   2.648   1.655   6.120 -1.5861 -0.3884  2.3236
    1PA     H4S  818   2.803   1.741   6.166  0.6342 -0.9132 -0.5822
    1PA     C13  819   2.639   1.812   6.277 -0.2365 -0.0232 -0.5475
    1PA     H3R  820   2.683   1.907   6.306 -0.4834  0.0611 -0.4432
    1PA     H3S  821   2.538   1.848   6.254 -1.2342 -2.7067 -0.5758
    1PA     C12  822   2.640   1.716   6.399 -0.2119 -0.0306 -0.1113
    1PA     H2R  823   2.582   1.624   6.386  1.7878 -1.3405 -0.0819
    1PA     H2S  824   2.742   1.677   6.410 -1.4174 -3.1842  0.4096
    1PC     C11  825   2.606   1.770   6.533 -0.6704  0.0405 -1.1115
    1PC     O12  826   2.689   1.821   6.607 -0.1548 -0.0303  0.3101
    1PC     O11  827   2.475   1.769   6.555  0.0059 -0.3188  0.4078
    1PC      C1  828   2.434   1.831   6.687 -0.2349  0.0138  0.2978
    1PC      HR  829   2.506   1.907   6.716  0.6601 -0.9619  0.6754
    1PC      HS  830   2.339   1.882   6.667  0.0974  0.2254 -0.7741
    1PC      C2  831   2.434   1.718   6.797  0.3319  0.4613  0.7641
    1PC      HX  832   2.387   1.762   6.885 -0.7771 -1.5502  1.2042
    1PC      C3  833   2.576   1.658   6.843  0.1763 -0.8342  0.3872
    1PC      HA  834   2.619   1.619   6.750 -0.6844  0.4417 -0.5827
    1PC      HB  835   2.633   1.739   6.888  1.6311 -0.8171 -1.4227
    1PC     O31  836   2.551   1.550   6.945  0.1590  0.0934  0.3045
    1PC     P31  837   2.496   1.580   7.095  0.2624 -0.2193  0.0751
    1PC     O32  838   2.339   1.597   7.067  0.2510  0.0610  0.3370
    1PC     C31  839   2.245   1.498   7.093 -0.3025  0.4894 -0.5131
    1PC     H1A  840   2.174   1.482   7.012  0.0647  0.8097 -0.9052
    1PC     H1B  841   2.298   1.402   7.096  4.2427  2.8906  0.7143
    1PC     C32  842   2.185   1.532   7.242  0.2605 -0.1951  0.1344
    1PC     H2A  843   2.267   1.553   7.311  0.3194 -2.0716  0.6477
    1PC     H2B  844   2.112   1.613   7.241 -0.6075 -0.9522  0.8730
    1PC     N31  845   2.104   1.428   7.308 -0.3135  0.1073 -1.0210
    1PC     C33  846   2.016   1.369   7.203  0.0122  1.0526  0.5113
    1PC     H3A  847   1.952   1.450   7.169 -0.2206  1.0652  0.9753
    1PC     H3B  848   2.078   1.328   7.123  0.0657  3.8589 -0.9495
    1PC     H3C  849   1.945   1.301   7.251 -2.4689  2.5900 -0.8295
    1PC     C34  850   2.199   1.322   7.368  0.2154 -0.0640 -0.3979
    1PC     H4A  851   2.146   1.249   7.428 -0.1435  0.8317  0.3954
    1PC     H4B  852   2.257   1.271   7.291 -1.4425 -1.8771 -0.4911
    1PC     H4C  853   2.268   1.378   7.431 -0.1687  1.0097 -0.9080
    1PC     C35  854   2.029   1.483   7.421  0.4339  0.3378 -0.0267
    1PC     H5A  855   2.104   1.519   7.492  2.5678  0.2578 -2.1829
    1PC     H5B  856   1.956   1.416   7.466 -0.1368  0.2742 -1.0312
    1PC     H5C  857   1.973   1.565   7.378 -0.3214 -0.1220  0.0722
    1PC     O33  858   2.519   1.467   7.186  0.3705  0.7256  0.1382
    1PC     O34  859   2.549   1.715   7.133  0.7160 -0.9079  0.5414
    1PC     O21  860   2.352   1.611   6.749  0.1912  0.1021  0.5983
    1PC     C21  861   2.218   1.626   6.753  0.2630  0.0745  0.2942
    1PC     O22  862   2.163   1.710   6.824  0.7699 -0.0067 -0.0102
    1OL     C12  863   2.149   1.534   6.662  0.0235  0.4093 -0.3019
    1OL     H2R  864   2.060   1.492   6.708  1.3293 -1.8019  0.3180
    1OL     H2S  865   2.214   1.446   6.657  0.9473  0.7287  4.0401
    1OL     C13  866   2.120   1.593   6.524  0.2447  0.3871  0.0841
    1OL     H3R  867   2.105   1.699   6.542 -0.1063  0.2507  0.6135
    1OL     H3S  868   2.026   1.549   6.489  1.2691 -0.0912 -2.2254
    1OL     C14  869   2.227   1.571   6.416 -0.1844  0.2687  0.6576
    1OL     H4R  870   2.243   1.463   6.415 -1.5153  0.0566  0.2354
    1OL     H4S  871   2.325   1.609   6.444  1.3047 -1.0735 -2.4853
    1OL     C15  872   2.195   1.623   6.274  0.0599  0.0261  0.2806
    1OL     H5R  873   2.219   1.730   6.272 -0.6396  0.1784 -0.5506
    1OL     H5S  874   2.087   1.627   6.260  0.3744  2.8467 -1.7075
    1OL     C16  875   2.262   1.550   6.154 -0.2404 -0.1798 -0.2352
    1OL     H6R  876   2.199   1.472   6.110 -1.9172  0.6207  0.6750
    1OL     H6S  877   2.353   1.499   6.186  0.5833  0.6705 -1.2075
    1OL     C17  878   2.292   1.654   6.043  0.2430 -0.3376 -0.1466
    1OL     H7R  879   2.344   1.739   6.085 -0.1810  1.5031 -3.2014
    1OL     H7S  880   2.193   1.687   6.010  0.4999  2.3905  1.7060
    1OL     C18  881   2.375   1.583   5.929  0.3289  0.0465  0.6192
    1OL     H8R  882   2.327   1.492   5.892 -0.1874  0.0183  1.3517
    1OL     H8S  883   2.468   1.556   5.980  1.3394 -0.5352 -1.4503
    1OL     C19  884   2.413   1.672   5.817  0.0084  0.2464 -0.5145
    1OL     H9R  885   2.457   1.768   5.843 -2.0530  0.6686  1.5414
    1OL    C110  886   2.388   1.655   5.687 -0.2818  0.1247 -0.0974
    1OL    H10R  887   2.423   1.733   5.619 -0.1364  0.8347  0.7750
    1OL    C111  888   2.314   1.537   5.620  0.5932 -0.1311  0.6833
    1OL    H11R  889   2.227   1.506   5.678  0.7751 -0.3289  0.8524
    1OL    H11S  890   2.377   1.448   5.620  0.8111  0.0069  2.3996
    1OL    C112  891   2.271   1.563   5.478 -0.0904  0.5679  0.2116
    1OL    H12R  892   2.361   1.593   5.423 -1.1182 -0.2012 -1.9551
    1OL    H12S  893   2.217   1.658   5.474  0.6851  0.9604 -2.8253
    1OL    C113  894   2.204   1.455   5.397 -0.1203  0.9342 -0.1916
    1OL    H13R  895   2.127   1.402   5.454  0.0876 -1.6366 -2.2007
    1OL    H13S  896   2.269   1.373   5.366  1.1544  1.0740  2.0377
    1OL    C114  897   2.134   1.514   5.271 -0.0836 -0.2437 -0.2484
    1OL    H14R  898   2.217   1.524   5.201 -0.1253 -1.4480 -0.4830
    1OL    H14S  899   2.093   1.614   5.288  1.4931 -0.0014  2.3202
    1OL    C115  900   2.025   1.432   5.205  0.4632  0.0713 -0.7892
    1OL    H15R  901   1.957   1.492   5.145  0.3610  1.6041  0.8172
    1OL    H15S  902   1.970   1.380   5.284  3.3990 -1.8060  0.0963
    1OL    C116  903   2.094   1.334   5.117 -0.6209 -0.1787  0.0695
    1OL    H16R  904   2.145   1.265   5.184 -1.5914 -1.7703 -0.8049
    1OL    H16S  905   2.173   1.379   5.057  1.0461 -1.6009  1.1756
    1OL    C117  906   2.003   1.251   5.022 -0.0059 -0.2786  0.3488
    1OL    H17R  907   2.065   1.173   4.977  1.3834  0.3107  1.1737
    1OL    H17S  908   1.976   1.325   4.948  1.6405 -1.2327 -1.2473
    1OL    C118  909   1.887   1.181   5.099 -0.3869  0.4371  0.7979
    1OL    H18R  910   1.832   1.115   5.033  0.2501  1.7784 -1.1148
    1OL    H18S  911   1.815   1.254   5.137  0.9053  0.8189  2.5838
    1OL    H18T  912   1.926   1.126   5.185 -1.6964  2.6800  2.9007
    1PA    C116  913   3.181   4.206   5.059 -0.0846 -0.2211 -0.0187
    1PA    H16R  914   3.243   4.224   4.971 -2.4376 -0.4973 -1.7827
    1PA    H16S  915   3.248   4.169   5.137  1.5549  0.3968 -1.1157
    1PA    H16T  916   3.142   4.305   5.084 -1.4781 -0.4340 -1.2983
    1PA    C115  917   3.071   4.109   5.026  0.2694 -0.2902  0.5356
    1PA    H15R  918   3.045   4.122   4.920 -1.7595  0.2131  1.0633
    1PA    H15S  919   3.112   4.008   5.023 -1.4000 -0.9765  0.2074
    1PA    C114  920   2.955   4.120   5.121  0.1991  0.9617  1.0458
    1PA    H14R  921   2.924   4.225   5.129 -0.4513  0.8183  0.4140
    1PA    H14S  922   2.876   4.055   5.084  1.0178  0.5305  0.0352
    1PA    C113  923   2.995   4.070   5.259  0.0150  0.1613  0.2016
    1PA    H13R  924   3.082   4.131   5.286  1.9984 -2.7819  0.6869
    1PA    H13S  925   2.909   4.106   5.316  0.4006 -1.3092  1.7692
    1PA    C112  926   3.025   3.916   5.274 -0.0686 -0.2349 -0.4606
    1PA    H12R  927   2.941   3.863   5.230 -0.0099 -1.2095  0.5547
    1PA    H12S  928   3.106   3.880   5.210 -1.1013 -1.7775 -0.9334
    1PA    C111  929   3.061   3.857   5.418 -0.0226  0.1490  0.2992
    1PA    H11R  930   3.081   3.751   5.406  2.1063  0.5064  0.5242
    1PA    H11S  931   3.154   3.902   5.454 -0.3025  0.9452  0.0547
    1PA    C110  932   2.938   3.883   5.517 -0.0461 -0.0159  0.2404
    1PA    H10R  933   2.929   3.991   5.530  1.3772  0.0039  1.2548
    1PA    H10S  934   2.849   3.842   5.470 -0.9619  0.1133  1.8111
    1PA     C19  935   2.951   3.817   5.654  0.8583 -0.3409 -0.2602
    1PA     H9R  936   2.955   3.708   5.656 -0.1334 -0.3718  0.6247
    1PA     H9S  937   3.041   3.849   5.706  1.4933  1.0695 -2.1648
    1PA     C18  938   2.827   3.851   5.740 -0.9358  0.4233  0.4013
    1PA     H8R  939   2.806   3.958   5.754 -5.2478 -0.6610  2.9583
    1PA     H8S  940   2.741   3.810   5.687 -1.6450  2.9543 -0.4701
    1PA     C17  941   2.840   3.793   5.879  0.3758  0.2249 -0.5318
    1PA     H7R  942   2.743   3.821   5.921 -1.0301 -3.5187 -1.0957
    1PA     H7S  943   2.840   3.684   5.871  0.9582  0.0123  1.8964
    1PA     C16  944   2.947   3.853   5.965  0.1388  0.4747 -0.0616
    1PA     H6R  945   3.044   3.822   5.924  0.3390 -0.5114  1.1147
    1PA     H6S  946   2.941   3.962   5.956  1.6383  0.5484 -0.2831
    1PA     C15  947   2.949   3.818   6.110 -0.1741 -0.5841 -0.3244
    1PA     H5R  948   2.918   3.715   6.127  0.6651 -0.2173  4.0579
    1PA     H5S  949   3.054   3.817   6.140  0.6663 -0.3632 -3.1409
    1PA     C14  950   2.870   3.909   6.207  0.0320 -0.5179 -0.1816
    1PA     H4R  951   2.773   3.940   6.168  0.7693  1.8971 -0.1811
    1PA     H4S  952   2.853   3.843   6.293  0.0203 -0.2580  0.0172
    1PA     C13  953   2.960   4.027   6.259  0.1484 -0.2565 -0.8334
    1PA     H3R  954   3.063   3.998   6.282  0.5310  1.5677 -0.1093
    1PA     H3S  955   2.976   4.109   6.188 -0.4810  1.5444  1.0300
    1PA     C12  956   2.885   4.104   6.367  1.3148  0.6000  0.4480
    1PA     H2R  957   2.906   4.212   6.365  0.8722  0.6816 -0.6217
    1PA     H2S  958   2.783   4.108   6.328  1.7037  1.1456 -0.5503
    1PC     C11  959   2.908   4.024   6.494 -0.6787 -0.3374 -0.8985
    1PC     O12  960   2.828   3.938   6.534  0.1962  0.0306 -0.2217
    1PC     O11  961   3.036   4.035   6.536 -0.1765 -0.3263 -0.1424
    1PC      C1  962   3.075   3.980   6.660  0.2755  0.2620  0.7047
    1PC      HR  963   3.166   4.037   6.683 -0.5238  1.3218  1.3034
    1PC      HS  964   3.002   4.003   6.738 -2.6055  1.8930 -2.3018
    1PC      C2  965   3.109   3.829   6.643 -0.5234  0.6978 -0.0172
    1PC      HX  966   3.019   3.778   6.606 -1.4505  2.1474  0.2042
    1PC      C3  967   3.145   3.759   6.778  0.8096 -0.4938  0.1390
    1PC      HA  968   3.066   3.770   6.853 -0.8860  0.8166 -1.7588
    1PC      HB  969   3.160   3.654   6.752 -0.9718 -0.4070 -1.3703
    1PC     O31  970   3.275   3.795   6.828  0.3257 -0.4610  0.6051
    1PC     P31  971   3.319   3.755   6.974  0.5650 -0.1634 -0.6003
    1PC     O32  972   3.350   3.597   6.964 -0.0341  0.1119  0.1251
    1PC     C31  973   3.483   3.553   6.924  0.3596  0.1348  0.2636
    1PC     H1A  974   3.508   3.599   6.828  1.2663  0.9192  0.8724
    1PC     H1B  975   3.552   3.582   7.003 -0.0496  0.8763  0.3567
    1PC     C32  976   3.484   3.400   6.902 -0.7641  0.4243 -0.1671
    1PC     H2A  977   3.585   3.370   6.872 -1.1525 -0.5846 -0.4423
    1PC     H2B  978   3.467   3.359   7.001  0.4824 -0.5701 -0.3617
    1PC     N31  979   3.383   3.332   6.815  0.6881 -0.1246 -0.3072
    1PC     C33  980   3.408   3.185   6.811 -0.7582 -0.3059 -0.3561
    1PC     H3A  981   3.496   3.174   6.747 -0.7933  0.9024 -0.6210
    1PC     H3B  982   3.437   3.169   6.915 -1.7991  0.3585  0.0432
    1PC     H3C  983   3.324   3.123   6.781 -0.9870 -0.8888  1.4316
    1PC     C34  984   3.248   3.345   6.870 -0.3609  0.8737 -0.0941
    1PC     H4A  985   3.178   3.294   6.803 -2.9527  1.8122  1.8339
    1PC     H4B  986   3.234   3.310   6.973  2.3071  0.4649  0.1743
    1PC     H4C  987   3.229   3.452   6.864  1.7933  1.3270  0.8777
    1PC     C35  988   3.382   3.388   6.676 -0.7465 -0.5200  0.3952
    1PC     H5A  989   3.295   3.344   6.627 -2.1603  2.3257  0.2281
    1PC     H5B  990   3.480   3.375   6.629  0.3827  1.0833  2.2143
    1PC     H5C  991   3.375   3.495   6.697  2.3321 -0.2383  0.3405
    1PC     O33  992   3.443   3.830   7.004  0.2281  0.2643 -0.0505
    1PC     O34  993   3.205   3.770   7.063 -0.0712  0.0390 -0.0723
    1PC     O21  994   3.225   3.820   6.553 -0.7383  0.0504 -0.6766
    1PC     C21  995   3.253   3.699   6.503 -0.2745 -0.5589 -0.0229
    1PC     O22  996   3.187   3.597   6.509  0.0730  0.4095 -0.0610
    1OL     C12  997   3.382   3.704   6.430  0.0568  0.8017 -0.0631
    1OL     H2R  998   3.415   3.602   6.409  0.1581  0.5619  1.2118
    1OL     H2S  999   3.462   3.733   6.498 -0.2888 -0.4437  0.8929
    1OL     C13 1000   3.380   3.769   6.288  0.0141 -0.3328  0.3462
    1OL     H3R 1001   3.297   3.726   6.231 -0.6542  0.8065  0.4355
    1OL     H3S 1002   3.473   3.745   6.238 -0.0458  2.4850 -1.2462
    1OL     C14 1003   3.373   3.930   6.306 -0.0933  0.3636  0.6050
    1OL     H4R 1004   3.466   3.964   6.352  0.2844 -0.2710  0.3128
    1OL     H4S 1005   3.284   3.953   6.366 -0.2764 -1.1239  0.9489
    1OL     C15 1006   3.339   4.002   6.173 -0.5643  0.3942 -0.6706
    1OL     H5R 1007   3.265   3.957   6.106  0.6691 -0.1698 -1.6745
    1OL     H5S 1008   3.427   4.006   6.108  0.1194 -2.6115 -0.0238
    1OL     C16 1009   3.290   4.151   6.186 -0.5389  0.4537  0.4745
    1OL     H6R 1010   3.198   4.155   6.245 -0.6211 -2.8272  0.6640
    1OL     H6S 1011   3.369   4.208   6.234  0.6823  0.2518 -1.2591
    1OL     C17 1012   3.244   4.213   6.052 -0.1075 -0.0018 -0.5388
    1OL     H7R 1013   3.182   4.144   5.995  1.1728 -0.5441 -1.2901
    1OL     H7S 1014   3.330   4.230   5.986  1.8388  1.0978  2.1619
    1OL     C18 1015   3.164   4.343   6.064 -0.4997 -0.5871 -0.1447
    1OL     H8R 1016   3.216   4.420   6.121  0.7107 -1.4344 -0.0865
    1OL     H8S 1017   3.065   4.325   6.106 -0.1465 -0.5975  0.6846
    1OL     C19 1018   3.157   4.395   5.922 -0.8569 -1.0810  0.3133
    1OL     H9R 1019   3.241   4.458   5.892 -1.0757 -1.3127 -0.8011
    1OL    C110 1020   3.050   4.400   5.843 -0.7131 -0.1527  0.5641
    1OL    H10R 1021   3.037   4.462   5.755 -0.9125  0.6072  1.1239
    1OL    C111 1022   2.929   4.313   5.878  0.1303  0.7489  1.0192
    1OL    H11R 1023   2.873   4.368   5.954  0.1824  0.0298  1.5848
    1OL    H11S 1024   2.959   4.219   5.925 -0.6764 -0.4475 -0.8165
    1OL    C112 1025   2.841   4.291   5.751 -0.1995 -0.2462 -0.9315
    1OL    H12R 1026   2.873   4.219   5.675  1.9658 -0.2976  0.0059
    1OL    H12S 1027   2.823   4.385   5.697  2.4572  0.1006 -1.2534
    1OL    C113 1028   2.710   4.228   5.809  0.6364 -0.6900  0.5410
    1OL    H13R 1029   2.667   4.304   5.875  1.4466  0.7899 -0.6193
    1OL    H13S 1030   2.729   4.159   5.892 -1.7368  0.0476  1.7732
    1OL    C114 1031   2.607   4.181   5.705 -0.2490  0.4588 -0.1317
    1OL    H14R 1032   2.644   4.108   5.632 -1.4042  0.0158 -0.2838
    1OL    H14S 1033   2.568   4.271   5.657  0.2171  1.6182  1.6073
    1OL    C115 1034   2.488   4.101   5.748  0.3450 -0.2468  0.7989
    1OL    H15R 1035   2.437   4.160   5.825 -1.8096 -0.3838 -0.4865
    1OL    H15S 1036   2.522   4.011   5.798 -0.3745 -0.7997  0.3141
    1OL    C116 1037   2.388   4.058   5.635  0.4930 -0.5123  0.2160
    1OL    H16R 1038   2.297   4.012   5.675  0.2574 -1.5990 -1.5330
    1OL    H16S 1039   2.422   3.983   5.564 -2.5598 -1.9170  0.1294
    1OL    C117 1040   2.330   4.176   5.558  0.3387 -0.7975 -0.4279
    1OL    H17R 1041   2.408   4.237   5.512  0.0298 -1.0375 -1.2755
    1OL    H17S 1042   2.293   4.255   5.624  1.4122 -1.4166  0.9439
    1OL    C118 1043   2.240   4.150   5.443  0.0809 -0.6182  0.3063
    1OL    H18R 1044   2.157   4.082   5.465  1.0743 -1.7890  0.5060
    1OL    H18S 1045   2.305   4.103   5.369 -0.9935 -0.0507 -1.0093
    1OL    H18T 1046   2.203   4.244   5.401 -2.0596 -1.6644 -0.2191
    1PA    C116 1047   3.471   4.583   5.772  1.0380  0.0251 -0.3401
    1PA    H16R 1048   3.534   4.523   5.839  3.0487  0.7945 -1.4790
    1PA    H16S 1049   3.377   4.614   5.818  1.3670 -1.3603  1.3213
    1PA    H16T 1050   3.524   4.674   5.742  1.2479 -0.3782 -1.1964
    1PA    C115 1051   3.448   4.507   5.646 -0.0260 -0.5990  0.3755
    1PA    H15R 1052   3.427   4.577   5.564 -2.3994 -2.1190 -0.3733
    1PA    H15S 1053   3.547   4.469   5.621  0.1916  1.1932 -1.6614
    1PA    C114 1054   3.358   4.388   5.648  0.1026 -0.1730 -0.4200
    1PA    H14R 1055   3.375   4.329   5.738 -1.5384  0.7123  0.4829
    1PA    H14S 1056   3.254   4.421   5.659 -0.7198 -2.5823 -0.6678
    1PA    C113 1057   3.348   4.302   5.524 -0.4673  0.3860  0.4390
    1PA    H13R 1058   3.337   4.363   5.434  1.4264  0.0301 -0.0616
    1PA    H13S 1059   3.442   4.246   5.519 -0.5997 -0.0345  2.5317
    1PA    C112 1060   3.233   4.202   5.534 -0.5112  0.5768 -0.2296
    1PA    H12R 1061   3.134   4.245   5.522  0.1425  1.7688 -1.4931
    1PA    H12S 1062   3.246   4.129   5.453  1.9777  0.8400 -0.0897
    1PA    C111 1063   3.235   4.123   5.669  0.1886 -0.0114 -0.0415
    1PA    H11R 1064   3.228   4.194   5.751 -1.2791  0.4372 -0.5450
    1PA    H11S 1065   3.146   4.061   5.679 -0.1345  0.7051  1.6935
    1PA    C110 1066   3.363   4.032   5.684 -0.2280  0.3951  0.2354
    1PA    H10R 1067   3.356   3.962   5.601  3.0015 -0.5302  0.6704
    1PA    H10S 1068   3.455   4.083   5.654 -0.5685  0.9560  0.1305
    1PA     C19 1069   3.367   3.951   5.813 -0.9413  0.0604  0.3074
    1PA     H9R 1070   3.395   4.028   5.885  1.0992 -0.8171  0.4805
    1PA     H9S 1071   3.269   3.908   5.837 -0.8673 -0.2212  0.1055
    1PA     C18 1072   3.481   3.842   5.809 -0.5540  0.7555 -0.2211
    1PA     H8R 1073   3.464   3.766   5.732  2.9690 -0.9648  0.6257
    1PA     H8S 1074   3.578   3.888   5.791 -0.6394  0.3493 -1.8005
    1PA     C17 1075   3.516   3.779   5.947 -0.4889  0.5747 -0.6094
    1PA     H7R 1076   3.551   3.854   6.019  2.9020 -0.8200 -0.7047
    1PA     H7S 1077   3.428   3.726   5.985 -0.0575 -1.2726 -2.1128
    1PA     C16 1078   3.626   3.669   5.941 -0.9814 -0.2882 -0.0417
    1PA     H6R 1079   3.598   3.604   5.859 -2.0727  0.4726 -0.2874
    1PA     H6S 1080   3.717   3.718   5.906 -0.9113  0.1283  0.6980
    1PA     C15 1081   3.645   3.606   6.079 -0.5660  0.1396  0.2293
    1PA     H5R 1082   3.670   3.693   6.141  0.5321  0.6423 -0.8960
    1PA     H5S 1083   3.550   3.564   6.113 -0.8329 -0.1583 -0.8515
    1PA     C14 1084   3.756   3.498   6.087 -0.0527 -0.1420  0.0308
    1PA     H4R 1085   3.741   3.424   6.008  1.5438 -0.9052  0.4236
    1PA     H4S 1086   3.852   3.540   6.057  0.4661 -1.6710 -0.5394
    1PA     C13 1087   3.775   3.430   6.222 -0.3341 -0.7632  0.4717
    1PA     H3R 1088   3.691   3.359   6.223 -1.3413  0.4070  0.7809
    1PA     H3S 1089   3.872   3.381   6.223 -0.9426 -2.1459 -2.7766
    1PA     C12 1090   3.765   3.529   6.345 -0.7364 -0.7364 -0.5321
    1PA     H2R 1091   3.858   3.585   6.350 -0.1931 -1.4756 -1.8869
    1PA     H2S 1092   3.674   3.588   6.341 -0.3139  0.0557  1.0729
    1PC     C11 1093   3.776   3.450   6.480 -0.3136 -0.1279  0.8409
    1PC     O12 1094   3.682   3.413   6.550  0.0504 -0.1734  0.1218
    1PC     O11 1095   3.902   3.451   6.525 -0.0147  0.4653  0.2163
    1PC      C1 1096   3.937   3.398   6.653  0.2328 -0.4084 -0.1694
    1PC      HR 1097   3.871   3.316   6.683  0.3583  0.6208  3.1909
    1PC      HS 1098   4.038   3.357   6.640 -0.8999 -2.7324 -2.1800
    1PC      C2 1099   3.939   3.504   6.767  0.1417 -0.9866  0.1809
    1PC      HX 1100   3.969   3.459   6.862  0.1196 -0.3988  0.4686
    1PC      C3 1101   3.802   3.561   6.807 -0.3773 -0.1793  0.3823
    1PC      HA 1102   3.771   3.632   6.731  0.2808  0.3926  0.6375
    1PC      HB 1103   3.729   3.482   6.828 -1.6454  0.2638 -2.2587
    1PC     O31 1104   3.816   3.635   6.931 -0.2969  0.6175 -0.0066
    1PC     P31 1105   3.817   3.560   7.069  0.0252  0.1734  0.1869
    1PC     O32 1106   3.966   3.541   7.087 -0.2334  0.0089 -0.3666
    1PC     C31 1107   4.049   3.651   7.122 -0.1634 -0.4363  0.2831
    1PC     H1A 1108   4.151   3.622   7.096  0.2582  0.9906  0.3065
    1PC     H1B 1109   4.026   3.739   7.061 -0.6494  0.0397  1.1448
    1PC     C32 1110   4.034   3.669   7.282 -0.1363  0.5834  0.8762
    1PC     H2A 1111   4.096   3.755   7.306  1.0894 -0.4354  1.4115
    1PC     H2B 1112   3.932   3.676   7.320 -0.8756  0.3621 -0.9878
    1PC     N31 1113   4.094   3.564   7.371 -0.4997 -0.3817  0.6065
    1PC     C33 1114   4.231   3.531   7.338  0.1756  0.0823 -0.8342
    1PC     H3A 1115   4.235   3.457   7.258 -0.0297 -1.1673  0.2930
    1PC     H3B 1116   4.287   3.621   7.310 -0.0072  0.3524 -0.3488
    1PC     H3C 1117   4.279   3.484   7.424  1.4075 -0.5818 -1.8562
    1PC     C34 1118   4.080   3.611   7.509 -0.4767  0.1818 -0.0034
    1PC     H4A 1119   3.975   3.616   7.540 -0.8725  1.6028 -1.4898
    1PC     H4B 1120   4.138   3.551   7.578 -0.4692  1.7130  1.3520
    1PC     H4C 1121   4.118   3.713   7.509 -2.9818  1.1792  1.4478
    1PC     C35 1122   4.009   3.437   7.354 -0.0377 -0.2243 -0.3580
    1PC     H5A 1123   4.060   3.367   7.422  2.0297  0.6399 -0.9675
    1PC     H5B 1124   4.022   3.407   7.249  0.9349  2.0685 -0.9129
    1PC     H5C 1125   3.906   3.462   7.378  0.1320 -1.2303  1.5016
    1PC     O33 1126   3.753   3.658   7.166  0.6076  0.1156 -0.0707
    1PC     O34 1127   3.756   3.428   7.055 -0.0010  0.2685  0.2903
    1PC     O21 1128   4.024   3.611   6.732  0.2155 -0.5300  0.0611
    1PC     C21 1129   4.152   3.587   6.727 -0.0786  0.2154  0.0200
    1PC     O22 1130   4.198   3.481   6.763 -0.1022 -0.5656  0.1285
    1OL     C12 1131   4.233   3.696   6.658  0.3076 -0.0787 -0.1223
    1OL     H2R 1132   4.332   3.655   6.637  0.1574 -0.4863 -0.0247
    1OL     H2S 1133   4.240   3.782   6.725 -0.0622 -1.4863  1.7600
    1OL     C13 1134   4.184   3.739   6.519 -0.1337  0.0908  0.1961
    1OL     H3R 1135   4.086   3.778   6.547 -0.2968 -1.0496  1.2532
    1OL     H3S 1136   4.170   3.659   6.447 -1.0325  1.7414 -1.5014
    1OL     C14 1137   4.281   3.840   6.459  0.1501  0.0412 -1.1501
    1OL     H4R 1138   4.369   3.790   6.416  0.2562 -0.7878  0.0091
    1OL     H4S 1139   4.328   3.894   6.541 -1.8952 -0.1531  0.1648
    1OL     C15 1140   4.227   3.936   6.351  0.1354 -0.0370  0.6255
    1OL     H5R 1141   4.308   3.999   6.316  0.3811 -0.2996  0.7248
    1OL     H5S 1142   4.150   4.003   6.390  0.7990 -0.7046  3.1554
    1OL     C16 1143   4.175   3.864   6.221  0.5997 -0.4195  0.0984
    1OL     H6R 1144   4.097   3.803   6.267 -0.5414  1.1818  0.3351
    1OL     H6S 1145   4.259   3.803   6.186  0.6101  0.6991 -1.9002
    1OL     C17 1146   4.128   3.947   6.105  0.5947 -0.3711  0.7297
    1OL     H7R 1147   4.215   3.974   6.045 -0.8478  1.4478 -0.6336
    1OL     H7S 1148   4.085   4.044   6.129  0.0506 -0.4842  0.2416
    1OL     C18 1149   4.032   3.883   6.003  0.6228  0.7847 -0.5903
    1OL     H8R 1150   3.968   3.958   5.957 -0.4628  0.4251  0.2928
    1OL     H8S 1151   3.968   3.817   6.063  1.7503  2.8809  3.1250
    1OL     C19 1152   4.101   3.791   5.902 -0.0434 -0.8035  0.2222
    1OL     H9R 1153   4.194   3.747   5.938  0.7244  2.1967  2.0837
    1OL    C110 1154   4.065   3.776   5.775  0.0063 -0.0747  0.3549
    1OL    H10R 1155   4.125   3.721   5.703  0.6192  2.5053 -1.1970
    1OL    C111 1156   3.940   3.837   5.709  0.1282  0.9219 -0.3591
    1OL    H11R 1157   3.966   3.905   5.628 -0.9906  1.8402  0.0383
    1OL    H11S 1158   3.877   3.888   5.782 -2.2259  0.2128 -1.8397
    1OL    C112 1159   3.862   3.718   5.650 -0.0630 -0.0800  0.4408
    1OL    H12R 1160   3.776   3.693   5.714  1.0686 -0.0897  1.9972
    1OL    H12S 1161   3.928   3.631   5.647 -0.6631 -0.4722 -2.0040
    1OL    C113 1162   3.807   3.746   5.503  0.9170  0.4898 -0.0459
    1OL    H13R 1163   3.788   3.651   5.453  2.7143 -0.7643  1.5992
    1OL    H13S 1164   3.885   3.791   5.440  0.6076 -2.3623 -2.5934
    1OL    C114 1165   3.683   3.836   5.496 -0.3222  0.2107 -0.4990
    1OL    H14R 1166   3.699   3.924   5.559 -2.7840 -0.2354  0.7903
    1OL    H14S 1167   3.610   3.776   5.551  0.3917 -0.0265  0.2009
    1OL    C115 1168   3.642   3.869   5.353 -0.1684 -0.2698  0.0334
    1OL    H15R 1169   3.621   3.781   5.293  0.1923 -0.4680  0.1951
    1OL    H15S 1170   3.726   3.924   5.310  2.3753 -3.9971 -0.0077
    1OL    C116 1171   3.511   3.955   5.358 -0.0913  0.3266 -0.5322
    1OL    H16R 1172   3.528   4.033   5.432 -1.2730 -0.1184  0.2117
    1OL    H16S 1173   3.429   3.892   5.393 -0.2798 -0.2547 -1.9504
    1OL    C117 1174   3.481   4.012   5.217 -1.5773  0.3110 -0.5909
    1OL    H17R 1175   3.581   4.048   5.189 -1.5153  0.0779 -0.6781
    1OL    H17S 1176   3.412   4.096   5.218  0.2258  1.8282 -0.6163
    1OL    C118 1177   3.453   3.906   5.120  0.1416  0.1440 -1.1464
    1OL    H18R 1178   3.538   3.840   5.101  0.8209  1.2660 -2.0956
    1OL    H18S 1179   3.415   3.951   5.029 -2.2399  1.3223  0.3753
    1OL    H18T 1180   3.373   3.842   5.157 -0.3633  0.7969 -1.0856
    1PA    C116 1181   3.537   2.501   5.321  0.2820 -0.1805  0.0583
    1PA    H16R 1182   3.509   2.568   5.239  0.7781  0.6718  0.5762
    1PA    H16S 1183   3.448   2.447   5.352  0.4180  0.2040  1.1426
    1PA    H16T 1184   3.614   2.429   5.293 -0.0470 -0.6244  0.2973
    1PA    C115 1185   3.582   2.568   5.459 -0.3596  0.5625  0.0615
    1PA    H15R 1186   3.685   2.603   5.450 -0.3213  0.1309 -1.2599
    1PA    H15S 1187   3.522   2.658   5.467 -0.0533  0.6134  2.3300
    1PA    C114 1188   3.574   2.463   5.577  0.3357  0.1478 -0.1588
    1PA    H14R 1189   3.475   2.417   5.569  0.7723 -0.3767 -3.6197
    1PA    H14S 1190   3.644   2.384   5.550  0.9064  1.3708 -2.4437
    1PA    C113 1191   3.604   2.515   5.723  0.0398 -1.1054 -0.6946
    1PA    H13R 1192   3.712   2.527   5.732 -0.3678  1.7209  1.2233
    1PA    H13S 1193   3.552   2.611   5.731  1.4825 -0.3419 -0.2823
    1PA    C112 1194   3.546   2.417   5.835  0.8605  0.4096 -0.1020
    1PA    H12R 1195   3.442   2.391   5.818  0.9174 -0.6118  1.0770
    1PA    H12S 1196   3.608   2.328   5.822  0.2370 -0.2509  1.3409
    1PA    C111 1197   3.573   2.457   5.984  0.3337  0.4991 -0.6037
    1PA    H11R 1198   3.525   2.551   6.010 -0.4964  0.1450 -0.8359
    1PA    H11S 1199   3.518   2.386   6.046 -0.8926  0.5294 -1.6430
    1PA    C110 1200   3.731   2.465   6.013 -0.3320 -0.1159 -0.1995
    1PA    H10R 1201   3.781   2.370   5.992 -0.7405 -0.2195 -0.7091
    1PA    H10S 1202   3.772   2.536   5.941 -1.9632  0.0610 -0.9840
    1PA     C19 1203   3.738   2.502   6.164 -0.0704 -0.4608 -0.1159
    1PA     H9R 1204   3.664   2.580   6.179  0.1486 -0.4966  1.1969
    1PA     H9S 1205   3.696   2.418   6.220  1.8083 -1.0648  0.4235
    1PA     C18 1206   3.871   2.556   6.217 -0.2844  0.0413 -0.5171
    1PA     H8R 1207   3.951   2.486   6.190 -0.0204  0.0055  0.3490
    1PA     H8S 1208   3.889   2.657   6.180  2.6146 -0.2604 -0.0907
    1PA     C17 1209   3.879   2.561   6.373 -0.0317  0.2499 -0.0474
    1PA     H7R 1210   3.807   2.639   6.400  1.2876  1.1620  0.9058
    1PA     H7S 1211   3.841   2.465   6.410  2.2575 -0.6062  0.1576
    1PA     C16 1212   4.024   2.589   6.430 -0.5429 -0.4267  0.4911
    1PA     H6R 1213   4.065   2.682   6.389  0.5082 -0.6276  1.0729
    1PA     H6S 1214   4.016   2.605   6.538 -1.0757  0.7861  0.2716
    1PA     C15 1215   4.123   2.472   6.405  0.6293 -0.5302 -0.9799
    1PA     H5R 1216   4.091   2.390   6.470  2.9645 -1.2869 -0.7082
    1PA     H5S 1217   4.111   2.431   6.305 -0.2488 -0.8093 -0.7671
    1PA     C14 1218   4.264   2.512   6.442  0.7519  0.5013 -0.5521
    1PA     H4R 1219   4.329   2.426   6.424  0.3307  0.0370  0.1447
    1PA     H4S 1220   4.307   2.580   6.368  1.5135  1.4185  0.7215
    1PA     C13 1221   4.289   2.559   6.583  0.5267 -0.3818  0.7325
    1PA     H3R 1222   4.218   2.636   6.612 -1.1084 -1.3295 -0.6974
    1PA     H3S 1223   4.261   2.485   6.659  0.6732 -0.3429  0.8254
    1PA     C12 1224   4.439   2.590   6.606  0.3124  0.0773 -0.2417
    1PA     H2R 1225   4.500   2.503   6.632  2.3517  0.9946 -1.8247
    1PA     H2S 1226   4.477   2.642   6.518  0.2695  2.4706  1.1140
    1PC     C11 1227   4.461   2.682   6.725  0.3640 -0.5000 -0.0158
    1PC     O12 1228   4.529   2.781   6.722 -0.4510 -0.0883  0.2167
    1PC     O11 1229   4.414   2.626   6.841  0.2829  0.0423  0.0002
    1PC      C1 1230   4.489   2.669   6.961 -0.0246 -0.0546 -0.0992
    1PC      HR 1231   4.490   2.592   7.039 -1.1731 -0.3886 -0.4214
    1PC      HS 1232   4.595   2.681   6.936 -0.3368  1.8872 -0.6137
    1PC      C2 1233   4.439   2.805   7.026 -0.0896  0.6939  0.1362
    1PC      HX 1234   4.520   2.864   7.070  2.5974 -1.9685 -1.1259
    1PC      C3 1235   4.335   2.770   7.139 -0.5170 -0.1080  0.0907
    1PC      HA 1236   4.394   2.722   7.218  0.8831  0.9376 -0.2915
    1PC      HB 1237   4.294   2.857   7.191 -0.3280 -0.7316  1.3086
    1PC     O31 1238   4.229   2.670   7.104 -0.3402 -0.8628  0.1371
    1PC     P31 1239   4.083   2.693   7.151 -0.2031  0.2034  0.1599
    1PC     O32 1240   4.033   2.824   7.077  0.8599 -0.1546  0.4933
    1PC     C31 1241   3.981   2.821   6.951  0.0691  0.4539 -0.4317
    1PC     H1A 1242   4.052   2.850   6.873 -0.6659  1.1500 -0.8398
    1PC     H1B 1243   3.932   2.728   6.922  1.2695 -0.5623  0.7182
    1PC     C32 1244   3.867   2.922   6.962  0.8153  0.0418  0.2862
    1PC     H2A 1245   3.893   3.006   7.028  1.7883  0.6018 -0.7773
    1PC     H2B 1246   3.832   2.964   6.867  2.5849 -1.4005 -1.0507
    1PC     N31 1247   3.741   2.886   7.038 -0.3023 -0.3586 -0.1167
    1PC     C33 1248   3.761   2.831   7.180  0.0264  0.1354 -0.9008
    1PC     H3A 1249   3.666   2.810   7.228 -1.1639  1.0121 -2.8163
    1PC     H3B 1250   3.812   2.735   7.174 -1.9911 -0.9585 -0.7836
    1PC     H3C 1251   3.807   2.909   7.242 -2.1404  2.5256 -2.1979
    1PC     C34 1252   3.672   3.015   7.064  0.4636  0.2241  0.2084
    1PC     H4A 1253   3.640   3.054   6.968 -1.8861 -1.9266  0.0425
    1PC     H4B 1254   3.582   2.994   7.124 -0.4514 -1.8239 -1.8061
    1PC     H4C 1255   3.740   3.083   7.114  0.5383 -0.0870  0.5393
    1PC     C35 1256   3.663   2.787   6.956  0.3028 -0.0873  0.6014
    1PC     H5A 1257   3.572   2.753   7.006 -0.5973 -1.4992 -1.9159
    1PC     H5B 1258   3.711   2.690   6.942 -0.7519 -0.1453 -3.0090
    1PC     H5C 1259   3.617   2.828   6.866  0.3469  2.5905  1.7681
    1PC     O33 1260   3.994   2.583   7.111  0.4547  0.3288 -0.2422
    1PC     O34 1261   4.097   2.737   7.289  0.0305 -0.4002 -0.2528
    1PC     O21 1262   4.366   2.890   6.930 -0.1041 -0.1477  0.0110
    1PC     C21 1263   4.401   3.017   6.924 -0.2127  0.2323 -0.0950
    1PC     O22 1264   4.497   3.065   6.979  0.3368  0.0196 -0.1832
    1OL     C12 1265   4.304   3.096   6.834  1.2487  0.0625  0.2598
    1OL     H2R 1266   4.351   3.194   6.822 -1.0245  1.4659  2.4614
    1OL     H2S 1267   4.209   3.113   6.885  1.2722  0.4848  0.1709
    1OL     C13 1268   4.282   3.020   6.697 -0.3010 -0.1906 -0.4457
    1OL     H3R 1269   4.260   2.914   6.712 -1.4669  0.1107  0.0415
    1OL     H3S 1270   4.377   3.024   6.644  0.3089 -0.0620  0.6456
    1OL     C14 1271   4.169   3.083   6.611 -0.7791  0.5767 -0.0443
    1OL     H4R 1272   4.209   3.165   6.550 -1.8679  0.6895 -0.6092
    1OL     H4S 1273   4.086   3.136   6.658  0.1852  2.4937 -0.4210
    1OL     C15 1274   4.113   2.980   6.510  0.7750 -0.4812  0.2534
    1OL     H5R 1275   4.068   2.898   6.567 -0.1544  0.8629  1.4688
    1OL     H5S 1276   4.197   2.959   6.444 -1.3862 -0.4246 -2.6201
    1OL     C16 1277   3.990   3.040   6.438 -0.8665 -0.0645  0.0764
    1OL     H6R 1278   4.015   3.139   6.401 -0.3679 -0.1625  0.1525
    1OL     H6S 1279   3.900   3.051   6.498 -2.9027 -1.7182 -2.5263
    1OL     C17 1280   3.945   2.956   6.313 -0.0367 -0.2123  0.2180
    1OL     H7R 1281   3.915   2.855   6.343 -1.5901 -0.2519 -1.4300
    1OL     H7S 1282   4.023   2.942   6.238 -2.2110 -1.5734 -1.8817
    1OL     C18 1283   3.830   3.034   6.238 -0.5019  0.2376  0.0022
    1OL     H8R 1284   3.861   3.133   6.204 -0.4477 -0.0427 -0.7600
    1OL     H8S 1285   3.755   3.064   6.312  1.3532  2.7320  0.9684
    1OL     C19 1286   3.761   2.942   6.138  0.0854 -0.5642 -0.1979
    1OL     H9R 1287   3.753   2.839   6.173  1.5777 -1.2000 -1.6713
    1OL    C110 1288   3.722   2.971   6.014 -0.0253 -0.2354 -0.3907
    1OL    H10R 1289   3.680   2.889   5.956 -0.2201 -2.3485  2.6305
    1OL    C111 1290   3.731   3.100   5.937  0.1172 -0.1077 -0.2975
    1OL    H11R 1291   3.824   3.096   5.881 -0.3509 -1.2005 -1.0178
    1OL    H11S 1292   3.740   3.184   6.007 -3.5183 -0.6176  0.8673
    1OL    C112 1293   3.608   3.116   5.856 -0.1696  0.2628 -0.0428
    1OL    H12R 1294   3.535   3.148   5.930  0.9145  0.7139  0.8457
    1OL    H12S 1295   3.573   3.024   5.808  0.3651  1.3246 -2.5634
    1OL    C113 1296   3.630   3.223   5.746  0.2521  0.6603  0.4355
    1OL    H13R 1297   3.692   3.305   5.784  0.6770  0.0023  1.1854
    1OL    H13S 1298   3.529   3.261   5.732  0.1152 -0.0244 -0.4913
    1OL    C114 1299   3.685   3.178   5.606  0.3647 -0.4952 -0.2281
    1OL    H14R 1300   3.792   3.157   5.620  0.4047  0.7676  1.4872
    1OL    H14S 1301   3.685   3.272   5.550 -0.9251 -1.0323 -1.1585
    1OL    C115 1302   3.608   3.067   5.524 -0.0792  0.1915  0.0701
    1OL    H15R 1303   3.503   3.096   5.517 -0.2033  0.0911  1.3091
    1OL    H15S 1304   3.612   2.970   5.573 -1.1498 -0.5398 -1.2461
    1OL    C116 1305   3.669   3.054   5.385 -0.7100  0.4701 -0.1475
    1OL    H16R 1306   3.778   3.045   5.391 -0.6421  1.4203  0.0317
    1OL    H16S 1307   3.657   3.148   5.332  0.7873  1.0646  0.5400
    1OL    C117 1308   3.599   2.937   5.307 -0.3103 -0.2708 -0.1840
    1OL    H17R 1309   3.491   2.950   5.306 -0.2534  0.2613  0.6131
    1OL    H17S 1310   3.613   2.843   5.361  0.0387  0.5125  1.1032
    1OL    C118 1311   3.663   2.914   5.168 -0.4042 -0.1450  0.1295
    1OL    H18R 1312   3.678   3.008   5.115 -1.2916  0.5152  1.0355
    1OL    H18S 1313   3.594   2.848   5.114  0.5490 -0.8881 -0.1927
    1OL    H18T 1314   3.760   2.865   5.176 -1.1736 -1.9313 -0.9573
    1PA    C116 1315   3.664   0.533   5.555 -0.1922 -0.5847  0.1170
    1PA    H16R 1316   3.724   0.442   5.561 -0.7256 -0.9339  0.1044
    1PA    H16S 1317   3.687   0.584   5.461  0.8559  0.8125  1.0975
    1PA    H16T 1318   3.561   0.501   5.546 -0.7540  1.6515 -1.8327
    1PA    C115 1319   3.684   0.633   5.677 -0.0450  0.1510 -1.2315
    1PA    H15R 1320   3.712   0.570   5.763 -0.0160 -2.5084 -3.1158
    1PA    H15S 1321   3.775   0.689   5.654  0.1803  0.8813  1.3010
    1PA    C114 1322   3.554   0.706   5.705  0.0198  0.1630 -0.2781
    1PA    H14R 1323   3.536   0.782   5.629 -1.5456 -0.5782 -0.6703
    1PA    H14S 1324   3.474   0.631   5.711 -2.4102  2.8113  1.7967
    1PA    C113 1325   3.560   0.777   5.844 -0.0987 -0.7622 -0.3862
    1PA    H13R 1326   3.460   0.814   5.868 -0.4642 -1.2087 -1.2086
    1PA    H13S 1327   3.582   0.707   5.925  1.1410  0.8319  0.6863
    1PA    C112 1328   3.658   0.892   5.837 -0.9510 -0.0265  0.7438
    1PA    H12R 1329   3.759   0.852   5.825 -0.2423  1.7476  0.6619
    1PA    H12S 1330   3.638   0.964   5.758 -1.5976 -1.8410 -0.7551
    1PA    C111 1331   3.656   0.970   5.974 -0.3531  0.1203 -0.5088
    1PA    H11R 1332   3.556   1.000   6.007  1.0130  1.8822  2.2306
    1PA    H11S 1333   3.698   0.915   6.058 -0.6514  2.7609  1.4582
    1PA    C110 1334   3.751   1.085   5.967 -0.0142 -0.4598  0.0933
    1PA    H10R 1335   3.853   1.045   5.962 -0.4087 -1.4435  0.0532
    1PA    H10S 1336   3.735   1.135   5.871 -0.9362 -0.8631  0.0388
    1PA     C19 1337   3.735   1.179   6.085  0.0665  0.1119 -0.1036
    1PA     H9R 1338   3.730   1.116   6.174 -0.0525  0.5488  0.2010
    1PA     H9S 1339   3.825   1.236   6.109  0.8069 -1.4627  0.9196
    1PA     C18 1340   3.611   1.270   6.075 -0.2684  0.3450  0.0038
    1PA     H8R 1341   3.524   1.221   6.029  1.4913 -2.1396 -0.8021
    1PA     H8S 1342   3.578   1.298   6.175 -0.2900 -0.2059  0.1532
    1PA     C17 1343   3.643   1.400   5.996  1.0003 -0.0514 -0.5086
    1PA     H7R 1344   3.726   1.445   6.051 -0.1432  0.8143  0.5170
    1PA     H7S 1345   3.685   1.383   5.897 -0.1300  0.1262 -1.0297
    1PA     C16 1346   3.519   1.488   5.983 -0.0919 -0.6409  0.2121
    1PA     H6R 1347   3.559   1.580   5.941 -1.1528 -0.4204 -0.3243
    1PA     H6S 1348   3.455   1.443   5.907 -1.4425  2.2504 -0.4217
    1PA     C15 1349   3.431   1.527   6.108  0.7625  0.1176  0.0580
    1PA     H5R 1350   3.355   1.599   6.077  0.7196 -0.5550 -1.4177
    1PA     H5S 1351   3.370   1.446   6.148  0.8922  0.4903  1.0281
    1PA     C14 1352   3.510   1.591   6.221 -0.0869  0.6820  0.3842
    1PA     H4R 1353   3.526   1.510   6.292 -2.3018  2.8051  3.3959
    1PA     H4S 1354   3.607   1.619   6.179  0.8053 -1.7530  0.7238
    1PA     C13 1355   3.450   1.715   6.284  0.5492  0.3211  0.1007
    1PA     H3R 1356   3.436   1.791   6.207  0.8335  0.2776  0.0039
    1PA     H3S 1357   3.354   1.686   6.329  1.5117 -1.3742  1.1363
    1PA     C12 1358   3.538   1.782   6.388  0.1075 -0.0876  0.8191
    1PA     H2R 1359   3.622   1.825   6.335 -1.1025  2.0231  0.5661
    1PA     H2S 1360   3.486   1.861   6.443 -2.1571 -0.3957 -0.8117
    1PC     C11 1361   3.581   1.695   6.504  0.2272  0.6564 -0.3237
    1PC     O12 1362   3.501   1.635   6.574  0.2555 -0.0241  0.5609
    1PC     O11 1363   3.713   1.692   6.513 -1.4256 -0.3009  0.4754
    1PC      C1 1364   3.772   1.617   6.627  0.0761 -0.9579  0.2767
    1PC      HR 1365   3.873   1.659   6.627 -0.3569  0.1127 -0.4560
    1PC      HS 1366   3.731   1.650   6.723 -0.5049  0.7528 -0.5343
    1PC      C2 1367   3.769   1.468   6.592 -0.5865 -0.2710 -0.2337
    1PC      HX 1368   3.676   1.437   6.544 -1.3500 -0.1639  1.1691
    1PC      C3 1369   3.783   1.388   6.724  0.2230  0.4369  0.2681
    1PC      HA 1370   3.699   1.410   6.790  1.0021  0.1615  1.3724
    1PC      HB 1371   3.795   1.282   6.698  2.8674  0.6494  0.4583
    1PC     O31 1372   3.902   1.436   6.788 -0.1450 -0.5155 -0.2268
    1PC     P31 1373   3.934   1.405   6.936 -0.0477  0.4034 -0.1759
    1PC     O32 1374   3.960   1.254   6.951  0.6752  0.0579  0.5292
    1PC     C31 1375   3.893   1.182   7.061  0.2906 -0.1028  0.3644
    1PC     H1A 1376   3.956   1.097   7.086 -2.2312 -1.9542  0.6121
    1PC     H1B 1377   3.887   1.233   7.157  0.8487  0.1964  0.2390
    1PC     C32 1378   3.756   1.135   7.013 -0.1443 -0.1859  0.5442
    1PC     H2A 1379   3.687   1.219   6.999 -1.0043 -0.8598  0.6892
    1PC     H2B 1380   3.757   1.075   6.922  3.4533 -1.2355  1.2088
    1PC     N31 1381   3.672   1.049   7.098  0.7908  0.3674 -0.5864
    1PC     C33 1382   3.744   0.929   7.140 -0.4780 -0.1009 -0.0389
    1PC     H3A 1383   3.761   0.872   7.048 -2.2347  0.4419 -0.7254
    1PC     H3B 1384   3.838   0.943   7.193  0.4125  0.1457 -1.6460
    1PC     H3C 1385   3.674   0.870   7.199 -1.6672 -0.0900 -1.4101
    1PC     C34 1386   3.621   1.121   7.220  0.1666 -0.3247 -0.1405
    1PC     H4A 1387   3.550   1.053   7.267  0.2975  0.1854  0.7901
    1PC     H4B 1388   3.705   1.142   7.286 -1.1598  0.8415  1.2147
    1PC     H4C 1389   3.572   1.213   7.189  3.7750  1.0148 -2.1962
    1PC     C35 1390   3.550   1.012   7.017 -0.4531  0.2471  0.2522
    1PC     H5A 1391   3.486   0.942   7.071  0.0171 -0.0403  0.4390
    1PC     H5B 1392   3.566   0.966   6.920 -3.4878 -0.2669 -0.0535
    1PC     H5C 1393   3.493   1.104   7.002 -1.4467 -0.3622  0.2611
    1PC     O33 1394   4.057   1.486   6.963 -0.2101 -0.2327 -0.4614
    1PC     O34 1395   3.809   1.437   7.015 -0.2099  1.0904  0.3370
    1PC     O21 1396   3.889   1.432   6.514  0.0387 -0.0762  0.4234
    1PC     C21 1397   3.878   1.438   6.380  0.8941  0.3870 -0.4730
    1PC     O22 1398   3.770   1.424   6.327  0.6491  0.1410  0.5717
    1OL     C12 1399   4.007   1.425   6.303 -1.1457  0.0556 -0.1582
    1OL     H2R 1400   4.007   1.330   6.250 -1.5237  0.7893 -1.4790
    1OL     H2S 1401   4.089   1.421   6.375 -0.4889 -0.7075 -0.9387
    1OL     C13 1402   4.009   1.550   6.214  0.0889 -0.4052  0.0711
    1OL     H3R 1403   4.023   1.641   6.271  0.3061  0.5872 -1.5269
    1OL     H3S 1404   3.911   1.571   6.171  0.4890 -1.8064 -1.5781
    1OL     C14 1405   4.109   1.542   6.094  0.3193  0.4398 -0.4107
    1OL     H4R 1406   4.103   1.440   6.056 -3.6063  0.2507  0.4853
    1OL     H4S 1407   4.213   1.552   6.124 -0.3118 -0.1293  2.0683
    1OL     C15 1408   4.073   1.650   5.994  0.2205  0.3647 -0.2609
    1OL     H5R 1409   4.056   1.747   6.041 -1.4461  0.2765 -0.6543
    1OL     H5S 1410   3.978   1.627   5.945 -0.9226  2.6465  0.8346
    1OL     C16 1411   4.184   1.667   5.885  0.4856 -0.2051 -0.5766
    1OL     H6R 1412   4.234   1.571   5.873  0.5251  0.0403 -2.4970
    1OL     H6S 1413   4.260   1.735   5.925 -1.5514  0.6912  1.9224
    1OL     C17 1414   4.123   1.724   5.753  0.4048 -0.0809 -0.2466
    1OL     H7R 1415   4.073   1.819   5.775  0.7784  0.3024 -1.0113
    1OL     H7S 1416   4.046   1.654   5.719  1.4949  0.0176 -3.0499
    1OL     C18 1417   4.225   1.746   5.644  0.0900 -0.2821 -0.4846
    1OL     H8R 1418   4.194   1.829   5.581  0.8339  1.0954  0.9285
    1OL     H8S 1419   4.231   1.653   5.587 -2.6437  0.3255 -1.8087
    1OL     C19 1420   4.356   1.783   5.707 -0.6831  0.1519  0.5752
    1OL     H9R 1421   4.348   1.850   5.792 -1.4722  0.8490 -0.0440
    1OL    C110 1422   4.475   1.741   5.664  0.2090  0.3946  0.2271
    1OL    H10R 1423   4.565   1.760   5.722 -0.5034  1.7306  0.9157
    1OL    C111 1424   4.499   1.641   5.548  0.0936 -0.0481 -0.8665
    1OL    H11R 1425   4.435   1.553   5.559  0.6331 -0.1469  1.7300
    1OL    H11S 1426   4.606   1.622   5.558  0.0440  0.2625  0.4415
    1OL    C112 1427   4.475   1.710   5.418 -0.2236  0.5326 -0.2039
    1OL    H12R 1428   4.540   1.797   5.410 -0.1491  0.4458 -0.5683
    1OL    H12S 1429   4.370   1.739   5.407  0.7146  4.0019 -0.5260
    1OL    C113 1430   4.525   1.621   5.302 -0.0748 -0.1038 -0.1487
    1OL    H13R 1431   4.484   1.520   5.298  1.3643 -0.6604 -1.2552
    1OL    H13S 1432   4.633   1.609   5.299 -0.1561 -0.8156 -0.3361
    1OL    C114 1433   4.474   1.690   5.173 -0.5256  0.0639 -0.3814
    1OL    H14R 1434   4.371   1.722   5.190 -0.5857  0.3644 -1.2968
    1OL    H14S 1435   4.468   1.607   5.102  1.3890 -0.0500 -0.4159
    1OL    C115 1436   4.559   1.811   5.124 -0.4119 -0.3163  0.2957
    1OL    H15R 1437   4.664   1.785   5.112 -0.5754 -1.0086  0.3255
    1OL    H15S 1438   4.561   1.892   5.198  1.4184 -1.2394  1.2843
    1OL    C116 1439   4.502   1.857   4.985  0.5890  0.5040  0.2874
    1OL    H16R 1440   4.404   1.901   5.004  0.3613 -0.5320  1.6559
    1OL    H16S 1441   4.489   1.776   4.913 -1.5753 -0.6961  1.9712
    1OL    C117 1442   4.579   1.964   4.913 -0.3833  0.3883  0.2060
    1OL    H17R 1443   4.526   2.000   4.824 -0.5162  2.5852  1.1352
    1OL    H17S 1444   4.673   1.916   4.886 -2.6216 -3.1009 -1.7831
    1OL    C118 1445   4.584   2.093   4.996 -0.1362 -0.1242  0.5581
    1OL    H18R 1446   4.648   2.088   5.084  0.1737  2.9800  0.5419
    1OL    H18S 1447   4.481   2.120   5.020 -0.6364 -0.1278 -1.5102
    1OL    H18T 1448   4.630   2.163   4.927  0.7658 -0.0429  1.2362
    1PA    C116 1449   1.955   2.417   5.618  0.0766 -0.6257  0.5897
    1PA    H16R 1450   1.901   2.474   5.694 -0.8174  0.1610 -0.6288
    1PA    H16S 1451   1.914   2.430   5.518  2.1724 -0.1547 -0.2081
    1PA    H16T 1452   2.058   2.453   5.622  0.0694 -0.7006  1.8417
    1PA    C115 1453   1.946   2.269   5.661 -0.1966 -0.4353 -0.2892
    1PA    H15R 1454   1.840   2.242   5.655  0.2802 -2.5420  0.2964
    1PA    H15S 1455   1.990   2.209   5.582 -0.5505 -2.4992  1.0403
    1PA    C114 1456   2.013   2.245   5.799  0.7647 -0.2265 -0.5230
    1PA    H14R 1457   2.111   2.293   5.804  0.5788 -0.0323  1.7053
    1PA    H14S 1458   1.964   2.290   5.886  0.6861 -2.4536  0.6344
    1PA    C113 1459   2.042   2.093   5.815 -0.4244 -0.1609 -0.3869
    1PA    H13R 1460   1.951   2.041   5.784 -0.9454 -0.3888  1.4869
    1PA    H13S 1461   2.114   2.056   5.742 -2.1314  0.2215 -2.3349
    1PA    C112 1462   2.059   2.051   5.963  0.0120  0.0495  1.2103
    1PA    H12R 1463   1.966   2.069   6.017 -1.0804 -1.6964 -0.0588
    1PA    H12S 1464   2.055   1.942   5.965 -1.4777  0.0645  0.1103
    1PA    C111 1465   2.190   2.102   6.029  0.7789 -0.3301  1.1938
    1PA    H11R 1466   2.269   2.095   5.955  0.1337 -4.4649  0.7869
    1PA    H11S 1467   2.169   2.206   6.055 -0.1433 -0.0573 -0.5981
    1PA    C110 1468   2.233   2.025   6.161  0.0556  0.5731  1.1319
    1PA    H10R 1469   2.146   2.009   6.225 -0.8512  1.9747  0.2921
    1PA    H10S 1470   2.257   1.921   6.138  1.0969  0.3325  3.2293
    1PA     C19 1471   2.350   2.078   6.240  0.2585 -0.5155 -0.7259
    1PA     H9R 1472   2.441   2.038   6.194  1.2626  0.0807  0.7202
    1PA     H9S 1473   2.349   2.186   6.229  1.8159 -0.2600  1.4293
    1PA     C18 1474   2.350   2.032   6.390 -0.2478  0.5481  0.3492
    1PA     H8R 1475   2.334   1.925   6.398  0.2112  0.4070 -0.6012
    1PA     H8S 1476   2.445   2.044   6.442 -0.3865  1.5652  0.3833
    1PA     C17 1477   2.247   2.110   6.469 -0.3863  0.0303  0.7377
    1PA     H7R 1478   2.169   2.147   6.402  1.6201  0.6360 -1.3041
    1PA     H7S 1479   2.207   2.041   6.544  0.9008 -0.3776  1.0467
    1PA     C16 1480   2.311   2.223   6.563 -0.0994  0.1588 -0.3378
    1PA     H6R 1481   2.262   2.235   6.660  0.5425 -0.2540  0.0484
    1PA     H6S 1482   2.411   2.185   6.589 -1.1922 -0.2533  3.5726
    1PA     C15 1483   2.320   2.354   6.493 -0.7476 -0.1487  0.2641
    1PA     H5R 1484   2.367   2.331   6.396 -0.2662  0.9130  0.2407
    1PA     H5S 1485   2.222   2.400   6.484 -0.6234 -0.0985 -1.0269
    1PA     C14 1486   2.407   2.461   6.565  0.3284  0.8332 -0.4015
    1PA     H4R 1487   2.352   2.492   6.654  0.3800  3.8939 -1.3971
    1PA     H4S 1488   2.505   2.430   6.600  0.4524 -0.6508 -1.9800
    1PA     C13 1489   2.430   2.586   6.474  0.4277 -0.3342  0.0769
    1PA     H3R 1490   2.483   2.659   6.535  0.7177 -0.9028  0.5174
    1PA     H3S 1491   2.493   2.555   6.390  2.4262  1.1730  0.9729
    1PA     C12 1492   2.303   2.649   6.411  0.0328  0.7296 -0.1055
    1PA     H2R 1493   2.328   2.727   6.338 -0.3466 -1.0346 -2.1760
    1PA     H2S 1494   2.241   2.576   6.359  0.3149  0.6786 -0.3761
    1PC     C11 1495   2.216   2.717   6.518  0.6435  0.1323  0.8003
    1PC     O12 1496   2.248   2.816   6.578 -0.1055 -0.1589  0.2411
    1PC     O11 1497   2.102   2.647   6.546  0.7129  0.3518  0.7621
    1PC      C1 1498   2.014   2.687   6.657 -0.4616  0.0117  0.6518
    1PC      HR 1499   2.078   2.698   6.745  1.8323 -1.2027 -0.8324
    1PC      HS 1500   1.975   2.786   6.631 -1.6206 -0.1413  1.7570
    1PC      C2 1501   1.909   2.583   6.679 -0.0364 -0.0693  0.3629
    1PC      HX 1502   1.843   2.611   6.760  0.2147  1.0680  0.1875
    1PC      C3 1503   1.971   2.443   6.713  0.0563 -0.0194 -0.1937
    1PC      HA 1504   1.891   2.372   6.735 -0.8516  0.1340 -2.7893
    1PC      HB 1505   2.027   2.403   6.627  1.1241 -0.1020  0.5264
    1PC     O31 1506   2.073   2.454   6.819 -0.1560 -0.0854  0.1685
    1PC     P31 1507   2.045   2.407   6.971  0.2737 -0.4833 -0.1682
    1PC     O32 1508   2.119   2.271   7.002  0.3507 -0.6234  0.4900
    1PC     C31 1509   2.058   2.150   6.974 -0.3549  0.1915  0.2641
    1PC     H1A 1510   1.959   2.143   7.019 -0.9113  0.1616 -0.9458
    1PC     H1B 1511   2.057   2.160   6.865  1.7703 -0.4202  0.1616
    1PC     C32 1512   2.159   2.030   7.000 -0.2640 -0.1233 -0.2398
    1PC     H2A 1513   2.124   1.939   6.949 -0.9452 -0.3133  0.5488
    1PC     H2B 1514   2.262   2.055   6.976 -0.2826 -2.2688 -2.7940
    1PC     N31 1515   2.150   1.993   7.152  0.0096  0.1910 -0.1031
    1PC     C33 1516   2.208   2.101   7.237  0.0940 -0.2405 -0.2932
    1PC     H3A 1517   2.154   2.193   7.215  1.5617  1.0610  1.3056
    1PC     H3B 1518   2.193   2.074   7.342  0.8097 -0.7646 -0.3161
    1PC     H3C 1519   2.314   2.107   7.209 -0.0172  0.7679 -0.5286
    1PC     C34 1520   2.017   1.961   7.199 -0.1102 -0.1552 -0.3789
    1PC     H4A 1521   2.032   1.930   7.302 -0.5432  1.8101  0.2994
    1PC     H4B 1522   1.959   2.054   7.198 -1.7981 -1.1660  1.6116
    1PC     H4C 1523   1.966   1.884   7.142  0.6367 -0.1363 -1.0946
    1PC     C35 1524   2.221   1.871   7.168 -0.2974  0.0734 -0.4608
    1PC     H5A 1525   2.230   1.842   7.273  1.6284 -1.4308 -0.9927
    1PC     H5B 1526   2.321   1.880   7.126  0.7550 -1.9385  1.4773
    1PC     H5C 1527   2.165   1.788   7.123 -0.3044 -0.4211  0.4447
    1PC     O33 1528   2.094   2.513   7.061 -0.1154 -0.8565 -0.2226
    1PC     O34 1529   1.897   2.382   6.988 -0.6465  0.7640 -0.9299
    1PC     O21 1530   1.839   2.567   6.555 -0.1122  0.4591 -0.2138
    1PC     C21 1531   1.730   2.647   6.532  1.5029  1.2176 -0.2568
    1PC     O22 1532   1.694   2.725   6.613 -0.4596  0.3717 -0.3468
    1OL     C12 1533   1.673   2.637   6.394  0.1660 -0.1484 -0.3437
    1OL     H2R 1534   1.600   2.555   6.390  0.8482 -0.6705 -2.3541
    1OL     H2S 1535   1.754   2.602   6.330 -1.3242 -3.3835 -0.5908
    1OL     C13 1536   1.611   2.770   6.340 -0.5461  0.7752 -0.9222
    1OL     H3R 1537   1.682   2.851   6.359  0.6779 -0.6843  0.9303
    1OL     H3S 1538   1.526   2.796   6.405  0.5360  4.1491 -0.7495
    1OL     C14 1539   1.578   2.767   6.188 -0.2713 -0.8568 -0.1843
    1OL     H4R 1540   1.513   2.683   6.164 -1.1972 -0.2947  0.3651
    1OL     H4S 1541   1.666   2.751   6.125 -0.1490 -0.5683 -0.0856
    1OL     C15 1542   1.498   2.890   6.142  0.5074  0.8486  0.3568
    1OL     H5R 1543   1.571   2.968   6.121  1.5018 -0.0324  0.4455
    1OL     H5S 1544   1.431   2.922   6.222 -1.4771  1.3957 -1.4696
    1OL     C16 1545   1.423   2.882   6.009  0.6260  0.0090  0.1589
    1OL     H6R 1546   1.346   2.805   6.007 -0.7963  1.3208  2.0558
    1OL     H6S 1547   1.496   2.867   5.930  1.0661  1.2855  0.3144
    1OL     C17 1548   1.351   3.014   5.979 -0.6084  0.2627  0.0992
    1OL     H7R 1549   1.421   3.098   5.975  0.1042 -0.3092  0.5823
    1OL     H7S 1550   1.280   3.042   6.058 -3.3741 -3.3447 -0.9753
    1OL     C18 1551   1.283   3.006   5.843  0.0176 -0.4785 -0.1407
    1OL     H8R 1552   1.195   2.942   5.841 -1.8521  2.0185 -0.4806
    1OL     H8S 1553   1.354   2.968   5.770 -0.0516 -1.5771  0.3582
    1OL     C19 1554   1.217   3.136   5.812 -0.4544  0.3725 -0.2724
    1OL     H9R 1555   1.192   3.197   5.899  0.2523  1.2547 -0.6824
    1OL    C110 1556   1.203   3.178   5.690  0.4350 -0.5870 -0.0668
    1OL    H10R 1557   1.173   3.280   5.668  0.4730 -0.2443  1.4046
    1OL    C111 1558   1.228   3.092   5.576  0.1234  0.1396 -0.7211
    1OL    H11R 1559   1.197   2.994   5.612  0.0448  0.7769  0.9767
    1OL    H11S 1560   1.327   3.099   5.532  0.4360 -1.9529 -0.4016
    1OL    C112 1561   1.126   3.120   5.470  0.5229 -0.1386  0.2737
    1OL    H12R 1562   1.132   3.225   5.439  2.0028 -0.3489 -0.1740
    1OL    H12S 1563   1.031   3.104   5.521  0.1199 -2.0071 -1.0275
    1OL    C113 1564   1.155   3.026   5.355 -0.3062 -0.2841 -0.7642
    1OL    H13R 1565   1.151   2.921   5.385 -0.0415 -0.3122 -0.8285
    1OL    H13S 1566   1.250   3.056   5.312  0.2649 -0.0519  0.6230
    1OL    C114 1567   1.049   3.030   5.251 -0.3732  1.1709  0.1314
    1OL    H14R 1568   0.957   2.996   5.299  1.3233 -2.1379  1.2067
    1OL    H14S 1569   1.079   2.958   5.175 -0.7499  0.1747  0.9081
    1OL    C115 1570   1.040   3.174   5.190 -0.2881 -0.1072  0.0252
    1OL    H15R 1571   1.138   3.216   5.164 -0.1309 -0.5058 -0.0367
    1OL    H15S 1572   0.995   3.234   5.269 -1.2445 -1.0833  0.2320
    1OL    C116 1573   0.962   3.182   5.052  0.3405  0.5664  0.1197
    1OL    H16R 1574   0.861   3.144   5.071  0.0614  0.6952 -1.0630
    1OL    H16S 1575   1.011   3.117   4.979 -1.2997 -0.1402 -0.3651
    1OL    C117 1576   0.963   3.328   4.993 -0.3633 -0.3878  0.3791
    1OL    H17R 1577   1.058   3.382   4.990 -0.9487  0.8414  2.7490
    1OL    H17S 1578   0.903   3.382   5.066 -0.2272 -2.8470  2.3857
    1OL    C118 1579   0.916   3.326   4.847  0.3173 -0.4255  0.5398
    1OL    H18R 1580   0.978   3.261   4.786 -0.4034  1.3466 -2.1267
    1OL    H18S 1581   0.934   3.424   4.804  1.3073  0.0400  1.9753
    1OL    H18T 1582   0.817   3.280   4.839 -0.8435  2.1315 -0.2461
    1PA    C116 1583   3.169   0.604   5.901 -0.0017  0.5926  0.4251
    1PA    H16R 1584   3.126   0.626   6.000  1.2665  1.9767  0.6921
    1PA    H16S 1585   3.278   0.606   5.893 -0.1583  0.7579 -1.8364
    1PA    H16T 1586   3.130   0.503   5.889  0.8298 -0.0493  2.7881
    1PA    C115 1587   3.099   0.711   5.804 -0.2487 -0.9091 -0.2751
    1PA    H15R 1588   3.124   0.815   5.825 -3.1544  0.2789 -2.3819
    1PA    H15S 1589   3.131   0.686   5.702 -0.3313 -0.5346 -0.3960
    1PA    C114 1590   2.946   0.694   5.812 -0.5253 -0.4003  0.9336
    1PA    H14R 1591   2.930   0.592   5.778 -2.6330  0.6886 -1.5367
    1PA    H14S 1592   2.915   0.707   5.916 -2.8017  1.8273  0.0286
    1PA    C113 1593   2.882   0.804   5.727 -0.4770  0.2652 -0.0373
    1PA    H13R 1594   2.906   0.902   5.770 -2.2719  0.8500 -0.2945
    1PA    H13S 1595   2.934   0.795   5.632 -1.6611 -1.4766 -0.5470
    1PA    C112 1596   2.731   0.780   5.707  0.7120 -0.2846 -0.4502
    1PA    H12R 1597   2.683   0.857   5.645 -0.2826  1.0243  1.8873
    1PA    H12S 1598   2.719   0.690   5.646 -0.4005  0.1027 -0.8180
    1PA    C111 1599   2.643   0.761   5.832  0.7128  0.0188  0.5055
    1PA    H11R 1600   2.668   0.667   5.881 -2.7654 -1.3408 -0.1717
    1PA    H11S 1601   2.660   0.846   5.899 -0.6441  1.0737 -0.4518
    1PA    C110 1602   2.489   0.765   5.798 -0.4823 -0.2583 -0.0135
    1PA    H10R 1603   2.461   0.848   5.734 -2.8328 -0.5709  0.5573
    1PA    H10S 1604   2.460   0.677   5.740  1.1679 -1.2703  0.6647
    1PA     C19 1605   2.409   0.791   5.930 -0.1293  0.2973  0.4928
    1PA     H9R 1606   2.416   0.894   5.965 -0.7879  0.3365  0.5110
    1PA     H9S 1607   2.304   0.773   5.906 -0.1658  1.0921  0.0715
    1PA     C18 1608   2.427   0.692   6.052  0.3678  0.0236  0.0748
    1PA     H8R 1609   2.333   0.705   6.107 -0.0035  0.2450 -0.6026
    1PA     H8S 1610   2.428   0.589   6.016 -0.0372 -0.5457  1.6594
    1PA     C17 1611   2.539   0.706   6.154  0.0134 -0.0053  0.3122
    1PA     H7R 1612   2.634   0.677   6.110 -0.4088  0.9085 -1.2127
    1PA     H7S 1613   2.551   0.810   6.183  2.4109  0.0394 -0.7986
    1PA     C16 1614   2.515   0.627   6.284 -0.7178  0.0557  0.1198
    1PA     H6R 1615   2.589   0.657   6.357 -1.4651  2.6608 -0.1463
    1PA     H6S 1616   2.418   0.656   6.325 -1.7587 -1.6928 -1.0263
    1PA     C15 1617   2.518   0.467   6.272  0.2145  0.2314 -0.6357
    1PA     H5R 1618   2.473   0.442   6.175  0.1228 -1.3322 -0.2047
    1PA     H5S 1619   2.622   0.435   6.273  1.4839  3.9874 -2.0672
    1PA     C14 1620   2.440   0.404   6.388  0.3868  0.0684 -0.3814
    1PA     H4R 1621   2.492   0.425   6.481  0.8322 -1.3000 -0.2990
    1PA     H4S 1622   2.342   0.452   6.394 -0.2293 -1.1056 -0.7176
    1PA     C13 1623   2.427   0.253   6.383 -0.4974 -0.2357  0.3615
    1PA     H3R 1624   2.385   0.209   6.292 -0.0192 -1.1851  0.5934
    1PA     H3S 1625   2.528   0.211   6.392  1.0525  2.5360 -2.8677
    1PA     C12 1626   2.336   0.204   6.499 -0.8178  0.8265  0.0949
    1PA     H2R 1627   2.231   0.234   6.495 -1.2895 -0.8435 -0.6862
    1PA     H2S 1628   2.335   0.095   6.494 -0.6021  0.8941 -1.6335
    1PC     C11 1629   2.400   0.248   6.624 -0.0621 -0.1962 -0.0511
    1PC     O12 1630   2.513   0.220   6.650 -0.6933  0.1072 -0.3507
    1PC     O11 1631   2.320   0.316   6.706  0.4254  0.3085 -0.8220
    1PC      C1 1632   2.372   0.313   6.841  0.2681  0.3818 -0.4290
    1PC      HR 1633   2.289   0.339   6.908  1.5189 -2.0169  2.1733
    1PC      HS 1634   2.398   0.214   6.881 -1.4518  0.4199  0.8605
    1PC      C2 1635   2.494   0.417   6.863  0.7632  0.4552 -0.6049
    1PC      HX 1636   2.558   0.415   6.775 -0.0556 -0.5908 -1.1853
    1PC      C3 1637   2.575   0.385   6.988 -0.1192 -0.0848 -1.0675
    1PC      HA 1638   2.642   0.298   6.980 -0.3087 -0.5737  1.9419
    1PC      HB 1639   2.637   0.470   7.017  1.0286 -1.6828  1.3353
    1PC     O31 1640   2.497   0.360   7.107  0.2899 -0.1821  0.3011
    1PC     P31 1641   2.452   0.469   7.220  0.2135  0.3049 -0.0356
    1PC     O32 1642   2.313   0.523   7.168 -0.4870  0.9229  0.0730
    1PC     C31 1643   2.194   0.444   7.197  0.7900  1.1816  0.2129
    1PC     H1A 1644   2.217   0.338   7.183  0.0602  1.1469 -0.8021
    1PC     H1B 1645   2.145   0.464   7.293 -1.9224  1.8918 -1.2611
    1PC     C32 1646   2.096   0.481   7.086 -0.0188  0.4390  0.5352
    1PC     H2A 1647   2.154   0.483   6.993 -0.7396  0.0993  0.0719
    1PC     H2B 1648   2.014   0.412   7.062  0.0981  0.7952 -0.9273
    1PC     N31 1649   2.022   0.616   7.085  0.0811 -0.7007  0.0934
    1PC     C33 1650   2.123   0.723   7.079 -0.2002  0.0307  0.3865
    1PC     H3A 1651   2.201   0.707   7.154  0.6249  1.0005 -0.2494
    1PC     H3B 1652   2.167   0.716   6.979  0.4163 -0.9403  0.7119
    1PC     H3C 1653   2.077   0.821   7.092  0.4072  0.4061 -0.2350
    1PC     C34 1654   1.914   0.628   6.967 -0.2649 -0.1951 -0.0584
    1PC     H4A 1655   1.864   0.724   6.956 -2.1499 -0.9627  1.3498
    1PC     H4B 1656   1.966   0.609   6.873 -1.4297 -1.1996 -0.5237
    1PC     H4C 1657   1.840   0.549   6.987 -2.1368  1.3871 -0.5701
    1PC     C35 1658   1.958   0.632   7.220 -0.0325  0.0678  0.2912
    1PC     H5A 1659   1.893   0.720   7.215 -0.3333 -0.2322 -1.5153
    1PC     H5B 1660   2.037   0.636   7.294  1.1698 -1.4198 -0.8921
    1PC     H5C 1661   1.896   0.542   7.226 -0.9035  0.5508 -1.0463
    1PC     O33 1662   2.422   0.394   7.348  0.0149 -0.2505  0.2686
    1PC     O34 1663   2.544   0.582   7.221 -0.3143  0.4199  0.0246
    1PC     O21 1664   2.426   0.547   6.875 -0.6095  0.0023  0.1163
    1PC     C21 1665   2.473   0.649   6.798  0.2387 -0.0953 -0.5733
    1PC     O22 1666   2.574   0.653   6.736  0.1997 -0.5407  0.3867
    1OL     C12 1667   2.375   0.763   6.807  0.1625 -0.3426  0.1638
    1OL     H2R 1668   2.417   0.837   6.739  1.0128 -2.6102 -1.8479
    1OL     H2S 1669   2.376   0.789   6.913  2.6205 -0.8876  0.3147
    1OL     C13 1670   2.237   0.715   6.756  0.9876  0.2033  0.1593
    1OL     H3R 1671   2.160   0.792   6.749  0.4832 -0.3353 -0.2878
    1OL     H3S 1672   2.194   0.646   6.829  0.8146 -0.2146 -0.3325
    1OL     C14 1673   2.249   0.657   6.610 -0.4485 -0.0317  0.6957
    1OL     H4R 1674   2.318   0.573   6.607  0.6364  0.7477  2.7607
    1OL     H4S 1675   2.289   0.734   6.543 -2.5040  1.0841  0.7269
    1OL     C15 1676   2.112   0.612   6.550 -0.2005 -0.1778 -0.3536
    1OL     H5R 1677   2.128   0.616   6.442 -0.3277  0.5331 -0.3492
    1OL     H5S 1678   2.044   0.695   6.570  0.9697  0.5973  0.4843
    1OL     C16 1679   2.058   0.480   6.604 -0.0298  0.3676  0.0717
    1OL     H6R 1680   2.048   0.483   6.712 -2.0159  1.2850 -0.1236
    1OL     H6S 1681   2.130   0.403   6.576  1.1799  1.8181 -0.8551
    1OL     C17 1682   1.916   0.456   6.551  0.6259  0.1488  0.0104
    1OL     H7R 1683   1.855   0.542   6.581  0.7515  0.3241 -0.2395
    1OL     H7S 1684   1.876   0.363   6.593  1.0490 -0.3550 -0.6940
    1OL     C18 1685   1.908   0.435   6.399  0.8968 -0.1127 -0.3379
    1OL     H8R 1686   1.919   0.529   6.345  2.3578 -0.3765 -0.5276
    1OL     H8S 1687   1.811   0.391   6.374  0.0339  1.1324  0.7646
    1OL     C19 1688   1.998   0.325   6.361  0.3298  0.2336 -0.1894
    1OL     H9R 1689   2.024   0.263   6.446  0.9806  1.4395  0.5057
    1OL    C110 1690   2.055   0.307   6.237 -0.0584  0.5482 -0.1708
    1OL    H10R 1691   2.123   0.224   6.218 -0.9279  0.1228 -1.4926
    1OL    C111 1692   2.018   0.386   6.114  0.6110  0.8570 -0.3237
    1OL    H11R 1693   2.059   0.321   6.037 -1.5659 -1.1442  0.1422
    1OL    H11S 1694   2.086   0.471   6.103 -0.7280  1.6840 -2.3583
    1OL    C112 1695   1.871   0.424   6.088 -0.3760  0.3087 -0.2268
    1OL    H12R 1696   1.838   0.496   6.163  0.1229  1.0613 -0.7114
    1OL    H12S 1697   1.804   0.343   6.116  0.1349 -0.7120 -1.8915
    1OL    C113 1698   1.846   0.481   5.940 -0.1307 -0.2471  0.3992
    1OL    H13R 1699   1.747   0.529   5.940  0.6961  1.5324 -1.4138
    1OL    H13S 1700   1.857   0.406   5.862  0.1471  0.2411 -0.0300
    1OL    C114 1701   1.945   0.598   5.908 -0.3897  0.0191  0.4843
    1OL    H14R 1702   2.042   0.562   5.875 -0.4537  0.9808 -0.7886
    1OL    H14S 1703   1.955   0.663   5.995  2.2869 -0.3180  0.4569
    1OL    C115 1704   1.897   0.699   5.809 -0.3731 -0.5476 -0.1390
    1OL    H15R 1705   1.979   0.771   5.806 -1.2576  0.5016  0.8618
    1OL    H15S 1706   1.816   0.756   5.853  0.8171 -0.6760  2.2687
    1OL    C116 1707   1.867   0.640   5.667 -0.7779  0.0455  0.1205
    1OL    H16R 1708   1.847   0.727   5.604 -0.9619  0.3437  0.5849
    1OL    H16S 1709   1.776   0.581   5.660 -1.2436  0.7965 -0.2171
    1OL    C117 1710   1.983   0.558   5.601  0.5470  0.3908  0.2973
    1OL    H17R 1711   1.996   0.464   5.656 -0.7474  0.8654  1.4486
    1OL    H17S 1712   2.076   0.614   5.587 -0.0033  1.3649  0.4898
    1OL    C118 1713   1.955   0.528   5.458 -0.2801 -0.2155  0.2273
    1OL    H18R 1714   2.042   0.487   5.407 -0.3246 -0.3963  0.2995
    1OL    H18S 1715   1.934   0.625   5.411 -1.8948 -0.4078  0.5176
    1OL    H18T 1716   1.870   0.460   5.456 -1.4632  1.2032  1.1861
    1PA    C116 1717   4.617   2.537   5.385  0.2852 -0.5074 -0.0890
    1PA    H16R 1718   4.516   2.531   5.425 -0.0089  1.2503 -0.5344
    1PA    H16S 1719   4.623   2.513   5.279 -2.0031 -0.4549 -0.2527
    1PA    H16T 1720   4.647   2.640   5.404 -0.7533 -0.1551 -0.3631
    1PA    C115 1721   4.711   2.450   5.465  0.0077 -0.5771  0.0469
    1PA    H15R 1722   4.795   2.438   5.395  1.1156  0.6746  1.1238
    1PA    H15S 1723   4.748   2.507   5.550  2.3037 -1.0386 -0.5959
    1PA    C114 1724   4.652   2.317   5.508 -0.2694  0.0076  0.2973
    1PA    H14R 1725   4.578   2.340   5.585 -0.6698  0.9613 -0.3613
    1PA    H14S 1726   4.606   2.262   5.425 -1.4923  2.2884 -0.5825
    1PA    C113 1727   4.760   2.225   5.572  0.0402 -0.4749 -0.4923
    1PA    H13R 1728   4.841   2.215   5.500 -0.3747 -0.3308 -0.9773
    1PA    H13S 1729   4.792   2.271   5.666 -0.2517 -1.5999  0.1598
    1PA    C112 1730   4.714   2.083   5.608 -0.1453  0.3051  0.1870
    1PA    H12R 1731   4.698   2.020   5.520 -0.8191  1.7479 -0.7355
    1PA    H12S 1732   4.786   2.024   5.666  1.2812  0.7037 -1.1473
    1PA    C111 1733   4.588   2.087   5.701  0.7761  0.1097 -0.5472
    1PA    H11R 1734   4.506   2.126   5.639 -1.2610 -1.1396  1.2983
    1PA    H11S 1735   4.561   1.983   5.720  1.9633  0.3980  3.1791
    1PA    C110 1736   4.607   2.157   5.843 -0.5342 -0.6858 -0.8225
    1PA    H10R 1737   4.629   2.262   5.825 -1.2887 -0.7164 -2.0496
    1PA    H10S 1738   4.513   2.151   5.898 -1.2359  1.0192 -1.8063
    1PA     C19 1739   4.713   2.091   5.936 -0.1044  0.3871  0.0548
    1PA     H9R 1740   4.813   2.107   5.895  0.3950 -2.1841  0.2081
    1PA     H9S 1741   4.724   2.146   6.031 -2.3994  0.6870  0.1680
    1PA     C18 1742   4.688   1.947   5.973 -0.0166 -0.6080 -0.3397
    1PA     H8R 1743   4.679   1.886   5.882 -2.3510  1.2891 -1.4400
    1PA     H8S 1744   4.776   1.913   6.028  1.9826  0.4852 -2.7888
    1PA     C17 1745   4.561   1.911   6.055 -0.0822  0.6259  0.4843
    1PA     H7R 1746   4.559   1.957   6.153 -0.8758 -0.7431  1.1313
    1PA     H7S 1747   4.476   1.942   5.994  0.1902 -0.5669 -0.5313
    1PA     C16 1748   4.563   1.753   6.066 -0.1877 -0.1189 -0.2497
    1PA     H6R 1749   4.553   1.706   5.968 -0.0704 -0.8850  0.0996
    1PA     H6S 1750   4.652   1.715   6.117 -0.8681 -1.4209 -0.0061
    1PA     C15 1751   4.456   1.680   6.154  0.1000  0.0194 -0.4029
    1PA     H5R 1752   4.358   1.704   6.113  1.0845  2.6970 -1.3151
    1PA     H5S 1753   4.464   1.574   6.128 -0.3198 -0.2168  0.4010
    1PA     C14 1754   4.459   1.706   6.301 -0.4038  0.0423  0.0477
    1PA     H4R 1755   4.448   1.810   6.331  0.0882  0.0084  0.3352
    1PA     H4S 1756   4.380   1.649   6.351  0.0078 -1.7042 -1.2342
    1PA     C13 1757   4.582   1.632   6.361  0.0461 -0.4467 -0.8013
    1PA     H3R 1758   4.596   1.533   6.317  2.0794 -0.9796  0.9572
    1PA     H3S 1759   4.673   1.688   6.338  1.4359 -1.0569  2.8984
    1PA     C12 1760   4.566   1.611   6.514 -0.0787 -0.7353 -0.5644
    1PA     H2R 1761   4.520   1.702   6.554 -0.8049 -1.1022 -0.5505
    1PA     H2S 1762   4.494   1.534   6.544  0.4847 -0.6716  0.9628
    1PC     C11 1763   4.699   1.584   6.575 -0.7329  0.7481  0.2068
    1PC     O12 1764   4.800   1.580   6.512 -0.6506  0.8784  0.2155
    1PC     O11 1765   4.696   1.562   6.708 -0.1672 -0.5630 -0.4497
    1PC      C1 1766   4.817   1.603   6.785 -0.0504  0.3964 -0.0320
    1PC      HR 1767   4.812   1.557   6.884 -0.1281  1.6484  0.5679
    1PC      HS 1768   4.904   1.558   6.736 -0.1280 -1.2452  1.3083
    1PC      C2 1769   4.831   1.753   6.810  0.4287 -0.0661 -0.2005
    1PC      HX 1770   4.935   1.771   6.837  0.6036  2.0050 -2.0784
    1PC      C3 1771   4.726   1.801   6.914 -0.3219  0.3175 -0.4438
    1PC      HA 1772   4.750   1.743   7.003  0.8759 -1.5832 -1.9528
    1PC      HB 1773   4.760   1.901   6.939 -0.4696  0.0168  0.9776
    1PC     O31 1774   4.582   1.787   6.877  0.1754 -0.7025  0.2598
    1PC     P31 1775   4.467   1.826   6.979  0.1435 -0.0879 -0.3837
    1PC     O32 1776   4.440   1.976   6.943  0.3744 -0.2049 -0.1222
    1PC     C31 1777   4.519   2.082   7.005 -0.4601 -0.1864 -0.7630
    1PC     H1A 1778   4.565   2.052   7.099  0.2820  0.9928 -0.7339
    1PC     H1B 1779   4.599   2.119   6.940  0.6596  0.5004  0.9788
    1PC     C32 1780   4.415   2.189   7.044 -0.4402 -0.2224  0.1095
    1PC     H2A 1781   4.349   2.138   7.115 -0.8514 -1.0691 -0.8811
    1PC     H2B 1782   4.474   2.268   7.091  1.3927 -1.4463 -0.1075
    1PC     N31 1783   4.333   2.253   6.937  0.0983  0.7600  0.1381
    1PC     C33 1784   4.418   2.297   6.821 -0.0681  0.5951  0.5988
    1PC     H3A 1785   4.352   2.341   6.746  0.0394  1.1693  0.8392
    1PC     H3B 1786   4.487   2.378   6.845  1.3043 -0.8368  1.6016
    1PC     H3C 1787   4.473   2.211   6.780  0.3451  0.7609  0.7979
    1PC     C34 1788   4.217   2.179   6.882 -0.3685 -0.7177  0.5229
    1PC     H4A 1789   4.155   2.155   6.969 -3.4804 -1.2888 -1.7684
    1PC     H4B 1790   4.164   2.237   6.806 -0.3753  0.4733  1.4314
    1PC     H4C 1791   4.257   2.087   6.839  2.1520  0.5648  0.0585
    1PC     C35 1792   4.279   2.377   7.000  1.0134 -0.6076 -0.0849
    1PC     H5A 1793   4.368   2.429   7.036 -0.2443  1.9750 -0.5948
    1PC     H5B 1794   4.217   2.357   7.088  1.1978 -1.2122 -0.0919
    1PC     H5C 1795   4.217   2.429   6.926  1.8712  1.4226  0.5906
    1PC     O33 1796   4.346   1.747   6.948  0.2708  0.3335 -0.0235
    1PC     O34 1797   4.527   1.814   7.112  0.3952 -0.1980  0.1798
    1PC     O21 1798   4.812   1.816   6.682  0.8337  0.4557  0.3750
    1PC     C21 1799   4.856   1.939   6.662 -0.0497  0.7921 -0.3479
    1PC     O22 1800   4.907   2.003   6.748  0.1550  0.3360 -0.4873
    1OL     C12 1801   4.842   1.993   6.524 -0.0097 -0.6754  0.4548
    1OL     H2R 1802   4.903   1.924   6.466 -0.8554 -0.1171 -1.1206
    1OL     H2S 1803   4.882   2.094   6.522 -0.1856 -0.6301 -1.6692
    1OL     C13 1804   4.704   2.006   6.473  0.7829  0.0252  0.1273
    1OL     H3R 1805   4.680   1.900   6.480 -1.2028  0.5118  1.0556
    1OL     H3S 1806   4.703   2.023   6.365  1.0984  0.6226  0.2196
    1OL     C14 1807   4.608   2.107   6.539 -0.0380  0.7671  0.1714
    1OL     H4R 1808   4.642   2.114   6.642  1.5290 -2.9009 -0.0594
    1OL     H4S 1809   4.505   2.072   6.532  0.3264  0.1467 -3.4311
    1OL     C15 1810   4.626   2.254   6.489 -0.1954  0.5690 -0.4859
    1OL     H5R 1811   4.725   2.289   6.518  0.6244 -1.6776 -0.4517
    1OL     H5S 1812   4.550   2.307   6.546  0.9427 -0.4331  2.0471
    1OL     C16 1813   4.602   2.272   6.336 -0.0112  0.7951  0.0929
    1OL     H6R 1814   4.502   2.258   6.295  0.2289 -0.1643 -0.1713
    1OL     H6S 1815   4.675   2.207   6.287  1.1452  1.1027  1.3692
    1OL     C17 1816   4.641   2.406   6.296  0.4080 -0.4976  0.1383
    1OL     H7R 1817   4.742   2.427   6.331  0.0370 -1.7600  2.0183
    1OL     H7S 1818   4.586   2.475   6.361 -0.4386 -1.0521  0.0164
    1OL     C18 1819   4.617   2.454   6.149 -0.0454 -0.3939 -0.2068
    1OL     H8R 1820   4.690   2.414   6.079  0.3994  1.0711 -0.6092
    1OL     H8S 1821   4.630   2.563   6.145 -0.6030 -0.3644 -1.2083
    1OL     C19 1822   4.473   2.432   6.101  0.2273 -0.1319  0.0785
    1OL     H9R 1823   4.409   2.365   6.157 -1.7858  2.3152  0.8271
    1OL    C110 1824   4.432   2.478   5.980  0.4547 -0.1825  0.4997
    1OL    H10R 1825   4.336   2.446   5.942  1.0128  0.1447 -1.2045
    1OL    C111 1826   4.508   2.569   5.885  0.3950 -0.0095  0.2596
    1OL    H11R 1827   4.614   2.543   5.893  0.3371  0.6450  3.7970
    1OL    H11S 1828   4.496   2.675   5.906 -1.3066 -0.3398  1.0534
    1OL    C112 1829   4.460   2.536   5.743  0.3561  0.2994  0.5438
    1OL    H12R 1830   4.472   2.428   5.737 -2.1961 -0.0198  0.8054
    1OL    H12S 1831   4.534   2.581   5.675 -2.2565 -1.4561 -3.6349
    1OL    C113 1832   4.319   2.595   5.716 -0.5559 -0.3617 -0.0283
    1OL    H13R 1833   4.309   2.699   5.749  2.3891  0.2987 -1.0212
    1OL    H13S 1834   4.248   2.538   5.776 -1.7693  0.9920 -0.1762
    1OL    C114 1835   4.267   2.594   5.578 -0.3503  0.4460  0.5613
    1OL    H14R 1836   4.160   2.570   5.577 -0.4207  0.7076  1.7287
    1OL    H14S 1837   4.315   2.516   5.519 -0.1722  1.6377 -0.9165
    1OL    C115 1838   4.296   2.713   5.490 -0.1024 -0.7464 -0.5503
    1OL    H15R 1839   4.405   2.723   5.483 -0.2737  1.8820 -0.0800
    1OL    H15S 1840   4.254   2.796   5.547 -1.2518 -0.9742 -1.0439
    1OL    C116 1841   4.231   2.716   5.353 -0.2005  0.3273 -0.1528
    1OL    H16R 1842   4.248   2.810   5.300 -3.1835  1.1735  0.2714
    1OL    H16S 1843   4.123   2.721   5.367 -0.4184  0.0258 -1.6590
    1OL    C117 1844   4.256   2.595   5.259  0.8833 -0.2768 -0.3885
    1OL    H17R 1845   4.203   2.508   5.299 -0.4813  0.6750 -0.1012
    1OL    H17S 1846   4.364   2.586   5.244  0.8933 -1.6947  0.4253
    1OL    C118 1847   4.193   2.631   5.120 -0.1165  0.2867  0.6503
    1OL    H18R 1848   4.231   2.579   5.032 -0.1427 -0.6015  1.1607
    1OL    H18S 1849   4.193   2.739   5.101  0.2048  0.2214  0.2585
    1OL    H18T 1850   4.087   2.605   5.119 -0.5401  1.9422 -0.7278
    1PA    C116 1851   4.245   0.373   5.589  0.9834 -0.1362 -0.0011
    1PA    H16R 1852   4.320   0.325   5.526  0.2227 -2.0343  0.4904
    1PA    H16S 1853   4.226   0.470   5.542 -1.4249 -0.4866  0.2049
    1PA    H16T 1854   4.164   0.302   5.573  0.3428  0.2422  1.5228
    1PA    C115 1855   4.279   0.382   5.743 -0.0548  0.2794 -0.1085
    1PA    H15R 1856   4.290   0.280   5.779 -0.4287  0.1633 -0.3095
    1PA    H15S 1857   4.369   0.440   5.764 -0.8661  1.6549 -0.2886
    1PA    C114 1858   4.157   0.443   5.817 -0.5027  0.5664  0.1696
    1PA    H14R 1859   4.062   0.410   5.774  0.3780 -1.6131 -0.1492
    1PA    H14S 1860   4.169   0.405   5.918 -2.9440 -1.2724 -0.1781
    1PA    C113 1861   4.160   0.594   5.814  0.1589 -0.2351  0.4774
    1PA    H13R 1862   4.254   0.636   5.853  1.2100 -1.7444 -0.3607
    1PA    H13S 1863   4.139   0.635   5.716 -0.2152  0.6421  0.9208
    1PA    C112 1864   4.052   0.642   5.902 -0.6267 -0.4674  0.4337
    1PA    H12R 1865   4.052   0.751   5.894  2.0068 -0.4287  0.4170
    1PA    H12S 1866   3.963   0.605   5.850 -0.4460 -0.0583 -0.1719
    1PA    C111 1867   4.051   0.595   6.041 -0.2163 -0.1638  0.6655
    1PA    H11R 1868   4.034   0.487   6.037  1.8550 -0.4858 -0.1862
    1PA    H11S 1869   4.149   0.614   6.088  0.7522 -2.1070 -0.5117
    1PA    C110 1870   3.944   0.664   6.129 -0.5241  0.0627  0.3845
    1PA    H10R 1871   3.931   0.764   6.087  0.0735 -1.3476 -3.3436
    1PA    H10S 1872   3.849   0.614   6.111 -0.0257 -0.4293 -0.9664
    1PA     C19 1873   3.973   0.659   6.278 -0.4345  0.2712  0.6052
    1PA     H9R 1874   3.971   0.559   6.322  0.6235  1.2650  2.9731
    1PA     H9S 1875   4.076   0.694   6.292  0.3108 -1.1514 -1.1166
    1PA     C18 1876   3.873   0.755   6.355 -0.1068 -0.2694  0.6204
    1PA     H8R 1877   3.912   0.774   6.456  0.9743  0.3274  0.0952
    1PA     H8S 1878   3.863   0.851   6.304  1.3582  0.9845  2.5788
    1PA     C17 1879   3.730   0.696   6.372  0.6725  0.0249  0.4901
    1PA     H7R 1880   3.689   0.673   6.273  1.2803  1.3125 -0.0764
    1PA     H7S 1881   3.737   0.600   6.424 -3.9549 -1.3966 -1.2328
    1PA     C16 1882   3.632   0.781   6.460 -0.3282  0.3306 -0.1012
    1PA     H6R 1883   3.662   0.777   6.565 -0.4218  0.0437 -0.0826
    1PA     H6S 1884   3.633   0.880   6.414 -0.3782 -0.3477 -1.5936
    1PA     C15 1885   3.487   0.720   6.460 -0.3478 -0.7713 -0.0495
    1PA     H5R 1886   3.448   0.719   6.359 -0.1569 -4.6475 -0.1406
    1PA     H5S 1887   3.492   0.615   6.487  0.2710 -1.1966 -1.7979
    1PA     C14 1888   3.386   0.808   6.536  0.0694 -0.2051 -0.3922
    1PA     H4R 1889   3.291   0.755   6.545 -0.6056  1.2777  1.5755
    1PA     H4S 1890   3.423   0.814   6.638 -0.7824  2.1023 -0.1855
    1PA     C13 1891   3.371   0.944   6.461  0.6309 -0.6836  0.0929
    1PA     H3R 1892   3.467   0.992   6.441 -0.7290  1.3088 -1.9508
    1PA     H3S 1893   3.344   0.927   6.356  0.6910 -0.9385  0.1195
    1PA     C12 1894   3.264   1.038   6.525  0.6023  0.3196  0.0549
    1PA     H2R 1895   3.256   1.134   6.474  0.6167 -0.1272 -0.7927
    1PA     H2S 1896   3.166   0.991   6.516  0.7160 -0.1604  1.2569
    1PC     C11 1897   3.284   1.075   6.665  0.0664 -0.6045  0.0942
    1PC     O12 1898   3.395   1.103   6.714 -0.2667  0.3271  0.4158
    1PC     O11 1899   3.173   1.055   6.741  0.1887 -0.3722  0.3423
    1PC      C1 1900   3.199   1.039   6.883  0.0558  0.2235 -0.0163
    1PC      HR 1901   3.285   0.978   6.910 -0.2237 -0.3306 -0.3742
    1PC      HS 1902   3.213   1.138   6.928 -4.6597  0.9537  0.1358
    1PC      C2 1903   3.081   0.972   6.954 -0.7822  0.1700  0.3732
    1PC      HX 1904   3.004   1.049   6.947 -0.7690  0.3859  2.3829
    1PC      C3 1905   3.125   0.910   7.093  0.6700 -0.7137 -0.8223
    1PC      HA 1906   3.147   0.998   7.154  0.5919 -0.6750 -0.8500
    1PC      HB 1907   3.047   0.852   7.142 -2.0993  3.6191  0.2217
    1PC     O31 1908   3.250   0.825   7.081 -0.1374  0.2777  0.2213
    1PC     P31 1909   3.338   0.772   7.203 -0.1644 -0.1976 -0.6073
    1PC     O32 1910   3.265   0.636   7.247  0.0211  0.3048  0.0578
    1PC     C31 1911   3.271   0.520   7.156  0.4771  0.9858 -0.4670
    1PC     H1A 1912   3.211   0.544   7.067 -0.2919 -2.1180 -0.8527
    1PC     H1B 1913   3.371   0.500   7.116 -0.0902 -1.6584 -0.6440
    1PC     C32 1914   3.212   0.404   7.238  0.4872 -0.2023  0.2109
    1PC     H2A 1915   3.112   0.439   7.267 -0.1002 -0.3129 -1.5722
    1PC     H2B 1916   3.203   0.306   7.192  0.5938 -0.7517  1.3645
    1PC     N31 1917   3.265   0.378   7.375 -0.1771 -0.6010 -0.5007
    1PC     C33 1918   3.189   0.447   7.486  0.3879  0.2063  0.0585
    1PC     H3A 1919   3.222   0.413   7.584  0.6752  0.5475  0.0774
    1PC     H3B 1920   3.196   0.555   7.479  0.7069  0.0997 -1.5820
    1PC     H3C 1921   3.087   0.408   7.479  0.4972 -0.2798  1.0789
    1PC     C34 1922   3.243   0.227   7.395 -0.1415 -0.0803  0.3609
    1PC     H4A 1923   3.272   0.204   7.498  0.4154 -1.9062 -0.1831
    1PC     H4B 1924   3.142   0.198   7.370 -1.0178  0.8637  2.6225
    1PC     H4C 1925   3.322   0.178   7.338  2.1985  2.7655  1.0045
    1PC     C35 1926   3.412   0.405   7.397  0.1674  0.9908 -0.0787
    1PC     H5A 1927   3.427   0.513   7.407  2.3015  0.9789 -2.5699
    1PC     H5B 1928   3.463   0.357   7.314  1.3927 -1.2142  1.9082
    1PC     H5C 1929   3.449   0.365   7.491  3.0235 -0.3314 -1.7327
    1PC     O33 1930   3.469   0.721   7.166  0.2691 -0.1180 -0.4559
    1PC     O34 1931   3.328   0.876   7.311  0.0168 -0.2452 -0.0815
    1PC     O21 1932   3.043   0.858   6.876 -0.2516  0.2573 -0.0237
    1PC     C21 1933   2.923   0.856   6.813  0.1698 -0.3057  0.1334
    1PC     O22 1934   2.835   0.942   6.806 -0.0528 -0.4839  0.3538
    1OL     C12 1935   2.912   0.732   6.736  0.2965 -0.2202  0.0684
    1OL     H2R 1936   2.809   0.697   6.734  0.0887  0.4783 -1.7424
    1OL     H2S 1937   2.963   0.655   6.795  1.4798  0.0331 -0.6114
    1OL     C13 1938   2.954   0.745   6.587  0.1219  0.6323 -0.3592
    1OL     H3R 1939   2.942   0.641   6.554 -0.3704  0.5836 -0.0176
    1OL     H3S 1940   3.060   0.770   6.583 -0.3718  2.5946 -1.8513
    1OL     C14 1941   2.867   0.839   6.513  0.2079 -0.2043 -0.0714
    1OL     H4R 1942   2.907   0.937   6.540  1.4331 -0.6468 -0.2271
    1OL     H4S 1943   2.764   0.837   6.549  0.8164 -0.7814  1.7175
    1OL     C15 1944   2.880   0.833   6.367 -0.3053 -0.7125  0.2307
    1OL     H5R 1945   2.843   0.738   6.328 -0.8243 -0.9226  1.2100
    1OL     H5S 1946   2.988   0.838   6.354 -0.2463  0.0784  0.9458
    1OL     C16 1947   2.822   0.957   6.296  0.6056 -0.3265 -0.8469
    1OL     H6R 1948   2.862   1.048   6.342 -0.1369  1.9332 -4.4209
    1OL     H6S 1949   2.715   0.963   6.314  0.7885  2.8900 -0.4949
    1OL     C17 1950   2.842   0.974   6.145 -0.1491  0.0179  0.4843
    1OL     H7R 1951   2.796   1.070   6.120 -1.9378 -0.6641  1.0645
    1OL     H7S 1952   2.791   0.896   6.088  0.3751 -0.6729  0.9509
    1OL     C18 1953   2.993   0.973   6.106  0.1148  0.2166 -0.0426
    1OL     H8R 1954   3.014   0.984   6.000 -1.7734  0.3313 -0.4062
    1OL     H8S 1955   3.025   0.871   6.130 -1.0102 -0.2034 -0.3149
    1OL     C19 1956   3.079   1.061   6.181  0.9610  0.2373 -0.4511
    1OL     H9R 1957   3.038   1.084   6.279 -1.2476  1.0597 -1.5256
    1OL    C110 1958   3.188   1.119   6.144 -0.0359  0.3105 -0.0319
    1OL    H10R 1959   3.241   1.180   6.216 -2.8478  1.0127  1.5045
    1OL    C111 1960   3.266   1.104   6.018 -0.9256 -0.0438  1.0374
    1OL    H11R 1961   3.228   1.016   5.966 -0.0737 -0.1788  0.6439
    1OL    H11S 1962   3.372   1.091   6.038 -0.4818  0.7227 -0.7558
    1OL    C112 1963   3.246   1.226   5.930 -0.4288  0.2467 -0.4489
    1OL    H12R 1964   3.282   1.316   5.979 -1.9915  1.0094 -0.6747
    1OL    H12S 1965   3.139   1.246   5.922 -0.5053 -0.7656 -2.3486
    1OL    C113 1966   3.293   1.223   5.785  0.2860 -0.0455 -0.0628
    1OL    H13R 1967   3.402   1.231   5.791  0.3192  0.5193 -1.2802
    1OL    H13S 1968   3.253   1.316   5.745  1.6671  0.5594 -0.0693
    1OL    C114 1969   3.246   1.103   5.704  0.2016  0.2023  0.2470
    1OL    H14R 1970   3.138   1.115   5.699 -0.0789 -2.4194 -0.6135
    1OL    H14S 1971   3.254   1.009   5.758  1.7967 -0.5258 -1.2091
    1OL    C115 1972   3.309   1.091   5.562  0.3784  0.6612 -0.7422
    1OL    H15R 1973   3.408   1.049   5.579 -1.1473 -1.4855  3.2485
    1OL    H15S 1974   3.323   1.187   5.512  0.1599  0.6192 -0.8853
    1OL    C116 1975   3.218   1.000   5.477  0.2827 -0.0416  0.5564
    1OL    H16R 1976   3.209   0.902   5.524  1.0035  0.7233  2.3288
    1OL    H16S 1977   3.275   0.993   5.384  2.2858 -1.7078  1.8465
    1OL    C117 1978   3.078   1.050   5.435 -0.1618 -0.1070 -0.2523
    1OL    H17R 1979   3.079   1.159   5.422 -1.7247 -0.0960 -0.3698
    1OL    H17S 1980   3.007   1.022   5.513 -0.9698  1.5121 -0.3740
    1OL    C118 1981   3.034   0.994   5.299 -0.8139  0.3831  0.0737
    1OL    H18R 1982   3.070   0.893   5.277 -1.2367  0.4762 -1.0551
    1OL    H18S 1983   3.087   1.054   5.224  0.5500  0.0957  0.7777
    1OL    H18T 1984   2.930   1.020   5.280 -0.6123  0.5190 -0.8228
    1PA    C116 1985   1.809   4.573   5.159 -0.0560 -0.1852 -0.1439
    1PA    H16R 1986   1.708   4.574   5.200  1.2882 -0.3681  3.4208
    1PA    H16S 1987   1.800   4.525   5.062 -0.8787 -0.5921  0.1310
    1PA    H16T 1988   1.831   4.677   5.134 -0.8692 -0.1404 -0.6887
    1PA    C115 1989   1.912   4.511   5.260 -0.0007 -0.3249 -1.0101
    1PA    H15R 1990   2.011   4.498   5.216  1.3046 -1.4914  2.1429
    1PA    H15S 1991   1.924   4.586   5.338 -0.0464 -2.0264  0.6902
    1PA    C114 1992   1.861   4.370   5.302  0.1878 -0.1994  0.0834
    1PA    H14R 1993   1.867   4.290   5.228 -0.9766 -0.1986 -0.0167
    1PA    H14S 1994   1.941   4.342   5.372 -0.1506 -2.0461 -0.2431
    1PA    C113 1995   1.722   4.356   5.370  0.0921  0.4216  0.0949
    1PA    H13R 1996   1.647   4.355   5.291  0.7542  1.7514 -0.5769
    1PA    H13S 1997   1.725   4.257   5.416 -0.2901 -0.4010 -1.5932
    1PA    C112 1998   1.707   4.469   5.476 -0.1165 -1.4547  0.2004
    1PA    H12R 1999   1.707   4.567   5.428 -0.5633 -1.0200  1.0793
    1PA    H12S 2000   1.605   4.452   5.512  0.4050 -1.1642  1.8327
    1PA    C111 2001   1.794   4.470   5.593 -0.5752 -0.1046  0.1549
    1PA    H11R 2002   1.887   4.516   5.561 -0.8991  0.5412  0.1373
    1PA    H11S 2003   1.747   4.521   5.678  1.9648 -0.6928  1.9668
    1PA    C110 2004   1.813   4.332   5.658 -0.0519  0.2520  0.0142
    1PA    H10R 2005   1.716   4.281   5.664  0.1285  0.1235  2.0431
    1PA    H10S 2006   1.871   4.271   5.589  0.6377  0.1237  0.6956
    1PA     C19 2007   1.888   4.333   5.792 -0.3564 -0.4037 -0.2491
    1PA     H9R 2008   1.826   4.386   5.864  2.0940 -0.1676  1.7638
    1PA     H9S 2009   1.896   4.227   5.816  1.0052  0.0706  1.4707
    1PA     C18 2010   2.022   4.418   5.783  0.3208 -0.1926 -0.8823
    1PA     H8R 2011   2.081   4.390   5.695  2.3514 -1.0710  0.7331
    1PA     H8S 2012   1.989   4.521   5.767 -0.5246 -0.1092  1.3271
    1PA     C17 2013   2.094   4.407   5.912  0.1259 -0.0132 -0.3308
    1PA     H7R 2014   2.184   4.467   5.898  0.0003  0.2249 -0.1233
    1PA     H7S 2015   2.034   4.454   5.991 -2.2570 -1.1147 -1.4408
    1PA     C16 2016   2.146   4.263   5.942 -0.2245 -0.1114 -0.2225
    1PA     H6R 2017   2.055   4.206   5.961 -2.1466  2.4225 -1.3988
    1PA     H6S 2018   2.195   4.233   5.849 -2.6812 -1.0278 -1.2680
    1PA     C15 2019   2.235   4.253   6.067 -0.2035  0.1954  0.4165
    1PA     H5R 2020   2.319   4.322   6.052  1.2752 -1.5597  0.4595
    1PA     H5S 2021   2.177   4.287   6.152 -0.3161  0.7202  0.1304
    1PA     C14 2022   2.274   4.103   6.099 -0.6115 -0.1686 -0.3495
    1PA     H4R 2023   2.190   4.037   6.076  0.5463 -1.1916 -1.7504
    1PA     H4S 2024   2.341   4.072   6.019 -1.7655 -1.0878 -0.9760
    1PA     C13 2025   2.325   4.074   6.242  0.6558  0.1307 -0.1408
    1PA     H3R 2026   2.417   4.128   6.266  0.6014  0.2321 -0.1582
    1PA     H3S 2027   2.247   4.095   6.316 -1.0816 -1.3591 -1.5181
    1PA     C12 2028   2.356   3.926   6.272  0.7161 -0.7877  0.0248
    1PA     H2R 2029   2.260   3.882   6.243  0.0008  0.5864  0.2867
    1PA     H2S 2030   2.437   3.895   6.205  1.4355 -0.7227  0.8647
    1PC     C11 2031   2.377   3.891   6.414  0.1431  0.0800 -0.9196
    1PC     O12 2032   2.425   3.974   6.492  0.0928 -0.3490 -0.2718
    1PC     O11 2033   2.331   3.772   6.453 -0.1291 -0.1942  0.0787
    1PC      C1 2034   2.325   3.755   6.598  0.4183 -0.2978 -0.1410
    1PC      HR 2035   2.424   3.733   6.638 -0.0620  0.3380  1.4261
    1PC      HS 2036   2.290   3.848   6.642 -2.3793 -2.3255  2.1528
    1PC      C2 2037   2.233   3.647   6.645  0.2703 -0.3917 -0.0681
    1PC      HX 2038   2.133   3.676   6.614  0.3776  0.3674  0.2989
    1PC      C3 2039   2.243   3.622   6.799 -0.1138  0.9958 -0.4233
    1PC      HA 2040   2.171   3.543   6.821  0.1378  0.8403 -0.1511
    1PC      HB 2041   2.345   3.590   6.824 -0.0940  1.0933 -0.3795
    1PC     O31 2042   2.212   3.740   6.874 -0.4364  0.3457 -0.0920
    1PC     P31 2043   2.226   3.741   7.028 -0.5048  0.1284  0.3063
    1PC     O32 2044   2.374   3.784   7.055 -0.0514  0.2111 -0.5806
    1PC     C31 2045   2.434   3.903   6.992  1.4853  0.2505 -1.0389
    1PC     H1A 2046   2.445   3.883   6.885  0.9895 -1.2878 -0.8133
    1PC     H1B 2047   2.362   3.984   7.003 -3.0074 -3.1755 -3.4144
    1PC     C32 2048   2.569   3.931   7.058  0.4112 -0.1691 -0.3404
    1PC     H2A 2049   2.538   3.992   7.143 -0.3209  0.4560 -1.0450
    1PC     H2B 2050   2.608   3.835   7.093  1.6714  0.3961 -0.1425
    1PC     N31 2051   2.679   4.010   6.991 -0.3057 -0.1507  0.1017
    1PC     C33 2052   2.624   4.145   6.969  0.3886  0.1621 -0.9952
    1PC     H3A 2053   2.647   4.195   7.063 -1.0441  1.0664 -1.1216
    1PC     H3B 2054   2.674   4.201   6.891  1.4044 -0.1579 -0.5831
    1PC     H3C 2055   2.519   4.137   6.941 -0.1905 -2.7119  1.5741
    1PC     C34 2056   2.799   4.019   7.080 -0.0028 -0.0829 -0.7455
    1PC     H4A 2057   2.818   3.921   7.126  3.0803  0.7534 -0.1505
    1PC     H4B 2058   2.885   4.046   7.019 -0.0771 -0.4538 -1.0234
    1PC     H4C 2059   2.781   4.097   7.153  1.9355 -0.7623  0.4802
    1PC     C35 2060   2.719   3.944   6.866  0.0896 -0.3579 -0.0743
    1PC     H5A 2061   2.773   3.849   6.868  4.2862  1.8656  0.1867
    1PC     H5B 2062   2.779   4.017   6.812  0.0749  0.6940  1.3106
    1PC     H5C 2063   2.630   3.933   6.805  0.2522  2.7191 -0.9438
    1PC     O33 2064   2.149   3.856   7.071 -0.1397 -0.2555  0.5639
    1PC     O34 2065   2.204   3.612   7.089  0.3009  0.0956  0.0471
    1PC     O21 2066   2.291   3.534   6.584 -0.1046 -0.3141  0.0425
    1PC     C21 2067   2.213   3.442   6.527  0.5417 -0.3875 -0.3161
    1PC     O22 2068   2.094   3.442   6.550  0.0798  0.4717  0.2934
    1OL     C12 2069   2.285   3.348   6.430 -0.0520 -0.1599  0.2279
    1OL     H2R 2070   2.279   3.243   6.458 -0.6642 -0.5790 -1.4293
    1OL     H2S 2071   2.390   3.378   6.437 -0.1074  0.4053 -1.1740
    1OL     C13 2072   2.228   3.364   6.291 -0.6652  0.3549  0.7254
    1OL     H3R 2073   2.128   3.319   6.290  0.6932 -2.7803  1.8602
    1OL     H3S 2074   2.292   3.307   6.224 -1.3984  1.5643 -1.0541
    1OL     C14 2075   2.223   3.509   6.238  0.3726  0.2249  0.7228
    1OL     H4R 2076   2.171   3.572   6.310 -0.8729 -0.3355  0.3245
    1OL     H4S 2077   2.161   3.503   6.149  0.6195  1.4604  0.4552
    1OL     C15 2078   2.354   3.566   6.194 -0.1561  0.1499 -0.4304
    1OL     H5R 2079   2.416   3.555   6.283 -1.8052  3.2614  1.1858
    1OL     H5S 2080   2.330   3.669   6.167 -0.4710  0.3261  0.4957
    1OL     C16 2081   2.423   3.490   6.070  0.0949  0.1037 -0.1476
    1OL     H6R 2082   2.449   3.397   6.121 -1.1789  0.7602  1.7473
    1OL     H6S 2083   2.520   3.532   6.044 -0.2921  0.8984 -0.3257
    1OL     C17 2084   2.331   3.461   5.950 -0.7137 -0.0480  0.4209
    1OL     H7R 2085   2.406   3.422   5.881 -1.3811 -0.5998  0.0041
    1OL     H7S 2086   2.268   3.372   5.952  0.3222 -0.7667  2.0600
    1OL     C18 2087   2.267   3.590   5.879 -0.0052  0.0790 -0.1168
    1OL     H8R 2088   2.211   3.649   5.952  1.5596 -1.6464  2.5758
    1OL     H8S 2089   2.207   3.552   5.797 -0.6303  0.6831  0.0561
    1OL     C19 2090   2.378   3.688   5.834  0.8127 -0.7603 -0.3314
    1OL     H9R 2091   2.408   3.761   5.909 -1.0468  0.2779 -0.5681
    1OL    C110 2092   2.427   3.701   5.711 -0.1509  0.4850 -0.3714
    1OL    H10R 2093   2.504   3.779   5.710  0.3804  0.1334  3.6486
    1OL    C111 2094   2.381   3.619   5.594  1.0399  0.9728  0.7153
    1OL    H11R 2095   2.334   3.530   5.635  1.2429  0.5402  0.0175
    1OL    H11S 2096   2.457   3.582   5.525 -0.5806 -2.0140  0.4601
    1OL    C112 2097   2.278   3.699   5.514 -0.0149  0.3024  0.0393
    1OL    H12R 2098   2.332   3.750   5.434  0.1331 -1.4106 -0.9689
    1OL    H12S 2099   2.230   3.774   5.577  1.4314  0.2062  1.3136
    1OL    C113 2100   2.178   3.618   5.436  0.4247 -0.0064 -0.6559
    1OL    H13R 2101   2.125   3.698   5.383  0.5872  0.5645  0.0349
    1OL    H13S 2102   2.114   3.564   5.506 -0.2420  1.0625 -0.4316
    1OL    C114 2103   2.239   3.518   5.337 -0.1862 -0.3087  0.0731
    1OL    H14R 2104   2.151   3.473   5.291 -0.4512  0.0852  0.1962
    1OL    H14S 2105   2.304   3.441   5.381  0.7595  0.1625 -0.4779
    1OL    C115 2106   2.323   3.579   5.225 -0.4784  0.0840  0.4133
    1OL    H15R 2107   2.405   3.635   5.270  1.8427 -2.7854 -0.1476
    1OL    H15S 2108   2.247   3.648   5.188 -0.2257  1.5683  2.5538
    1OL    C116 2109   2.363   3.480   5.110 -0.3833  0.2013 -0.2769
    1OL    H16R 2110   2.274   3.432   5.068 -0.2203  0.8254 -1.3643
    1OL    H16S 2111   2.425   3.406   5.160 -0.0362 -0.6452 -1.9229
    1OL    C117 2112   2.433   3.564   5.005  0.0485 -0.1170  0.7257
    1OL    H17R 2113   2.364   3.628   4.949  2.1102  2.3469  0.9095
    1OL    H17S 2114   2.487   3.645   5.056  0.6314  1.0097 -1.6254
    1OL    C118 2115   2.536   3.492   4.919 -0.4228  1.0231  0.6991
    1OL    H18R 2116   2.589   3.565   4.858  0.2078 -0.5150 -0.6260
    1OL    H18S 2117   2.485   3.419   4.856 -0.9926  1.1514  1.0046
    1OL    H18T 2118   2.613   3.438   4.975  2.0630  2.3189 -1.3610
    1PA    C116 2119   4.185   4.109   5.277  0.2074 -0.0605 -0.2806
    1PA    H16R 2120   4.221   4.208   5.247  1.0763 -0.9982 -2.4442
    1PA    H16S 2121   4.200   4.038   5.195  0.7794 -0.2900  0.0242
    1PA    H16T 2122   4.249   4.076   5.359  1.2341  0.7883 -0.7165
    1PA    C115 2123   4.037   4.108   5.312  0.6015 -0.6959 -0.5748
    1PA    H15R 2124   3.986   4.139   5.221  1.1892  1.7708 -0.0886
    1PA    H15S 2125   4.002   4.005   5.326 -1.4916 -0.0867 -1.1942
    1PA    C114 2126   4.002   4.205   5.432 -0.2052 -0.1802 -0.5154
    1PA    H14R 2127   4.055   4.163   5.518 -0.5062  0.3194 -0.0838
    1PA    H14S 2128   4.040   4.306   5.417 -0.7476  0.2610  1.0306
    1PA    C113 2129   3.852   4.222   5.460  0.3135 -0.6202  0.3990
    1PA    H13R 2130   3.799   4.289   5.392  0.3638  0.2847  1.2489
    1PA    H13S 2131   3.806   4.124   5.447 -1.7138  0.4398 -0.6816
    1PA    C112 2132   3.820   4.290   5.592  0.2163 -0.3202 -0.1189
    1PA    H12R 2133   3.899   4.361   5.617 -0.0621 -0.1091  0.1620
    1PA    H12S 2134   3.726   4.343   5.575 -0.1103 -0.7373  0.3691
    1PA    C111 2135   3.813   4.200   5.713  0.6689  0.2118  0.2082
    1PA    H11R 2136   3.750   4.114   5.689  1.6662 -0.2713 -0.7470
    1PA    H11S 2137   3.913   4.166   5.740  1.2935  1.7127 -0.1631
    1PA    C110 2138   3.745   4.280   5.824 -0.3687 -0.2782 -0.6199
    1PA    H10R 2139   3.806   4.361   5.865  0.4893 -0.5100 -1.4210
    1PA    H10S 2140   3.649   4.319   5.792 -1.0001 -0.0320  1.5415
    1PA     C19 2141   3.707   4.196   5.941 -0.0100  0.8827  0.3257
    1PA     H9R 2142   3.599   4.212   5.947  0.1396  1.4397  1.6443
    1PA     H9S 2143   3.725   4.090   5.919 -0.6760  1.0207 -0.9749
    1PA     C18 2144   3.769   4.231   6.074  0.4057  0.9347  0.3737
    1PA     H8R 2145   3.871   4.194   6.064 -0.4833 -1.1154 -1.5794
    1PA     H8S 2146   3.752   4.339   6.086 -0.7681  0.7816  0.1749
    1PA     C17 2147   3.699   4.150   6.184 -0.2787 -0.9044  0.2498
    1PA     H7R 2148   3.620   4.214   6.225  0.2380  0.8102 -1.3439
    1PA     H7S 2149   3.660   4.054   6.149  1.1015 -1.5680  0.5261
    1PA     C16 2150   3.784   4.130   6.308 -0.2570 -0.0029 -0.0291
    1PA     H6R 2151   3.872   4.066   6.300 -0.0966  0.2963 -0.6815
    1PA     H6S 2152   3.830   4.222   6.346  1.3441 -1.5444  1.8401
    1PA     C15 2153   3.696   4.087   6.420 -0.0385  0.0766 -0.3501
    1PA     H5R 2154   3.608   4.150   6.415 -1.5857 -1.9319  0.7269
    1PA     H5S 2155   3.658   3.985   6.406 -1.6426  0.6551 -0.2541
    1PA     C14 2156   3.767   4.096   6.561  0.1164  0.2322 -0.0968
    1PA     H4R 2157   3.823   4.189   6.565  0.6603 -0.0716 -0.5178
    1PA     H4S 2158   3.687   4.101   6.635 -0.4350 -1.1119 -0.5838
    1PA     C13 2159   3.864   3.987   6.608 -0.3364  0.4068 -0.3040
    1PA     H3R 2160   3.835   3.885   6.584 -0.4124  0.4741 -0.5069
    1PA     H3S 2161   3.960   4.000   6.557  0.1028  3.3126  1.1080
    1PA     C12 2162   3.897   3.998   6.759 -0.2505  0.1670  0.0698
    1PA     H2R 2163   3.814   3.990   6.829 -1.1348 -3.0622 -1.2702
    1PA     H2S 2164   3.961   3.914   6.785  0.0951 -0.2407 -2.0522
    1PC     C11 2165   3.987   4.112   6.795 -0.6945 -0.2487  0.7070
    1PC     O12 2166   4.074   4.152   6.722 -0.4576  0.0804  0.0151
    1PC     O11 2167   3.948   4.175   6.907  0.6889  0.3686  0.1181
    1PC      C1 2168   4.008   4.304   6.944 -0.0262 -0.0080 -0.6115
    1PC      HR 2169   4.014   4.318   7.052  0.1503  1.0756 -0.7516
    1PC      HS 2170   4.114   4.295   6.918  0.6527 -0.6270  2.1979
    1PC      C2 2171   3.945   4.426   6.875 -0.0184  0.0129 -0.0297
    1PC      HX 2172   3.996   4.514   6.915 -0.0792  0.9454 -1.9250
    1PC      C3 2173   3.793   4.430   6.895  1.0425 -1.1049 -0.8516
    1PC      HA 2174   3.752   4.521   6.851 -1.1247 -0.7255  1.8630
    1PC      HB 2175   3.737   4.347   6.850  0.9710 -0.4834 -1.9317
    1PC     O31 2176   3.769   4.428   7.038  0.2465 -0.8660 -0.5796
    1PC     P31 2177   3.799   4.552   7.140 -0.1744 -0.1708 -0.2536
    1PC     O32 2178   3.922   4.498   7.218  0.1783 -0.2103 -0.1630
    1PC     C31 2179   3.907   4.426   7.341 -0.4074 -0.1267 -0.2022
    1PC     H1A 2180   3.811   4.373   7.336 -0.7759  0.6007 -1.0900
    1PC     H1B 2181   3.994   4.362   7.356 -0.0762 -0.2641 -2.4171
    1PC     C32 2182   3.901   4.529   7.458  0.2214  0.0905  0.5576
    1PC     H2A 2183   3.989   4.593   7.449 -0.2164  0.6641  0.3193
    1PC     H2B 2184   3.811   4.590   7.447  0.9768  1.4149  1.5869
    1PC     N31 2185   3.887   4.483   7.600 -0.0486 -0.0082 -0.3125
    1PC     C33 2186   3.752   4.416   7.626  0.1365  0.2689  0.4010
    1PC     H3A 2187   3.752   4.316   7.583  1.9779  0.3295  0.2025
    1PC     H3B 2188   3.742   4.401   7.733  0.0275 -0.9981  0.2222
    1PC     H3C 2189   3.673   4.483   7.593 -1.6190 -0.4143  3.1024
    1PC     C34 2190   3.996   4.393   7.647 -0.9459  0.1622 -0.4749
    1PC     H4A 2191   4.095   4.425   7.616  0.1970 -1.2267  1.6071
    1PC     H4B 2192   3.983   4.392   7.756  3.2293 -1.6203  0.1088
    1PC     H4C 2193   3.987   4.291   7.610  2.3238 -1.0030  1.7478
    1PC     C35 2194   3.889   4.610   7.669 -0.5390 -0.2243  0.3959
    1PC     H5A 2195   3.888   4.592   7.777  2.9658  2.6088  1.0073
    1PC     H5B 2196   3.800   4.664   7.638 -0.1547  0.2133  0.0449
    1PC     H5C 2197   3.981   4.665   7.646 -0.4343  0.8251  3.1495
    1PC     O33 2198   3.833   4.667   7.053  0.2446  0.1612  0.5213
    1PC     O34 2199   3.678   4.576   7.231  0.3920  0.2138  0.2384
    1PC     O21 2200   3.961   4.419   6.730 -0.1294 -0.2937  0.1508
    1PC     C21 2201   4.087   4.444   6.685  0.1772  0.3170  0.4296
    1PC     O22 2202   4.187   4.461   6.751  0.3215  0.0029 -0.6826
    1OL     C12 2203   4.091   4.448   6.532  0.2287  0.3394 -0.2074
    1OL     H2R 2204   4.175   4.513   6.508  1.9142 -1.8397 -0.4505
    1OL     H2S 2205   3.995   4.496   6.512  1.0779  1.9036 -0.5793
    1OL     C13 2206   4.115   4.307   6.470  0.2009  0.1767  0.0434
    1OL     H3R 2207   4.040   4.233   6.500 -0.2176  0.3878 -0.4815
    1OL     H3S 2208   4.205   4.265   6.515 -1.2596 -3.2955 -0.1305
    1OL     C14 2209   4.144   4.311   6.315  0.2348  0.3624  0.3404
    1OL     H4R 2210   4.047   4.335   6.272 -0.6789  0.0367  2.1925
    1OL     H4S 2211   4.170   4.209   6.286  0.2077 -0.1662  2.1465
    1OL     C15 2212   4.259   4.394   6.255 -0.1186  0.0013  0.2154
    1OL     H5R 2213   4.221   4.496   6.263 -0.5102  0.1256 -2.7677
    1OL     H5S 2214   4.278   4.376   6.149  2.5281  0.7014  0.5213
    1OL     C16 2215   4.400   4.378   6.326 -0.5218 -0.0885 -0.1814
    1OL     H6R 2216   4.403   4.420   6.427 -1.7584  1.3661 -0.7276
    1OL     H6S 2217   4.468   4.443   6.270  0.5899 -1.4048 -0.3737
    1OL     C17 2218   4.463   4.244   6.332 -0.1691 -0.2029 -0.3961
    1OL     H7R 2219   4.406   4.181   6.402  0.6542 -1.2010 -0.6049
    1OL     H7S 2220   4.556   4.253   6.389 -0.2551 -0.2349 -0.2502
    1OL     C18 2221   4.486   4.167   6.204 -0.2152 -0.0307 -0.2511
    1OL     H8R 2222   4.399   4.159   6.139  0.0354 -1.8521 -0.3946
    1OL     H8S 2223   4.521   4.067   6.230  2.1091  1.0942  1.1413
    1OL     C19 2224   4.608   4.227   6.136 -0.3159  0.4665 -0.1360
    1OL     H9R 2225   4.687   4.265   6.201 -0.7212  0.7367  0.2046
    1OL    C110 2226   4.621   4.248   6.005  0.4998  0.2906  0.0660
    1OL    H10R 2227   4.706   4.307   5.971  1.0438  0.7558  2.1152
    1OL    C111 2228   4.533   4.202   5.896  0.6054  1.2402 -0.6772
    1OL    H11R 2229   4.463   4.132   5.941  0.9892 -0.2712 -2.3902
    1OL    H11S 2230   4.580   4.150   5.812  0.6232 -1.0719  0.7470
    1OL    C112 2231   4.462   4.325   5.848  0.5604 -0.1876 -0.3310
    1OL    H12R 2232   4.534   4.404   5.826  0.6063 -0.2252 -0.3132
    1OL    H12S 2233   4.405   4.364   5.933  1.7562 -0.5641  0.6500
    1OL    C113 2234   4.384   4.295   5.726  1.0337  0.3911  0.1397
    1OL    H13R 2235   4.312   4.224   5.767  0.9924  0.5519  0.3546
    1OL    H13S 2236   4.443   4.250   5.647  2.2977 -0.2142  1.4049
    1OL    C114 2237   4.301   4.413   5.666  0.4648 -0.5346 -0.0512
    1OL    H14R 2238   4.252   4.471   5.744  2.3533  0.0779  0.6942
    1OL    H14S 2239   4.226   4.368   5.601 -0.8559 -1.0693  1.8181
    1OL    C115 2240   4.389   4.501   5.577  0.0396  0.2907  0.4896
    1OL    H15R 2241   4.418   4.446   5.486 -1.2579 -0.9468  0.7906
    1OL    H15S 2242   4.476   4.521   5.638  0.8028 -1.8217  0.1380
    1OL    C116 2243   4.316   4.634   5.535 -0.5902  0.3199 -0.1136
    1OL    H16R 2244   4.370   4.691   5.459 -1.4220 -1.8074 -2.3534
    1OL    H16S 2245   4.300   4.696   5.623 -0.2357  0.1539  0.0683
    1OL    C117 2246   4.185   4.594   5.466 -1.0867  0.2047 -0.2490
    1OL    H17R 2247   4.145   4.691   5.436  0.0669  0.7009 -0.1964
    1OL    H17S 2248   4.112   4.537   5.524 -3.2794  0.9534 -2.1989
    1OL    C118 2249   4.198   4.527   5.333 -0.2643  0.0737  0.3421
    1OL    H18R 2250   4.101   4.505   5.289 -0.7389 -0.2477  1.5283
    1OL    H18S 2251   4.263   4.439   5.339  2.8792  2.4046  2.0310
    1OL    H18T 2252   4.251   4.599   5.270 -1.1695 -0.5259 -1.1452
    1PA    C116 2253   4.937   2.673   5.948  0.1845  0.3172  0.1871
    1PA    H16R 2254   4.873   2.721   6.022 -3.6137 -3.6613 -0.3449
    1PA    H16S 2255   5.040   2.665   5.984 -0.2082 -0.6053  1.1250
    1PA    H16T 2256   4.907   2.573   5.917  2.2496 -0.1626 -0.3993
    1PA    C115 2257   4.951   2.762   5.817 -0.2407  0.0846 -0.0936
    1PA    H15R 2258   4.958   2.866   5.850 -2.9736  0.1465  0.4009
    1PA    H15S 2259   5.042   2.727   5.768 -0.5972 -1.5941  0.4031
    1PA    C114 2260   4.831   2.768   5.719 -0.8143 -0.2218  0.5702
    1PA    H14R 2261   4.871   2.811   5.626 -0.8028  0.8925  1.0835
    1PA    H14S 2262   4.797   2.666   5.700  1.4422 -0.6191 -1.6662
    1PA    C113 2263   4.717   2.858   5.773  0.1145  0.3138 -0.1889
    1PA    H13R 2264   4.664   2.805   5.853  1.3107  0.9812  1.0777
    1PA    H13S 2265   4.764   2.945   5.819 -1.7815  0.4138  1.6172
    1PA    C112 2266   4.619   2.898   5.658  0.6379  0.9483 -0.2281
    1PA    H12R 2267   4.672   2.945   5.575  1.0194  0.2893 -0.3686
    1PA    H12S 2268   4.575   2.805   5.621  0.3140  0.3570  1.5792
    1PA    C111 2269   4.512   2.989   5.712 -0.5236 -0.5406  0.7516
    1PA    H11R 2270   4.441   2.926   5.766 -3.3912  0.9139 -1.1944
    1PA    H11S 2271   4.561   3.056   5.782 -0.7187  0.8244 -0.3946
    1PA    C110 2272   4.439   3.062   5.594 -0.4746  0.5814  0.4955
    1PA    H10R 2273   4.524   3.105   5.541  1.5438 -3.8259 -0.0007
    1PA    H10S 2274   4.400   2.987   5.524  0.1223  2.2762 -1.7325
    1PA     C19 2275   4.338   3.173   5.637  0.1688  0.2209  0.3559
    1PA     H9R 2276   4.307   3.217   5.542  0.5291 -0.4057 -0.0525
    1PA     H9S 2277   4.253   3.133   5.692  0.7846  0.1125  1.2396
    1PA     C18 2278   4.386   3.276   5.734  0.8018 -0.8327  0.2380
    1PA     H8R 2279   4.431   3.236   5.825  1.6755 -1.7299 -0.5708
    1PA     H8S 2280   4.471   3.327   5.688  0.2355 -0.9799 -1.0041
    1PA     C17 2281   4.272   3.379   5.763 -0.5650 -1.3600 -0.0535
    1PA     H7R 2282   4.317   3.456   5.826  2.6408  0.5161 -4.3734
    1PA     H7S 2283   4.242   3.427   5.670  0.6372 -3.5833 -1.6490
    1PA     C16 2284   4.138   3.329   5.815  0.3139  0.1776 -0.1391
    1PA     H6R 2285   4.063   3.408   5.812 -1.6326 -1.6793 -1.7784
    1PA     H6S 2286   4.093   3.253   5.751  0.1610  0.7505 -0.7172
    1PA     C15 2287   4.151   3.269   5.964  0.0059 -0.3210  0.3877
    1PA     H5R 2288   4.060   3.216   5.991 -0.2144 -1.0477 -1.6806
    1PA     H5S 2289   4.228   3.193   5.947 -1.3393 -1.4601 -0.8460
    1PA     C14 2290   4.185   3.365   6.071  0.4745 -0.0298 -0.0518
    1PA     H4R 2291   4.277   3.422   6.057 -0.1304  0.1393 -3.6582
    1PA     H4S 2292   4.096   3.424   6.094 -0.1107 -1.4782  1.5527
    1PA     C13 2293   4.199   3.285   6.200  0.3847 -0.1701 -0.3680
    1PA     H3R 2294   4.124   3.206   6.204  0.2754 -0.1437 -1.5989
    1PA     H3S 2295   4.298   3.239   6.194  0.5662  0.1613  0.0969
    1PA     C12 2296   4.188   3.366   6.333 -0.5379 -0.1163  0.3729
    1PA     H2R 2297   4.107   3.439   6.324  0.5273  0.9718 -0.4578
    1PA     H2S 2298   4.161   3.297   6.414  2.2603 -0.2229  1.2654
    1PC     C11 2299   4.317   3.437   6.366 -0.2967 -0.9356 -0.1777
    1PC     O12 2300   4.346   3.542   6.322 -0.2171  0.2289  0.3836
    1PC     O11 2301   4.395   3.363   6.443  0.3366  0.5856 -0.0744
    1PC      C1 2302   4.528   3.415   6.464 -1.0089  0.0541  0.7532
    1PC      HR 2303   4.591   3.384   6.380  0.0062 -0.6903  1.7636
    1PC      HS 2304   4.540   3.523   6.478  0.4076 -0.0123  0.0930
    1PC      C2 2305   4.583   3.335   6.589  0.1634  0.3906 -0.0143
    1PC      HX 2306   4.554   3.231   6.577 -0.4704  0.5819 -0.1278
    1PC      C3 2307   4.531   3.389   6.725  0.3377  0.1950  0.4478
    1PC      HA 2308   4.424   3.408   6.711 -0.0551 -2.0780  0.1273
    1PC      HB 2309   4.542   3.308   6.798 -2.1014 -1.5946 -1.1189
    1PC     O31 2310   4.600   3.519   6.754 -0.5732  0.0621  0.4766
    1PC     P31 2311   4.637   3.558   6.904  0.0344  0.2677 -0.2584
    1PC     O32 2312   4.752   3.458   6.942  0.6630  0.2047  0.0347
    1PC     C31 2313   4.716   3.329   7.004  0.3653 -0.0293 -0.6080
    1PC     H1A 2314   4.608   3.310   6.995  0.2602  0.2954 -0.0587
    1PC     H1B 2315   4.763   3.245   6.952 -1.3261  1.4200 -4.6849
    1PC     C32 2316   4.771   3.324   7.142 -0.4869 -0.3086  0.8744
    1PC     H2A 2317   4.880   3.317   7.132 -0.3874  2.2532 -0.2701
    1PC     H2B 2318   4.752   3.421   7.190 -2.3644  0.0939 -0.6330
    1PC     N31 2319   4.719   3.215   7.231 -0.2752 -0.2290 -0.3077
    1PC     C33 2320   4.795   3.219   7.364  0.3795  0.5762  0.7043
    1PC     H3A 2321   4.895   3.183   7.338  0.3997  0.5052  0.8767
    1PC     H3B 2322   4.806   3.318   7.407 -1.5361  1.1877 -0.1381
    1PC     H3C 2323   4.749   3.148   7.432 -0.5160 -0.5647 -1.0489
    1PC     C34 2324   4.575   3.243   7.258 -0.0249 -0.0802  0.3595
    1PC     H4A 2325   4.563   3.351   7.269  1.7011  0.0173  1.4125
    1PC     H4B 2326   4.523   3.192   7.176  1.4851  1.2534 -1.4684
    1PC     H4C 2327   4.549   3.192   7.351  0.3752  0.2988  0.6792
    1PC     C35 2328   4.743   3.083   7.176  0.3181  0.9459  0.1188
    1PC     H5A 2329   4.851   3.076   7.161  0.2676  1.0569 -0.3235
    1PC     H5B 2330   4.688   3.080   7.081  2.8747 -2.0236 -1.3503
    1PC     H5C 2331   4.716   3.003   7.245  0.5253  0.2507 -0.5921
    1PC     O33 2332   4.696   3.691   6.927  0.6957 -0.2640  0.4967
    1PC     O34 2333   4.520   3.526   6.988  0.5141 -0.0899 -0.4092
    1PC     O21 2334   4.729   3.345   6.585 -0.8252  0.6811 -0.2269
    1PC     C21 2335   4.815   3.253   6.638  0.6444 -0.1443 -0.2483
    1PC     O22 2336   4.776   3.141   6.675  0.2369 -0.2248 -0.5544
    1OL     C12 2337   4.958   3.291   6.621 -0.0104 -0.5527 -0.7088
    1OL     H2R 2338   5.016   3.277   6.712 -0.7365  1.3631  0.0604
    1OL     H2S 2339   4.964   3.396   6.593  0.0324 -0.0435  1.1420
    1OL     C13 2340   5.026   3.221   6.501 -0.3288  0.8490 -0.4076
    1OL     H3R 2341   5.053   3.121   6.538  3.0248  1.4912 -0.9915
    1OL     H3S 2342   5.125   3.263   6.481  0.5932 -1.6319 -1.3948
    1OL     C14 2343   4.943   3.199   6.374 -1.0500 -0.3835  0.5557
    1OL     H4R 2344   4.853   3.152   6.413 -1.3955  0.1119  0.3604
    1OL     H4S 2345   5.004   3.131   6.313 -2.1412 -3.1244  2.4326
    1OL     C15 2346   4.919   3.337   6.309  0.5386 -0.0604 -0.3905
    1OL     H5R 2347   5.014   3.389   6.300  0.8144 -0.6546 -0.9440
    1OL     H5S 2348   4.842   3.385   6.370 -1.0059  0.9090 -3.0324
    1OL     C16 2349   4.864   3.313   6.174  0.8630 -0.4963 -0.0390
    1OL     H6R 2350   4.944   3.263   6.120  1.5022 -0.4687  0.8708
    1OL     H6S 2351   4.848   3.410   6.127 -0.3257 -2.3861 -3.6985
    1OL     C17 2352   4.727   3.236   6.150 -0.6316 -0.0157  0.6347
    1OL     H7R 2353   4.635   3.287   6.180 -0.5975  0.9269 -0.8356
    1OL     H7S 2354   4.713   3.144   6.208 -0.6854 -2.1524 -2.6241
    1OL     C18 2355   4.711   3.201   6.003  0.2018 -0.5868  0.7616
    1OL     H8R 2356   4.624   3.135   5.997 -0.5041  0.2113  1.9083
    1OL     H8S 2357   4.799   3.141   5.978 -0.2024 -0.9931  0.3115
    1OL     C19 2358   4.689   3.319   5.905 -0.2625 -0.6517  0.1359
    1OL     H9R 2359   4.615   3.394   5.931  0.9253 -0.1287  2.1011
    1OL    C110 2360   4.763   3.345   5.795 -0.2296 -0.2099  0.4940
    1OL    H10R 2361   4.736   3.433   5.738 -0.7651 -1.0005 -0.4753
    1OL    C111 2362   4.888   3.273   5.740  0.3869 -0.2535 -0.8964
    1OL    H11R 2363   4.894   3.185   5.806 -1.9108  2.1099  2.6702
    1OL    H11S 2364   4.976   3.337   5.741  0.5657 -0.4864  0.8946
    1OL    C112 2365   4.863   3.233   5.594 -0.0652 -0.1879  0.3774
    1OL    H12R 2366   4.862   3.326   5.536 -0.7471 -0.6400 -0.3547
    1OL    H12S 2367   4.768   3.179   5.589  0.0420 -0.3944  0.5642
    1OL    C113 2368   4.974   3.146   5.535  0.0588  0.1350  0.2278
    1OL    H13R 2369   4.992   3.070   5.611 -3.7000 -1.2165 -0.1716
    1OL    H13S 2370   5.060   3.214   5.531  0.5028 -0.4777 -0.8747
    1OL    C114 2371   4.933   3.088   5.402 -0.7984 -0.9125 -0.3505
    1OL    H14R 2372   4.902   3.174   5.343 -1.1634  0.1092  1.3015
    1OL    H14S 2373   4.844   3.025   5.411  0.2201 -1.9124  4.7449
    1OL    C115 2374   5.044   3.011   5.339  0.0045 -0.0936  0.2295
    1OL    H15R 2375   5.079   2.933   5.407  0.1322 -0.6834 -0.5109
    1OL    H15S 2376   5.133   3.070   5.315 -0.4960  0.8687  0.7233
    1OL    C116 2377   4.992   2.946   5.209 -0.3078  0.3089  0.3217
    1OL    H16R 2378   4.944   3.023   5.149  0.8142  2.1180  1.6827
    1OL    H16S 2379   4.925   2.862   5.227 -0.8787  0.5415 -0.6941
    1OL    C117 2380   5.102   2.884   5.116 -0.0586  0.1680 -0.1999
    1OL    H17R 2381   5.177   2.834   5.177  1.4370  1.7817 -0.6945
    1OL    H17S 2382   5.143   2.961   5.051 -0.6508  0.3878 -0.3212
    1OL    C118 2383   5.025   2.783   5.021 -0.4921 -0.0478 -0.0413
    1OL    H18R 2384   4.946   2.840   4.972  0.5860 -0.3130 -2.1652
    1OL    H18S 2385   4.994   2.705   5.091  0.8933  0.6851  1.4230
    1OL    H18T 2386   5.089   2.734   4.947  0.5549 -0.0175  0.8175
    1PA    C116 2387   1.986   3.069   5.427 -0.0576  0.4157 -0.0697
    1PA    H16R 2388   1.969   2.990   5.354 -1.6640  1.3286 -0.7203
    1PA    H16S 2389   2.093   3.084   5.442  0.2953 -2.1859  0.2971
    1PA    H16T 2390   1.941   3.160   5.387  0.8100  0.1246 -1.7341
    1PA    C115 2391   1.919   3.026   5.562  0.0735  0.5652 -0.2289
    1PA    H15R 2392   1.965   2.937   5.606 -2.5270  0.2059  1.9055
    1PA    H15S 2393   1.947   3.104   5.634 -4.1631  1.2863  0.8087
    1PA    C114 2394   1.765   3.028   5.571  0.3783  0.1614 -0.6418
    1PA    H14R 2395   1.727   3.131   5.572  1.4094  0.6205 -3.4757
    1PA    H14S 2396   1.723   2.977   5.484  2.5568  2.2535 -3.0154
    1PA    C113 2397   1.718   2.966   5.701 -0.1941 -0.2690  0.1003
    1PA    H13R 2398   1.609   2.959   5.699 -0.1193 -1.8322  0.1429
    1PA    H13S 2399   1.761   2.865   5.702 -1.4074 -0.8039  1.4762
    1PA    C112 2400   1.767   3.044   5.825  0.4364 -0.4266 -0.0474
    1PA    H12R 2401   1.767   2.983   5.915  0.4881  0.9197  0.8820
    1PA    H12S 2402   1.870   3.076   5.810  1.0191 -2.7756 -1.2344
    1PA    C111 2403   1.693   3.178   5.841  0.3324 -0.2137  0.2428
    1PA    H11R 2404   1.734   3.248   5.767  1.7605  1.0651  2.1749
    1PA    H11S 2405   1.585   3.174   5.847  0.3417 -1.9478 -0.5265
    1PA    C110 2406   1.737   3.230   5.976 -0.0258  0.2388  0.2053
    1PA    H10R 2407   1.678   3.175   6.051  0.0785 -0.0329  0.0893
    1PA    H10S 2408   1.843   3.210   5.994 -0.3902 -0.5060  1.6200
    1PA     C19 2409   1.705   3.376   5.998 -0.0271  0.3444 -0.2989
    1PA     H9R 2410   1.755   3.432   5.918 -0.4077  3.2823  1.4675
    1PA     H9S 2411   1.597   3.394   5.995  0.0288  0.6488 -0.4734
    1PA     C18 2412   1.749   3.427   6.138 -0.4329  0.2687  0.1447
    1PA     H8R 2413   1.709   3.372   6.223  1.1934 -1.5028 -0.2090
    1PA     H8S 2414   1.857   3.414   6.135 -0.4289  0.3501 -0.0461
    1PA     C17 2415   1.723   3.574   6.148 -0.2166  0.2407 -0.1742
    1PA     H7R 2416   1.800   3.615   6.082  0.2523  0.6492  0.6165
    1PA     H7S 2417   1.628   3.600   6.101  0.6425  0.5656 -1.7721
    1PA     C16 2418   1.735   3.636   6.285 -0.4754  0.1298 -0.1631
    1PA     H6R 2419   1.828   3.600   6.328 -0.9465 -0.2034  0.5910
    1PA     H6S 2420   1.727   3.745   6.281 -0.7711  0.0673 -1.6959
    1PA     C15 2421   1.636   3.585   6.392 -0.1214  0.1764  0.3110
    1PA     H5R 2422   1.537   3.622   6.364 -0.5194  0.6560  2.2820
    1PA     H5S 2423   1.637   3.477   6.403  2.4769  0.4323  3.3834
    1PA     C14 2424   1.661   3.638   6.532 -0.0548  0.3179 -0.4168
    1PA     H4R 2425   1.666   3.746   6.543 -1.6089  0.2952  0.7406
    1PA     H4S 2426   1.570   3.605   6.583 -0.1676  1.0728 -0.1301
    1PA     C13 2427   1.791   3.586   6.605 -0.2906  0.3577  0.5394
    1PA     H3R 2428   1.797   3.478   6.594  1.2929  0.4943 -0.1297
    1PA     H3S 2429   1.875   3.627   6.549 -0.5899 -2.4347 -2.0599
    1PA     C12 2430   1.808   3.647   6.748  0.3547  0.0818  0.1392
    1PA     H2R 2431   1.888   3.598   6.805 -0.5964 -1.6156  0.0500
    1PA     H2S 2432   1.850   3.745   6.727  3.8448 -1.9119 -2.8426
    1PC     C11 2433   1.678   3.662   6.828  0.3875 -0.3420  0.1735
    1PC     O12 2434   1.634   3.775   6.851 -0.3934 -0.6632  0.3297
    1PC     O11 2435   1.627   3.548   6.879  0.4171 -0.0111  0.3358
    1PC      C1 2436   1.486   3.548   6.919  0.0190 -0.5104 -0.2194
    1PC      HR 2437   1.473   3.605   7.011 -1.8173 -2.3563  0.7012
    1PC      HS 2438   1.423   3.582   6.837 -0.7865 -0.9161  0.2264
    1PC      C2 2439   1.451   3.398   6.961 -0.3189  0.2361 -0.3926
    1PC      HX 2440   1.345   3.391   6.987  0.1940  3.2258  2.9337
    1PC      C3 2441   1.523   3.356   7.092 -0.3427  0.4424  0.1321
    1PC      HA 2442   1.487   3.425   7.168 -0.8374 -0.9157  1.1493
    1PC      HB 2443   1.482   3.262   7.129 -0.5964  1.4975  2.6396
    1PC     O31 2444   1.666   3.357   7.089 -0.3263  0.2786  0.0365
    1PC     P31 2445   1.745   3.277   7.197  0.2235  0.5219 -0.0177
    1PC     O32 2446   1.745   3.123   7.147 -0.4100 -0.4532 -0.7522
    1PC     C31 2447   1.829   3.091   7.034  1.0151  0.7212  0.1095
    1PC     H1A 2448   1.786   3.006   6.980  2.6734  0.8046 -1.3702
    1PC     H1B 2449   1.839   3.170   6.959 -2.7343  0.6875 -0.5484
    1PC     C32 2450   1.955   3.023   7.092 -0.3908  0.3980  0.7342
    1PC     H2A 2451   1.976   3.091   7.175  0.8056  1.3449 -0.3210
    1PC     H2B 2452   1.941   2.922   7.131  0.8177 -0.6572 -1.4815
    1PC     N31 2453   2.078   3.001   7.004  0.5547 -0.3114 -0.6363
    1PC     C33 2454   2.032   2.939   6.871  0.3103  0.4259 -0.6074
    1PC     H3A 2455   1.988   2.846   6.906 -1.7676  0.4318 -3.0674
    1PC     H3B 2456   1.950   2.998   6.830 -0.3238 -0.4387 -0.6029
    1PC     H3C 2457   2.117   2.925   6.804  0.8603 -2.3197  0.6000
    1PC     C34 2458   2.157   3.124   6.984 -0.5540 -0.4249  0.3710
    1PC     H4A 2459   2.230   3.101   6.906 -0.9816  0.8764 -0.4327
    1PC     H4B 2460   2.088   3.202   6.952  0.6125  0.8726  0.9559
    1PC     H4C 2461   2.205   3.155   7.077  0.4302 -0.4585 -0.1228
    1PC     C35 2462   2.173   2.908   7.074 -0.4521  0.2230 -0.0581
    1PC     H5A 2463   2.260   2.903   7.009 -2.2952 -1.0643 -2.4945
    1PC     H5B 2464   2.116   2.817   7.094 -0.8191  0.0544 -1.7948
    1PC     H5C 2465   2.198   2.953   7.170  0.6231 -0.7217  0.1090
    1PC     O33 2466   1.886   3.329   7.202 -0.1011  0.6267  0.2026
    1PC     O34 2467   1.672   3.293   7.322  0.3130  0.4430 -0.3388
    1PC     O21 2468   1.481   3.311   6.853 -0.4257 -0.0274 -0.0770
    1PC     C21 2469   1.453   3.180   6.854  0.9300 -0.8302  0.0688
    1PC     O22 2470   1.400   3.121   6.945  0.4424 -0.0352 -0.1977
    1OL     C12 2471   1.489   3.121   6.714  0.0251 -0.5595 -0.4771
    1OL     H2R 2472   1.416   3.156   6.641 -0.2596  0.5864  0.3292
    1OL     H2S 2473   1.481   3.012   6.710 -0.0220 -0.4951 -2.3460
    1OL     C13 2474   1.631   3.162   6.665  0.3289  0.1218  0.5939
    1OL     H3R 2475   1.701   3.155   6.748 -1.1523  0.1580  1.8741
    1OL     H3S 2476   1.620   3.269   6.647 -0.9577  0.0893  1.1278
    1OL     C14 2477   1.679   3.075   6.551 -1.1316  0.2066 -0.1447
    1OL     H4R 2478   1.627   3.119   6.465  1.2432  0.7260 -1.3379
    1OL     H4S 2479   1.654   2.970   6.570  0.8272 -0.0476  1.1549
    1OL     C15 2480   1.828   3.105   6.523 -0.4779  0.2698 -0.4775
    1OL     H5R 2481   1.874   3.117   6.622 -0.9531  1.4308 -0.3949
    1OL     H5S 2482   1.830   3.209   6.491 -1.0524  0.0522 -1.2166
    1OL     C16 2483   1.898   3.004   6.431  1.2766 -1.3728 -0.4843
    1OL     H6R 2484   1.852   2.996   6.333  1.7511 -0.5703 -0.7723
    1OL     H6S 2485   1.891   2.908   6.483 -0.8684 -1.2112 -0.4254
    1OL     C17 2486   2.045   3.050   6.406 -0.2614 -0.3816  1.2167
    1OL     H7R 2487   2.105   3.019   6.492 -0.4247  0.2173  1.5482
    1OL     H7S 2488   2.053   3.159   6.405 -1.3421 -0.2937  0.8375
    1OL     C18 2489   2.127   2.983   6.293 -0.0362 -0.3611  0.0042
    1OL     H8R 2490   2.111   2.875   6.287 -0.6024 -0.3848  1.5565
    1OL     H8S 2491   2.231   3.001   6.321  0.1119 -1.7039  0.3589
    1OL     C19 2492   2.088   3.058   6.168 -0.0471 -0.1195  0.4852
    1OL     H9R 2493   1.986   3.093   6.162  0.7951  2.2033 -0.9838
    1OL    C110 2494   2.174   3.078   6.066  0.4579  0.1514 -0.1334
    1OL    H10R 2495   2.147   3.139   5.980  3.1305  0.3430 -0.8888
    1OL    C111 2496   2.313   3.019   6.046 -0.7132  0.5795 -0.0159
    1OL    H11R 2497   2.312   2.910   6.048 -1.3107  0.5690 -0.8993
    1OL    H11S 2498   2.377   3.056   6.127 -0.5891 -1.5669  0.9085
    1OL    C112 2499   2.383   3.062   5.913 -0.4612  0.4919  0.2282
    1OL    H12R 2500   2.488   3.033   5.919 -1.0114 -1.0183  3.6960
    1OL    H12S 2501   2.384   3.171   5.918  2.6846  0.4622  1.5529
    1OL    C113 2502   2.320   3.015   5.779 -0.5766 -0.3707 -0.2626
    1OL    H13R 2503   2.370   3.069   5.698 -0.0387 -2.0190 -1.0424
    1OL    H13S 2504   2.221   3.060   5.777 -1.6925 -2.7873 -0.0869
    1OL    C114 2505   2.312   2.860   5.758 -0.4978  0.3634  0.4755
    1OL    H14R 2506   2.239   2.822   5.829 -0.2678  0.2190  0.6330
    1OL    H14S 2507   2.408   2.818   5.789 -0.8362 -0.5274  0.3314
    1OL    C115 2508   2.274   2.824   5.614  0.1719  0.1439 -0.5687
    1OL    H15R 2509   2.362   2.850   5.554 -1.1173  2.3131 -1.5937
    1OL    H15S 2510   2.185   2.873   5.574 -0.5391 -1.2957 -0.7820
    1OL    C116 2511   2.244   2.670   5.602  0.3378 -0.1691 -0.3469
    1OL    H16R 2512   2.137   2.656   5.617  0.3870 -1.1701 -0.9186
    1OL    H16S 2513   2.304   2.623   5.680 -0.2575 -0.1028  0.1533
    1OL    C117 2514   2.290   2.616   5.467  0.3070  0.6437 -0.2799
    1OL    H17R 2515   2.268   2.509   5.463  0.0077  0.7052 -0.3557
    1OL    H17S 2516   2.394   2.631   5.437  0.8739 -0.5123  1.1096
    1OL    C118 2517   2.206   2.674   5.351  0.5623 -0.6532 -0.3701
    1OL    H18R 2518   2.249   2.627   5.262 -0.2699 -1.0564 -0.5568
    1OL    H18S 2519   2.207   2.781   5.330  1.8707 -0.1462  2.1412
    1OL    H18T 2520   2.103   2.638   5.353 -0.8648  3.2965  1.8646
    1PA    C116 2521   2.002   1.992   5.047  0.0369  0.0358 -0.9825
    1PA    H16R 2522   1.942   2.024   4.962  0.0624  0.5356 -0.8154
    1PA    H16S 2523   2.087   1.935   5.008  0.9181  0.3343  0.4469
    1PA    H16T 2524   2.052   2.084   5.079  0.9580 -0.4819 -0.9160
    1PA    C115 2525   1.910   1.930   5.153 -0.3848 -0.7188 -0.0359
    1PA    H15R 2526   1.821   1.992   5.162  1.8850  2.6874  0.0554
    1PA    H15S 2527   1.879   1.829   5.125 -1.0631 -0.6918  0.5888
    1PA    C114 2528   1.977   1.921   5.288  0.5455 -0.6077  0.9474
    1PA    H14R 2529   2.072   1.867   5.279  1.3222  0.4717  2.5273
    1PA    H14S 2530   2.004   2.018   5.331  1.3946  1.7935 -4.5642
    1PA    C113 2531   1.896   1.845   5.401 -0.4193  0.2508  0.3679
    1PA    H13R 2532   1.802   1.900   5.404 -1.4053 -1.4398  1.4901
    1PA    H13S 2533   1.877   1.744   5.362  0.5716 -0.4149  1.5521
    1PA    C112 2534   1.968   1.822   5.538  0.2387 -0.4422 -0.3266
    1PA    H12R 2535   2.074   1.802   5.527  0.4754 -1.1694  2.8802
    1PA    H12S 2536   1.965   1.913   5.598  1.6858 -1.8921  2.0074
    1PA    C111 2537   1.903   1.701   5.613 -0.1641  0.3134  0.0706
    1PA    H11R 2538   1.802   1.731   5.642 -0.5447 -2.3318  1.6035
    1PA    H11S 2539   1.900   1.618   5.542 -0.5676 -0.7333  1.3028
    1PA    C110 2540   1.973   1.661   5.751 -0.1136 -0.4970  0.2905
    1PA    H10R 2541   2.080   1.682   5.753 -0.1154 -0.4401 -0.2369
    1PA    H10S 2542   1.928   1.734   5.820  0.3666  1.0684 -1.0247
    1PA     C19 2543   1.938   1.518   5.785  0.3337 -0.7097  1.0213
    1PA     H9R 2544   1.832   1.498   5.767  0.1418  1.4766 -0.4196
    1PA     H9S 2545   1.993   1.459   5.711 -0.2441 -0.8079  0.6675
    1PA     C18 2546   1.986   1.472   5.927  0.5739  0.4681  0.2495
    1PA     H8R 2547   1.980   1.364   5.935  0.9876  0.5787  2.2406
    1PA     H8S 2548   2.094   1.488   5.933  0.4814  1.4845 -0.6339
    1PA     C17 2549   1.919   1.546   6.045  0.4349  0.0528 -0.5020
    1PA     H7R 2550   1.940   1.486   6.134 -0.4918 -1.7745 -1.4877
    1PA     H7S 2551   1.976   1.638   6.050  2.2277 -1.0634  0.0469
    1PA     C16 2552   1.764   1.574   6.043 -1.4481  0.6047 -0.3230
    1PA     H6R 2553   1.741   1.617   5.945 -2.2561  0.6843 -0.0998
    1PA     H6S 2554   1.719   1.475   6.045 -1.5382  0.6571  0.1128
    1PA     C15 2555   1.715   1.668   6.156  0.1559  0.1620  0.4490
    1PA     H5R 2556   1.747   1.633   6.255 -0.3775  1.9251  1.2744
    1PA     H5S 2557   1.774   1.758   6.144 -0.2884  0.2508 -1.0823
    1PA     C14 2558   1.566   1.689   6.139  0.7099  0.1683 -0.2812
    1PA     H4R 2559   1.566   1.788   6.093  0.9675  1.0179  1.5217
    1PA     H4S 2560   1.518   1.618   6.072 -0.4962  1.5771 -0.9466
    1PA     C13 2561   1.475   1.702   6.270  0.0232 -0.8780 -0.1719
    1PA     H3R 2562   1.475   1.610   6.329 -0.9682  0.0236  1.2828
    1PA     H3S 2563   1.524   1.777   6.331 -1.2243 -1.8759  2.1063
    1PA     C12 2564   1.327   1.742   6.233 -0.2737 -0.1080  0.2876
    1PA     H2R 2565   1.315   1.833   6.174 -0.2130  0.9849  1.9437
    1PA     H2S 2566   1.263   1.663   6.191 -1.9158  0.6350  1.3369
    1PC     C11 2567   1.263   1.776   6.365  0.2603  0.3539 -0.7825
    1PC     O12 2568   1.291   1.874   6.427  0.2019  0.3131 -0.0053
    1PC     O11 2569   1.177   1.679   6.407  0.0339 -0.1009 -0.2819
    1PC      C1 2570   1.137   1.682   6.548  0.0692  0.1841  0.9995
    1PC      HR 2571   1.125   1.784   6.584 -2.2712  0.6362 -0.9430
    1PC      HS 2572   1.045   1.623   6.556  0.5804 -0.9303 -1.0738
    1PC      C2 2573   1.246   1.610   6.628 -0.2994 -0.0205  0.2588
    1PC      HX 2574   1.282   1.523   6.573 -1.0644  0.3299 -0.8124
    1PC      C3 2575   1.182   1.579   6.773 -0.1689 -0.0124 -0.0034
    1PC      HA 2576   1.096   1.515   6.750  1.5387 -1.7586 -1.6678
    1PC      HB 2577   1.244   1.519   6.839  1.5626 -1.6437 -3.0059
    1PC     O31 2578   1.140   1.708   6.834  0.3724  0.2470 -0.2514
    1PC     P31 2579   1.227   1.783   6.947  0.0271  0.4692 -0.2147
    1PC     O32 2580   1.349   1.865   6.873 -0.4523 -0.1003  0.0580
    1PC     C31 2581   1.338   2.000   6.845  0.2884  1.1892 -0.1443
    1PC     H1A 2582   1.275   2.047   6.921 -0.8352 -1.5341  0.6770
    1PC     H1B 2583   1.443   2.028   6.835 -0.5246  3.8729 -1.7216
    1PC     C32 2584   1.254   2.025   6.729  0.2956  0.2487  0.2589
    1PC     H2A 2585   1.261   1.932   6.673 -1.4989  0.2136  0.0585
    1PC     H2B 2586   1.151   2.043   6.763 -0.3855 -1.1774 -0.9847
    1PC     N31 2587   1.276   2.150   6.658  0.0094 -0.3979 -0.2214
    1PC     C33 2588   1.280   2.266   6.740  0.2406 -0.4003 -0.5107
    1PC     H3A 2589   1.371   2.261   6.800 -0.0567 -0.1534 -0.0404
    1PC     H3B 2590   1.272   2.355   6.679 -2.8717  0.4518  1.0199
    1PC     H3C 2591   1.191   2.260   6.804 -0.3914 -1.3106 -1.4507
    1PC     C34 2592   1.400   2.148   6.575 -0.3841 -0.0172 -0.1205
    1PC     H4A 2593   1.488   2.180   6.630  0.9848 -2.1621 -0.9743
    1PC     H4B 2594   1.414   2.045   6.542  0.2439  0.6593 -2.0647
    1PC     H4C 2595   1.379   2.209   6.487 -0.0395  0.4659  0.1367
    1PC     C35 2596   1.158   2.160   6.564  0.3320  0.5902  0.0147
    1PC     H5A 2597   1.160   2.251   6.503  0.4607  1.3968  1.2054
    1PC     H5B 2598   1.071   2.161   6.629  0.9828 -0.9316  0.9537
    1PC     H5C 2599   1.147   2.078   6.493  2.2495 -0.9122  1.3849
    1PC     O33 2600   1.132   1.878   7.009 -0.0884  0.0488  0.3853
    1PC     O34 2601   1.296   1.680   7.032  0.1027 -0.2297 -0.6349
    1PC     O21 2602   1.368   1.694   6.642  0.4312  0.8398  0.3764
    1PC     C21 2603   1.482   1.638   6.695  0.1743 -0.0717 -0.8751
    1PC     O22 2604   1.481   1.524   6.733 -0.1633 -0.5270 -0.7879
    1OL     C12 2605   1.601   1.732   6.711 -0.0153 -0.0075  0.0220
    1OL     H2R 2606   1.681   1.659   6.721 -1.7728 -1.7690  1.7476
    1OL     H2S 2607   1.588   1.797   6.799  2.2492 -0.3529  0.6351
    1OL     C13 2608   1.644   1.808   6.581 -0.7361  0.2217  0.4178
    1OL     H3R 2609   1.575   1.891   6.561 -0.9200  0.3742  1.6410
    1OL     H3S 2610   1.630   1.736   6.500  1.0186  0.1904  0.1259
    1OL     C14 2611   1.799   1.840   6.586 -0.1263 -0.1699 -0.2329
    1OL     H4R 2612   1.854   1.748   6.610  0.1648  0.0449 -0.0663
    1OL     H4S 2613   1.825   1.903   6.671 -2.1767 -0.2419  0.4707
    1OL     C15 2614   1.865   1.895   6.459 -0.3924 -0.4093 -0.8047
    1OL     H5R 2615   1.860   1.819   6.380  1.6872 -1.2166 -0.1899
    1OL     H5S 2616   1.972   1.914   6.472 -0.0272 -2.0912 -1.1397
    1OL     C16 2617   1.794   2.019   6.393 -0.7147  0.0587 -0.2765
    1OL     H6R 2618   1.693   1.999   6.358 -1.0249 -1.2628  1.3008
    1OL     H6S 2619   1.847   2.051   6.303  0.3876 -1.8869 -0.3434
    1OL     C17 2620   1.789   2.138   6.485  0.3492 -1.3906 -0.6027
    1OL     H7R 2621   1.877   2.161   6.545 -2.3307 -0.0381  2.9387
    1OL     H7S 2622   1.719   2.115   6.566  0.6248  0.4977  0.1912
    1OL     C18 2623   1.734   2.270   6.419  0.8406 -0.2579 -0.1181
    1OL     H8R 2624   1.729   2.336   6.506 -0.0577 -1.5066  0.7952
    1OL     H8S 2625   1.634   2.252   6.381  1.7000 -0.8576 -2.1174
    1OL     C19 2626   1.835   2.316   6.313 -0.4044 -0.5836  0.2778
    1OL     H9R 2627   1.937   2.332   6.347 -0.2093 -0.6402 -0.2769
    1OL    C110 2628   1.815   2.331   6.181  0.3113  0.2994 -0.3748
    1OL    H10R 2629   1.891   2.369   6.114  0.8282 -0.2855 -0.1225
    1OL    C111 2630   1.675   2.312   6.116 -0.1044  0.3432 -0.4189
    1OL    H11R 2631   1.601   2.347   6.189 -1.2412 -2.4866 -0.1612
    1OL    H11S 2632   1.656   2.209   6.088 -1.4104  0.1714  1.0511
    1OL    C112 2633   1.661   2.411   5.994  0.4172 -0.0032  0.2881
    1OL    H12R 2634   1.743   2.396   5.923 -0.5440 -1.3003 -0.5687
    1OL    H12S 2635   1.666   2.507   6.046 -0.5633  0.3689 -0.2982
    1OL    C113 2636   1.524   2.411   5.917 -0.0576 -0.2685  0.2202
    1OL    H13R 2637   1.430   2.428   5.971  0.1556  1.8643 -0.0386
    1OL    H13S 2638   1.521   2.310   5.875 -0.3088 -1.7194  3.5542
    1OL    C114 2639   1.527   2.507   5.795 -0.5373 -0.0063 -0.5187
    1OL    H14R 2640   1.616   2.484   5.736 -0.8889  0.9703 -1.4309
    1OL    H14S 2641   1.533   2.608   5.834 -1.6961 -0.1068 -0.0597
    1OL    C115 2642   1.407   2.503   5.692 -0.5226 -0.1709 -0.5914
    1OL    H15R 2643   1.405   2.407   5.640  0.2911 -0.9939  0.8757
    1OL    H15S 2644   1.425   2.588   5.626 -0.5882  0.5710  0.3248
    1OL    C116 2645   1.270   2.514   5.761 -0.1607 -0.4105  0.2894
    1OL    H16R 2646   1.268   2.554   5.862 -0.1934  0.3892 -0.0232
    1OL    H16S 2647   1.225   2.417   5.783 -0.2455 -0.5940 -0.6469
    1OL    C117 2648   1.171   2.585   5.666  1.0480 -0.3197  0.1577
    1OL    H17R 2649   1.163   2.532   5.571 -1.1334 -0.2455  0.2792
    1OL    H17S 2650   1.212   2.683   5.641  1.1749 -0.4865 -0.2886
    1OL    C118 2651   1.031   2.612   5.713 -0.2771 -0.0105  0.2042
    1OL    H18R 2652   0.964   2.647   5.635  0.3211  0.9868  0.1318
    1OL    H18S 2653   1.028   2.682   5.797 -0.9508 -2.3355  2.1761
    1OL    H18T 2654   0.979   2.520   5.741 -0.7388 -0.5175 -2.2103
    1PA    C116 2655   2.236   0.927   6.293  0.3176  0.1706  0.4933
    1PA    H16R 2656   2.215   0.824   6.263 -3.9015  0.8053  1.0188
    1PA    H16S 2657   2.318   0.924   6.365  0.3395  0.7898  0.4973
    1PA    H16T 2658   2.257   0.989   6.205 -0.3541  1.1365  1.0062
    1PA    C115 2659   2.109   0.982   6.364 -0.0560 -0.4553  0.1376
    1PA    H15R 2660   2.039   1.022   6.291 -0.3087  0.7294  1.0082
    1PA    H15S 2661   2.063   0.891   6.405  2.4807 -1.9149 -0.1205
    1PA    C114 2662   2.142   1.093   6.458  0.0222 -0.0851 -0.1807
    1PA    H14R 2663   2.219   1.066   6.531  0.2408  0.5721 -0.1633
    1PA    H14S 2664   2.185   1.177   6.403  0.2653  0.0282  0.1796
    1PA    C113 2665   2.028   1.148   6.542  0.1800  0.3525 -0.4939
    1PA    H13R 2666   1.977   1.066   6.592  3.0510 -0.8558  0.5764
    1PA    H13S 2667   2.081   1.213   6.613  1.5958 -0.9360 -0.3447
    1PA    C112 2668   1.929   1.235   6.452  0.2472 -0.1498 -0.8493
    1PA    H12R 2669   1.985   1.315   6.403  1.4209  1.0913  2.4018
    1PA    H12S 2670   1.884   1.173   6.375  1.1376  0.0320 -1.5271
    1PA    C111 2671   1.821   1.302   6.536  0.0491  0.1615 -0.1857
    1PA    H11R 2672   1.748   1.224   6.561 -3.4304  3.2373 -0.2749
    1PA    H11S 2673   1.856   1.350   6.628 -1.3508  0.2759  0.2968
    1PA    C110 2674   1.738   1.417   6.461 -0.3094  0.4798 -0.1306
    1PA    H10R 2675   1.659   1.455   6.526 -1.7986  1.9899 -2.7507
    1PA    H10S 2676   1.796   1.506   6.436 -1.6374  1.3014 -0.3243
    1PA     C19 2677   1.666   1.371   6.330  0.9003 -0.3315  0.2917
    1PA     H9R 2678   1.608   1.450   6.283 -0.5820 -1.3261  0.4355
    1PA     H9S 2679   1.740   1.342   6.255  0.2111  1.5357 -1.1437
    1PA     C18 2680   1.562   1.255   6.348  0.2404 -0.2289 -0.1235
    1PA     H8R 2681   1.541   1.223   6.246 -1.2542  0.9125 -0.1945
    1PA     H8S 2682   1.602   1.170   6.404 -1.6403 -2.2639 -1.7562
    1PA     C17 2683   1.432   1.303   6.412 -0.1129  0.3455 -0.5342
    1PA     H7R 2684   1.464   1.324   6.514  0.7704 -0.9331 -0.5306
    1PA     H7S 2685   1.376   1.387   6.370 -0.3748  0.1220 -0.6331
    1PA     C16 2686   1.333   1.185   6.448 -0.6971  0.3971  0.1678
    1PA     H6R 2687   1.391   1.128   6.521 -1.5476  0.7773  1.1660
    1PA     H6S 2688   1.245   1.234   6.491 -1.6719  1.4406 -2.9039
    1PA     C15 2689   1.288   1.094   6.331 -0.0211  0.0974 -0.1252
    1PA     H5R 2690   1.267   1.156   6.244 -2.9907 -1.4609 -0.6194
    1PA     H5S 2691   1.372   1.031   6.302 -0.3971 -0.3275 -0.3092
    1PA     C14 2692   1.161   1.011   6.357  0.2699  0.3622  0.0466
    1PA     H4R 2693   1.076   1.074   6.386  2.7313  3.0659  1.6287
    1PA     H4S 2694   1.128   0.964   6.264 -1.2174 -2.4239  1.8893
    1PA     C13 2695   1.162   0.905   6.470  0.2643  0.7872 -0.6736
    1PA     H3R 2696   1.080   0.838   6.444 -0.7242  1.5961  0.3188
    1PA     H3S 2697   1.251   0.843   6.462 -1.3420 -2.1894  2.9029
    1PA     C12 2698   1.154   0.942   6.617 -0.1665  0.4653 -0.0868
    1PA     H2R 2699   1.224   1.022   6.642  2.3070 -1.2758 -1.1911
    1PA     H2S 2700   1.053   0.970   6.645 -0.2767  1.5185 -1.4489
    1PC     C11 2701   1.192   0.825   6.702 -0.2702 -0.2355  0.7211
    1PC     O12 2702   1.122   0.727   6.714 -0.4432  0.3619  0.2810
    1PC     O11 2703   1.308   0.839   6.773  0.2862  0.3519  0.2766
    1PC      C1 2704   1.372   0.719   6.834  0.3695 -0.1285  0.4267
    1PC      HR 2705   1.296   0.672   6.897 -0.4154  0.6143  0.0506
    1PC      HS 2706   1.405   0.661   6.747  0.5588  0.8207 -0.1436
    1PC      C2 2707   1.501   0.756   6.916  0.1430 -0.7986  0.4393
    1PC      HX 2708   1.544   0.662   6.953 -0.0774 -1.0111  0.1636
    1PC      C3 2709   1.475   0.851   7.031  0.2149 -0.3500 -0.2050
    1PC      HA 2710   1.446   0.946   6.987  0.2050 -1.0269 -1.6988
    1PC      HB 2711   1.390   0.822   7.093  0.3566  0.2668  0.2742
    1PC     O31 2712   1.592   0.879   7.108 -0.4744 -0.3054  0.2419
    1PC     P31 2713   1.597   0.797   7.245  0.1145  0.2627  0.2661
    1PC     O32 2714   1.500   0.876   7.350  0.4533 -0.2690  0.8288
    1PC     C31 2715   1.511   1.024   7.374  0.5898  0.5439  0.2253
    1PC     H1A 2716   1.528   1.077   7.280 -1.4902  1.1030  0.1386
    1PC     H1B 2717   1.419   1.063   7.417  0.2853 -1.1229  1.1276
    1PC     C32 2718   1.628   1.047   7.477 -0.2778 -0.1229  0.3970
    1PC     H2A 2719   1.724   1.001   7.452  0.2301  1.2191 -0.1819
    1PC     H2B 2720   1.650   1.153   7.488 -1.1908  0.1121 -0.0213
    1PC     N31 2721   1.594   1.015   7.625 -0.2808 -0.1016  0.0806
    1PC     C33 2722   1.470   1.092   7.671 -0.3803  0.3535 -0.3347
    1PC     H3A 2723   1.458   1.083   7.779 -0.6454  1.0675 -0.3011
    1PC     H3B 2724   1.481   1.198   7.646 -1.8896  0.0151 -2.6083
    1PC     H3C 2725   1.391   1.054   7.606  0.1971  0.0113 -0.8455
    1PC     C34 2726   1.558   0.873   7.641  0.8445  0.7138 -0.1579
    1PC     H4A 2727   1.464   0.856   7.590 -0.0727  0.6220  1.5474
    1PC     H4B 2728   1.650   0.825   7.607  0.5539  0.8458 -1.1288
    1PC     H4C 2729   1.542   0.856   7.748  1.5756 -1.6063 -0.4031
    1PC     C35 2730   1.708   1.042   7.714 -0.0040  0.1446 -0.5388
    1PC     H5A 2731   1.739   1.143   7.687 -2.3298  0.8828 -0.5537
    1PC     H5B 2732   1.795   0.977   7.709  1.3297  1.9360 -1.1584
    1PC     H5C 2733   1.665   1.048   7.814  1.1054  0.4123 -0.0710
    1PC     O33 2734   1.547   0.656   7.231 -0.7208 -0.0044  0.0576
    1PC     O34 2735   1.732   0.824   7.301  0.0087 -0.2892 -0.2010
    1PC     O21 2736   1.591   0.825   6.823  0.2117  0.3625 -0.5379
    1PC     C21 2737   1.652   0.752   6.732 -0.0127 -0.2267  0.4472
    1PC     O22 2738   1.656   0.632   6.734  0.1714  0.3767  0.1495
    1OL     C12 2739   1.713   0.840   6.622 -0.3080  0.0080  0.1369
    1OL     H2R 2740   1.821   0.831   6.631 -0.1585  1.8685  0.4663
    1OL     H2S 2741   1.688   0.945   6.642 -1.2631 -0.0407 -0.7914
    1OL     C13 2742   1.662   0.800   6.478 -0.7101  0.0602 -0.6553
    1OL     H3R 2743   1.553   0.797   6.472 -0.8194  1.3875  0.4126
    1OL     H3S 2744   1.698   0.700   6.455 -0.7259 -0.6932  2.4678
    1OL     C14 2745   1.705   0.901   6.366 -0.5931  0.0970  0.9107
    1OL     H4R 2746   1.810   0.931   6.375  0.2696 -2.8305  0.9748
    1OL     H4S 2747   1.649   0.995   6.366  0.9301  1.0348  1.8493
    1OL     C15 2748   1.681   0.829   6.230  0.6349  0.2358 -0.5814
    1OL     H5R 2749   1.596   0.761   6.238  0.5392  0.5200  0.8869
    1OL     H5S 2750   1.766   0.759   6.225  1.2746  0.8483  1.2850
    1OL     C16 2751   1.664   0.911   6.103 -0.4731  0.4388  0.3140
    1OL     H6R 2752   1.566   0.958   6.088 -0.3632  0.0351 -1.8384
    1OL     H6S 2753   1.673   0.831   6.029 -1.1352 -0.2615  0.9808
    1OL     C17 2754   1.773   1.015   6.091  0.6131 -0.0676  0.3058
    1OL     H7R 2755   1.864   0.955   6.088 -1.0379 -2.6596  0.0167
    1OL     H7S 2756   1.770   1.089   6.171 -2.0298 -0.2347  0.4043
    1OL     C18 2757   1.779   1.092   5.957  0.6985  0.7506  0.3514
    1OL     H8R 2758   1.802   1.030   5.869 -0.9077  0.9719 -0.2458
    1OL     H8S 2759   1.873   1.146   5.945  2.2218 -2.3322 -2.8109
    1OL     C19 2760   1.662   1.184   5.932  0.1181  0.0339 -0.2549
    1OL     H9R 2761   1.633   1.247   6.017  1.3859  0.8672 -0.4207
    1OL    C110 2762   1.597   1.203   5.815 -0.5019  0.6154  0.1680
    1OL    H10R 2763   1.525   1.284   5.808 -0.4729  0.6257 -0.0009
    1OL    C111 2764   1.628   1.135   5.683 -0.8617 -0.1364 -0.0942
    1OL    H11R 2765   1.537   1.133   5.622 -1.7012  4.5891  0.8563
    1OL    H11S 2766   1.661   1.031   5.693 -0.4830 -0.0959 -0.8906
    1OL    C112 2767   1.744   1.210   5.606 -0.0895  0.0034 -0.1767
    1OL    H12R 2768   1.826   1.231   5.675 -0.4226  3.4516 -0.7198
    1OL    H12S 2769   1.706   1.307   5.572  0.3589  0.6568  1.1482
    1OL    C113 2770   1.806   1.147   5.483  0.4471 -0.0370  0.6591
    1OL    H13R 2771   1.881   1.220   5.453  0.2388  0.6348  1.7400
    1OL    H13S 2772   1.731   1.139   5.404  0.1995  0.0021  0.8889
    1OL    C114 2773   1.890   1.018   5.507  1.0550  0.4352  0.0668
    1OL    H14R 2774   1.939   0.977   5.419  2.1124  0.3342  0.6857
    1OL    H14S 2775   1.822   0.941   5.544  1.4048 -0.6366 -1.4582
    1OL    C115 2776   1.986   1.027   5.622 -0.5514 -0.1175  0.0607
    1OL    H15R 2777   2.028   0.929   5.648 -0.3581 -0.1496 -0.3658
    1OL    H15S 2778   1.938   1.071   5.710 -0.9748 -0.8181  0.1792
    1OL    C116 2779   2.120   1.098   5.590 -0.3580 -0.0592 -0.3182
    1OL    H16R 2780   2.105   1.200   5.553  0.1473  0.7014  1.5075
    1OL    H16S 2781   2.154   1.052   5.497  1.5085 -0.0161  0.3234
    1OL    C117 2782   2.227   1.088   5.702  0.1094 -0.7554 -0.6358
    1OL    H17R 2783   2.322   1.115   5.658 -0.0288  3.0721  1.2519
    1OL    H17S 2784   2.229   0.984   5.736 -2.6095  0.1142  2.5002
    1OL    C118 2785   2.205   1.192   5.816  0.3813  0.2573 -0.0234
    1OL    H18R 2786   2.264   1.167   5.904 -0.7604 -2.5356  0.0112
    1OL    H18S 2787   2.102   1.188   5.852  1.3869  3.5547  3.5186
    1OL    H18T 2788   2.235   1.292   5.784  2.4130 -0.7201 -1.2953
    1PA    C116 2789   3.102   4.508   5.286  0.2594 -0.0370 -0.1529
    1PA    H16R 2790   3.189   4.556   5.240 -0.4246  0.5543 -0.8514
    1PA    H16S 2791   3.013   4.511   5.224 -1.7203  2.2101  2.6632
    1PA    H16T 2792   3.114   4.402   5.310 -0.4011  0.0646  0.6439
    1PA    C115 2793   3.065   4.566   5.422  0.0958 -0.3629  0.5402
    1PA    H15R 2794   2.983   4.501   5.454 -0.5975 -0.5154 -1.5229
    1PA    H15S 2795   3.139   4.570   5.503 -2.3547 -0.3527  2.8594
    1PA    C114 2796   3.013   4.709   5.409  0.2188  0.3922  0.4688
    1PA    H14R 2797   3.089   4.775   5.367 -1.9590  1.3400 -2.1627
    1PA    H14S 2798   2.933   4.693   5.336  0.2292 -0.7767  0.6961
    1PA    C113 2799   2.941   4.770   5.528 -0.1537 -0.2570  0.4838
    1PA    H13R 2800   2.891   4.865   5.510  1.7922  1.3485  3.2923
    1PA    H13S 2801   2.858   4.706   5.559  2.1577 -2.7504  1.7327
    1PA    C112 2802   3.047   4.787   5.643  0.0280  0.0776  0.5698
    1PA    H12R 2803   3.114   4.702   5.657  0.2122 -0.0266 -0.8032
    1PA    H12S 2804   3.109   4.870   5.608 -1.2731  0.6124 -0.5331
    1PA    C111 2805   2.990   4.837   5.780  0.2466 -0.0640 -0.0921
    1PA    H11R 2806   2.923   4.917   5.750  1.1650 -0.1373 -2.4537
    1PA    H11S 2807   2.932   4.756   5.826 -3.2690  2.1966 -0.4142
    1PA    C110 2808   3.095   4.898   5.870  0.4859 -0.0526  0.1308
    1PA    H10R 2809   3.139   4.983   5.818 -1.1111  0.3541 -0.6066
    1PA    H10S 2810   3.049   4.932   5.963 -0.2537 -0.9791  0.1052
    1PA     C19 2811   3.203   4.792   5.911  0.2385 -0.2724  0.8898
    1PA     H9R 2812   3.158   4.693   5.919  2.6662 -1.7893 -2.3971
    1PA     H9S 2813   3.278   4.791   5.830 -2.7971  0.3941 -2.0495
    1PA     C18 2814   3.273   4.825   6.043 -0.7413 -0.5424 -1.0111
    1PA     H8R 2815   3.316   4.925   6.031 -2.6926  0.6894  1.7479
    1PA     H8S 2816   3.205   4.828   6.128  2.1694 -1.5739  1.4365
    1PA     C17 2817   3.383   4.727   6.078  0.4151  0.1178  0.5642
    1PA     H7R 2818   3.338   4.629   6.063  2.7813 -0.8676 -0.3721
    1PA     H7S 2819   3.471   4.730   6.013  0.5857 -0.6521  0.7522
    1PA     C16 2820   3.409   4.754   6.229  0.2736 -0.6352 -0.1065
    1PA     H6R 2821   3.431   4.860   6.246  1.4482 -0.4731 -2.3650
    1PA     H6S 2822   3.321   4.720   6.283  2.1540 -0.8449  2.9286
    1PA     C15 2823   3.535   4.666   6.266  0.6148 -0.3690  0.0962
    1PA     H5R 2824   3.511   4.562   6.246 -0.1686  0.0639 -1.3217
    1PA     H5S 2825   3.617   4.714   6.211  0.7546 -1.0208 -0.2626
    1PA     C14 2826   3.543   4.678   6.420  0.3490  0.4502  0.6605
    1PA     H4R 2827   3.548   4.782   6.451  0.2480  0.8143 -0.5142
    1PA     H4S 2828   3.447   4.648   6.462  0.3421  0.6591  0.7913
    1PA     C13 2829   3.651   4.593   6.478  0.1731  0.1714 -0.9318
    1PA     H3R 2830   3.745   4.614   6.428  1.0476 -0.3165  0.4767
    1PA     H3S 2831   3.665   4.615   6.584 -1.5073 -2.2580 -0.1438
    1PA     C12 2832   3.623   4.443   6.478  0.0820  0.4154  0.3777
    1PA     H2R 2833   3.621   4.404   6.377 -2.8198  0.9573  0.1797
    1PA     H2S 2834   3.707   4.396   6.531  0.2509 -0.5113 -0.6995
    1PC     C11 2835   3.501   4.404   6.554 -0.2864 -0.0377  0.1946
    1PC     O12 2836   3.472   4.438   6.670 -0.0806  0.3203  0.2801
    1PC     O11 2837   3.406   4.338   6.483  0.1934  0.0172  0.5616
    1PC      C1 2838   3.280   4.297   6.547  0.2173  0.3150  0.1864
    1PC      HR 2839   3.235   4.216   6.490  0.7375 -0.7338  1.2515
    1PC      HS 2840   3.307   4.257   6.645 -0.4372 -2.9085 -0.9044
    1PC      C2 2841   3.187   4.419   6.565 -0.1009 -0.1477 -0.3654
    1PC      HX 2842   3.239   4.505   6.608 -2.5826 -0.0707  2.7282
    1PC      C3 2843   3.060   4.383   6.646  0.5652 -0.5256 -0.4427
    1PC      HA 2844   3.005   4.477   6.660 -0.9502 -1.5662  0.7614
    1PC      HB 2845   2.996   4.314   6.592 -2.0377  1.2776  0.2284
    1PC     O31 2846   3.100   4.322   6.769  0.4378  0.4982 -0.9042
    1PC     P31 2847   2.988   4.284   6.880 -0.2097  0.3058  0.1207
    1PC     O32 2848   3.050   4.146   6.947 -0.2008  0.0973 -0.4869
    1PC     C31 2849   3.162   4.153   7.039 -0.6730 -0.4028  0.2883
    1PC     H1A 2850   3.142   4.235   7.108  2.1441  0.5375  0.0555
    1PC     H1B 2851   3.166   4.062   7.099 -2.3949  0.2885  1.4796
    1PC     C32 2852   3.297   4.169   6.974 -0.3168  0.0952  0.0609
    1PC     H2A 2853   3.320   4.074   6.925 -1.8582 -2.4383  3.9457
    1PC     H2B 2854   3.285   4.249   6.902 -0.7449 -1.3957 -1.5586
    1PC     N31 2855   3.425   4.203   7.054 -0.1535 -0.3142 -0.3003
    1PC     C33 2856   3.539   4.194   6.959  0.4112  0.5144 -0.2669
    1PC     H3A 2857   3.534   4.279   6.891  0.0062  0.7023 -0.0070
    1PC     H3B 2858   3.636   4.196   7.008  1.5412  0.0073 -2.4153
    1PC     H3C 2859   3.519   4.105   6.899  0.7152  0.9633 -1.0398
    1PC     C34 2860   3.415   4.336   7.120 -0.8226 -0.0452  0.2335
    1PC     H4A 2861   3.426   4.405   7.036 -0.4011  1.5081  1.5341
    1PC     H4B 2862   3.324   4.356   7.176  0.3387  0.2054  2.0616
    1PC     H4C 2863   3.502   4.345   7.185  0.4621  1.2440 -1.6025
    1PC     C35 2864   3.439   4.104   7.164  0.7408  0.2975 -0.2782
    1PC     H5A 2865   3.444   4.003   7.122 -0.1142 -0.0230  0.3867
    1PC     H5B 2866   3.352   4.105   7.229  0.0941 -1.7191 -1.0670
    1PC     H5C 2867   3.530   4.126   7.220  1.5085 -1.6156 -0.7103
    1PC     O33 2868   2.982   4.396   6.986 -0.5753  0.5676  0.0201
    1PC     O34 2869   2.861   4.250   6.813  0.1552 -0.1159  0.4683
    1PC     O21 2870   3.136   4.460   6.440 -0.4277 -0.2162 -0.2442
    1PC     C21 2871   3.099   4.589   6.420  0.0374 -0.6176  0.0865
    1PC     O22 2872   3.073   4.673   6.502 -0.4959  0.4050  0.2587
    1OL     C12 2873   3.044   4.599   6.278 -0.1892  0.2046 -0.5920
    1OL     H2R 2874   3.008   4.501   6.248 -1.2616  0.6764 -0.8591
    1OL     H2S 2875   3.119   4.622   6.201  1.2274 -0.9641  0.4137
    1OL     C13 2876   2.921   4.685   6.271  0.4436 -0.5308  0.1461
    1OL     H3R 2877   2.947   4.789   6.291  0.5213 -0.7175  1.0403
    1OL     H3S 2878   2.849   4.667   6.351 -0.1163  0.8325 -0.0356
    1OL     C14 2879   2.856   4.690   6.126 -0.4284 -0.3704 -0.4479
    1OL     H4R 2880   2.831   4.587   6.103 -0.9893 -0.1607 -0.7544
    1OL     H4S 2881   2.929   4.735   6.058  1.1266 -0.2394  1.2350
    1OL     C15 2882   2.722   4.765   6.117  0.2277 -0.2805  0.6055
    1OL     H5R 2883   2.738   4.865   6.157 -1.0865  0.1651  0.0445
    1OL     H5S 2884   2.646   4.720   6.181 -1.5437 -0.2574 -1.4406
    1OL     C16 2885   2.670   4.772   5.973 -0.7570 -0.2494  0.5380
    1OL     H6R 2886   2.742   4.824   5.909 -1.3634 -0.8554 -0.6569
    1OL     H6S 2887   2.576   4.828   5.974  0.6253  2.1968 -1.1644
    1OL     C17 2888   2.644   4.632   5.911 -0.0177 -0.1521  0.2119
    1OL     H7R 2889   2.607   4.567   5.991 -2.5910  0.0379 -0.7974
    1OL     H7S 2890   2.737   4.592   5.869 -0.5307 -0.2197 -0.8753
    1OL     C18 2891   2.546   4.660   5.789 -0.2218 -0.1345  0.0061
    1OL     H8R 2892   2.461   4.706   5.840  0.2591  3.7114 -2.4327
    1OL     H8S 2893   2.517   4.567   5.740 -1.5833 -0.3005  1.1004
    1OL     C19 2894   2.602   4.749   5.683 -0.0558 -0.0976 -0.1310
    1OL     H9R 2895   2.643   4.846   5.711 -2.0024  0.2778  1.5013
    1OL    C110 2896   2.599   4.730   5.552 -0.4616 -0.8556  1.0609
    1OL    H10R 2897   2.655   4.799   5.490  1.2164 -3.8507 -0.9015
    1OL    C111 2898   2.545   4.620   5.473  0.4420 -0.1723  0.0746
    1OL    H11R 2899   2.448   4.648   5.431 -0.2634 -3.5645 -0.6835
    1OL    H11S 2900   2.520   4.539   5.542  0.2031  0.4525  0.7351
    1OL    C112 2901   2.650   4.584   5.360  0.2719  0.2432  0.9817
    1OL    H12R 2902   2.740   4.545   5.408  1.5760  0.5197 -1.1995
    1OL    H12S 2903   2.670   4.670   5.296 -2.5084  0.8834  0.8871
    1OL    C113 2904   2.603   4.472   5.267 -0.3916 -0.1597 -0.3383
    1OL    H13R 2905   2.508   4.505   5.224  1.0425  2.0671 -1.9015
    1OL    H13S 2906   2.587   4.377   5.319 -0.7642  0.9599  1.6566
    1OL    C114 2907   2.700   4.429   5.159 -0.5565  0.1435 -0.6950
    1OL    H14R 2908   2.656   4.358   5.089  0.1651 -0.4985 -0.5004
    1OL    H14S 2909   2.789   4.381   5.199 -2.0122 -0.8227  1.4629
    1OL    C115 2910   2.756   4.550   5.067  0.3168  0.1831  0.2548
    1OL    H15R 2911   2.816   4.611   5.135  0.0712  0.5823  0.1195
    1OL    H15S 2912   2.678   4.610   5.018 -0.4217  0.7383  2.0809
    1OL    C116 2913   2.860   4.511   4.949 -0.1292  0.1299 -0.3640
    1OL    H16R 2914   2.959   4.506   4.995  0.1009  1.7764 -0.6715
    1OL    H16S 2915   2.864   4.598   4.883 -0.0861  0.2553 -0.1992
    1OL    C117 2916   2.833   4.380   4.871 -0.6466 -0.4890  0.4814
    1OL    H17R 2917   2.809   4.298   4.939 -2.7540  0.2837  0.7126
    1OL    H17S 2918   2.919   4.349   4.812 -1.0798  1.1116 -1.0364
    1OL    C118 2919   2.714   4.397   4.774  0.1973  0.1585  0.3828
    1OL    H18R 2920   2.730   4.483   4.709 -0.1886 -2.0683 -2.7608
    1OL    H18S 2921   2.626   4.398   4.838  0.1542  1.9068  0.3184
    1OL    H18T 2922   2.717   4.304   4.717  0.6123 -0.1604  0.9319
    1PA    C116 2923   0.294   2.689   5.037  0.3632 -0.3245 -0.1116
    1PA    H16R 2924   0.403   2.680   5.029  0.4277 -1.8471  2.1381
    1PA    H16S 2925   0.265   2.789   5.004  2.2105 -0.1236 -1.2301
    1PA    H16T 2926   0.242   2.622   4.969  0.1105 -0.2370 -0.0039
    1PA    C115 2927   0.251   2.667   5.182 -0.1107 -0.3752 -0.3527
    1PA    H15R 2928   0.297   2.575   5.219  0.9736  0.4579  0.4036
    1PA    H15S 2929   0.292   2.750   5.240 -1.6731 -0.0738  0.3540
    1PA    C114 2930   0.097   2.665   5.207 -0.2447  0.1190  0.0818
    1PA    H14R 2931   0.069   2.769   5.186 -0.3661  0.0278 -0.2021
    1PA    H14S 2932   0.046   2.599   5.137  1.1676 -1.0167  0.1026
    1PA    C113 2933   0.065   2.634   5.352  0.4344 -0.5450 -0.2584
    1PA    H13R 2934  -0.044   2.643   5.361  0.6145  2.7389 -0.6674
    1PA    H13S 2935   0.102   2.535   5.378  1.6158 -0.1374 -0.3672
    1PA    C112 2936   0.118   2.738   5.456  0.3164  0.5945 -0.4458
    1PA    H12R 2937   0.227   2.742   5.454  0.3122  0.8595 -0.1861
    1PA    H12S 2938   0.092   2.839   5.423  2.3167  1.1556 -0.3993
    1PA    C111 2939   0.069   2.718   5.602 -0.5835 -0.4396 -0.4581
    1PA    H11R 2940   0.106   2.802   5.660 -2.2207  0.4735 -0.6922
    1PA    H11S 2941  -0.040   2.722   5.602 -0.6643 -2.2963 -1.3564
    1PA    C110 2942   0.132   2.583   5.678 -0.4460 -0.2840 -0.1970
    1PA    H10R 2943   0.085   2.493   5.638 -2.2688  0.9365 -0.8249
    1PA    H10S 2944   0.240   2.573   5.662 -0.5927 -0.5733 -1.0426
    1PA     C19 2945   0.109   2.590   5.830  0.3684 -0.0473  0.0643
    1PA     H9R 2946   0.127   2.693   5.863  0.8760  0.7172 -2.4628
    1PA     H9S 2947   0.002   2.568   5.833  0.5654 -0.9640  0.5545
    1PA     C18 2948   0.192   2.501   5.917 -0.0342  0.3785 -0.2945
    1PA     H8R 2949   0.193   2.402   5.870 -2.6424  1.0901 -1.8974
    1PA     H8S 2950   0.297   2.531   5.916  0.1377 -0.0147  2.3508
    1PA     C17 2951   0.141   2.482   6.058  0.6086  1.0073  0.0742
    1PA     H7R 2952   0.215   2.433   6.122 -0.4671 -1.2432 -0.3569
    1PA     H7S 2953   0.131   2.579   6.107  0.6811 -0.0218  2.1887
    1PA     C16 2954  -0.003   2.411   6.059  0.0954 -0.3800 -0.3701
    1PA     H6R 2955  -0.075   2.469   6.001  0.0085 -0.8782 -0.7727
    1PA     H6S 2956  -0.002   2.326   5.989 -1.7449 -1.4160  0.8189
    1PA     C15 2957  -0.050   2.385   6.202  0.7360 -0.1134  0.1891
    1PA     H5R 2958   0.009   2.303   6.243 -0.9081 -0.5081  1.8080
    1PA     H5S 2959  -0.039   2.479   6.258 -1.6410 -0.1554  0.7947
    1PA     C14 2960  -0.201   2.352   6.207  0.1810  0.2269  0.2904
    1PA     H4R 2961  -0.250   2.439   6.164  0.7089  1.0949  1.4119
    1PA     H4S 2962  -0.217   2.257   6.156  0.5921  0.1851  0.2408
    1PA     C13 2963  -0.263   2.340   6.344  0.4583 -0.3955  0.1957
    1PA     H3R 2964  -0.278   2.443   6.377  2.2137 -0.5450  1.5368
    1PA     H3S 2965  -0.365   2.303   6.332 -0.3620  1.3988  1.3809
    1PA     C12 2966  -0.180   2.276   6.455 -0.1948 -0.3154  0.3086
    1PA     H2R 2967  -0.178   2.168   6.441  1.7848 -0.4754  1.5469
    1PA     H2S 2968  -0.075   2.308   6.460 -0.3857  0.8238 -2.3272
    1PC     C11 2969  -0.237   2.297   6.596 -0.6521 -0.0838  0.8021
    1PC     O12 2970  -0.337   2.352   6.625 -0.7307 -0.6646 -0.5786
    1PC     O11 2971  -0.151   2.246   6.688  0.1229 -0.1639  0.5810
    1PC      C1 2972  -0.191   2.237   6.827 -0.1137  0.5421 -0.5913
    1PC      HR 2973  -0.296   2.264   6.839  0.3757  2.5231 -0.6290
    1PC      HS 2974  -0.186   2.132   6.858  4.6153  0.6809 -0.5872
    1PC      C2 2975  -0.102   2.332   6.915  0.5530  0.2878  0.1800
    1PC      HX 2976   0.003   2.309   6.897  0.9069  1.0011  1.3374
    1PC      C3 2977  -0.135   2.333   7.064 -0.2472  0.5667 -0.2824
    1PC      HA 2978  -0.134   2.232   7.104  0.5148  0.6006 -0.2064
    1PC      HB 2979  -0.065   2.401   7.113 -0.8533  0.5723  0.5732
    1PC     O31 2980  -0.269   2.395   7.090  0.1382  0.0005 -0.3058
    1PC     P31 2981  -0.315   2.451   7.234 -0.0620 -0.1961 -0.0812
    1PC     O32 2982  -0.330   2.315   7.319 -0.4091 -0.0910 -0.4525
    1PC     C31 2983  -0.442   2.233   7.283  0.2611 -0.1110  0.4649
    1PC     H1A 2984  -0.528   2.300   7.293 -0.1306 -0.4633 -0.5278
    1PC     H1B 2985  -0.440   2.194   7.181 -0.0013 -0.2786  0.5238
    1PC     C32 2986  -0.444   2.129   7.397  0.5087 -0.3047  0.1425
    1PC     H2A 2987  -0.344   2.085   7.396  0.3893 -0.6311  1.5824
    1PC     H2B 2988  -0.454   2.166   7.499 -0.8224  1.0343 -0.4546
    1PC     N31 2989  -0.547   2.023   7.372  0.0607 -0.1040  0.5820
    1PC     C33 2990  -0.682   2.074   7.350 -0.7042  0.4090 -0.6410
    1PC     H3A 2991  -0.745   1.996   7.306 -2.5523  1.7650 -0.4172
    1PC     H3B 2992  -0.724   2.119   7.440 -0.0295  1.6516 -0.9398
    1PC     H3C 2993  -0.664   2.159   7.285  1.1511 -0.0102 -0.7122
    1PC     C34 2994  -0.507   1.939   7.252  1.3529  0.4099  0.5354
    1PC     H4A 2995  -0.567   1.848   7.256  2.2227 -0.1028  2.1942
    1PC     H4B 2996  -0.526   1.992   7.159  1.9924 -0.3524 -0.0350
    1PC     H4C 2997  -0.404   1.905   7.261  1.5129  1.3359  2.5432
    1PC     C35 2998  -0.563   1.943   7.496  0.3569  0.4185  0.0264
    1PC     H5A 2999  -0.468   1.898   7.525 -0.3182 -2.9523 -2.6798
    1PC     H5B 3000  -0.632   1.864   7.467 -0.7999  0.9691  1.2444
    1PC     H5C 3001  -0.613   2.006   7.569 -0.0916  2.7692 -2.2045
    1PC     O33 3002  -0.201   2.523   7.284 -0.3886 -0.6158  0.2122
    1PC     O34 3003  -0.445   2.507   7.220  0.0683  0.2215 -0.1478
    1PC     O21 3004  -0.133   2.469   6.869 -0.0630 -0.4383  0.3024
    1PC     C21 3005  -0.048   2.531   6.780  0.0466  0.3648  0.1503
    1PC     O22 3006   0.061   2.488   6.745  0.6256 -0.4863 -0.1126
    1OL     C12 3007  -0.097   2.669   6.743 -0.3806  0.3802  0.1454
    1OL     H2R 3008  -0.016   2.741   6.735  0.6429 -0.9703 -2.1383
    1OL     H2S 3009  -0.152   2.708   6.830 -0.2903 -0.5649  0.6331
    1OL     C13 3010  -0.205   2.676   6.636  0.4825 -0.1713  0.3121
    1OL     H3R 3011  -0.289   2.610   6.657 -2.0167  2.2137 -1.8024
    1OL     H3S 3012  -0.148   2.644   6.548  1.3899  1.7737  0.1814
    1OL     C14 3013  -0.255   2.821   6.620  0.2110  0.6156  0.0069
    1OL     H4R 3014  -0.165   2.879   6.601  1.1695 -1.0739 -0.7942
    1OL     H4S 3015  -0.314   2.849   6.707 -2.6373 -0.1936 -1.6115
    1OL     C15 3016  -0.348   2.841   6.498  0.0874  0.5005  0.2867
    1OL     H5R 3017  -0.293   2.849   6.404 -1.7570  1.1962 -0.7723
    1OL     H5S 3018  -0.381   2.945   6.510  1.5477  0.8803  1.0689
    1OL     C16 3019  -0.463   2.743   6.480 -0.8281 -0.7312 -0.5540
    1OL     H6R 3020  -0.540   2.764   6.554  0.6855  0.2032  0.8092
    1OL     H6S 3021  -0.427   2.644   6.509 -1.1157 -0.5876  0.3141
    1OL     C17 3022  -0.543   2.734   6.349 -0.2592  0.4837 -0.4963
    1OL     H7R 3023  -0.632   2.671   6.360 -0.2595  0.5627 -0.0459
    1OL     H7S 3024  -0.480   2.694   6.269 -0.5315 -0.5189 -0.2121
    1OL     C18 3025  -0.590   2.875   6.292  0.2675  0.3312  0.4577
    1OL     H8R 3026  -0.640   2.872   6.195  1.5143 -1.1870 -0.1552
    1OL     H8S 3027  -0.502   2.937   6.273  1.4042 -0.6664  2.3253
    1OL     C19 3028  -0.680   2.947   6.390  0.2931 -0.5548 -0.2391
    1OL     H9R 3029  -0.632   3.029   6.443  0.3606  0.1966 -1.4462
    1OL    C110 3030  -0.813   2.943   6.390 -0.2346 -0.3604 -0.4645
    1OL    H10R 3031  -0.870   3.017   6.446 -0.4421 -0.9860  0.1570
    1OL    C111 3032  -0.895   2.844   6.311 -0.4523 -0.4973  0.1245
    1OL    H11R 3033  -0.967   2.797   6.378 -1.5893  0.3591 -0.4764
    1OL    H11S 3034  -0.833   2.758   6.285 -0.4416 -0.5661  0.3770
    1OL    C112 3035  -0.971   2.902   6.195 -0.7408  0.2143 -0.7660
    1OL    H12R 3036  -0.891   2.910   6.121 -0.5771  1.5553 -0.4529
    1OL    H12S 3037  -1.010   2.998   6.229 -0.2071 -0.2362  1.1804
    1OL    C113 3038  -1.064   2.810   6.127 -0.1855 -0.9194 -0.2504
    1OL    H13R 3039  -1.139   2.777   6.199 -0.0452  1.4618  1.0533
    1OL    H13S 3040  -1.003   2.723   6.102  0.2094 -0.0676 -2.3554
    1OL    C114 3041  -1.124   2.880   5.999 -1.0972  0.6977 -0.5090
    1OL    H14R 3042  -1.044   2.897   5.927 -0.9139  0.1359 -0.4421
    1OL    H14S 3043  -1.166   2.980   6.014 -0.6360  0.8827 -0.4399
    1OL    C115 3044  -1.224   2.789   5.937 -0.0582  0.0809 -0.6571
    1OL    H15R 3045  -1.299   2.776   6.015  1.9829  0.2705  1.3654
    1OL    H15S 3046  -1.175   2.692   5.935 -0.8754 -0.3958  1.3138
    1OL    C116 3047  -1.277   2.828   5.795  0.3982 -0.2208 -0.2877
    1OL    H16R 3048  -1.199   2.825   5.718  0.7478 -0.8559  0.0905
    1OL    H16S 3049  -1.331   2.923   5.785 -0.2230 -0.5466 -0.0578
    1OL    C117 3050  -1.374   2.719   5.746  0.0218  0.0372 -0.1341
    1OL    H17R 3051  -1.458   2.710   5.815 -0.3283 -0.4972 -0.6200
    1OL    H17S 3052  -1.325   2.622   5.763 -1.4416 -0.8301 -0.7624
    1OL    C118 3053  -1.419   2.750   5.604 -0.3068  0.6712  0.7707
    1OL    H18R 3054  -1.332   2.753   5.537  0.5731  0.8235  1.8977
    1OL    H18S 3055  -1.474   2.843   5.588 -1.0729  0.0911 -0.0285
    1OL    H18T 3056  -1.489   2.675   5.568 -0.9881  1.6750 -0.0120
    1PA    C116 3057   4.743   1.164   5.088  0.2471  0.1351  0.2354
    1PA    H16R 3058   4.654   1.103   5.100  0.3337 -0.1842 -0.7767
    1PA    H16S 3059   4.818   1.094   5.124  0.5334 -0.1736 -0.9725
    1PA    H16T 3060   4.766   1.188   4.984  1.4042  0.5650  0.5750
    1PA    C115 3061   4.753   1.304   5.163  0.4455 -0.2612 -0.5330
    1PA    H15R 3062   4.850   1.354   5.156  1.1822 -1.0491  2.9925
    1PA    H15S 3063   4.678   1.374   5.125  2.9183  0.9484 -3.3559
    1PA    C114 3064   4.729   1.287   5.315 -0.2739  0.1240  0.5494
    1PA    H14R 3065   4.717   1.389   5.352  2.1931  0.1802  1.3324
    1PA    H14S 3066   4.637   1.231   5.330  0.1973 -0.4086  1.5257
    1PA    C113 3067   4.843   1.216   5.389  0.6599  0.0335 -0.8953
    1PA    H13R 3068   4.862   1.122   5.337  0.5461  0.9777 -2.6638
    1PA    H13S 3069   4.929   1.281   5.374  0.7628  0.7804  2.5481
    1PA    C112 3070   4.823   1.200   5.534  0.9426  0.4596  0.3671
    1PA    H12R 3071   4.833   1.303   5.571 -1.9926  0.5300  1.0411
    1PA    H12S 3072   4.721   1.164   5.537  1.3877 -1.0749 -1.9382
    1PA    C111 3073   4.923   1.101   5.597  0.2931 -0.6354  0.3964
    1PA    H11R 3074   4.929   1.004   5.548  1.3181 -0.1083 -0.5467
    1PA    H11S 3075   5.029   1.129   5.603  0.4619 -0.5071 -2.4677
    1PA    C110 3076   4.879   1.083   5.742 -0.8521 -0.6453 -0.9453
    1PA    H10R 3077   4.901   1.171   5.803 -0.1627 -0.6774 -1.1436
    1PA    H10S 3078   4.771   1.075   5.748 -0.8548 -0.4259 -0.7086
    1PA     C19 3079   4.944   0.963   5.809  0.4352  0.1030 -0.4374
    1PA     H9R 3080   4.899   0.880   5.754  0.8316  0.0830 -0.7308
    1PA     H9S 3081   5.051   0.958   5.787  0.5346  0.3396 -0.0092
    1PA     C18 3082   4.924   0.952   5.966  0.1874 -0.4905  0.5289
    1PA     H8R 3083   4.973   1.037   6.014  2.1141 -1.3960  0.2341
    1PA     H8S 3084   4.817   0.953   5.984  0.1105  0.8669  0.0104
    1PA     C17 3085   4.980   0.815   6.021 -0.4180 -0.2681  0.2361
    1PA     H7R 3086   4.926   0.728   5.985  0.0480 -2.3437  4.2247
    1PA     H7S 3087   5.083   0.804   5.988  0.1356 -0.5878  1.9774
    1PA     C16 3088   4.991   0.807   6.168  0.1783 -0.0131 -0.4962
    1PA     H6R 3089   5.060   0.884   6.202 -0.1516 -0.6119  1.6084
    1PA     H6S 3090   4.892   0.829   6.209  0.1590 -1.7893  0.4743
    1PA     C15 3091   5.035   0.660   6.201 -0.6630 -0.2741  0.9732
    1PA     H5R 3092   4.976   0.593   6.139 -1.1457  0.9885  0.0377
    1PA     H5S 3093   5.142   0.653   6.180 -0.6460  1.1660  0.5190
    1PA     C14 3094   5.025   0.625   6.354 -1.1222 -1.0492 -0.0172
    1PA     H4R 3095   4.931   0.662   6.396 -0.2692  0.9946  0.1436
    1PA     H4S 3096   5.011   0.516   6.355 -1.0420 -1.0826  2.8823
    1PA     C13 3097   5.147   0.672   6.441  0.3545 -0.3274 -0.2972
    1PA     H3R 3098   5.182   0.592   6.506 -0.1911  1.9113  2.8368
    1PA     H3S 3099   5.235   0.693   6.380  0.2952 -0.3926 -0.4066
    1PA     C12 3100   5.118   0.802   6.521 -0.2941 -0.0737 -0.7442
    1PA     H2R 3101   5.216   0.845   6.540 -0.7860 -0.0442  1.8708
    1PA     H2S 3102   5.057   0.871   6.462 -1.8537 -0.1949  0.6692
    1PC     C11 3103   5.053   0.772   6.653 -0.2694  0.1190 -0.3397
    1PC     O12 3104   5.120   0.721   6.743  0.2259 -0.0210  0.3458
    1PC     O11 3105   4.919   0.803   6.662 -0.1945  0.2942  0.5130
    1PC      C1 3106   4.853   0.781   6.787 -0.4309 -0.3569 -0.5256
    1PC      HR 3107   4.746   0.791   6.768 -0.9878 -1.4679  1.8209
    1PC      HS 3108   4.881   0.684   6.827 -0.7278 -1.3048 -2.5467
    1PC      C2 3109   4.906   0.886   6.888  0.7441 -0.0508 -0.2504
    1PC      HX 3110   5.014   0.885   6.903  0.7223 -1.1884 -0.0870
    1PC      C3 3111   4.859   0.855   7.027 -0.4771 -0.2229 -0.1293
    1PC      HA 3112   4.913   0.765   7.057  3.3184  1.8009 -0.5406
    1PC      HB 3113   4.900   0.933   7.092  1.5204 -0.5600 -0.9468
    1PC     O31 3114   4.709   0.848   7.030  0.3318 -0.1228 -0.3168
    1PC     P31 3115   4.618   0.938   7.137  0.1575  0.0089 -0.0463
    1PC     O32 3116   4.609   1.076   7.055  0.1779 -0.2520  0.3194
    1PC     C31 3117   4.529   1.080   6.938  0.0700  0.1304  0.0990
    1PC     H1A 3118   4.567   1.017   6.858 -3.5743 -0.4642 -1.2917
    1PC     H1B 3119   4.425   1.057   6.965 -0.0240  1.3319  0.7830
    1PC     C32 3120   4.536   1.235   6.888 -0.4103  0.6190  0.1937
    1PC     H2A 3121   4.638   1.272   6.894 -0.5106  0.6853  1.6145
    1PC     H2B 3122   4.503   1.226   6.784  2.3474 -1.8049 -0.5358
    1PC     N31 3123   4.453   1.333   6.956 -0.2339 -0.2408 -0.4781
    1PC     C33 3124   4.311   1.306   6.928  0.5503 -0.6597  0.4597
    1PC     H3A 3125   4.252   1.384   6.976  0.4674 -0.9901  0.9000
    1PC     H3B 3126   4.304   1.309   6.819 -0.0241 -1.5542  0.4615
    1PC     H3C 3127   4.285   1.209   6.971  0.5566 -0.0919  1.7648
    1PC     C34 3128   4.466   1.326   7.102 -0.1321  0.5947  0.4815
    1PC     H4A 3129   4.417   1.410   7.151  0.8957  0.8619  1.0796
    1PC     H4B 3130   4.420   1.230   7.126 -2.0641  0.8401 -2.1192
    1PC     H4C 3131   4.571   1.331   7.133  0.2792 -0.4674 -0.7173
    1PC     C35 3132   4.481   1.478   6.918 -0.6451 -0.0308  0.3060
    1PC     H5A 3133   4.416   1.548   6.971 -2.4881 -0.1916 -1.6515
    1PC     H5B 3134   4.475   1.484   6.809  0.0557 -2.0506  0.1405
    1PC     H5C 3135   4.586   1.495   6.938 -0.5157 -1.2910  0.7421
    1PC     O33 3136   4.481   0.886   7.154 -0.0261  0.3031  0.1742
    1PC     O34 3137   4.694   0.957   7.261 -0.3750 -0.3370  0.1730
    1PC     O21 3138   4.856   1.018   6.848  0.1361  0.1463  0.3905
    1PC     C21 3139   4.958   1.096   6.802 -0.0926  0.1406  0.4001
    1PC     O22 3140   5.077   1.062   6.811 -0.0447  0.1205  0.4196
    1OL     C12 3141   4.911   1.213   6.716 -0.4924 -0.0792  0.6901
    1OL     H2R 3142   4.908   1.308   6.770 -2.8297  0.6973 -0.6999
    1OL     H2S 3143   4.810   1.191   6.680 -0.1927 -0.4667  0.0805
    1OL     C13 3144   5.009   1.248   6.606 -0.2886 -0.6547  0.4563
    1OL     H3R 3145   5.112   1.251   6.643 -0.5940  1.3702  1.2147
    1OL     H3S 3146   4.995   1.345   6.558 -1.0937  0.0663  2.1072
    1OL     C14 3147   5.004   1.143   6.495  0.1219  0.2856  0.1997
    1OL     H4R 3148   4.912   1.170   6.442  0.3041  0.1021 -0.2157
    1OL     H4S 3149   4.987   1.046   6.542  0.3033 -0.8756 -2.0700
    1OL     C15 3150   5.108   1.138   6.382 -0.1826  0.3742 -0.3229
    1OL     H5R 3151   5.070   1.069   6.306 -2.5726  1.6917 -0.3511
    1OL     H5S 3152   5.195   1.095   6.433 -1.4397  0.1460  1.6886
    1OL     C16 3153   5.141   1.268   6.318 -0.3185 -0.1776 -0.2340
    1OL     H6R 3154   5.232   1.249   6.261  2.5836  2.3337  3.3238
    1OL     H6S 3155   5.171   1.342   6.392 -0.6784 -1.1391  0.8743
    1OL     C17 3156   5.028   1.325   6.228 -0.7063 -0.7370 -0.1098
    1OL     H7R 3157   4.943   1.339   6.295 -1.8473 -1.5982 -1.3545
    1OL     H7S 3158   4.993   1.266   6.143 -0.2088  0.9642 -1.5290
    1OL     C18 3159   5.052   1.478   6.197 -0.6356 -0.4008  0.0058
    1OL     H8R 3160   5.140   1.483   6.133 -0.9775 -1.8263 -0.5916
    1OL     H8S 3161   5.070   1.527   6.293 -0.9137 -0.5359  0.1254
    1OL     C19 3162   4.932   1.542   6.147  0.6420 -0.2220 -0.2764
    1OL     H9R 3163   4.861   1.558   6.228  1.2413 -0.2843  0.2700
    1OL    C110 3164   4.893   1.564   6.024 -0.6654  0.1357 -0.4333
    1OL    H10R 3165   4.799   1.615   6.001 -1.3072 -0.2534  1.2675
    1OL    C111 3166   4.975   1.525   5.903  0.3036  0.2332  0.3466
    1OL    H11R 3167   4.904   1.514   5.821  1.9141 -0.1882 -1.0203
    1OL    H11S 3168   5.026   1.430   5.917 -2.5426 -1.2147  1.0733
    1OL    C112 3169   5.076   1.635   5.876 -0.4216 -0.2262  0.0710
    1OL    H12R 3170   5.125   1.666   5.968 -1.3433  0.5941  0.2931
    1OL    H12S 3171   5.014   1.720   5.846  0.1769  0.1147 -0.2222
    1OL    C113 3172   5.173   1.601   5.757  0.4632 -0.1464  0.1377
    1OL    H13R 3173   5.204   1.498   5.778 -0.1051 -0.7011 -1.6525
    1OL    H13S 3174   5.249   1.679   5.759  1.5015 -1.1658  0.4427
    1OL    C114 3175   5.102   1.604   5.625 -0.1479  0.0346  0.1395
    1OL    H14R 3176   5.003   1.560   5.638  1.1613 -3.7733 -2.1581
    1OL    H14S 3177   5.154   1.542   5.552 -0.3275  2.1182 -1.8371
    1OL    C115 3178   5.082   1.739   5.565 -0.1738 -0.0025 -0.7297
    1OL    H15R 3179   5.179   1.775   5.532  0.0771 -0.3420 -0.3705
    1OL    H15S 3180   5.031   1.808   5.633  3.4227  1.5644  0.4955
    1OL    C116 3181   4.992   1.736   5.443  0.1090 -0.2154 -0.5045
    1OL    H16R 3182   4.886   1.740   5.471  0.9502 -0.9033  3.0967
    1OL    H16S 3183   5.012   1.652   5.378 -2.5381 -1.8456  0.6789
    1OL    C117 3184   5.013   1.859   5.350 -0.3545 -0.2520  0.0238
    1OL    H17R 3185   5.110   1.858   5.301 -0.3441 -0.3752  0.0454
    1OL    H17S 3186   5.008   1.946   5.416 -3.2487 -1.9268  2.1797
    1OL    C118 3187   4.899   1.864   5.253  0.2943 -1.1415 -0.4851
    1OL    H18R 3188   4.922   1.822   5.155  0.9969 -0.5599 -0.5711
    1OL    H18S 3189   4.871   1.968   5.235  0.4681 -1.1722 -0.9350
    1OL    H18T 3190   4.811   1.806   5.282  1.4951 -2.3827  0.7128
    1PA    C116 3191   4.051   0.999   5.549 -0.2555 -0.5429 -0.2782
    1PA    H16R 3192   4.022   1.057   5.461  2.3342  1.4519  0.1280
    1PA    H16S 3193   3.990   0.909   5.564  0.4062 -0.6012  2.1686
    1PA    H16T 3194   4.155   0.969   5.538 -0.2464 -0.8950  0.7169
    1PA    C115 3195   4.028   1.087   5.678 -0.5626 -0.4468 -0.2771
    1PA    H15R 3196   3.923   1.114   5.682 -0.8787 -1.1135 -2.8706
    1PA    H15S 3197   4.036   1.022   5.766  3.2576 -2.4473 -1.9941
    1PA    C114 3198   4.114   1.210   5.700  0.1840  0.1055 -0.1726
    1PA    H14R 3199   4.082   1.295   5.639 -0.0244  0.3382  0.2552
    1PA    H14S 3200   4.107   1.239   5.805  0.0745 -2.2346  0.4736
    1PA    C113 3201   4.267   1.187   5.691 -0.1961 -0.4898  0.1419
    1PA    H13R 3202   4.280   1.090   5.739  0.0949  0.5242  2.1949
    1PA    H13S 3203   4.300   1.191   5.587  1.0283  0.8087  0.5578
    1PA    C112 3204   4.344   1.298   5.764  0.1078 -0.1073 -0.8861
    1PA    H12R 3205   4.308   1.399   5.744 -0.7549 -0.4194 -0.9197
    1PA    H12S 3206   4.331   1.272   5.870 -1.0063 -0.2846 -1.0613
    1PA    C111 3207   4.496   1.293   5.729  0.3811 -0.9376 -0.2921
    1PA    H11R 3208   4.530   1.192   5.756  1.4398 -0.5908 -0.3201
    1PA    H11S 3209   4.515   1.303   5.622  0.6601  0.9009 -0.0816
    1PA    C110 3210   4.585   1.387   5.806  0.9884 -0.1291  0.2193
    1PA    H10R 3211   4.687   1.360   5.778  0.0397 -2.6604 -1.0314
    1PA    H10S 3212   4.570   1.487   5.765 -1.6578 -1.3970 -2.0447
    1PA     C19 3213   4.583   1.396   5.958  0.6607 -0.1697  0.7697
    1PA     H9R 3214   4.645   1.482   5.988  0.4294  0.4698 -0.5761
    1PA     H9S 3215   4.482   1.414   5.994  0.6166  0.9804  0.0962
    1PA     C18 3216   4.634   1.266   6.023 -0.0022  0.2540  0.0450
    1PA     H8R 3217   4.554   1.198   5.994  2.2302 -2.0201 -0.9727
    1PA     H8S 3218   4.730   1.230   5.984  1.0206  1.7439  1.1305
    1PA     C17 3219   4.647   1.278   6.175  0.3006 -1.0614 -0.1655
    1PA     H7R 3220   4.709   1.364   6.202 -0.5304 -0.4007 -0.3555
    1PA     H7S 3221   4.555   1.309   6.224  0.7020 -0.5404  0.2690
    1PA     C16 3222   4.691   1.144   6.228 -0.2092  0.5677  0.0393
    1PA     H6R 3223   4.650   1.055   6.180  0.0643  0.1643  0.5517
    1PA     H6S 3224   4.799   1.129   6.225 -0.0533  1.4429  1.1142
    1PA     C15 3225   4.641   1.130   6.376 -0.2849 -0.4149 -0.2972
    1PA     H5R 3226   4.707   1.195   6.434 -1.7749  1.9614 -1.2206
    1PA     H5S 3227   4.538   1.157   6.396 -0.2766 -0.5847 -0.0130
    1PA     C14 3228   4.679   0.989   6.425 -0.2629  0.1938  0.2609
    1PA     H4R 3229   4.665   0.914   6.348  2.3458 -2.2079  2.0252
    1PA     H4S 3230   4.786   0.987   6.445 -0.4450 -0.4132  1.1991
    1PA     C13 3231   4.602   0.938   6.545 -0.2345 -0.1781 -0.4051
    1PA     H3R 3232   4.653   0.856   6.596 -0.5598 -1.2658 -1.7915
    1PA     H3S 3233   4.595   1.011   6.625  0.7970 -0.2436 -0.2450
    1PA     C12 3234   4.466   0.871   6.517  0.1536 -0.1047 -0.5774
    1PA     H2R 3235   4.397   0.947   6.479 -0.5190 -0.6120 -0.3885
    1PA     H2S 3236   4.477   0.800   6.435  0.8236  0.9352 -1.3933
    1PC     C11 3237   4.402   0.801   6.637 -0.1105 -0.4633 -0.1073
    1PC     O12 3238   4.459   0.775   6.741 -0.1322  0.1514 -0.1176
    1PC     O11 3239   4.268   0.782   6.632  0.3398 -0.2577 -0.4001
    1PC      C1 3240   4.194   0.730   6.743 -0.9207 -0.3897 -0.1925
    1PC      HR 3241   4.097   0.694   6.708 -1.4739 -0.2217  1.1270
    1PC      HS 3242   4.245   0.644   6.788 -2.6849 -0.8076  1.0710
    1PC      C2 3243   4.158   0.835   6.849  0.4824 -0.6148 -0.3650
    1PC      HX 3244   4.250   0.883   6.884 -0.2290 -0.1690  0.8891
    1PC      C3 3245   4.073   0.765   6.956 -0.5580 -0.0369  0.4158
    1PC      HA 3246   4.136   0.685   6.995 -0.1673  1.4977  3.0586
    1PC      HB 3247   4.047   0.835   7.035 -0.2051  2.2019 -1.3924
    1PC     O31 3248   3.954   0.712   6.897 -0.8177 -0.6732  0.1724
    1PC     P31 3249   3.867   0.592   6.952 -0.2548 -0.3257  0.1322
    1PC     O32 3250   3.945   0.464   6.916  0.6011  0.1275 -0.1864
    1PC     C31 3251   3.964   0.425   6.781  0.1191 -0.2844  0.4799
    1PC     H1A 3252   3.864   0.422   6.737  0.0328  2.2030  0.4364
    1PC     H1B 3253   4.029   0.500   6.736 -0.1344  0.5986  1.5666
    1PC     C32 3254   4.035   0.286   6.779  1.0904  0.6578 -0.2965
    1PC     H2A 3255   4.020   0.246   6.678 -1.6920  0.2706  0.2375
    1PC     H2B 3256   4.142   0.295   6.802  1.1969  0.4913 -0.7217
    1PC     N31 3257   3.980   0.186   6.884  0.2946  0.0218 -0.0940
    1PC     C33 3258   4.044   0.206   7.021  0.0069 -0.5285  1.0933
    1PC     H3A 3259   4.001   0.122   7.075 -0.0800 -0.4298  1.1772
    1PC     H3B 3260   4.152   0.189   7.023 -0.0251 -1.3553 -1.4811
    1PC     H3C 3261   4.018   0.304   7.061 -1.8812 -0.3460 -0.4670
    1PC     C34 3262   3.835   0.180   6.896  0.2068 -0.3835  1.0745
    1PC     H4A 3263   3.786   0.185   6.798  2.3168  0.6484  0.0269
    1PC     H4B 3264   3.802   0.100   6.961 -0.6833 -0.9795 -0.0783
    1PC     H4C 3265   3.798   0.268   6.949 -2.0121 -0.3835 -0.3821
    1PC     C35 3266   4.028   0.053   6.857  1.1802  0.0193 -0.3244
    1PC     H5A 3267   3.974   0.016   6.770 -0.1927  0.4720  0.3206
    1PC     H5B 3268   4.008  -0.006   6.947 -1.1365 -0.3104 -1.0113
    1PC     H5C 3269   4.137   0.059   6.853  1.2683 -1.4647 -0.3979
    1PC     O33 3270   3.861   0.600   7.101 -0.0721  0.0666  0.2130
    1PC     O34 3271   3.744   0.596   6.878 -0.1304  0.2549 -0.1690
    1PC     O21 3272   4.070   0.938   6.800 -0.1649 -0.0338  0.4844
    1PC     C21 3273   4.121   1.042   6.735  0.2938  0.6792  0.5234
    1PC     O22 3274   4.239   1.072   6.734 -0.5325  0.2446 -0.4253
    1OL     C12 3275   4.016   1.117   6.661 -0.6136  0.0097  0.1707
    1OL     H2R 3276   4.045   1.222   6.651 -0.5546 -0.2299 -2.5546
    1OL     H2S 3277   3.924   1.111   6.720 -0.0258  0.6675  1.1673
    1OL     C13 3278   3.997   1.054   6.525 -0.4727  0.0810  0.5352
    1OL     H3R 3279   3.897   1.084   6.492 -1.7090 -3.0468  1.3179
    1OL     H3S 3280   3.989   0.946   6.532 -1.9127  0.1465  0.0384
    1OL     C14 3281   4.106   1.090   6.428 -0.1022 -0.4503  0.5668
    1OL     H4R 3282   4.187   1.029   6.468  1.3777 -0.0314 -1.7045
    1OL     H4S 3283   4.128   1.196   6.438  0.5656 -0.5600  0.2609
    1OL     C15 3284   4.071   1.047   6.286 -0.5609 -0.0645  0.3334
    1OL     H5R 3285   3.975   1.093   6.262  0.1972 -0.7671 -4.5204
    1OL     H5S 3286   4.072   0.938   6.273  1.0545 -0.1532  1.1067
    1OL     C16 3287   4.171   1.092   6.177 -0.4630 -0.9869  0.1824
    1OL     H6R 3288   4.195   1.198   6.190 -1.8268 -0.3694 -2.1531
    1OL     H6S 3289   4.120   1.081   6.082  0.7322  2.1517 -0.8848
    1OL     C17 3290   4.304   1.024   6.174 -0.4305  0.0016  0.1324
    1OL     H7R 3291   4.346   1.046   6.272  2.0753  0.6670 -1.0642
    1OL     H7S 3292   4.368   1.066   6.097  0.3388  1.5723  1.5891
    1OL     C18 3293   4.299   0.879   6.122 -0.4671  0.3719 -0.0069
    1OL     H8R 3294   4.232   0.880   6.035  0.1959 -2.3285 -0.5912
    1OL     H8S 3295   4.242   0.825   6.197 -2.7462 -1.4334 -2.9430
    1OL     C19 3296   4.433   0.808   6.104  0.3722 -0.4391  0.1700
    1OL     H9R 3297   4.457   0.740   6.185  0.0048 -0.3614  0.3428
    1OL    C110 3298   4.510   0.825   5.997  0.1605  0.5681  0.1159
    1OL    H10R 3299   4.599   0.764   5.985 -0.9981 -0.9818 -0.6752
    1OL    C111 3300   4.480   0.906   5.874  0.3077 -0.1177  0.3542
    1OL    H11R 3301   4.547   0.991   5.864  0.0204  0.2804  1.6846
    1OL    H11S 3302   4.376   0.936   5.870  0.2882 -0.3217 -0.8552
    1OL    C112 3303   4.518   0.820   5.752  1.1050  0.5718  0.9399
    1OL    H12R 3304   4.455   0.731   5.751  1.3265  0.3844  2.5093
    1OL    H12S 3305   4.615   0.770   5.746  0.7229 -0.1030  0.3451
    1OL    C113 3306   4.492   0.894   5.620 -0.6006  0.0901 -0.2824
    1OL    H13R 3307   4.502   1.002   5.633 -1.8784  0.2651 -0.7103
    1OL    H13S 3308   4.392   0.872   5.581 -0.5765 -1.1570  0.3659
    1OL    C114 3309   4.582   0.855   5.500  0.0439  0.1718  0.4868
    1OL    H14R 3310   4.681   0.892   5.527 -0.5689  0.3296  2.6413
    1OL    H14S 3311   4.554   0.929   5.425  0.5820  0.7026  0.8087
    1OL    C115 3312   4.567   0.707   5.458 -0.3861  0.3042  0.1018
    1OL    H15R 3313   4.469   0.660   5.464  0.5176 -1.4131  1.5494
    1OL    H15S 3314   4.632   0.657   5.530  0.0030  0.4486 -0.1427
    1OL    C116 3315   4.638   0.688   5.318 -0.2627 -0.3714 -0.2522
    1OL    H16R 3316   4.572   0.731   5.242 -1.3322  1.5972  1.7402
    1OL    H16S 3317   4.639   0.581   5.296 -0.3046 -0.9429  2.3336
    1OL    C117 3318   4.782   0.746   5.316 -0.7035  0.6872  0.0516
    1OL    H17R 3319   4.778   0.854   5.299  0.4394  0.9209  1.1390
    1OL    H17S 3320   4.835   0.697   5.234  0.5682 -0.6975  1.6556
    1OL    C118 3321   4.866   0.703   5.439 -0.2071 -0.0873 -0.4393
    1OL    H18R 3322   4.973   0.728   5.436  0.0972 -1.0857  1.6063
    1OL    H18S 3323   4.853   0.596   5.451  0.8435 -0.0357  1.2485
    1OL    H18T 3324   4.824   0.749   5.529 -1.1722 -2.2210  0.2235
    1PA    C116 3325   4.102   3.613   5.291  0.6131  0.1883 -0.1299
    1PA    H16R 3326   4.045   3.617   5.384 -1.2155 -2.1672 -1.0995
    1PA    H16S 3327   4.126   3.510   5.264 -0.3415  0.5045 -2.3050
    1PA    H16T 3328   4.047   3.659   5.209  1.1401  2.0079  0.5084
    1PA    C115 3329   4.235   3.685   5.328  0.3278  0.3143 -0.2292
    1PA    H15R 3330   4.302   3.664   5.244 -1.0676  2.0368 -1.8241
    1PA    H15S 3331   4.218   3.793   5.324  0.3968  0.3976  1.3568
    1PA    C114 3332   4.300   3.634   5.458 -0.2938 -0.5490  0.0209
    1PA    H14R 3333   4.226   3.647   5.537  0.8014  2.7480  0.6100
    1PA    H14S 3334   4.313   3.526   5.456  0.0059 -0.5956  2.5661
    1PA    C113 3335   4.433   3.701   5.494 -0.3008  0.3637  0.6536
    1PA    H13R 3336   4.503   3.663   5.419 -0.1171 -0.0776  1.0461
    1PA    H13S 3337   4.428   3.810   5.486 -2.9474  0.2794  0.7193
    1PA    C112 3338   4.474   3.663   5.638 -0.3188  0.6996  0.5344
    1PA    H12R 3339   4.384   3.674   5.698 -1.0827  1.0343 -0.6525
    1PA    H12S 3340   4.497   3.557   5.646 -2.4991  0.1110 -0.5700
    1PA    C111 3341   4.587   3.758   5.676 -0.0617  0.3774 -0.1642
    1PA    H11R 3342   4.670   3.733   5.609  1.3371  0.0217  1.6684
    1PA    H11S 3343   4.544   3.857   5.657  1.5369  0.7846 -1.8905
    1PA    C110 3344   4.630   3.723   5.820  0.4937 -0.3865 -1.2482
    1PA    H10R 3345   4.692   3.634   5.813  2.3130  0.7618 -0.2464
    1PA    H10S 3346   4.695   3.803   5.856 -0.5002 -0.3192  0.4810
    1PA     C19 3347   4.510   3.696   5.917 -0.6402 -0.4769  0.5197
    1PA     H9R 3348   4.460   3.793   5.917 -1.3957 -0.8066 -2.2455
    1PA     H9S 3349   4.434   3.626   5.880 -0.3444 -0.9063  0.7191
    1PA     C18 3350   4.541   3.659   6.061 -0.0203 -1.0093  0.9236
    1PA     H8R 3351   4.451   3.662   6.122  0.6670 -0.1223  1.9222
    1PA     H8S 3352   4.571   3.554   6.058 -0.3363 -1.0700 -1.1093
    1PA     C17 3353   4.647   3.740   6.127 -0.5030 -0.4367 -0.2601
    1PA     H7R 3354   4.733   3.744   6.060  1.4482  0.2263  2.2091
    1PA     H7S 3355   4.612   3.844   6.130 -1.6024 -0.7527 -1.5686
    1PA     C16 3356   4.690   3.686   6.264  0.1691 -0.4930 -0.2157
    1PA     H6R 3357   4.600   3.689   6.326  0.2922  2.8833 -0.0853
    1PA     H6S 3358   4.735   3.587   6.260  1.1859 -0.0280 -0.4208
    1PA     C15 3359   4.792   3.780   6.333 -0.4504  0.2902 -0.0318
    1PA     H5R 3360   4.893   3.768   6.294 -0.2348  1.7768  0.0697
    1PA     H5S 3361   4.762   3.884   6.320 -0.3632  0.1837 -1.2197
    1PA     C14 3362   4.807   3.742   6.483  0.4751 -0.3049 -0.2048
    1PA     H4R 3363   4.808   3.633   6.483 -1.5780 -0.3377 -0.7626
    1PA     H4S 3364   4.891   3.790   6.534 -0.9536 -2.0388  3.9750
    1PA     C13 3365   4.683   3.782   6.573  0.7102  0.1528 -0.5244
    1PA     H3R 3366   4.593   3.725   6.547  0.8410 -0.7073  0.8933
    1PA     H3S 3367   4.711   3.758   6.675  0.5363  0.1408 -0.4797
    1PA     C12 3368   4.640   3.928   6.570  0.0883 -0.3446 -0.0060
    1PA     H2R 3369   4.719   3.998   6.600 -0.5357  0.8329 -1.0524
    1PA     H2S 3370   4.609   3.955   6.469 -0.7771  0.0026  0.3476
    1PC     C11 3371   4.533   3.973   6.667 -0.2392  0.6544 -0.0235
    1PC     O12 3372   4.476   3.910   6.755  0.1527  0.6403 -0.0124
    1PC     O11 3373   4.495   4.097   6.635 -0.0466  0.1596  0.8105
    1PC      C1 3374   4.415   4.176   6.730 -0.6674  0.4643  0.6120
    1PC      HR 3375   4.361   4.251   6.671  0.7277  1.1903  0.2433
    1PC      HS 3376   4.333   4.108   6.756 -0.0801 -0.1865  0.7731
    1PC      C2 3377   4.501   4.218   6.847  0.0213 -0.0353  0.9900
    1PC      HX 3378   4.533   4.125   6.897 -1.7617 -1.3288 -0.2533
    1PC      C3 3379   4.420   4.283   6.957 -0.1946  0.4495 -0.2224
    1PC      HA 3380   4.387   4.381   6.924 -0.3225  0.2846 -0.5808
    1PC      HB 3381   4.331   4.223   6.982 -0.8438  0.8517 -1.5528
    1PC     O31 3382   4.501   4.306   7.078  0.0975  0.4285  0.1154
    1PC     P31 3383   4.526   4.187   7.185  0.2684  0.3098  0.2140
    1PC     O32 3384   4.673   4.139   7.143 -0.8818 -0.0454 -0.1696
    1PC     C31 3385   4.789   4.220   7.175  0.9407 -0.0713 -0.0556
    1PC     H1A 3386   4.874   4.174   7.125  0.4201 -0.3393 -0.6987
    1PC     H1B 3387   4.767   4.320   7.137  1.0536 -0.4078 -1.0193
    1PC     C32 3388   4.814   4.204   7.329 -0.1568 -0.4564  0.6637
    1PC     H2A 3389   4.913   4.247   7.345  0.6307 -1.7609 -0.5433
    1PC     H2B 3390   4.742   4.263   7.385 -0.3157  0.7855 -0.8110
    1PC     N31 3391   4.823   4.063   7.380  0.1659 -0.0953 -0.0449
    1PC     C33 3392   4.872   4.071   7.522  0.3248  0.4164 -0.6480
    1PC     H3A 3393   4.924   3.977   7.541 -0.0379  0.4521  0.5599
    1PC     H3B 3394   4.935   4.160   7.517  1.0951 -0.0906 -0.0194
    1PC     H3C 3395   4.793   4.083   7.596  1.9135 -2.1580  1.5383
    1PC     C34 3396   4.692   3.993   7.395 -0.5796 -0.1528 -0.2393
    1PC     H4A 3397   4.716   3.898   7.444  0.2655 -0.2901 -0.8934
    1PC     H4B 3398   4.611   4.049   7.441  0.5385  0.4725  0.9862
    1PC     H4C 3399   4.658   3.971   7.293 -2.5125  0.2181  0.3079
    1PC     C35 3400   4.922   3.979   7.293  0.4871  0.0510 -0.6969
    1PC     H5A 3401   4.867   3.948   7.204  2.4385 -0.8596 -1.6156
    1PC     H5B 3402   4.952   3.895   7.355  0.2507 -1.5380 -2.6944
    1PC     H5C 3403   5.009   4.044   7.282 -1.6009  2.5146 -3.8965
    1PC     O33 3404   4.523   4.240   7.324 -0.2125  0.3128 -0.1301
    1PC     O34 3405   4.435   4.073   7.160  0.8115 -0.1216 -0.1193
    1PC     O21 3406   4.608   4.294   6.799 -0.4826 -0.1841  0.3535
    1PC     C21 3407   4.735   4.238   6.801  0.4304  0.3618 -0.0187
    1PC     O22 3408   4.767   4.130   6.847 -0.2900  0.1304  0.5205
    1OL     C12 3409   4.839   4.330   6.731  0.0416 -0.1986  0.4709
    1OL     H2R 3410   4.943   4.302   6.752  1.1871  0.8887 -3.2648
    1OL     H2S 3411   4.822   4.430   6.773 -0.3306 -0.8208  1.8354
    1OL     C13 3412   4.826   4.330   6.578 -0.0014 -0.6513 -0.2113
    1OL     H3R 3413   4.724   4.362   6.555 -0.7026 -3.2606 -0.8820
    1OL     H3S 3414   4.834   4.231   6.534  0.6207  1.3064 -4.8154
    1OL     C14 3415   4.930   4.422   6.504 -0.3437  0.0998  0.3297
    1OL     H4R 3416   5.027   4.374   6.519 -0.0597  0.6579  0.2613
    1OL     H4S 3417   4.931   4.520   6.552  2.0407 -1.2382  3.1281
    1OL     C15 3418   4.915   4.431   6.351 -0.2189 -0.2421  0.0939
    1OL     H5R 3419   4.813   4.459   6.325  0.9634  3.8833 -0.4992
    1OL     H5S 3420   4.927   4.336   6.299 -2.8478 -1.5840  1.7915
    1OL     C16 3421   5.005   4.543   6.293  0.4845  0.3047 -0.2536
    1OL     H6R 3422   5.102   4.532   6.343  0.2157  2.2000  0.6970
    1OL     H6S 3423   4.970   4.638   6.334  1.7461 -0.0600  1.7603
    1OL     C17 3424   5.022   4.527   6.142 -0.4394 -0.2197  0.5979
    1OL     H7R 3425   5.065   4.428   6.127  1.6346  0.5133  1.4300
    1OL     H7S 3426   5.091   4.595   6.092 -0.5320  0.7281  1.7372
    1OL     C18 3427   4.888   4.533   6.061  0.2794  0.2155 -0.6257
    1OL     H8R 3428   4.851   4.636   6.067 -0.4383 -0.1192  0.9853
    1OL     H8S 3429   4.823   4.462   6.112 -0.0463  0.6501 -0.4330
    1OL     C19 3430   4.913   4.479   5.915  0.0559  0.0807  0.0267
    1OL     H9R 3431   4.887   4.373   5.911  3.1194 -0.6966 -0.7010
    1OL    C110 3432   4.946   4.552   5.809 -0.3083  0.5006  0.3029
    1OL    H10R 3433   4.949   4.511   5.708 -0.1213 -0.4763  0.7031
    1OL    C111 3434   4.983   4.697   5.825  0.1859  0.6164 -0.6447
    1OL    H11R 3435   4.947   4.749   5.914  0.7294 -0.3565  0.1595
    1OL    H11S 3436   4.940   4.755   5.743  0.2677  1.7830  0.1286
    1OL    C112 3437   5.134   4.726   5.817  0.2579  0.2935  0.1049
    1OL    H12R 3438   5.188   4.675   5.897  0.7133 -1.3887 -1.2377
    1OL    H12S 3439   5.151   4.833   5.828 -2.4935  0.7916  0.0152
    1OL    C113 3440   5.184   4.670   5.680  0.3483  1.0896 -0.2876
    1OL    H13R 3441   5.134   4.714   5.594  0.3752  0.3510 -0.6843
    1OL    H13S 3442   5.163   4.563   5.674 -0.6023  1.3589 -2.1527
    1OL    C114 3443   5.340   4.709   5.670  0.7283  0.0625 -0.1306
    1OL    H14R 3444   5.393   4.663   5.755 -1.8896 -1.2008  0.8793
    1OL    H14S 3445   5.344   4.815   5.694  1.1782  0.3649 -1.5041
    1OL    C115 3446   5.416   4.667   5.538  0.1279 -0.5638 -0.2593
    1OL    H15R 3447   5.398   4.560   5.525 -1.5389 -0.3358  0.0474
    1OL    H15S 3448   5.522   4.680   5.561 -0.4179  0.9234  1.5885
    1OL    C116 3449   5.379   4.746   5.416  0.2974  0.7254  0.9911
    1OL    H16R 3450   5.439   4.837   5.418  2.2314 -0.4731 -0.4807
    1OL    H16S 3451   5.276   4.780   5.413 -0.0754 -0.4236 -3.0259
    1OL    C117 3452   5.419   4.678   5.286  0.5715  0.8314  0.0096
    1OL    H17R 3453   5.391   4.735   5.197  0.2717  1.0099  0.2178
    1OL    H17S 3454   5.356   4.589   5.278  0.9656  0.3365  2.0105
    1OL    C118 3455   5.573   4.629   5.277 -0.3414 -0.0505  0.7176
    1OL    H18R 3456   5.639   4.715   5.262 -1.7227  1.0433  0.7186
    1OL    H18S 3457   5.587   4.575   5.183 -0.7227  1.4317 -0.2205
    1OL    H18T 3458   5.611   4.574   5.363  2.3923  1.6399  0.6472
    1PA    C116 3459   2.362   4.821   5.178  0.3351 -0.1301 -0.2908
    1PA    H16R 3460   2.367   4.823   5.288 -1.0758  0.2673 -0.2239
    1PA    H16S 3461   2.452   4.785   5.128  0.8977  1.5123 -0.4936
    1PA    H16T 3462   2.282   4.750   5.154  0.9985 -0.7558 -0.6376
    1PA    C115 3463   2.309   4.956   5.119 -0.2610 -0.3324 -0.2032
    1PA    H15R 3464   2.264   4.944   5.021 -1.3634  0.0531  0.2488
    1PA    H15S 3465   2.226   4.985   5.185  1.2506  1.1144  1.1283
    1PA    C114 3466   2.409   5.067   5.142 -0.2223  0.1110  0.2653
    1PA    H14R 3467   2.493   5.052   5.072 -2.0916 -1.2733 -1.7532
    1PA    H14S 3468   2.362   5.160   5.110 -0.4793  1.0859  3.3528
    1PA    C113 3469   2.466   5.081   5.287 -0.1692 -0.2450 -0.1818
    1PA    H13R 3470   2.389   5.089   5.364  0.2950  0.5923  0.1953
    1PA    H13S 3471   2.517   4.990   5.319  0.1297 -0.2691 -0.7292
    1PA    C112 3472   2.544   5.206   5.287  0.5385 -1.3453  0.5185
    1PA    H12R 3473   2.580   5.231   5.186  0.8159 -0.7712  0.7514
    1PA    H12S 3474   2.478   5.288   5.316  0.4497 -0.4499 -2.1062
    1PA    C111 3475   2.670   5.202   5.381 -0.1940 -0.1657 -1.1228
    1PA    H11R 3476   2.710   5.101   5.383  1.3934  0.4617 -0.0916
    1PA    H11S 3477   2.755   5.261   5.346 -0.4469  0.8997  0.0019
    1PA    C110 3478   2.640   5.257   5.524  0.5999  0.0442  0.6668
    1PA    H10R 3479   2.620   5.364   5.524  0.9913  0.1209 -0.6173
    1PA    H10S 3480   2.553   5.206   5.567 -0.7752  1.8048  0.0264
    1PA     C19 3481   2.762   5.226   5.614 -0.2161  0.2233  0.5225
    1PA     H9R 3482   2.795   5.125   5.590  0.1021  0.2928  0.6652
    1PA     H9S 3483   2.839   5.300   5.593 -1.0615  1.6327  2.1922
    1PA     C18 3484   2.726   5.239   5.765 -0.0896 -0.5264  0.7601
    1PA     H8R 3485   2.810   5.285   5.819 -0.9486  1.0975  0.7425
    1PA     H8S 3486   2.636   5.300   5.759  0.2809  0.1736  2.0232
    1PA     C17 3487   2.688   5.106   5.837  0.6947  0.4238 -0.7169
    1PA     H7R 3488   2.606   5.058   5.784 -1.0552  1.4409  1.0014
    1PA     H7S 3489   2.778   5.045   5.845 -1.1030 -1.8947  2.6950
    1PA     C16 3490   2.643   5.126   5.988 -0.2319 -0.1301  0.0469
    1PA     H6R 3491   2.552   5.187   5.987 -0.3772 -0.3459 -2.7089
    1PA     H6S 3492   2.607   5.034   6.035  0.2493  1.3043  3.4385
    1PA     C15 3493   2.742   5.196   6.078  0.2371  0.1212 -0.0808
    1PA     H5R 3494   2.835   5.139   6.065  1.2047  1.7348 -0.3043
    1PA     H5S 3495   2.758   5.296   6.037 -0.4958  0.1301 -0.3421
    1PA     C14 3496   2.708   5.210   6.225  1.2074  0.3508  0.2995
    1PA     H4R 3497   2.787   5.267   6.273  0.4332  0.5438  1.3487
    1PA     H4S 3498   2.617   5.269   6.232  0.3866 -0.6896 -1.1733
    1PA     C13 3499   2.701   5.082   6.312 -0.3956  0.5706 -0.6800
    1PA     H3R 3500   2.640   5.002   6.270  1.4376 -1.1646 -0.1414
    1PA     H3S 3501   2.803   5.043   6.308 -1.4375 -2.3201 -0.2157
    1PA     C12 3502   2.664   5.125   6.453 -0.5157  0.1363  0.1941
    1PA     H2R 3503   2.732   5.199   6.496  0.7240  0.7942 -2.8077
    1PA     H2S 3504   2.562   5.158   6.474 -1.3481 -1.5857 -1.0920
    1PC     C11 3505   2.684   5.008   6.543  0.0337  0.1865  0.9595
    1PC     O12 3506   2.596   4.964   6.616  0.0891 -0.3405 -0.0129
    1PC     O11 3507   2.810   4.956   6.527 -0.0653  0.3651 -0.0175
    1PC      C1 3508   2.848   4.855   6.619 -0.4583 -0.2762  0.3228
    1PC      HR 3509   2.772   4.824   6.691 -2.3479 -2.6897 -2.5628
    1PC      HS 3510   2.866   4.764   6.560 -0.4434 -0.6406  0.8854
    1PC      C2 3511   2.970   4.902   6.692 -0.1196 -0.6746 -0.0762
    1PC      HX 3512   3.044   4.907   6.611  1.6155 -1.5396  1.3919
    1PC      C3 3513   3.025   4.801   6.787  0.0555  0.3632 -0.3111
    1PC      HA 3514   3.064   4.710   6.739 -1.0594 -0.6942  0.7464
    1PC      HB 3515   3.113   4.826   6.846  0.1500 -1.6180  0.4405
    1PC     O31 3516   2.916   4.763   6.877 -0.2366 -0.0863 -0.9210
    1PC     P31 3517   2.916   4.810   7.034 -0.3565  0.4666 -0.1130
    1PC     O32 3518   2.870   4.964   7.030  0.3173  0.3595 -0.9797
    1PC     C31 3519   2.735   5.004   7.011 -0.9012 -0.0318 -0.2729
    1PC     H1A 3520   2.736   5.092   6.946 -0.9488 -0.5832 -1.0260
    1PC     H1B 3521   2.681   4.919   6.966 -1.6778 -0.4765  1.4469
    1PC     C32 3522   2.674   5.054   7.147 -0.2123 -0.2438 -0.8333
    1PC     H2A 3523   2.569   5.082   7.135 -0.4540 -0.6636  0.2322
    1PC     H2B 3524   2.683   4.981   7.228 -2.7264 -0.7199 -0.9350
    1PC     N31 3525   2.735   5.185   7.202  0.6294  0.0322  0.1979
    1PC     C33 3526   2.694   5.302   7.126  0.7821 -0.2941  0.0542
    1PC     H3A 3527   2.670   5.376   7.202 -1.1156 -0.7253 -0.0965
    1PC     H3B 3528   2.775   5.323   7.056  0.3098  1.1074 -0.0859
    1PC     H3C 3529   2.603   5.279   7.069 -1.1450  2.6263  1.8490
    1PC     C34 3530   2.675   5.201   7.333 -0.0349 -0.5146  0.4847
    1PC     H4A 3531   2.713   5.296   7.373  0.1623 -0.2882 -0.2398
    1PC     H4B 3532   2.568   5.210   7.315 -0.1098  0.2110  1.2472
    1PC     H4C 3533   2.706   5.115   7.393 -0.5211 -0.9831  0.0565
    1PC     C35 3534   2.884   5.181   7.212  0.9866 -0.3164  0.0108
    1PC     H5A 3535   2.921   5.269   7.264 -1.0402  0.6292 -0.0826
    1PC     H5B 3536   2.927   5.168   7.112 -0.2487 -1.5516 -0.3769
    1PC     H5C 3537   2.911   5.094   7.272 -2.6001 -1.3859  0.2033
    1PC     O33 3538   2.813   4.733   7.107 -0.1044  0.4599 -0.7769
    1PC     O34 3539   3.055   4.800   7.087  0.7362  0.6010  0.7773
    1PC     O21 3540   2.950   5.031   6.752  0.0373  0.5234  0.7126
    1PC     C21 3541   3.061   5.112   6.745 -0.0890  0.5070 -0.5602
    1PC     O22 3542   3.167   5.087   6.692  0.2797 -0.4411  0.0632
    1OL     C12 3543   3.025   5.252   6.801 -0.3607 -0.0858  0.0718
    1OL     H2R 3544   3.115   5.311   6.823  0.2877 -0.7037 -0.8968
    1OL     H2S 3545   2.961   5.256   6.889  0.1326 -0.9518  0.4633
    1OL     C13 3546   2.973   5.333   6.685 -0.6822  0.1448  0.2270
    1OL     H3R 3547   2.886   5.276   6.652 -0.3030 -0.9910  1.1858
    1OL     H3S 3548   3.027   5.345   6.591 -1.7439 -2.1384 -0.7178
    1OL     C14 3549   2.934   5.472   6.735 -0.6067  0.6061  0.3035
    1OL     H4R 3550   3.021   5.518   6.783  1.4662 -2.4513 -0.3891
    1OL     H4S 3551   2.855   5.453   6.808 -1.0241  1.6427  0.1229
    1OL     C15 3552   2.874   5.563   6.623 -0.3377  0.1517  0.2305
    1OL     H5R 3553   2.812   5.644   6.663 -1.9672 -0.0996 -1.7384
    1OL     H5S 3554   2.805   5.498   6.570 -1.1357 -0.5827  2.1414
    1OL     C16 3555   2.976   5.611   6.520 -0.0633 -0.3363 -0.0821
    1OL     H6R 3556   3.023   5.527   6.470 -1.4983 -0.5469 -1.1053
    1OL     H6S 3557   3.059   5.669   6.561 -0.1516 -0.3058  0.0541
    1OL     C17 3558   2.903   5.693   6.414 -0.1243 -0.5960 -0.4565
    1OL     H7R 3559   2.852   5.774   6.466 -0.3797 -0.7866 -0.4082
    1OL     H7S 3560   2.834   5.628   6.359  0.2732 -3.2514  2.0390
    1OL     C18 3561   3.003   5.760   6.320 -0.2668  0.3786  0.1182
    1OL     H8R 3562   3.079   5.820   6.371  0.5543 -0.6144  0.0914
    1OL     H8S 3563   2.958   5.840   6.261 -1.3262  0.8977  1.6205
    1OL     C19 3564   3.076   5.664   6.228 -0.3765 -0.4008 -0.3713
    1OL     H9R 3565   3.160   5.608   6.269 -1.0372 -0.4172  1.0145
    1OL    C110 3566   3.039   5.635   6.107 -0.0965 -0.3066  0.1485
    1OL    H10R 3567   3.101   5.564   6.052  1.3912  1.5679 -0.6623
    1OL    C111 3568   2.917   5.691   6.036 -0.7840 -0.6389  0.0198
    1OL    H11R 3569   2.943   5.719   5.934 -1.3368  0.7217  0.2524
    1OL    H11S 3570   2.887   5.782   6.088 -1.3324 -0.5284 -0.4853
    1OL    C112 3571   2.806   5.587   6.043 -0.5510  0.2315  0.0807
    1OL    H12R 3572   2.771   5.572   6.145 -1.0705  1.4295  0.0799
    1OL    H12S 3573   2.846   5.494   6.002  1.4369 -0.7504  4.0581
    1OL    C113 3574   2.683   5.622   5.958  0.3861  0.7181  0.2572
    1OL    H13R 3575   2.713   5.609   5.854  1.4271 -2.4131  0.8835
    1OL    H13S 3576   2.658   5.727   5.975 -0.4160  0.1259  3.0413
    1OL    C114 3577   2.558   5.538   5.995  0.0902  0.0561 -0.4348
    1OL    H14R 3578   2.541   5.558   6.101 -1.7720  1.1662 -0.9314
    1OL    H14S 3579   2.586   5.432   5.994 -0.9571 -0.2091 -2.3957
    1OL    C115 3580   2.430   5.569   5.925  0.8861 -0.3277  0.0557
    1OL    H15R 3581   2.423   5.677   5.910  1.0973 -0.2922  0.2070
    1OL    H15S 3582   2.345   5.533   5.984  2.2083 -2.8311  0.5210
    1OL    C116 3583   2.424   5.501   5.785 -0.2206  0.3270 -0.8382
    1OL    H16R 3584   2.461   5.398   5.788 -0.8244  0.0908 -1.3279
    1OL    H16S 3585   2.505   5.551   5.732  0.8216  0.0577  0.4674
    1OL    C117 3586   2.296   5.511   5.698 -0.2640 -0.0634 -0.1584
    1OL    H17R 3587   2.208   5.468   5.745 -0.1528  0.5659  0.6308
    1OL    H17S 3588   2.313   5.453   5.607  0.2114 -2.2197  1.2695
    1OL    C118 3589   2.273   5.656   5.653 -0.5059  0.2184  0.0392
    1OL    H18R 3590   2.227   5.716   5.732 -0.1261 -1.3075  1.4279
    1OL    H18S 3591   2.201   5.652   5.571  0.4159 -0.5149 -0.7566
    1OL    H18T 3592   2.367   5.702   5.620 -0.6638 -0.7972 -1.9283
    1PA    C116 3593   0.692   2.387   5.307  1.0233  1.0484  0.1045
    1PA    H16R 3594   0.770   2.451   5.265  0.1564  0.8360 -1.9251
    1PA    H16S 3595   0.651   2.328   5.224  0.4129 -0.7336  1.6263
    1PA    H16T 3596   0.730   2.319   5.383 -0.3665 -0.9335 -0.9046
    1PA    C115 3597   0.584   2.483   5.366  0.2321  0.1331  0.7144
    1PA    H15R 3598   0.546   2.534   5.278 -0.9975 -1.4103  0.3252
    1PA    H15S 3599   0.503   2.422   5.406  0.2288 -0.2740  0.0866
    1PA    C114 3600   0.628   2.590   5.474 -0.0811 -0.5207 -0.2070
    1PA    H14R 3601   0.664   2.544   5.566 -1.0422  1.7381  1.3218
    1PA    H14S 3602   0.708   2.645   5.423 -0.2001 -0.9508 -0.8724
    1PA    C113 3603   0.513   2.686   5.498  1.4647  0.1550  0.5582
    1PA    H13R 3604   0.466   2.713   5.403  1.1942 -1.1643  0.3081
    1PA    H13S 3605   0.429   2.633   5.543  0.4506  1.9624  0.8390
    1PA    C112 3606   0.547   2.808   5.579  0.3557  0.5257 -0.1569
    1PA    H12R 3607   0.616   2.873   5.524  0.5780  1.7128  1.5055
    1PA    H12S 3608   0.452   2.860   5.592 -0.4628 -0.9387 -0.1655
    1PA    C111 3609   0.617   2.771   5.707 -0.4576  0.5854 -0.1583
    1PA    H11R 3610   0.711   2.726   5.674 -0.6023  1.3690 -1.7073
    1PA    H11S 3611   0.639   2.863   5.762  1.6677  0.8159 -1.3311
    1PA    C110 3612   0.523   2.689   5.798 -0.3080  0.4898 -0.7021
    1PA    H10R 3613   0.434   2.745   5.825  0.6276  0.1784  3.2895
    1PA    H10S 3614   0.483   2.599   5.750  0.5464 -1.2371  1.7225
    1PA     C19 3615   0.596   2.644   5.928  0.3012  0.5464 -0.5935
    1PA     H9R 3616   0.621   2.733   5.986  1.0228  0.2806 -0.5003
    1PA     H9S 3617   0.525   2.585   5.986 -0.5856  0.1212 -2.0675
    1PA     C18 3618   0.726   2.562   5.918  0.3560  0.0757  0.2090
    1PA     H8R 3619   0.732   2.497   5.830 -1.1103 -1.4883  1.2268
    1PA     H8S 3620   0.801   2.638   5.895  1.3995  0.1757  3.5789
    1PA     C17 3621   0.774   2.502   6.052  0.0206 -0.3643  0.3849
    1PA     H7R 3622   0.762   2.575   6.133 -0.3696 -0.0007  0.0033
    1PA     H7S 3623   0.714   2.414   6.080  0.4693 -1.5438 -2.1693
    1PA     C16 3624   0.913   2.438   6.048  0.2230  0.2425  0.9355
    1PA     H6R 3625   0.899   2.348   5.989 -0.5280  1.1021 -0.2123
    1PA     H6S 3626   0.987   2.499   5.997  1.1797 -1.6248  0.0643
    1PA     C15 3627   0.965   2.400   6.196  0.4471  0.9745  0.1455
    1PA     H5R 3628   0.978   2.498   6.243  0.0841  0.5823  1.0775
    1PA     H5S 3629   0.890   2.347   6.255  1.2516 -0.6733 -0.2704
    1PA     C14 3630   1.093   2.315   6.195 -0.5561 -0.5538 -0.5244
    1PA     H4R 3631   1.113   2.298   6.301  0.6139  0.7821 -0.5239
    1PA     H4S 3632   1.076   2.215   6.155  1.3009 -1.6242  1.2352
    1PA     C13 3633   1.212   2.385   6.127 -0.0597 -0.1137 -0.1336
    1PA     H3R 3634   1.295   2.315   6.120  1.3622  1.4587  0.6269
    1PA     H3S 3635   1.194   2.418   6.025  1.1015  0.4869 -0.1501
    1PA     C12 3636   1.271   2.508   6.198 -0.0649  0.0900  0.7548
    1PA     H2R 3637   1.374   2.523   6.167 -0.8227  2.2804 -0.8265
    1PA     H2S 3638   1.211   2.599   6.186  0.4910  0.3520 -0.0907
    1PC     C11 3639   1.286   2.499   6.345  0.1273 -0.4006  0.9710
    1PC     O12 3640   1.305   2.394   6.399 -0.2469  0.0357 -0.1206
    1PC     O11 3641   1.288   2.614   6.412 -0.1635 -0.3969 -0.0141
    1PC      C1 3642   1.288   2.611   6.559  0.6632  0.2826 -0.5377
    1PC      HR 3643   1.201   2.551   6.587  0.7808 -0.2068 -1.2174
    1PC      HS 3644   1.382   2.568   6.594 -0.6234 -1.0559  1.3680
    1PC      C2 3645   1.284   2.755   6.624  0.1191 -0.3567 -0.1980
    1PC      HX 3646   1.376   2.804   6.590 -0.0412  0.5265  0.6356
    1PC      C3 3647   1.292   2.765   6.775  0.2826 -0.4224 -0.6130
    1PC      HA 3648   1.396   2.779   6.804 -0.0141 -0.5669  0.5326
    1PC      HB 3649   1.232   2.851   6.807  0.4940 -0.6533  0.4041
    1PC     O31 3650   1.244   2.645   6.846  0.4349 -0.0249 -0.3321
    1PC     P31 3651   1.322   2.574   6.960 -0.1220 -0.3232 -0.4229
    1PC     O32 3652   1.315   2.673   7.093 -0.2061  0.8971  0.0385
    1PC     C31 3653   1.411   2.782   7.117  0.5911 -0.3497 -1.0824
    1PC     H1A 3654   1.511   2.757   7.081  1.0310  1.5512 -1.2589
    1PC     H1B 3655   1.390   2.869   7.054 -1.4279 -0.0886 -0.0641
    1PC     C32 3656   1.404   2.809   7.270  1.2462  0.0857 -0.1576
    1PC     H2A 3657   1.304   2.847   7.288  1.2571  0.9994 -1.8887
    1PC     H2B 3658   1.423   2.715   7.322 -0.4182 -1.6939 -2.6292
    1PC     N31 3659   1.495   2.909   7.334 -0.5125  0.1876 -0.0952
    1PC     C33 3660   1.637   2.857   7.319  0.2776 -0.0028  0.1919
    1PC     H3A 3661   1.659   2.849   7.213 -2.4918 -1.1400 -0.3366
    1PC     H3B 3662   1.707   2.931   7.357 -0.3811  1.2076 -0.9122
    1PC     H3C 3663   1.647   2.766   7.379 -3.2276 -0.5427  0.0977
    1PC     C34 3664   1.485   3.044   7.271 -0.0988  0.2151 -0.4034
    1PC     H4A 3665   1.386   3.088   7.282 -0.8979 -1.4511 -0.8351
    1PC     H4B 3666   1.556   3.108   7.323 -1.9530  2.3168 -0.3924
    1PC     H4C 3667   1.525   3.036   7.170  2.2321  0.6771  0.4450
    1PC     C35 3668   1.461   2.896   7.480  0.0508 -0.3536  0.0484
    1PC     H5A 3669   1.541   2.947   7.534  0.5607  0.6476 -1.6412
    1PC     H5B 3670   1.456   2.793   7.515 -0.8489 -0.0869  0.7249
    1PC     H5C 3671   1.364   2.941   7.499  0.0626 -0.2545 -0.1288
    1PC     O33 3672   1.252   2.453   6.999  0.2779  0.5264 -0.1037
    1PC     O34 3673   1.458   2.556   6.915 -0.8936 -0.1361  0.0446
    1PC     O21 3674   1.172   2.826   6.574 -0.0461  0.7238 -0.5235
    1PC     C21 3675   1.177   2.900   6.459  0.3098  0.1423 -0.2659
    1PC     O22 3676   1.279   2.935   6.405 -0.6757  0.4486 -0.7931
    1OL     C12 3677   1.035   2.938   6.411 -0.0346 -0.2834 -0.1980
    1OL     H2R 3678   0.961   2.870   6.453 -0.2304 -0.6747 -1.1604
    1OL     H2S 3679   1.014   2.934   6.304 -1.2191  1.3134 -0.0371
    1OL     C13 3680   1.001   3.077   6.458 -0.2794  0.4048  0.1209
    1OL     H3R 3681   1.075   3.148   6.421 -1.1116  0.5642 -1.2764
    1OL     H3S 3682   0.999   3.077   6.567 -0.2567 -0.7420  0.1234
    1OL     C14 3683   0.860   3.111   6.410 -0.8496  0.3459 -0.2286
    1OL     H4R 3684   0.788   3.052   6.467 -0.9820  0.7289  0.0035
    1OL     H4S 3685   0.852   3.086   6.304  2.5277 -1.5809 -0.1156
    1OL     C15 3686   0.825   3.258   6.441 -0.3571 -0.4174 -0.1718
    1OL     H5R 3687   0.912   3.317   6.409 -0.6504  0.1466  0.0652
    1OL     H5S 3688   0.817   3.273   6.549 -0.8550 -0.0948 -0.2532
    1OL     C16 3689   0.695   3.301   6.364  0.2201  0.1132 -0.1400
    1OL     H6R 3690   0.698   3.282   6.257 -1.2839 -1.9564  0.1518
    1OL     H6S 3691   0.683   3.409   6.375 -1.0280  0.1292 -1.4555
    1OL     C17 3692   0.566   3.244   6.431 -0.3260  0.0210 -0.3824
    1OL     H7R 3693   0.575   3.271   6.537 -0.2258 -0.1606 -0.3464
    1OL     H7S 3694   0.580   3.138   6.412 -1.8232 -0.4840  1.1510
    1OL     C18 3695   0.434   3.296   6.376 -0.5859  0.1214  0.4466
    1OL     H8R 3696   0.358   3.233   6.423 -0.9920  0.3917  0.1559
    1OL     H8S 3697   0.426   3.291   6.267 -0.1198 -1.1426  0.4619
    1OL     C19 3698   0.409   3.433   6.424  0.0528 -0.3544  0.2298
    1OL     H9R 3699   0.454   3.454   6.521 -1.9204 -0.6035  1.2259
    1OL    C110 3700   0.349   3.528   6.353 -0.5301 -0.0591 -0.1637
    1OL    H10R 3701   0.346   3.631   6.385  1.0002  0.2060 -0.8374
    1OL    C111 3702   0.290   3.501   6.212 -0.3851 -0.6666 -0.3659
    1OL    H11R 3703   0.211   3.571   6.185  1.1661  0.4789 -2.0513
    1OL    H11S 3704   0.255   3.398   6.201 -0.5290 -0.3155 -3.4708
    1OL    C112 3705   0.401   3.516   6.104  0.2429  0.3056 -0.6009
    1OL    H12R 3706   0.473   3.442   6.138 -0.1838  0.1690  0.0076
    1OL    H12S 3707   0.456   3.609   6.117 -1.8882  1.2581  2.0136
    1OL    C113 3708   0.351   3.478   5.968 -0.3034  0.2798 -0.1458
    1OL    H13R 3709   0.283   3.560   5.944 -1.1834 -0.6923 -1.0245
    1OL    H13S 3710   0.292   3.386   5.972 -0.3252  0.3341  1.1370
    1OL    C114 3711   0.473   3.482   5.872  0.2347  0.3190 -0.8735
    1OL    H14R 3712   0.545   3.405   5.899  0.2282  1.3820  2.4002
    1OL    H14S 3713   0.523   3.579   5.882 -1.8193  1.4668 -1.1979
    1OL    C115 3714   0.426   3.460   5.729 -1.0473 -0.0830  0.2251
    1OL    H15R 3715   0.350   3.536   5.707  1.2725  2.5622  1.0725
    1OL    H15S 3716   0.377   3.363   5.722 -0.1300 -0.6397  1.4438
    1OL    C116 3717   0.551   3.463   5.635 -0.7078  0.5861  0.2723
    1OL    H16R 3718   0.607   3.556   5.644  0.8296 -0.3296  0.2827
    1OL    H16S 3719   0.515   3.469   5.532 -1.4349  0.3748  0.5062
    1OL    C117 3720   0.639   3.333   5.651  0.0564  0.4732 -0.5922
    1OL    H17R 3721   0.572   3.250   5.674 -2.5489  2.6177 -0.2530
    1OL    H17S 3722   0.706   3.346   5.737 -0.2725 -1.2801 -0.0529
    1OL    C118 3723   0.718   3.300   5.525 -0.2002 -0.0719 -0.5288
    1OL    H18R 3724   0.798   3.225   5.531 -0.9169 -0.7592  0.4491
    1OL    H18S 3725   0.756   3.391   5.479 -2.3052 -0.3367 -2.9084
    1OL    H18T 3726   0.649   3.263   5.449 -2.7401  0.8622  1.2834
    1PA    C116 3727   1.556   0.467   5.165  0.1696 -0.2583 -0.0746
    1PA    H16R 3728   1.636   0.521   5.217  0.1643 -1.0592  0.7732
    1PA    H16S 3729   1.465   0.529   5.164 -0.0228 -0.4777  1.7634
    1PA    H16T 3730   1.588   0.434   5.066 -1.5244  2.3321 -1.5732
    1PA    C115 3731   1.516   0.340   5.249  0.1605  0.6532 -0.0109
    1PA    H15R 3732   1.422   0.302   5.208  1.7788 -1.8642 -1.5493
    1PA    H15S 3733   1.591   0.263   5.234 -0.4604  0.3309 -1.6129
    1PA    C114 3734   1.492   0.377   5.393 -0.0994 -0.7003 -0.7595
    1PA    H14R 3735   1.509   0.284   5.449  0.3424 -1.2958 -1.8571
    1PA    H14S 3736   1.583   0.436   5.408 -0.3724  0.1848 -2.5114
    1PA    C113 3737   1.365   0.456   5.426  0.1365 -0.1760 -0.5381
    1PA    H13R 3738   1.353   0.533   5.350  0.6978  0.8374  0.3848
    1PA    H13S 3739   1.283   0.384   5.421  1.5346 -1.8843  0.2082
    1PA    C112 3740   1.361   0.533   5.564 -0.3126 -0.3825  0.1939
    1PA    H12R 3741   1.435   0.613   5.573 -0.4137 -0.2701  0.0303
    1PA    H12S 3742   1.270   0.590   5.584  0.2099 -0.1686  2.0644
    1PA    C111 3743   1.369   0.433   5.682 -0.0829 -0.0901  0.4717
    1PA    H11R 3744   1.279   0.370   5.677 -0.3546  0.4358 -1.8162
    1PA    H11S 3745   1.458   0.372   5.669  1.7994  2.8251 -0.8130
    1PA    C110 3746   1.390   0.514   5.812 -0.3873 -0.0529  0.0858
    1PA    H10R 3747   1.461   0.596   5.802  0.8189 -1.0447  0.3877
    1PA    H10S 3748   1.298   0.569   5.831  0.0537 -0.3585  3.5829
    1PA     C19 3749   1.415   0.425   5.930  0.2023  0.2056  0.6474
    1PA     H9R 3750   1.331   0.356   5.944  0.1503 -0.4336 -2.4854
    1PA     H9S 3751   1.507   0.370   5.907  0.2728 -0.3562  2.2465
    1PA     C18 3752   1.457   0.496   6.062 -0.3041 -0.0244 -0.4351
    1PA     H8R 3753   1.551   0.551   6.048 -0.4293 -0.1339 -1.7867
    1PA     H8S 3754   1.383   0.570   6.092  0.7244  0.6572  0.4773
    1PA     C17 3755   1.467   0.388   6.170 -0.2480 -0.1988 -0.6414
    1PA     H7R 3756   1.371   0.336   6.171  0.0403 -0.7808 -2.1302
    1PA     H7S 3757   1.536   0.308   6.142  0.6532  0.3362  0.0310
    1PA     C16 3758   1.508   0.453   6.307  0.3220 -0.3843  0.2733
    1PA     H6R 3759   1.614   0.477   6.303  0.3302 -0.6047 -1.1574
    1PA     H6S 3760   1.446   0.542   6.320 -0.2263 -0.4343 -1.7285
    1PA     C15 3761   1.485   0.348   6.412  0.8365 -0.3173 -0.2564
    1PA     H5R 3762   1.379   0.323   6.403  0.0893  2.2945  0.6670
    1PA     H5S 3763   1.546   0.267   6.372  2.5415  2.2463 -3.1215
    1PA     C14 3764   1.524   0.390   6.557  0.1660  0.1849  0.1731
    1PA     H4R 3765   1.614   0.452   6.552  0.9856 -1.0024  0.0241
    1PA     H4S 3766   1.447   0.452   6.604 -1.0931 -0.9024 -0.4428
    1PA     C13 3767   1.548   0.269   6.653 -0.1380 -0.0685  0.0208
    1PA     H3R 3768   1.582   0.306   6.750  0.0834 -0.3640  0.0570
    1PA     H3S 3769   1.451   0.222   6.669 -0.0939 -0.3819 -0.6381
    1PA     C12 3770   1.648   0.157   6.605  0.3546 -0.1157 -0.3678
    1PA     H2R 3771   1.602   0.081   6.541  1.4813 -0.2300 -1.0457
    1PA     H2S 3772   1.737   0.190   6.552  2.0465  0.3105  2.6483
    1PC     C11 3773   1.693   0.067   6.715  0.8198  0.5758  0.6587
    1PC     O12 3774   1.619   0.036   6.805  0.0880  0.1032  0.2647
    1PC     O11 3775   1.818   0.029   6.710 -0.0322 -0.2882 -0.0676
    1PC      C1 3776   1.866  -0.076   6.793 -0.5562 -0.9943  0.2210
    1PC      HR 3777   1.834  -0.057   6.896 -0.5627 -1.4939  0.3150
    1PC      HS 3778   1.815  -0.171   6.772 -1.5254 -0.9347  2.1915
    1PC      C2 3779   2.024  -0.075   6.796  0.4329  0.3293  0.3359
    1PC      HX 3780   2.064  -0.159   6.853  0.3795  0.2017  0.1887
    1PC      C3 3781   2.078   0.060   6.853  0.0022 -0.6478  0.0777
    1PC      HA 3782   2.149   0.104   6.783 -0.0528 -0.8262 -0.0910
    1PC      HB 3783   2.002   0.137   6.863 -0.5666 -1.1450 -0.3978
    1PC     O31 3784   2.158   0.042   6.979 -0.2559  0.0941  0.2096
    1PC     P31 3785   2.092   0.051   7.120 -0.0902 -0.3126  0.0098
    1PC     O32 3786   2.045  -0.094   7.134 -0.2981  0.4313  0.0715
    1PC     C31 3787   2.141  -0.212   7.142 -0.4562  0.1395  0.1971
    1PC     H1A 3788   2.090  -0.308   7.130  1.7325 -1.3902  2.9134
    1PC     H1B 3789   2.230  -0.192   7.081  0.1308 -1.1574  0.6238
    1PC     C32 3790   2.188  -0.224   7.294  0.6731 -0.3646  0.4526
    1PC     H2A 3791   2.253  -0.312   7.299 -0.4871 -1.2727 -0.1041
    1PC     H2B 3792   2.252  -0.138   7.315  0.4325  0.2613 -1.2491
    1PC     N31 3793   2.079  -0.249   7.402  0.2649 -0.4145 -0.4839
    1PC     C33 3794   2.156  -0.271   7.525 -0.4897 -0.3890  0.1823
    1PC     H3A 3795   2.094  -0.301   7.609  0.2519 -0.4506  0.7044
    1PC     H3B 3796   2.232  -0.347   7.508 -0.0925 -0.1934  1.0926
    1PC     H3C 3797   2.200  -0.178   7.560  0.0816  0.1786 -1.9418
    1PC     C34 3798   2.009  -0.127   7.429  0.1155  0.1583 -0.1035
    1PC     H4A 3799   1.946  -0.118   7.340 -1.7064 -0.8489  1.0640
    1PC     H4B 3800   1.945  -0.138   7.516  0.7257 -2.5902  0.0650
    1PC     H4C 3801   2.084  -0.048   7.440  2.3513 -1.8062 -0.6270
    1PC     C35 3802   1.987  -0.365   7.386  0.0521 -0.1549  0.0692
    1PC     H5A 3803   2.039  -0.458   7.409 -0.0245 -0.0718  0.5797
    1PC     H5B 3804   1.961  -0.362   7.280  1.7326 -0.6227 -0.3749
    1PC     H5C 3805   1.900  -0.336   7.445  1.0248  1.1780  0.9068
    1PC     O33 3806   2.194   0.068   7.223 -0.4705 -0.0646 -0.8429
    1PC     O34 3807   1.973   0.138   7.128 -0.1408  0.2513  0.0386
    1PC     O21 3808   2.072  -0.095   6.666 -0.1344 -0.5756 -0.5970
    1PC     C21 3809   2.041  -0.199   6.591  0.2743 -0.2212  0.3366
    1PC     O22 3810   1.980  -0.293   6.637 -0.0832 -0.2620 -0.4650
    1OL     C12 3811   2.095  -0.198   6.449 -0.0809  0.3304  0.3160
    1OL     H2R 3812   2.107  -0.299   6.409  2.7226  1.2443 -1.2304
    1OL     H2S 3813   2.193  -0.151   6.459  0.5763 -0.6655 -1.2706
    1OL     C13 3814   2.021  -0.106   6.352  0.2881 -0.6089 -0.1762
    1OL     H3R 3815   2.092  -0.059   6.283  1.1781 -2.0081 -0.2176
    1OL     H3S 3816   1.990  -0.018   6.409  0.9441  1.4757 -2.9002
    1OL     C14 3817   1.905  -0.178   6.280 -0.0961 -0.3300  0.0580
    1OL     H4R 3818   1.851  -0.243   6.350  0.5757  0.4729  1.3429
    1OL     H4S 3819   1.955  -0.244   6.208  1.4032  0.8478 -0.0037
    1OL     C15 3820   1.811  -0.091   6.205 -0.2730  0.5260  0.2663
    1OL     H5R 3821   1.771  -0.013   6.271 -0.8244  1.3763 -1.0448
    1OL     H5S 3822   1.727  -0.156   6.177  0.1997  0.7737 -1.8421
    1OL     C16 3823   1.888  -0.026   6.088  0.2868  0.1331  0.1768
    1OL     H6R 3824   1.941  -0.092   6.018  1.8167 -0.0688  1.4859
    1OL     H6S 3825   1.969   0.041   6.119  0.9598 -1.0678  1.0719
    1OL     C17 3826   1.794   0.045   5.992 -0.0250 -0.4832  0.4047
    1OL     H7R 3827   1.751   0.115   6.065 -1.6028  0.4619 -1.3687
    1OL     H7S 3828   1.712  -0.022   5.965  0.3484  0.1322 -2.5003
    1OL     C18 3829   1.843   0.130   5.873  0.3286  0.2234  0.2973
    1OL     H8R 3830   1.901   0.066   5.808  1.8381 -0.8110  2.5960
    1OL     H8S 3831   1.920   0.200   5.907  0.8247 -0.7424  1.1763
    1OL     C19 3832   1.734   0.193   5.793  0.4992  0.1886 -0.2740
    1OL     H9R 3833   1.673   0.253   5.861  1.8071 -0.3337  1.3897
    1OL    C110 3834   1.709   0.184   5.660 -1.1772 -0.5999 -0.6295
    1OL    H10R 3835   1.618   0.238   5.633 -0.8494 -0.5987 -1.7631
    1OL    C111 3836   1.781   0.121   5.542  0.3223  0.3784 -0.5344
    1OL    H11R 3837   1.870   0.073   5.582  0.4139 -1.1213 -2.4655
    1OL    H11S 3838   1.817   0.201   5.478 -0.1901 -0.0719 -1.4009
    1OL    C112 3839   1.688   0.014   5.476 -0.5301 -0.0236 -0.3368
    1OL    H12R 3840   1.585   0.051   5.471 -0.4739  0.1624 -0.1337
    1OL    H12S 3841   1.679  -0.065   5.552 -0.0933 -0.3255 -0.5982
    1OL    C113 3842   1.743  -0.044   5.347 -0.0955 -0.2271  0.2610
    1OL    H13R 3843   1.704   0.027   5.273  2.3959  1.1263  0.1899
    1OL    H13S 3844   1.693  -0.140   5.337 -1.0622 -0.0081  2.7755
    1OL    C114 3845   1.899  -0.050   5.328  0.2301 -0.4726  0.2739
    1OL    H14R 3846   1.944  -0.111   5.407 -1.4760  0.0132  1.6693
    1OL    H14S 3847   1.940   0.051   5.321  0.9324 -0.7802 -0.0497
    1OL    C115 3848   1.943  -0.105   5.185 -0.9666 -0.3788  0.7744
    1OL    H15R 3849   1.899  -0.205   5.175  1.3957 -1.1986 -2.0219
    1OL    H15S 3850   2.051  -0.116   5.186 -0.6556  1.5333 -3.1245
    1OL    C116 3851   1.900  -0.022   5.068  0.5336  0.0593 -0.5591
    1OL    H16R 3852   1.939   0.079   5.083  0.0296  0.3644 -1.2567
    1OL    H16S 3853   1.792  -0.009   5.055  0.0955 -2.8372 -0.1298
    1OL    C117 3854   1.957  -0.071   4.937 -0.3012  0.4001  0.3693
    1OL    H17R 3855   2.066  -0.070   4.941 -0.2376  1.4147 -0.9539
    1OL    H17S 3856   1.927  -0.002   4.857  0.5945 -0.2671 -0.5597
    1OL    C118 3857   1.903  -0.211   4.903 -0.4196  0.2751  0.2769
    1OL    H18R 3858   1.949  -0.291   4.962 -2.5320 -0.5690  0.8226
    1OL    H18S 3859   1.924  -0.227   4.798  0.4592  1.7393  0.2148
    1OL    H18T 3860   1.795  -0.216   4.917 -0.1995 -1.6007  1.4654
    1PA    C116 3861   0.181   1.595   5.061 -0.2816  0.0938  0.5157
    1PA    H16R 3862   0.270   1.533   5.047 -2.5816 -3.4209  0.7500
    1PA    H16S 3863   0.204   1.701   5.067 -1.1340  0.2938  0.3803
    1PA    H16T 3864   0.118   1.581   4.972  1.7225 -0.1292 -0.8942
    1PA    C115 3865   0.098   1.553   5.183  0.6590 -0.2028  0.2802
    1PA    H15R 3866   0.038   1.465   5.157  0.1390  1.1172 -3.2215
    1PA    H15S 3867   0.173   1.521   5.255  0.2380  0.8075  1.1954
    1PA    C114 3868   0.011   1.663   5.243  0.3111 -0.5230 -0.2691
    1PA    H14R 3869  -0.061   1.691   5.167 -0.3746  0.8293  0.8512
    1PA    H14S 3870  -0.041   1.609   5.322 -2.8557 -0.8672 -2.4973
    1PA    C113 3871   0.093   1.781   5.287  0.1727  0.2043  0.5192
    1PA    H13R 3872   0.142   1.827   5.200  0.9886 -2.4946 -0.4993
    1PA    H13S 3873   0.029   1.864   5.317  0.4033  1.2113 -1.6410
    1PA    C112 3874   0.171   1.741   5.412  0.0127  0.5730  0.1351
    1PA    H12R 3875   0.100   1.694   5.479  1.2311 -3.2262 -1.1203
    1PA    H12S 3876   0.247   1.669   5.381 -0.0282  0.1593  0.9863
    1PA    C111 3877   0.238   1.860   5.471  0.3934  0.3006 -0.1412
    1PA    H11R 3878   0.307   1.913   5.406  1.4319 -2.8694 -1.7707
    1PA    H11S 3879   0.167   1.941   5.484 -1.3703 -1.2531  0.1940
    1PA    C110 3880   0.303   1.831   5.607  0.2089 -0.1972  0.1658
    1PA    H10R 3881   0.393   1.776   5.579 -0.0541 -0.0349 -1.0282
    1PA    H10S 3882   0.319   1.926   5.659 -3.9429  0.0776  1.1238
    1PA     C19 3883   0.229   1.748   5.711  0.0116 -0.7092 -0.0909
    1PA     H9R 3884   0.130   1.793   5.715  0.2504 -0.2731  1.5530
    1PA     H9S 3885   0.222   1.645   5.675 -0.3304 -1.3560  1.7666
    1PA     C18 3886   0.288   1.741   5.852 -0.5590 -0.2566 -0.5376
    1PA     H8R 3887   0.384   1.690   5.844 -0.5478 -0.8989  2.8148
    1PA     H8S 3888   0.318   1.840   5.890  1.6847 -1.2362  0.3184
    1PA     C17 3889   0.201   1.672   5.959  0.8347 -0.6256  0.0685
    1PA     H7R 3890   0.105   1.722   5.946  1.5407  1.1381  1.5233
    1PA     H7S 3891   0.178   1.571   5.924 -1.7695  0.0489 -0.2683
    1PA     C16 3892   0.246   1.694   6.110 -0.1938  0.0774  0.5317
    1PA     H6R 3893   0.353   1.678   6.121 -0.0337  0.0701 -0.9125
    1PA     H6S 3894   0.227   1.797   6.141 -0.0577  0.3837 -0.4089
    1PA     C15 3895   0.180   1.590   6.202 -0.1182 -0.0859  0.6111
    1PA     H5R 3896   0.073   1.589   6.182 -0.1013 -0.6831  0.5549
    1PA     H5S 3897   0.214   1.491   6.172 -2.8489 -1.5456  2.2545
    1PA     C14 3898   0.202   1.606   6.350 -0.2628  0.3487  0.5760
    1PA     H4R 3899   0.300   1.646   6.375 -0.0217  0.6574 -0.8585
    1PA     H4S 3900   0.124   1.676   6.382 -1.3021  0.1885 -1.5280
    1PA     C13 3901   0.176   1.477   6.414  0.4828 -0.1315  0.3026
    1PA     H3R 3902   0.071   1.447   6.407  0.7370 -0.7146 -1.5216
    1PA     H3S 3903   0.231   1.406   6.351  0.6811 -0.7728  1.1964
    1PA     C12 3904   0.239   1.463   6.558  0.0416 -0.6024 -0.5412
    1PA     H2R 3905   0.212   1.366   6.600 -0.1030  0.7782  2.6896
    1PA     H2S 3906   0.347   1.477   6.554  0.1281 -1.1159 -0.0826
    1PC     C11 3907   0.190   1.570   6.653  0.2064 -0.2819 -0.2704
    1PC     O12 3908   0.179   1.687   6.618 -0.1241  0.5143 -0.2379
    1PC     O11 3909   0.156   1.523   6.774  0.3986  0.3570 -0.2436
    1PC      C1 3910   0.076   1.605   6.868 -0.4341 -0.5359  0.2402
    1PC      HR 3911   0.117   1.579   6.966 -0.1722 -1.3622 -0.0859
    1PC      HS 3912   0.090   1.711   6.847  1.6313 -0.7228  0.5000
    1PC      C2 3913  -0.072   1.553   6.854  0.1873 -0.6198  0.2379
    1PC      HX 3914  -0.133   1.605   6.929 -1.4695 -2.0322 -0.0865
    1PC      C3 3915  -0.093   1.408   6.888 -0.3739  1.1397  0.5069
    1PC      HA 3916  -0.193   1.370   6.864  0.7599 -2.4580  1.2739
    1PC      HB 3917  -0.031   1.339   6.831 -1.4213  0.4959  0.1196
    1PC     O31 3918  -0.057   1.374   7.023  0.4139  0.3786 -0.1002
    1PC     P31 3919  -0.152   1.405   7.147  0.3968  0.4642 -0.1188
    1PC     O32 3920  -0.179   1.271   7.227 -0.8174 -0.3770  0.1349
    1PC     C31 3921  -0.288   1.184   7.200  0.2030 -0.6665  0.5534
    1PC     H1A 3922  -0.379   1.243   7.185  0.6897  0.6662  2.6340
    1PC     H1B 3923  -0.261   1.122   7.114  1.1599 -0.4637  0.7017
    1PC     C32 3924  -0.316   1.102   7.328  0.1562 -0.1049  1.2487
    1PC     H2A 3925  -0.380   1.017   7.303  0.0554 -0.2949  2.1159
    1PC     H2B 3926  -0.232   1.048   7.371  1.3488  0.8439  0.1396
    1PC     N31 3927  -0.400   1.170   7.434  0.1772 -0.6242 -0.8429
    1PC     C33 3928  -0.453   1.061   7.532  0.0375 -0.3815 -0.1327
    1PC     H3A 3929  -0.361   1.020   7.573  0.6176  1.0269  0.0075
    1PC     H3B 3930  -0.515   1.096   7.614 -1.6414 -0.4616 -1.3563
    1PC     H3C 3931  -0.521   1.001   7.472 -1.4285  1.4235 -0.3133
    1PC     C34 3932  -0.319   1.268   7.510 -0.1990 -0.0768  0.3827
    1PC     H4A 3933  -0.395   1.338   7.545  0.6236  1.7658 -1.4261
    1PC     H4B 3934  -0.271   1.216   7.593  1.3649  2.4104  1.0799
    1PC     H4C 3935  -0.244   1.316   7.447 -1.3557  2.4943  0.8752
    1PC     C35 3936  -0.525   1.241   7.373  0.7437 -0.2965 -0.2719
    1PC     H5A 3937  -0.578   1.167   7.312  1.4447 -1.9727  1.1144
    1PC     H5B 3938  -0.502   1.330   7.314  1.5212  0.1075  0.6229
    1PC     H5C 3939  -0.593   1.275   7.451 -0.0028  1.2888 -1.5720
    1PC     O33 3940  -0.084   1.506   7.230  0.2804 -0.0229  0.3796
    1PC     O34 3941  -0.284   1.444   7.093 -0.1021  0.1360 -0.4676
    1PC     O21 3942  -0.129   1.573   6.719 -0.0707  0.3989 -0.6020
    1PC     C21 3943  -0.148   1.699   6.677 -0.2384 -0.6532 -0.4090
    1PC     O22 3944  -0.135   1.799   6.752  0.4566  0.1881  0.4131
    1OL     C12 3945  -0.187   1.703   6.533  0.2081 -0.9041  0.0627
    1OL     H2R 3946  -0.296   1.706   6.517  0.4803 -1.2500 -2.0650
    1OL     H2S 3947  -0.151   1.614   6.481  2.4682  1.0787 -1.8446
    1OL     C13 3948  -0.120   1.820   6.458  0.0956  0.6652 -0.0547
    1OL     H3R 3949  -0.016   1.808   6.488  0.4652  1.9670 -0.7531
    1OL     H3S 3950  -0.143   1.917   6.504  0.9299  0.1444  1.5008
    1OL     C14 3951  -0.138   1.824   6.307  0.4894 -0.0423 -0.3454
    1OL     H4R 3952  -0.243   1.838   6.283  0.2703 -0.9583  0.0398
    1OL     H4S 3953  -0.096   1.729   6.274 -0.1745 -0.7191  0.7237
    1OL     C15 3954  -0.068   1.949   6.250  0.6009  0.3013  0.3742
    1OL     H5R 3955   0.036   1.954   6.283  1.7326  1.5338 -3.0977
    1OL     H5S 3956  -0.117   2.041   6.282 -1.6420 -0.6361 -0.2126
    1OL     C16 3957  -0.071   1.925   6.103 -0.2387 -0.6565  0.4198
    1OL     H6R 3958  -0.175   1.913   6.071 -0.9543  2.1396  1.6006
    1OL     H6S 3959  -0.005   1.844   6.071 -1.1178 -0.0422 -3.2927
    1OL     C17 3960  -0.017   2.051   6.028 -0.0486  0.6891 -0.0192
    1OL     H7R 3961   0.071   2.089   6.080 -0.2825 -0.9656  1.6606
    1OL     H7S 3962  -0.096   2.127   6.039  0.2172  1.1832 -1.4066
    1OL     C18 3963   0.014   2.033   5.881 -0.7295  0.6125 -0.4804
    1OL     H8R 3964   0.089   1.953   5.875 -1.0636  0.3908 -1.8010
    1OL     H8S 3965   0.057   2.124   5.839 -1.2841  0.4415 -1.4301
    1OL     C19 3966  -0.102   1.986   5.804  0.7498 -0.1797  0.4746
    1OL     H9R 3967  -0.116   1.878   5.812 -0.8514  0.0444  0.8793
    1OL    C110 3968  -0.190   2.063   5.741 -0.0427  0.2985 -0.5380
    1OL    H10R 3969  -0.284   2.021   5.705 -1.8094  2.7111  1.1794
    1OL    C111 3970  -0.187   2.211   5.732  0.0854  0.0841  0.1368
    1OL    H11R 3971  -0.156   2.256   5.826 -2.7204  1.7571  0.3317
    1OL    H11S 3972  -0.289   2.250   5.724 -0.2712 -0.8076  0.2654
    1OL    C112 3973  -0.102   2.257   5.608 -0.2508 -0.2225  0.1458
    1OL    H12R 3974  -0.005   2.209   5.604 -0.2408 -0.2006  0.1180
    1OL    H12S 3975  -0.076   2.363   5.615  0.1418 -0.4577  2.5556
    1OL    C113 3976  -0.183   2.237   5.476  0.0231 -0.0914 -0.0507
    1OL    H13R 3977  -0.286   2.267   5.490 -0.5456 -2.3935  1.0141
    1OL    H13S 3978  -0.184   2.131   5.447 -0.2418  0.0974 -0.7504
    1OL    C114 3979  -0.109   2.315   5.367  0.5018  0.5092  0.1616
    1OL    H14R 3980  -0.005   2.283   5.369  0.6312  0.9487  0.4763
    1OL    H14S 3981  -0.121   2.421   5.391  2.0946  0.0412  3.1340
    1OL    C115 3982  -0.163   2.291   5.228  0.6894  0.6275  0.2252
    1OL    H15R 3983  -0.189   2.185   5.227  0.4760  0.6113  3.4558
    1OL    H15S 3984  -0.091   2.318   5.150  1.4860  0.6567  0.9687
    1OL    C116 3985  -0.288   2.372   5.204 -0.0530 -0.0544 -0.2324
    1OL    H16R 3986  -0.263   2.478   5.217  1.1874 -0.3025 -0.5434
    1OL    H16S 3987  -0.363   2.343   5.279 -1.2671  1.3906 -0.8532
    1OL    C117 3988  -0.363   2.340   5.074  0.5677 -0.1845  0.2052
    1OL    H17R 3989  -0.362   2.231   5.079  0.0244 -0.3040 -1.8317
    1OL    H17S 3990  -0.309   2.374   4.985  2.4104  0.6878  1.5953
    1OL    C118 3991  -0.511   2.391   5.074 -0.2287 -0.0580 -0.1104
    1OL    H18R 3992  -0.508   2.495   5.109 -0.1495 -0.7175  1.9290
    1OL    H18S 3993  -0.556   2.329   5.152  0.7229 -1.0826 -0.3680
    1OL    H18T 3994  -0.552   2.389   4.973 -0.7536 -1.9866  0.1279
    1PA    C116 3995   1.224   4.031   4.835 -0.4518  0.6871 -0.7072
    1PA    H16R 3996   1.289   4.095   4.774 -0.5516 -0.2546 -1.8348
    1PA    H16S 3997   1.122   4.044   4.800 -0.8975  0.3457  0.4544
    1PA    H16T 3998   1.257   3.930   4.808  0.3328  0.1944  1.9282
    1PA    C115 3999   1.238   4.065   4.982  0.3917 -0.1245 -0.1760
    1PA    H15R 4000   1.185   4.155   5.012  0.5582  0.0080 -0.2829
    1PA    H15S 4001   1.190   3.990   5.045 -0.1456  0.5531  0.2245
    1PA    C114 4002   1.389   4.081   5.027 -0.1609 -0.1437 -0.2898
    1PA    H14R 4003   1.444   3.989   5.006 -1.1989 -1.0580  0.8850
    1PA    H14S 4004   1.444   4.161   4.978  0.8867 -1.0201 -0.5586
    1PA    C113 4005   1.396   4.111   5.172 -0.1670  0.4367  0.0082
    1PA    H13R 4006   1.345   4.030   5.225  1.3902 -0.7098 -0.2110
    1PA    H13S 4007   1.503   4.112   5.193 -0.0325  0.6235 -0.6919
    1PA    C112 4008   1.333   4.243   5.232  0.4484 -0.0382  0.2001
    1PA    H12R 4009   1.398   4.329   5.214  1.8860 -1.1862 -0.2014
    1PA    H12S 4010   1.233   4.258   5.192  0.1784  0.0199  0.8787
    1PA    C111 4011   1.316   4.227   5.387 -0.6862  0.2590 -0.2514
    1PA    H11R 4012   1.258   4.138   5.414  0.5903  0.0505  1.9653
    1PA    H11S 4013   1.419   4.222   5.425 -0.0402 -0.9469 -2.0884
    1PA    C110 4014   1.239   4.351   5.444  0.4453  0.7027  0.6136
    1PA    H10R 4015   1.302   4.439   5.432  3.6291 -1.5007  0.2427
    1PA    H10S 4016   1.153   4.366   5.378  2.7398 -0.7571 -2.8907
    1PA     C19 4017   1.197   4.337   5.593  0.2512  0.0135 -0.3931
    1PA     H9R 4018   1.135   4.423   5.619  2.1875  1.4699 -0.5321
    1PA     H9S 4019   1.141   4.243   5.600 -0.2832  0.1809 -2.2890
    1PA     C18 4020   1.311   4.330   5.694 -0.4317  0.5026 -0.6709
    1PA     H8R 4021   1.352   4.229   5.702 -0.5792  0.4251 -0.8874
    1PA     H8S 4022   1.388   4.401   5.663  0.9735 -1.4523 -1.8338
    1PA     C17 4023   1.274   4.373   5.839 -0.5917 -0.2706 -0.0752
    1PA     H7R 4024   1.222   4.469   5.837 -0.3471 -0.1578 -0.9038
    1PA     H7S 4025   1.202   4.307   5.889 -0.5998  0.7477  1.3090
    1PA     C16 4026   1.404   4.365   5.919  0.5197 -0.2230 -0.3991
    1PA     H6R 4027   1.452   4.268   5.903 -0.1213 -0.5407 -0.4013
    1PA     H6S 4028   1.473   4.448   5.897  1.8656 -0.4877  2.5946
    1PA     C15 4029   1.371   4.377   6.069  0.1076 -0.0021 -0.3976
    1PA     H5R 4030   1.325   4.474   6.088  2.4320  0.8099  1.3382
    1PA     H5S 4031   1.288   4.317   6.108 -2.1245  3.1011 -0.2149
    1PA     C14 4032   1.496   4.374   6.162  0.3961 -0.1097 -0.0137
    1PA     H4R 4033   1.566   4.298   6.127  0.4710 -0.3457  0.6541
    1PA     H4S 4034   1.543   4.472   6.151  0.3449  0.3464  3.4048
    1PA     C13 4035   1.449   4.344   6.304  0.5304  0.5917 -0.1532
    1PA     H3R 4036   1.533   4.366   6.371  0.3952 -0.9682  0.5468
    1PA     H3S 4037   1.361   4.407   6.318  0.3159  0.9003 -2.6785
    1PA     C12 4038   1.411   4.197   6.342  0.0686  0.2292  0.1944
    1PA     H2R 4039   1.304   4.191   6.319  0.2769  1.3433 -1.1242
    1PA     H2S 4040   1.451   4.110   6.290 -1.5638  0.0218 -0.7447
    1PC     C11 4041   1.426   4.185   6.489 -0.3131  0.6835 -0.3470
    1PC     O12 4042   1.403   4.273   6.571  0.6572  0.9112 -0.0338
    1PC     O11 4043   1.461   4.055   6.526 -0.1138 -0.6917  0.4496
    1PC      C1 4044   1.460   4.025   6.666  0.0115 -0.6290 -0.1462
    1PC      HR 4045   1.524   3.937   6.680  0.1904 -0.3825  0.6047
    1PC      HS 4046   1.508   4.106   6.721  0.0737  1.0885 -2.6051
    1PC      C2 4047   1.322   3.984   6.723  0.3651 -0.4278 -0.3788
    1PC      HX 4048   1.260   4.074   6.727  0.4276 -0.4019  0.0292
    1PC      C3 4049   1.344   3.930   6.869  0.7269 -0.2685  1.0551
    1PC      HA 4050   1.253   3.898   6.919  2.0649 -1.0172  3.0566
    1PC      HB 4051   1.408   3.841   6.864 -1.2708 -1.6956  0.1474
    1PC     O31 4052   1.413   4.018   6.942  0.0831  0.0669 -0.6873
    1PC     P31 4053   1.345   4.130   7.032  0.0255 -0.0522 -0.2553
    1PC     O32 4054   1.258   4.052   7.141  0.1094  0.2976 -0.6919
    1PC     C31 4055   1.317   3.994   7.257 -0.5929  0.4423  0.4996
    1PC     H1A 4056   1.379   4.074   7.300  1.0748 -1.2948  1.4244
    1PC     H1B 4057   1.237   3.959   7.323  0.2409 -2.2139  0.1501
    1PC     C32 4058   1.402   3.867   7.221 -0.4356 -0.3530  0.0570
    1PC     H2A 4059   1.327   3.796   7.187 -2.3034  1.5895  0.0369
    1PC     H2B 4060   1.458   3.881   7.128  1.4042  0.3551  1.2365
    1PC     N31 4061   1.473   3.796   7.335 -0.0054  0.3323  0.1341
    1PC     C33 4062   1.374   3.777   7.447 -0.3422  0.2954  0.2547
    1PC     H3A 4063   1.434   3.734   7.528  1.2234  0.7177 -0.6489
    1PC     H3B 4064   1.329   3.875   7.466  0.3203  0.9350 -1.3587
    1PC     H3C 4065   1.294   3.715   7.408 -0.2755  1.5545 -2.0200
    1PC     C34 4066   1.519   3.656   7.295  0.1917 -0.4792  0.2668
    1PC     H4A 4067   1.575   3.612   7.377  2.2315  2.4510  0.5083
    1PC     H4B 4068   1.431   3.607   7.252 -0.0839  1.8385 -1.9523
    1PC     H4C 4069   1.592   3.674   7.215  1.8144 -0.0472  1.8205
    1PC     C35 4070   1.590   3.873   7.396  0.3629  0.8450 -0.2277
    1PC     H5A 4071   1.547   3.949   7.461 -1.8066 -0.5725  0.0396
    1PC     H5B 4072   1.649   3.906   7.310 -0.7160 -1.9282 -2.1353
    1PC     H5C 4073   1.648   3.803   7.457  2.1217  1.3205 -1.3156
    1PC     O33 4074   1.449   4.205   7.103  0.3036 -0.3909 -0.8331
    1PC     O34 4075   1.250   4.202   6.941 -0.1890 -0.3770 -0.0222
    1PC     O21 4076   1.269   3.869   6.647  0.0112  0.5225 -0.2168
    1PC     C21 4077   1.155   3.890   6.587  0.3407 -0.0577  0.2602
    1PC     O22 4078   1.072   3.976   6.620  0.3484  0.0920  0.3810
    1OL     C12 4079   1.131   3.791   6.481  0.3608 -0.4073  0.1140
    1OL     H2R 4080   1.070   3.710   6.521 -1.3211  0.8015  0.0762
    1OL     H2S 4081   1.218   3.737   6.444  0.1262 -0.7070 -0.0004
    1OL     C13 4082   1.050   3.843   6.356 -0.0822 -0.2005  0.0694
    1OL     H3R 4083   0.962   3.901   6.388  0.2777  0.9026 -0.9115
    1OL     H3S 4084   1.016   3.755   6.302  0.0728  1.1517 -2.2977
    1OL     C14 4085   1.138   3.921   6.257  0.2054  0.3608 -0.3322
    1OL     H4R 4086   1.204   3.989   6.311 -1.4463  1.4689  0.2882
    1OL     H4S 4087   1.074   3.986   6.198 -1.9914  0.8394  2.5100
    1OL     C15 4088   1.225   3.834   6.160 -0.4775  0.5339 -0.2496
    1OL     H5R 4089   1.154   3.774   6.103 -0.5067 -0.1230  0.4658
    1OL     H5S 4090   1.272   3.757   6.222 -2.2911 -0.4451 -0.0418
    1OL     C16 4091   1.326   3.899   6.070  0.1456 -0.0241 -0.2767
    1OL     H6R 4092   1.395   3.963   6.123  0.0525 -1.3543  1.5024
    1OL     H6S 4093   1.269   3.957   5.997  0.7441 -1.2236 -1.7480
    1OL     C17 4094   1.416   3.797   5.996 -0.3382  0.1611  0.0502
    1OL     H7R 4095   1.347   3.723   5.957  0.8000 -1.7232  1.5262
    1OL     H7S 4096   1.474   3.741   6.069  0.4833  0.4218 -0.3950
    1OL     C18 4097   1.500   3.868   5.885 -0.1839 -0.6663  0.5013
    1OL     H8R 4098   1.565   3.935   5.941 -0.0837 -1.5620  1.4786
    1OL     H8S 4099   1.424   3.918   5.825 -1.3174 -2.7728  0.1242
    1OL     C19 4100   1.568   3.756   5.813  0.2310  0.1394 -0.2793
    1OL     H9R 4101   1.599   3.679   5.883  0.1091 -0.4345 -0.8496
    1OL    C110 4102   1.588   3.756   5.686  0.4460  0.0430  0.6028
    1OL    H10R 4103   1.647   3.672   5.650 -0.0047 -0.8108  1.8254
    1OL    C111 4104   1.557   3.871   5.589 -0.2748  0.4076  0.4031
    1OL    H11R 4105   1.590   3.964   5.635 -0.4668  1.2757 -1.1706
    1OL    H11S 4106   1.449   3.882   5.578 -0.5982 -2.0646  1.0042
    1OL    C112 4107   1.622   3.860   5.452 -0.3948  0.1375 -0.1675
    1OL    H12R 4108   1.585   3.948   5.398 -2.0113  0.0404  0.7298
    1OL    H12S 4109   1.585   3.767   5.408 -1.7705 -0.8958  2.9818
    1OL    C113 4110   1.777   3.859   5.460  0.0379  0.5855 -0.3242
    1OL    H13R 4111   1.811   3.862   5.356 -1.4105 -1.8607 -0.8977
    1OL    H13S 4112   1.800   3.765   5.510  1.2663  0.3584 -1.2635
    1OL    C114 4113   1.851   3.976   5.536  0.1286 -0.4489  0.4393
    1OL    H14R 4114   1.791   4.066   5.523  0.4142 -0.3627 -0.2766
    1OL    H14S 4115   1.947   3.999   5.489  0.9214 -0.2711  2.0867
    1OL    C115 4116   1.884   3.952   5.688  0.3431  0.1611 -0.2102
    1OL    H15R 4117   1.795   3.968   5.748  1.3155 -0.6712  1.4897
    1OL    H15S 4118   1.942   4.041   5.714  0.1450  0.3672 -0.4682
    1OL    C116 4119   1.960   3.828   5.730 -0.1635 -0.3533 -0.4100
    1OL    H16R 4120   2.063   3.847   5.698 -0.3977  1.2992 -0.2422
    1OL    H16S 4121   1.921   3.745   5.671 -1.3626  0.0695 -0.2231
    1OL    C117 4122   1.942   3.797   5.881  0.0256  0.4747 -0.3633
    1OL    H17R 4123   1.992   3.703   5.903 -0.3708  0.8020  2.0059
    1OL    H17S 4124   1.835   3.783   5.897  0.3605 -0.2062  1.4103
    1OL    C118 4125   1.988   3.921   5.963 -0.6163  0.0887 -0.5477
    1OL    H18R 4126   2.001   3.897   6.068 -0.0545  0.5114 -0.5139
    1OL    H18S 4127   1.918   4.005   5.957 -0.2513  0.3783 -0.7850
    1OL    H18T 4128   2.085   3.949   5.921  0.9076 -0.8794  2.2575
    1PA    C116 4129   3.457   0.471   6.149 -0.6837  0.7154  0.2569
    1PA    H16R 4130   3.510   0.544   6.087 -0.2360  2.0823  2.2061
    1PA    H16S 4131   3.463   0.502   6.253  0.0659  0.3868  0.3124
    1PA    H16T 4132   3.351   0.479   6.123 -1.1445 -1.7679  1.2380
    1PA    C115 4133   3.520   0.334   6.136 -0.3975  0.8123  0.1200
    1PA    H15R 4134   3.628   0.349   6.141 -0.3191  1.0973 -1.9932
    1PA    H15S 4135   3.493   0.281   6.228 -0.3366  0.8932  0.1861
    1PA    C114 4136   3.472   0.251   6.014 -0.0515 -0.6915 -0.0349
    1PA    H14R 4137   3.515   0.151   6.026  1.5320 -0.3319 -2.1992
    1PA    H14S 4138   3.364   0.239   6.017 -0.2478  0.7700 -0.6055
    1PA    C113 4139   3.526   0.308   5.883 -0.3496 -0.1267 -0.3121
    1PA    H13R 4140   3.477   0.256   5.800 -3.4629  0.1437  1.2728
    1PA    H13S 4141   3.503   0.414   5.872 -0.1520  0.0761  1.1214
    1PA    C112 4142   3.676   0.295   5.858  0.3714 -0.1234  0.0908
    1PA    H12R 4143   3.705   0.352   5.769 -0.3897  0.2966  0.1112
    1PA    H12S 4144   3.733   0.337   5.942  0.0554 -0.8494  0.6733
    1PA    C111 4145   3.723   0.143   5.851 -1.1331 -0.2378 -0.9171
    1PA    H11R 4146   3.680   0.087   5.934  0.5378  1.0938  0.8770
    1PA    H11S 4147   3.696   0.101   5.753  0.7906  0.9143 -1.9705
    1PA    C110 4148   3.874   0.131   5.870  1.0400 -0.1610  0.5794
    1PA    H10R 4149   3.915   0.031   5.851  1.1723  0.3578 -1.9527
    1PA    H10S 4150   3.933   0.191   5.801  1.4948  0.4624  1.4923
    1PA     C19 4151   3.915   0.164   6.018  0.0916 -0.0443  1.4302
    1PA     H9R 4152   3.939   0.271   6.026  0.1343  0.3425 -2.8979
    1PA     H9S 4153   3.829   0.140   6.081 -0.9426  2.6507  1.1382
    1PA     C18 4154   4.020   0.071   6.078 -0.3212  0.7933 -0.3684
    1PA     H8R 4155   4.044   0.095   6.182 -0.0569  0.6111 -0.3873
    1PA     H8S 4156   3.974  -0.028   6.075  0.2223  0.5565 -1.3050
    1PA     C17 4157   4.159   0.056   6.002  0.4302 -0.3800 -0.4206
    1PA     H7R 4158   4.151   0.035   5.895  0.9957  3.5849 -1.3087
    1PA     H7S 4159   4.206   0.154   5.995  1.5190 -1.0501 -3.0249
    1PA     C16 4160   4.263  -0.041   6.059 -0.8525 -0.1425  0.2723
    1PA     H6R 4161   4.281  -0.013   6.163  0.7770  0.4142 -0.1525
    1PA     H6S 4162   4.210  -0.137   6.063 -0.5107 -0.3152  0.7429
    1PA     C15 4163   4.385  -0.038   5.972 -0.0793  0.3157  0.5059
    1PA     H5R 4164   4.361  -0.091   5.879 -1.8319  0.2997  0.9553
    1PA     H5S 4165   4.405   0.067   5.950 -1.8246  0.6797  0.5689
    1PA     C14 4166   4.508  -0.097   6.031 -0.0082 -0.6062 -0.3258
    1PA     H4R 4167   4.492  -0.205   6.036 -2.8170 -0.1090  2.6024
    1PA     H4S 4168   4.594  -0.081   5.965  0.4089 -0.6527  0.1947
    1PA     C13 4169   4.549  -0.022   6.171  0.5263  0.1261  0.2403
    1PA     H3R 4170   4.541   0.086   6.162 -1.7096 -0.2584 -3.0901
    1PA     H3S 4171   4.479  -0.048   6.250 -1.1565  0.4829 -1.1096
    1PA     C12 4172   4.678  -0.080   6.219  0.2356 -0.1148 -0.5184
    1PA     H2R 4173   4.665  -0.188   6.229  0.3254 -0.0722  0.1148
    1PA     H2S 4174   4.754  -0.064   6.142  1.0637 -2.5585 -0.2712
    1PC     C11 4175   4.708  -0.025   6.352 -0.2412 -0.3692 -0.2452
    1PC     O12 4176   4.718   0.092   6.378  0.0828  0.0089 -0.2251
    1PC     O11 4177   4.726  -0.124   6.447 -0.0980 -0.4419 -0.2401
    1PC      C1 4178   4.781  -0.087   6.580  0.4013 -0.0844 -0.1935
    1PC      HR 4179   4.803  -0.177   6.636 -1.0362  0.6498  1.6140
    1PC      HS 4180   4.867  -0.020   6.570  0.3158  0.2270  1.1463
    1PC      C2 4181   4.668  -0.023   6.674 -0.3918  1.0914 -0.4891
    1PC      HX 4182   4.644   0.078   6.640  2.8697  2.0166 -0.2292
    1PC      C3 4183   4.726  -0.022   6.821  0.6243 -0.9416 -0.0394
    1PC      HA 4184   4.753  -0.125   6.848 -2.3989 -1.7603  0.0096
    1PC      HB 4185   4.818   0.035   6.837  0.0577 -0.0897  0.1845
    1PC     O31 4186   4.627   0.036   6.916  0.5988  0.5030 -0.8382
    1PC     P31 4187   4.578  -0.038   7.045  0.2555  0.0931 -0.4212
    1PC     O32 4188   4.490  -0.167   7.006 -0.3946 -0.1677 -0.3161
    1PC     C31 4189   4.545  -0.300   7.011  0.5625 -0.6985  0.6869
    1PC     H1A 4190   4.485  -0.368   6.951  3.6392 -1.6513 -1.4080
    1PC     H1B 4191   4.637  -0.295   6.953  0.7312  0.7940  1.0477
    1PC     C32 4192   4.561  -0.344   7.159  0.4138  0.8126 -0.4161
    1PC     H2A 4193   4.623  -0.433   7.166 -1.0564 -0.2512 -0.6814
    1PC     H2B 4194   4.609  -0.266   7.218  2.1335 -0.8541  0.4112
    1PC     N31 4195   4.439  -0.387   7.236  0.5216  0.2447  0.6962
    1PC     C33 4196   4.330  -0.431   7.144 -0.2724  0.6816 -0.4933
    1PC     H3A 4197   4.281  -0.352   7.086  2.4526  0.9908 -2.4744
    1PC     H3B 4198   4.375  -0.498   7.071  1.9121 -0.2358  1.6354
    1PC     H3C 4199   4.257  -0.494   7.195 -0.4158  0.7548 -0.6079
    1PC     C34 4200   4.464  -0.500   7.333  0.2457  0.1479 -0.1757
    1PC     H4A 4201   4.553  -0.483   7.392  0.6204 -2.7386  0.1472
    1PC     H4B 4202   4.377  -0.527   7.393 -0.4632 -0.5062 -1.4703
    1PC     H4C 4203   4.478  -0.596   7.283  0.2117 -0.7902  1.5911
    1PC     C35 4204   4.392  -0.260   7.314  0.4526 -0.6469 -0.2224
    1PC     H5A 4205   4.307  -0.303   7.367 -0.4242 -2.4133 -2.9822
    1PC     H5B 4206   4.357  -0.188   7.240 -1.2840 -1.2038  0.0385
    1PC     H5C 4207   4.461  -0.203   7.377 -0.4502  2.6522 -2.1040
    1PC     O33 4208   4.695  -0.080   7.122  0.0340 -0.2666 -0.4007
    1PC     O34 4209   4.485   0.054   7.112  0.3340  0.3872 -0.5266
    1PC     O21 4210   4.549  -0.119   6.672 -0.2012  0.4769  0.1466
    1PC     C21 4211   4.432  -0.074   6.702  0.5729 -0.2454 -0.6026
    1PC     O22 4212   4.400   0.035   6.743 -0.2710 -0.0156 -0.6314
    1OL     C12 4213   4.337  -0.181   6.668 -0.3005  0.5699 -0.1639
    1OL     H2R 4214   4.246  -0.163   6.725 -1.2400  2.5728 -2.2410
    1OL     H2S 4215   4.378  -0.277   6.700 -0.0086  1.1616  1.2853
    1OL     C13 4216   4.302  -0.172   6.522  0.1051  0.0774 -0.0392
    1OL     H3R 4217   4.391  -0.183   6.459 -0.3183  1.4980 -0.9092
    1OL     H3S 4218   4.267  -0.070   6.502 -2.3677 -0.5351  0.9657
    1OL     C14 4219   4.212  -0.283   6.472  0.1550  0.0811 -0.3855
    1OL     H4R 4220   4.135  -0.306   6.545  1.2974  1.2142  1.2103
    1OL     H4S 4221   4.269  -0.376   6.466  0.1850 -0.0477  1.5100
    1OL     C15 4222   4.142  -0.260   6.336  0.4614  0.1382  0.1174
    1OL     H5R 4223   4.225  -0.247   6.267  0.0384 -1.3838 -0.7041
    1OL     H5S 4224   4.076  -0.174   6.350  0.3372 -0.0940  1.0181
    1OL     C16 4225   4.057  -0.379   6.297  0.6886  0.5360 -0.5066
    1OL     H6R 4226   3.979  -0.396   6.371  0.8634  0.3944 -0.3533
    1OL     H6S 4227   4.118  -0.469   6.282  0.5768  0.9599 -3.9963
    1OL     C17 4228   3.973  -0.354   6.163 -0.3032 -0.7234 -0.0915
    1OL     H7R 4229   4.039  -0.376   6.078 -0.9895 -1.4760 -0.4393
    1OL     H7S 4230   3.936  -0.251   6.155  1.6886 -0.1479 -3.0935
    1OL     C18 4231   3.844  -0.442   6.150  0.4061 -0.4043  0.8891
    1OL     H8R 4232   3.788  -0.405   6.064  0.9968  0.2727  0.7872
    1OL     H8S 4233   3.781  -0.434   6.239 -3.0123  0.5486 -1.5157
    1OL     C19 4234   3.875  -0.595   6.136  0.5900  0.3157  0.0188
    1OL     H9R 4235   3.893  -0.654   6.226  0.6050 -1.0867 -0.8890
    1OL    C110 4236   3.868  -0.675   6.030  0.9665 -0.0599  0.7264
    1OL    H10R 4237   3.887  -0.780   6.048  0.8362  0.0213  1.3466
    1OL    C111 4238   3.835  -0.635   5.887  0.5990  0.5916 -0.5896
    1OL    H11R 4239   3.806  -0.530   5.887  0.1743  0.4809  0.6873
    1OL    H11S 4240   3.752  -0.700   5.859 -0.1693  0.6172  1.5610
    1OL    C112 4241   3.961  -0.655   5.794  0.1947 -0.2160  0.5596
    1OL    H12R 4242   3.929  -0.659   5.690  1.8069 -1.6577  0.0965
    1OL    H12S 4243   4.006  -0.752   5.817  0.9665 -0.5388 -2.1184
    1OL    C113 4244   4.067  -0.539   5.813  0.5446 -0.1709 -0.5454
    1OL    H13R 4245   4.162  -0.587   5.787  0.4459  0.1199 -1.4753
    1OL    H13S 4246   4.077  -0.512   5.918  0.6981  2.4662 -1.1962
    1OL    C114 4247   4.052  -0.406   5.735  0.7841  0.3494  0.4940
    1OL    H14R 4248   3.969  -0.349   5.777  0.3479 -1.1245  1.6660
    1OL    H14S 4249   4.027  -0.432   5.632 -0.8233  0.0960  0.9392
    1OL    C115 4250   4.169  -0.304   5.754  0.1706  0.2106 -0.1321
    1OL    H15R 4251   4.257  -0.348   5.800 -1.3492 -0.2268  2.4691
    1OL    H15S 4252   4.134  -0.224   5.820  0.2502  0.4033 -0.3248
    1OL    C116 4253   4.218  -0.242   5.619  0.4242 -0.5483 -0.1811
    1OL    H16R 4254   4.266  -0.318   5.557  0.3922 -0.7321  0.0185
    1OL    H16S 4255   4.288  -0.167   5.657 -2.5942  1.1825  2.1928
    1OL    C117 4256   4.135  -0.163   5.518  0.3929 -0.1154  0.0350
    1OL    H17R 4257   4.060  -0.220   5.462  0.8345  1.0394 -1.7777
    1OL    H17S 4258   4.195  -0.115   5.440  1.1020 -0.7982  0.1579
    1OL    C118 4259   4.051  -0.050   5.576 -1.0384  0.5781 -0.2595
    1OL    H18R 4260   3.993  -0.072   5.666  2.1732 -1.3972  1.4038
    1OL    H18S 4261   3.986  -0.003   5.503 -2.4336 -0.9498 -0.0383
    1OL    H18T 4262   4.120   0.025   5.613 -0.6907  0.4087 -0.5600
    1PA    C116 4263   3.266   0.200   5.052 -0.1254  0.6399 -0.8300
    1PA    H16R 4264   3.211   0.232   5.140  0.8124 -0.9589  0.3787
    1PA    H16S 4265   3.240   0.270   4.973  0.6238  1.1617 -0.6234
    1PA    H16T 4266   3.370   0.215   5.081 -0.3036  1.8543 -0.7861
    1PA    C115 4267   3.220   0.058   5.009  0.1335 -1.0554 -0.7174
    1PA    H15R 4268   3.122   0.069   4.963 -0.9870 -1.1073  1.6106
    1PA    H15S 4269   3.295   0.026   4.936  1.1836 -1.9728  0.7422
    1PA    C114 4270   3.203  -0.033   5.131 -0.0643  0.6678  0.2444
    1PA    H14R 4271   3.299  -0.035   5.183  1.1480 -0.6762 -1.9671
    1PA    H14S 4272   3.115   0.003   5.185 -0.6001  2.4407 -1.7258
    1PA    C113 4273   3.199  -0.178   5.095  0.4461 -0.2793  0.1115
    1PA    H13R 4274   3.111  -0.190   5.032 -0.3837  0.3799  1.1253
    1PA    H13S 4275   3.289  -0.207   5.041 -0.2851  0.1434 -1.3341
    1PA    C112 4276   3.189  -0.273   5.217 -0.1728  0.1413  0.4272
    1PA    H12R 4277   3.116  -0.244   5.292 -0.7232 -2.4683  0.9499
    1PA    H12S 4278   3.158  -0.374   5.188 -1.3125  0.4903  0.4064
    1PA    C111 4279   3.328  -0.287   5.277 -0.5654  0.6672 -0.1984
    1PA    H11R 4280   3.395  -0.318   5.196  1.0068  1.9237  0.5684
    1PA    H11S 4281   3.356  -0.186   5.310 -1.0748  0.0628  2.2213
    1PA    C110 4282   3.336  -0.402   5.381  0.0389  0.0872 -0.1892
    1PA    H10R 4283   3.256  -0.386   5.454  0.2580  0.0440  0.0651
    1PA    H10S 4284   3.318  -0.496   5.328  0.5882 -0.4210  0.4957
    1PA     C19 4285   3.461  -0.416   5.463 -1.1187  0.8276 -0.3817
    1PA     H9R 4286   3.455  -0.515   5.509 -0.8058 -0.5725 -3.2184
    1PA     H9S 4287   3.553  -0.423   5.404 -0.4310 -0.0277  0.7683
    1PA     C18 4288   3.484  -0.314   5.578 -0.0463  0.1110 -0.4142
    1PA     H8R 4289   3.499  -0.213   5.540 -2.3846  0.8882  0.6145
    1PA     H8S 4290   3.402  -0.298   5.648 -1.0503 -1.3667 -1.2160
    1PA     C17 4291   3.613  -0.346   5.660  0.5993  0.0513 -0.7825
    1PA     H7R 4292   3.609  -0.448   5.699  0.1872 -0.2709 -1.6574
    1PA     H7S 4293   3.699  -0.346   5.593  0.1070  2.1813 -1.4626
    1PA     C16 4294   3.647  -0.250   5.772  0.1115 -0.0987 -0.4185
    1PA     H6R 4295   3.753  -0.265   5.792  0.1566 -0.9982 -1.2659
    1PA     H6S 4296   3.631  -0.147   5.738 -0.2920  0.0854  0.3347
    1PA     C15 4297   3.566  -0.277   5.904 -0.4961  0.4869  0.0943
    1PA     H5R 4298   3.459  -0.275   5.884 -0.2203 -1.7530 -1.6921
    1PA     H5S 4299   3.606  -0.374   5.932  0.9246  0.6235 -1.4312
    1PA     C14 4300   3.597  -0.173   6.012  0.7285  0.3365  0.0199
    1PA     H4R 4301   3.702  -0.143   6.002  0.9635 -0.4078  0.2132
    1PA     H4S 4302   3.524  -0.095   5.990  1.1004  0.9937  1.0738
    1PA     C13 4303   3.565  -0.220   6.153  0.0205  0.4435 -0.3342
    1PA     H3R 4304   3.459  -0.212   6.175  0.2401  0.4205  0.7775
    1PA     H3S 4305   3.596  -0.325   6.159  0.0289  0.4899  0.5514
    1PA     C12 4306   3.640  -0.128   6.255  0.1678  0.0549  0.4168
    1PA     H2R 4307   3.744  -0.115   6.224 -0.2676 -0.0107 -1.1132
    1PA     H2S 4308   3.596  -0.028   6.250  2.4863  1.1398  1.3598
    1PC     C11 4309   3.639  -0.176   6.397  0.2176 -0.6135 -0.0836
    1PC     O12 4310   3.543  -0.235   6.443  0.0718  0.1420 -0.3122
    1PC     O11 4311   3.761  -0.164   6.456  0.3404  0.1084 -0.7729
    1PC      C1 4312   3.785  -0.230   6.582 -0.7180  0.7220  0.6874
    1PC      HR 4313   3.737  -0.328   6.596 -1.4041  0.9154 -0.2986
    1PC      HS 4314   3.894  -0.239   6.587 -0.3599  2.6318 -2.3785
    1PC      C2 4315   3.736  -0.132   6.698 -0.2782  0.3774 -0.5479
    1PC      HX 4316   3.787  -0.036   6.694  1.3761 -0.4889 -0.6361
    1PC      C3 4317   3.769  -0.194   6.833  0.6012 -0.2814 -0.7879
    1PC      HA 4318   3.702  -0.279   6.851 -0.0323  0.0947 -1.3687
    1PC      HB 4319   3.874  -0.226   6.829  1.7759  3.0623  1.2411
    1PC     O31 4320   3.754  -0.096   6.938 -0.1381 -0.0572 -0.5559
    1PC     P31 4321   3.791  -0.134   7.093  0.4043  0.0407 -0.7436
    1PC     O32 4322   3.662  -0.204   7.160 -0.6024 -0.6833  0.2701
    1PC     C31 4323   3.654  -0.347   7.170  0.5577 -0.3727 -0.1487
    1PC     H1A 4324   3.548  -0.372   7.182  0.1633  1.4529  0.2768
    1PC     H1B 4325   3.698  -0.403   7.087 -0.6111 -0.3226 -0.8206
    1PC     C32 4326   3.724  -0.386   7.301 -0.3369 -0.6751 -0.1007
    1PC     H2A 4327   3.707  -0.493   7.317  0.5090 -1.4282 -3.7382
    1PC     H2B 4328   3.829  -0.358   7.301 -0.2915 -0.8418 -0.0771
    1PC     N31 4329   3.672  -0.330   7.435 -0.7174  0.2270 -0.0414
    1PC     C33 4330   3.724  -0.192   7.438 -0.0039  0.8312 -0.5125
    1PC     H3A 4331   3.692  -0.139   7.348 -1.6423  0.8731  0.0811
    1PC     H3B 4332   3.691  -0.142   7.530  0.0144  0.9542 -0.5726
    1PC     H3C 4333   3.832  -0.186   7.453 -0.2101  0.7919  1.1709
    1PC     C34 4334   3.526  -0.342   7.445  0.6847  0.0595 -0.4028
    1PC     H4A 4335   3.480  -0.441   7.450 -1.4611  0.9926 -1.2124
    1PC     H4B 4336   3.497  -0.291   7.537  1.6812  0.9823 -0.5848
    1PC     H4C 4337   3.475  -0.291   7.364 -0.2817 -1.0544 -0.5100
    1PC     C35 4338   3.730  -0.409   7.552  0.8078 -0.1573  0.4098
    1PC     H5A 4339   3.698  -0.512   7.531  0.1540  0.0053  0.6065
    1PC     H5B 4340   3.683  -0.380   7.646 -0.3841 -2.2560  0.5027
    1PC     H5C 4341   3.839  -0.401   7.551  0.8723 -0.9535  0.6367
    1PC     O33 4342   3.903  -0.225   7.098  0.2065  0.3012 -0.1655
    1PC     O34 4343   3.810  -0.001   7.151  0.0192  0.3155  0.0095
    1PC     O21 4344   3.595  -0.117   6.700 -0.1701  0.5334 -0.5282
    1PC     C21 4345   3.551   0.003   6.656  0.4314 -1.0744 -0.0630
    1PC     O22 4346   3.621   0.089   6.610  0.4126 -0.0122  0.4980
    1OL     C12 4347   3.406  -0.001   6.652 -0.4526 -0.6140 -0.2453
    1OL     H2R 4348   3.370   0.011   6.755  1.5740  2.7912  0.1437
    1OL     H2S 4349   3.384  -0.098   6.607  3.2425 -0.5327 -2.3974
    1OL     C13 4350   3.334   0.116   6.573 -0.7163  0.4113 -0.5754
    1OL     H3R 4351   3.395   0.206   6.579 -0.1764  0.1755 -2.3465
    1OL     H3S 4352   3.237   0.126   6.623 -0.0980 -2.2744  1.3019
    1OL     C14 4353   3.321   0.098   6.418 -0.2390 -0.5986 -0.4539
    1OL     H4R 4354   3.420   0.098   6.371  0.4495 -2.3498  0.9161
    1OL     H4S 4355   3.264   0.183   6.381  0.5406  0.5115  0.8435
    1OL     C15 4356   3.243  -0.025   6.366 -0.5899 -0.9519  0.3190
    1OL     H5R 4357   3.140  -0.020   6.404 -0.7439  0.3397 -0.2333
    1OL     H5S 4358   3.279  -0.122   6.401 -1.2229 -1.1149  0.5387
    1OL     C16 4359   3.225  -0.008   6.216 -0.6157 -0.7391  0.2204
    1OL     H6R 4360   3.325  -0.005   6.172 -0.2896 -0.1918  0.9765
    1OL     H6S 4361   3.179   0.088   6.193 -3.8885 -2.7190 -1.8829
    1OL     C17 4362   3.147  -0.113   6.140  0.0446  0.2251 -0.0064
    1OL     H7R 4363   3.057  -0.135   6.197  0.1482 -1.8258 -0.5849
    1OL     H7S 4364   3.201  -0.208   6.136 -0.2023  0.0415  0.8276
    1OL     C18 4365   3.100  -0.083   5.995 -0.0887 -0.4262  0.6814
    1OL     H8R 4366   3.046   0.011   6.004  0.0715 -0.5334  2.9137
    1OL     H8S 4367   3.023  -0.154   5.964 -0.4752  0.0463  0.5529
    1OL     C19 4368   3.202  -0.064   5.883  0.5360  0.4345  0.2693
    1OL     H9R 4369   3.281  -0.137   5.895 -1.2137 -1.2002  2.0776
    1OL    C110 4370   3.211   0.023   5.785 -0.3233  0.4108  0.0892
    1OL    H10R 4371   3.297   0.008   5.720 -0.4860  2.4770 -0.6321
    1OL    C111 4372   3.121   0.141   5.756 -0.1900 -0.6479 -0.5303
    1OL    H11R 4373   3.133   0.226   5.823  0.2459 -0.1033 -1.2889
    1OL    H11S 4374   3.016   0.112   5.766 -0.4322  1.4174  4.2324
    1OL    C112 4375   3.152   0.188   5.611  0.0685 -1.0543  0.6995
    1OL    H12R 4376   3.154   0.109   5.536 -0.6786 -2.2046  1.8635
    1OL    H12S 4377   3.252   0.233   5.617 -0.0182 -0.8642  0.7272
    1OL    C113 4378   3.063   0.311   5.577 -0.4952 -0.1319 -0.2865
    1OL    H13R 4379   3.108   0.357   5.488  0.6145 -0.0248  0.3305
    1OL    H13S 4380   3.067   0.388   5.654  1.4822 -0.2829 -0.2243
    1OL    C114 4381   2.916   0.264   5.554  0.2898  0.2857  0.0331
    1OL    H14R 4382   2.881   0.214   5.645 -2.6764 -0.8871 -1.7181
    1OL    H14S 4383   2.917   0.188   5.477  1.6642 -0.3050  0.6171
    1OL    C115 4384   2.815   0.372   5.522  0.5219 -0.5082 -0.1788
    1OL    H15R 4385   2.793   0.428   5.613  0.9698  2.1959 -1.6783
    1OL    H15S 4386   2.712   0.340   5.504  0.5245 -0.4079 -0.3700
    1OL    C116 4387   2.853   0.470   5.413  0.1700  0.1318  0.3042
    1OL    H16R 4388   2.915   0.423   5.336  0.9697  2.0683 -0.2869
    1OL    H16S 4389   2.914   0.541   5.469  2.0991 -0.8039 -0.5463
    1OL    C117 4390   2.738   0.562   5.355  0.5546  0.1683  0.6881
    1OL    H17R 4391   2.688   0.620   5.432  0.8857  0.3315  0.7821
    1OL    H17S 4392   2.660   0.496   5.318  1.4906 -0.0860 -0.8825
    1OL    C118 4393   2.769   0.649   5.233  0.4703  0.4240  0.3719
    1OL    H18R 4394   2.868   0.695   5.240  0.3626  0.7865 -0.3472
    1OL    H18S 4395   2.696   0.730   5.233 -0.6548 -0.5723  2.6827
    1OL    H18T 4396   2.763   0.595   5.138 -0.6397  1.1629  0.0075
    1PA    C116 4397   1.493   4.781   5.482  1.1682  0.1885 -0.8537
    1PA    H16R 4398   1.483   4.737   5.383  1.2080  1.5462 -1.4699
    1PA    H16S 4399   1.398   4.831   5.504  1.2413  0.3541 -0.9189
    1PA    H16T 4400   1.516   4.707   5.560  1.3548 -0.8041 -1.8403
    1PA    C115 4401   1.608   4.882   5.479 -0.0054  0.9638 -0.1448
    1PA    H15R 4402   1.704   4.837   5.456  1.3192  3.3670  0.4898
    1PA    H15S 4403   1.581   4.948   5.396 -0.9718 -0.2313 -0.8047
    1PA    C114 4404   1.634   4.964   5.608  0.2219  0.2287 -0.4256
    1PA    H14R 4405   1.721   5.028   5.591 -0.5215  1.2868 -0.2891
    1PA    H14S 4406   1.550   5.032   5.625 -0.0255 -0.6448  2.1801
    1PA    C113 4407   1.671   4.880   5.733  0.1861  0.6703 -0.0734
    1PA    H13R 4408   1.588   4.810   5.742  1.4876 -0.5954  2.5930
    1PA    H13S 4409   1.761   4.822   5.711 -0.5180 -0.2703 -0.4860
    1PA    C112 4410   1.693   4.979   5.849 -0.2639  0.4706 -0.2721
    1PA    H12R 4411   1.770   5.052   5.823 -0.4260  0.4427 -0.8332
    1PA    H12S 4412   1.601   5.038   5.861  0.6540  1.9119 -0.2440
    1PA    C111 4413   1.721   4.897   5.982  0.5880 -0.4867  0.3347
    1PA    H11R 4414   1.712   4.964   6.068  0.4200 -0.8884  0.6329
    1PA    H11S 4415   1.649   4.814   5.984 -0.1009  0.0823 -0.4576
    1PA    C110 4416   1.866   4.840   5.983  0.7402 -1.0143 -0.3665
    1PA    H10R 4417   1.876   4.764   5.906  1.7487 -0.2997 -0.9491
    1PA    H10S 4418   1.936   4.919   5.955  1.2554 -1.4000 -0.1721
    1PA     C19 4419   1.905   4.778   6.118 -0.3180 -0.3010 -0.3397
    1PA     H9R 4420   2.010   4.753   6.102  0.1680  1.2870  0.1983
    1PA     H9S 4421   1.910   4.852   6.198  0.7673 -1.4174  0.6570
    1PA     C18 4422   1.832   4.645   6.152  0.3337  0.8233 -0.8875
    1PA     H8R 4423   1.724   4.657   6.150  0.5586  3.3315  0.5506
    1PA     H8S 4424   1.862   4.577   6.072 -0.2831  1.0341 -1.3019
    1PA     C17 4425   1.877   4.604   6.293  0.8200  0.6145 -0.1545
    1PA     H7R 4426   1.985   4.620   6.306  1.1635 -1.6379 -0.1041
    1PA     H7S 4427   1.829   4.666   6.370 -0.2374 -1.0120  0.5155
    1PA     C16 4428   1.838   4.463   6.335  0.0363  0.2835  0.0525
    1PA     H6R 4429   1.881   4.452   6.435  0.4767 -0.9053 -0.2534
    1PA     H6S 4430   1.730   4.461   6.344  0.1794 -1.7639  1.6206
    1PA     C15 4431   1.893   4.339   6.261 -0.0477  0.3827 -0.0077
    1PA     H5R 4432   1.864   4.349   6.156 -2.2887  0.1289  0.5579
    1PA     H5S 4433   2.002   4.340   6.265 -0.1206  1.0552  3.1731
    1PA     C14 4434   1.837   4.204   6.311 -0.0743 -0.3788  0.0060
    1PA     H4R 4435   1.728   4.215   6.318 -0.2154 -0.5091 -1.7976
    1PA     H4S 4436   1.855   4.125   6.238  2.7366 -1.8078  2.1371
    1PA     C13 4437   1.889   4.152   6.452 -0.5116 -0.2198 -0.2868
    1PA     H3R 4438   1.994   4.125   6.440 -0.8465 -2.2157  1.0247
    1PA     H3S 4439   1.887   4.225   6.533 -1.4280 -1.6716  1.0220
    1PA     C12 4440   1.818   4.030   6.509 -0.5625  0.4427 -0.6450
    1PA     H2R 4441   1.714   4.038   6.539 -0.0789 -1.2796  1.5707
    1PA     H2S 4442   1.805   3.961   6.425  0.0897  2.4379 -2.4540
    1PC     C11 4443   1.908   3.964   6.608  0.7535 -0.1849  0.2165
    1PC     O12 4444   1.981   3.872   6.572 -0.4722 -0.5532 -0.1204
    1PC     O11 4445   1.902   4.019   6.731 -0.2615 -0.1493  1.0468
    1PC      C1 4446   2.013   3.982   6.820 -0.3966  0.1135  0.8185
    1PC      HR 4447   1.990   3.893   6.878 -0.8620  0.1622  0.7117
    1PC      HS 4448   2.104   3.952   6.768  0.0050  0.8446  1.0968
    1PC      C2 4449   2.065   4.110   6.900  0.1604 -0.7570 -0.3696
    1PC      HX 4450   2.147   4.093   6.969 -0.9685  0.4783  1.3161
    1PC      C3 4451   1.954   4.165   6.986  1.0419 -0.1726 -0.0982
    1PC      HA 4452   1.891   4.228   6.922 -1.0868 -1.1189  1.0178
    1PC      HB 4453   1.893   4.083   7.023 -1.3924  1.8161  0.4399
    1PC     O31 4454   2.012   4.246   7.095  0.1464 -0.1041 -0.3940
    1PC     P31 4455   1.947   4.379   7.148  0.2253  0.0826 -0.3930
    1PC     O32 4456   2.011   4.479   7.053  0.4109  0.3914  0.3250
    1PC     C31 4457   1.969   4.495   6.925  0.1414  0.5198  0.8672
    1PC     H1A 4458   2.020   4.407   6.885 -3.3858 -1.0634 -0.3229
    1PC     H1B 4459   1.861   4.487   6.910 -0.0298  2.3293  0.9877
    1PC     C32 4460   2.037   4.623   6.857 -0.8382 -0.6486  0.5908
    1PC     H2A 4461   2.139   4.630   6.895 -2.0207  1.3559  3.6372
    1PC     H2B 4462   2.032   4.616   6.749  0.7906  0.0331  0.4614
    1PC     N31 4463   1.985   4.762   6.904  0.3861  0.1044 -0.1883
    1PC     C33 4464   1.954   4.764   7.052 -0.1016 -0.1096  0.4684
    1PC     H3A 4465   1.873   4.694   7.073 -0.5999  0.4003  0.2581
    1PC     H3B 4466   2.038   4.735   7.115  1.3132  0.1305 -1.2700
    1PC     H3C 4467   1.925   4.865   7.081  2.1044  0.5347  0.5512
    1PC     C34 4468   2.083   4.866   6.871  0.5905 -0.1571 -0.3711
    1PC     H4A 4469   2.157   4.861   6.951  0.5406  0.5481 -0.2731
    1PC     H4B 4470   2.120   4.837   6.773  0.9621 -1.4720  0.1459
    1PC     H4C 4471   2.042   4.967   6.874  2.6657  0.7685 -2.1216
    1PC     C35 4472   1.859   4.796   6.831  0.6294 -0.1493 -0.2760
    1PC     H5A 4473   1.778   4.727   6.855  0.2869  0.8327  1.5011
    1PC     H5B 4474   1.885   4.790   6.725 -1.4639  0.1224 -0.8390
    1PC     H5C 4475   1.822   4.894   6.860 -1.5038 -0.7684 -0.7944
    1PC     O33 4476   1.802   4.379   7.130 -0.3687  0.0597 -0.0424
    1PC     O34 4477   1.996   4.403   7.284 -0.2017  0.6717  0.3672
    1PC     O21 4478   2.107   4.211   6.806 -0.4017  0.9523  0.0074
    1PC     C21 4479   2.238   4.217   6.768  0.5410 -0.4070  0.4398
    1PC     O22 4480   2.319   4.130   6.803  0.2682  0.2684 -0.2558
    1OL     C12 4481   2.270   4.332   6.669 -0.8906  0.3901 -0.2232
    1OL     H2R 4482   2.371   4.366   6.693 -0.6320 -1.7830  1.9513
    1OL     H2S 4483   2.206   4.418   6.689  0.6640  1.3397  0.7183
    1OL     C13 4484   2.257   4.286   6.526 -0.5864 -0.7175  1.1984
    1OL     H3R 4485   2.151   4.274   6.504 -0.2353 -0.2912 -0.8070
    1OL     H3S 4486   2.296   4.185   6.512 -0.9152 -0.5617 -0.9533
    1OL     C14 4487   2.314   4.385   6.418  0.9409  0.6368  0.0291
    1OL     H4R 4488   2.303   4.340   6.319  1.3003  0.3929  0.1010
    1OL     H4S 4489   2.422   4.386   6.432  1.2592 -0.0437 -2.2833
    1OL     C15 4490   2.255   4.522   6.428 -0.4954  0.4356 -1.1959
    1OL     H5R 4491   2.297   4.563   6.519  0.1280 -1.5883 -0.5657
    1OL     H5S 4492   2.147   4.531   6.445 -0.0821  2.3789  0.6755
    1OL     C16 4493   2.290   4.608   6.309 -0.1835 -0.2725  0.1754
    1OL     H6R 4494   2.227   4.576   6.226 -0.7781  2.3028 -0.3897
    1OL     H6S 4495   2.389   4.578   6.273 -1.3732 -1.4939 -2.1843
    1OL     C17 4496   2.281   4.760   6.330  0.0460  0.8606  0.3315
    1OL     H7R 4497   2.333   4.796   6.418  1.2401 -0.0222 -0.0047
    1OL     H7S 4498   2.176   4.790   6.338 -1.3172 -3.5080  0.3850
    1OL     C18 4499   2.340   4.846   6.215 -0.6524  0.3585  0.1093
    1OL     H8R 4500   2.287   4.806   6.129  0.9851 -0.2051 -0.6640
    1OL     H8S 4501   2.443   4.812   6.204 -0.7123 -0.3538  1.5694
    1OL     C19 4502   2.327   4.994   6.234  0.1707  0.8411 -0.4461
    1OL     H9R 4503   2.359   5.018   6.335  1.3889  0.5631 -0.7616
    1OL    C110 4504   2.271   5.081   6.148  0.1720  0.2854 -0.0953
    1OL    H10R 4505   2.276   5.184   6.180 -3.3842  0.9043 -1.3696
    1OL    C111 4506   2.222   5.043   6.011  0.2451 -0.1584 -0.5231
    1OL    H11R 4507   2.117   5.012   6.018 -0.1075  1.3884  1.6323
    1OL    H11S 4508   2.271   4.953   5.972 -1.0964 -0.5543 -1.3754
    1OL    C112 4509   2.228   5.159   5.912  0.7857  0.5163 -0.1029
    1OL    H12R 4510   2.327   5.201   5.893  0.9291  0.0667 -0.3659
    1OL    H12S 4511   2.177   5.244   5.957 -0.6662  1.0529 -2.6455
    1OL    C113 4512   2.167   5.135   5.771 -0.1348  0.5922  0.5038
    1OL    H13R 4513   2.179   5.221   5.705 -1.2818  2.1580  2.2858
    1OL    H13S 4514   2.059   5.130   5.786 -0.2035 -0.1304 -0.2102
    1OL    C114 4515   2.239   5.016   5.699  0.0890 -0.5126  0.2425
    1OL    H14R 4516   2.232   4.924   5.756 -3.4217 -1.0756 -0.9822
    1OL    H14S 4517   2.343   5.048   5.695 -0.5762  1.8199  0.8289
    1OL    C115 4518   2.197   5.002   5.549  0.5179  0.2230  0.0749
    1OL    H15R 4519   2.269   4.937   5.500 -1.9546 -2.9901  0.5659
    1OL    H15S 4520   2.202   5.096   5.493  0.1017 -0.1517 -0.5934
    1OL    C116 4521   2.052   4.944   5.558  0.3211  0.1346  0.0144
    1OL    H16R 4522   2.023   4.961   5.454 -1.0897  0.3161  0.4316
    1OL    H16S 4523   1.987   4.995   5.629 -1.6108 -1.0432 -0.8747
    1OL    C117 4524   2.034   4.792   5.574 -0.3145  0.3015 -0.5444
    1OL    H17R 4525   1.935   4.757   5.543 -0.3287  0.6060 -0.8467
    1OL    H17S 4526   2.061   4.768   5.677  1.2998  1.6019 -0.6381
    1OL    C118 4527   2.131   4.707   5.494  0.3875 -0.3956 -0.0894
    1OL    H18R 4528   2.235   4.736   5.509  0.3542 -0.7399  0.8398
    1OL    H18S 4529   2.103   4.723   5.390 -1.9068  0.9260  0.6941
    1OL    H18T 4530   2.109   4.606   5.530  0.5216  0.0534  1.2840
    1PA    C116 4531   4.811   4.574   5.325 -0.4929  0.0149 -0.1598
    1PA    H16R 4532   4.847   4.619   5.417 -0.9175  0.7131 -0.3310
    1PA    H16S 4533   4.776   4.473   5.350  0.9825 -0.4489  0.0320
    1PA    H16T 4534   4.729   4.624   5.274 -1.1378 -1.2494 -0.3983
    1PA    C115 4535   4.925   4.581   5.223 -0.2643  1.0683  0.4050
    1PA    H15R 4536   4.893   4.525   5.135  3.4198 -0.5447  0.0013
    1PA    H15S 4537   4.939   4.684   5.191 -0.6482  0.6940 -0.9937
    1PA    C114 4538   5.060   4.522   5.268 -0.0208 -0.5294  0.6549
    1PA    H14R 4539   5.106   4.504   5.171 -3.3360  0.3097 -1.1395
    1PA    H14S 4540   5.114   4.594   5.330  1.7166 -1.4653  0.2598
    1PA    C113 4541   5.053   4.385   5.339  0.9061  0.0965 -0.1636
    1PA    H13R 4542   4.984   4.364   5.420 -1.0288 -1.7532 -2.2212
    1PA    H13S 4543   5.019   4.313   5.264 -0.1185  1.9880 -1.5543
    1PA    C112 4544   5.203   4.337   5.378  0.3124  0.1094  0.2688
    1PA    H12R 4545   5.276   4.367   5.302  0.2769  0.4085  0.3532
    1PA    H12S 4546   5.221   4.388   5.474 -1.9764 -1.4843  1.5930
    1PA    C111 4547   5.200   4.181   5.404 -0.4425 -0.0200 -0.2348
    1PA    H11R 4548   5.120   4.157   5.474  0.3116  0.3617  0.7637
    1PA    H11S 4549   5.187   4.121   5.313 -0.0029 -1.5718  0.7029
    1PA    C110 4550   5.327   4.127   5.468 -0.0595 -0.2195  0.6473
    1PA    H10R 4551   5.404   4.178   5.410  0.7665 -1.8993  0.2314
    1PA    H10S 4552   5.337   4.174   5.566  0.4274 -0.2130  0.5985
    1PA     C19 4553   5.336   3.969   5.472 -0.2215 -0.2118 -0.2010
    1PA     H9R 4554   5.258   3.922   5.532  0.1951 -1.4503 -0.6163
    1PA     H9S 4555   5.335   3.940   5.367 -0.3790 -1.7338  0.2162
    1PA     C18 4556   5.471   3.911   5.519 -0.4946 -0.4302  0.2603
    1PA     H8R 4557   5.456   3.803   5.517 -2.9260 -0.1274  0.0182
    1PA     H8S 4558   5.560   3.939   5.463 -1.3699 -0.4294 -1.1564
    1PA     C17 4559   5.494   3.948   5.666 -0.2758  0.3698 -0.6268
    1PA     H7R 4560   5.538   4.047   5.666 -0.3160  0.4263  2.2880
    1PA     H7S 4561   5.395   3.944   5.712  0.2784 -2.2225  0.4360
    1PA     C16 4562   5.590   3.840   5.727 -0.8093  0.3960  0.3055
    1PA     H6R 4563   5.534   3.750   5.753 -0.1339 -0.0840  0.0887
    1PA     H6S 4564   5.658   3.805   5.649  0.9276  2.0907  1.0189
    1PA     C15 4565   5.665   3.889   5.846 -0.0447  0.5915  0.1236
    1PA     H5R 4566   5.753   3.827   5.867  0.7656  1.4420 -0.7468
    1PA     H5S 4567   5.711   3.986   5.826 -3.5968  1.9611 -1.7754
    1PA     C14 4568   5.565   3.896   5.960 -0.4431 -0.0766  0.7083
    1PA     H4R 4569   5.493   3.977   5.946  0.0265  0.3345  0.6834
    1PA     H4S 4570   5.512   3.800   5.963 -1.0054  0.1545 -1.0131
    1PA     C13 4571   5.629   3.930   6.098 -0.4054 -0.4290  0.7749
    1PA     H3R 4572   5.708   3.858   6.121 -0.1310 -0.2885  0.2847
    1PA     H3S 4573   5.681   4.024   6.079  0.0541 -1.3721 -3.0998
    1PA     C12 4574   5.521   3.936   6.205  0.2523  0.0234 -1.0561
    1PA     H2R 4575   5.440   3.998   6.166 -1.2508  0.6827  2.8797
    1PA     H2S 4576   5.480   3.837   6.224 -0.7658  0.6551  0.1181
    1PC     C11 4577   5.568   4.000   6.334  0.1114 -0.1528  0.8767
    1PC     O12 4578   5.597   4.118   6.343  0.4261 -0.1737 -0.9838
    1PC     O11 4579   5.560   3.913   6.436 -0.2407 -0.3281 -0.5487
    1PC      C1 4580   5.596   3.965   6.570 -0.1047  0.1914  0.0975
    1PC      HR 4581   5.598   3.880   6.639 -2.9643  2.0754  2.6305
    1PC      HS 4582   5.700   3.997   6.571  0.1655 -0.4955 -2.0842
    1PC      C2 4583   5.487   4.058   6.628  0.6768 -0.8113  0.2556
    1PC      HX 4584   5.508   4.157   6.588  1.1640 -0.8034  0.5331
    1PC      C3 4585   5.484   4.075   6.779  0.0584  0.5221 -0.3508
    1PC      HA 4586   5.579   4.112   6.818  0.3851 -2.0106  1.4144
    1PC      HB 4587   5.402   4.132   6.823 -1.6694 -1.3160 -1.1152
    1PC     O31 4588   5.496   3.939   6.827  0.5975 -0.1924  0.1645
    1PC     P31 4589   5.489   3.910   6.980  0.0297 -0.3767 -0.2940
    1PC     O32 4590   5.335   3.880   7.012 -0.0310  1.1327  0.7725
    1PC     C31 4591   5.271   3.781   6.930  0.0742 -0.6656 -0.1813
    1PC     H1A 4592   5.266   3.816   6.826  1.9045 -3.1245 -1.1414
    1PC     H1B 4593   5.329   3.689   6.935  0.1716 -0.5869  0.1212
    1PC     C32 4594   5.133   3.748   6.989  0.2089 -0.1239  0.5269
    1PC     H2A 4595   5.061   3.831   6.988 -0.5153 -0.6970  2.8913
    1PC     H2B 4596   5.098   3.669   6.923 -1.0123  0.7877  0.0583
    1PC     N31 4597   5.128   3.688   7.130 -0.4516  0.5373  0.7902
    1PC     C33 4598   4.992   3.644   7.154  0.1224  0.5263  0.0026
    1PC     H3A 4599   4.987   3.590   7.248 -1.8266  1.1889  0.3092
    1PC     H3B 4600   4.922   3.727   7.143 -0.9558  0.0068  2.5594
    1PC     H3C 4601   4.965   3.574   7.076  0.2419  2.5036 -1.8752
    1PC     C34 4602   5.216   3.569   7.132 -0.4089 -0.6937  0.3860
    1PC     H4A 4603   5.226   3.546   7.238 -3.0232 -0.4648  0.7139
    1PC     H4B 4604   5.163   3.488   7.082 -2.6322 -0.1913  1.8806
    1PC     H4C 4605   5.311   3.589   7.082 -0.7077 -0.0833  0.0532
    1PC     C35 4606   5.168   3.782   7.224 -0.0849  0.4949 -0.1032
    1PC     H5A 4607   5.143   3.750   7.326 -1.4337 -2.2279 -1.2287
    1PC     H5B 4608   5.132   3.881   7.198  0.3096 -0.0583 -2.9381
    1PC     H5C 4609   5.277   3.780   7.214 -0.1882 -0.9501 -1.2131
    1PC     O33 4610   5.564   3.790   7.016 -0.0079 -0.2708 -0.1677
    1PC     O34 4611   5.522   4.035   7.051  0.0912 -0.2552  0.1047
    1PC     O21 4612   5.347   4.021   6.587  0.0202 -0.8528 -0.5418
    1PC     C21 4613   5.267   4.124   6.570  0.1035  0.5676 -0.1082
    1PC     O22 4614   5.283   4.244   6.596 -0.0775 -0.0253 -0.5000
    1OL     C12 4615   5.136   4.082   6.509  0.3101 -0.4238 -0.7207
    1OL     H2R 4616   5.051   4.141   6.546 -0.2472 -1.6301 -0.0439
    1OL     H2S 4617   5.127   3.981   6.548  0.3955 -0.3188 -0.4219
    1OL     C13 4618   5.160   4.093   6.356 -0.2237  0.5867  0.8336
    1OL     H3R 4619   5.247   4.035   6.327  0.0788  0.6786  1.5471
    1OL     H3S 4620   5.200   4.193   6.341  2.2249 -0.5544 -0.5029
    1OL     C14 4621   5.046   4.073   6.251  0.1534  0.0381 -0.1978
    1OL     H4R 4622   4.965   4.137   6.286 -1.6716 -1.6709 -1.1384
    1OL     H4S 4623   5.015   3.968   6.259  0.7131 -0.1639 -0.5807
    1OL     C15 4624   5.088   4.103   6.105 -0.0910 -0.4151 -0.3653
    1OL     H5R 4625   5.165   4.034   6.068 -0.1250  0.1019 -1.4307
    1OL     H5S 4626   5.134   4.202   6.097 -0.6197 -0.0614  1.0167
    1OL     C16 4627   4.964   4.092   6.013  0.1909  0.6284  0.4107
    1OL     H6R 4628   4.890   4.168   6.037 -2.0855 -1.6155  0.6645
    1OL     H6S 4629   4.903   4.004   6.035 -0.8160  1.5406  1.2910
    1OL     C17 4630   5.009   4.101   5.866 -0.1875 -0.1583  0.4341
    1OL     H7R 4631   5.079   4.021   5.836 -0.9024  0.3944 -2.9889
    1OL     H7S 4632   5.053   4.199   5.846 -0.4716 -0.2101 -0.4606
    1OL     C18 4633   4.884   4.096   5.774 -0.1812 -0.5154  0.7816
    1OL     H8R 4634   4.819   4.184   5.780  1.6639  1.0141 -0.8399
    1OL     H8S 4635   4.839   4.006   5.817  0.3752 -1.4772 -0.6278
    1OL     C19 4636   4.919   4.055   5.630  0.6841  0.0829  0.2071
    1OL     H9R 4637   4.992   3.975   5.626  1.6881  0.7544  3.3871
    1OL    C110 4638   4.868   4.100   5.516 -0.6899 -0.1805 -0.3480
    1OL    H10R 4639   4.897   4.068   5.417 -1.5811  0.7734 -0.9320
    1OL    C111 4640   4.763   4.204   5.505 -0.0408  0.4723  0.2366
    1OL    H11R 4641   4.794   4.290   5.444 -1.1293  0.4370 -0.3837
    1OL    H11S 4642   4.732   4.260   5.594 -1.0296 -0.9945  0.8260
    1OL    C112 4643   4.638   4.138   5.449  0.0890 -0.0407  0.9203
    1OL    H12R 4644   4.560   4.214   5.437 -0.2935 -0.8989 -2.4091
    1OL    H12S 4645   4.592   4.076   5.527 -1.4392  0.1625  0.2046
    1OL    C113 4646   4.643   4.060   5.317  0.3533 -0.1548 -0.1414
    1OL    H13R 4647   4.546   4.015   5.295 -0.2542  0.6684  0.8238
    1OL    H13S 4648   4.719   3.982   5.322  0.4859 -0.0789 -0.8455
    1OL    C114 4649   4.684   4.158   5.201  0.8079 -0.1153  0.2545
    1OL    H14R 4650   4.699   4.090   5.117 -0.0485  0.2712 -0.2235
    1OL    H14S 4651   4.777   4.209   5.229  0.6404 -0.3197  1.1760
    1OL    C115 4652   4.560   4.253   5.170 -0.3587  0.1941 -0.1642
    1OL    H15R 4653   4.551   4.340   5.236  0.9740  2.8872 -3.4225
    1OL    H15S 4654   4.465   4.199   5.172  0.3517 -1.0366  1.6549
    1OL    C116 4655   4.564   4.316   5.027  0.3013  0.1489 -0.9793
    1OL    H16R 4656   4.644   4.389   5.014 -0.3724  1.0536 -0.0751
    1OL    H16S 4657   4.474   4.376   5.017 -0.6345 -0.8601  1.0904
    1OL    C117 4658   4.564   4.210   4.913 -0.0877  0.1599  0.6055
    1OL    H17R 4659   4.467   4.164   4.929  0.0441 -0.0599  0.7666
    1OL    H17S 4660   4.639   4.131   4.922 -0.3730 -0.0908  0.7501
    1OL    C118 4661   4.568   4.276   4.774  0.0835 -0.2432 -0.1602
    1OL    H18R 4662   4.668   4.291   4.733  0.7407 -0.5083  1.3152
    1OL    H18S 4663   4.520   4.374   4.781 -2.1238 -1.1298 -2.0621
    1OL    H18T 4664   4.515   4.221   4.697 -3.2355  1.1870  0.9976
    1PA    C116 4665   1.405   2.289   5.361 -0.1725 -0.4531  0.2337
    1PA    H16R 4666   1.489   2.358   5.372 -2.8442  2.7848  1.1807
    1PA    H16S 4667   1.322   2.347   5.402 -0.9359 -2.3645  1.4541
    1PA    H16T 4668   1.393   2.258   5.257  0.8609  0.8900 -0.3026
    1PA    C115 4669   1.439   2.159   5.445  0.6202  0.2839 -0.7244
    1PA    H15R 4670   1.367   2.152   5.526 -0.3457  1.0636 -1.5116
    1PA    H15S 4671   1.434   2.074   5.376  1.0310  0.9328 -1.5701
    1PA    C114 4672   1.580   2.160   5.498  0.0058 -0.0411 -0.2594
    1PA    H14R 4673   1.652   2.134   5.420  0.5303 -0.2598  0.2915
    1PA    H14S 4674   1.604   2.260   5.536 -1.4054  0.3032 -0.2621
    1PA    C113 4675   1.594   2.068   5.620  0.7946 -0.7154  0.3136
    1PA    H13R 4676   1.700   2.061   5.646  0.5104 -0.2107  1.6200
    1PA    H13S 4677   1.540   2.115   5.702  0.1531  0.2129 -0.6385
    1PA    C112 4678   1.534   1.921   5.608  0.1099  0.2903  0.1974
    1PA    H12R 4679   1.428   1.925   5.579 -0.4589  0.4378  2.1703
    1PA    H12S 4680   1.581   1.853   5.538 -0.7773 -1.5742  1.3703
    1PA    C111 4681   1.547   1.840   5.741 -0.1790 -0.2002 -0.6248
    1PA    H11R 4682   1.652   1.835   5.768  0.0492  0.9699 -1.2538
    1PA    H11S 4683   1.486   1.892   5.815 -1.3125 -0.7118 -1.1901
    1PA    C110 4684   1.479   1.695   5.735 -0.0985 -0.6012  0.1842
    1PA    H10R 4685   1.539   1.627   5.673 -0.6287  0.0914 -1.1230
    1PA    H10S 4686   1.489   1.656   5.836 -0.4360 -1.1046  0.0228
    1PA     C19 4687   1.331   1.685   5.681  0.3690 -0.0589  0.0686
    1PA     H9R 4688   1.264   1.752   5.734  0.4965 -0.5650  0.8746
    1PA     H9S 4689   1.322   1.716   5.576 -2.2281  0.0993  0.2982
    1PA     C18 4690   1.275   1.543   5.701 -0.4311 -0.1944 -0.4773
    1PA     H8R 4691   1.180   1.550   5.648 -2.1238  3.7726  2.8014
    1PA     H8S 4692   1.341   1.471   5.653  0.4198 -1.3212  2.2684
    1PA     C17 4693   1.277   1.502   5.852 -0.0591  0.0087  0.6012
    1PA     H7R 4694   1.379   1.484   5.885  0.7155  0.0087 -1.7253
    1PA     H7S 4695   1.241   1.582   5.918  0.9765  0.9956 -0.0144
    1PA     C16 4696   1.199   1.364   5.877  0.2379  0.2990  0.2446
    1PA     H6R 4697   1.103   1.355   5.825 -1.0994 -3.5670  3.1728
    1PA     H6S 4698   1.260   1.290   5.825 -2.6573 -1.2762 -1.0135
    1PA     C15 4699   1.180   1.326   6.020 -0.3068  0.4092 -0.0798
    1PA     H5R 4700   1.131   1.228   6.012 -0.8288  0.7997 -1.8882
    1PA     H5S 4701   1.275   1.305   6.069  0.1914 -1.0743 -1.6308
    1PA     C14 4702   1.098   1.421   6.105  0.0138 -0.1203 -0.1517
    1PA     H4R 4703   1.167   1.502   6.128  1.5488 -1.2604 -0.6572
    1PA     H4S 4704   1.006   1.447   6.053  2.1375  0.4364 -3.8363
    1PA     C13 4705   1.070   1.353   6.244 -0.0757 -0.4911  0.3725
    1PA     H3R 4706   1.030   1.258   6.208  1.4967 -0.4536 -1.5950
    1PA     H3S 4707   1.164   1.341   6.298  0.2143  0.0433 -0.0121
    1PA     C12 4708   0.968   1.430   6.324 -0.1098  0.1663  0.4196
    1PA     H2R 4709   1.011   1.530   6.336  1.1401 -0.5682  2.2599
    1PA     H2S 4710   0.880   1.432   6.260  0.0969 -1.4444  0.0684
    1PC     C11 4711   0.933   1.373   6.460  0.4482  0.7986  0.6686
    1PC     O12 4712   1.014   1.351   6.548 -0.1755 -0.1001 -0.1778
    1PC     O11 4713   0.811   1.333   6.454  0.3321 -0.5930 -0.1037
    1PC      C1 4714   0.755   1.273   6.575  0.1095 -1.2332  0.4868
    1PC      HR 4715   0.679   1.199   6.549 -2.0313  1.5019 -1.3178
    1PC      HS 4716   0.833   1.215   6.626  2.3175 -1.3031 -2.7882
    1PC      C2 4717   0.699   1.383   6.672  0.9083  0.1026  1.0062
    1PC      HX 4718   0.789   1.434   6.708  1.2321 -0.6643  1.2901
    1PC      C3 4719   0.612   1.330   6.780 -0.0920  0.3741  0.6106
    1PC      HA 4720   0.637   1.372   6.877 -3.0320  3.3093  0.1794
    1PC      HB 4721   0.512   1.374   6.772 -0.0712  1.1393  3.8683
    1PC     O31 4722   0.596   1.188   6.778 -0.0162  0.1860  0.5994
    1PC     P31 4723   0.513   1.111   6.885 -0.0807 -0.1105 -0.0236
    1PC     O32 4724   0.361   1.133   6.840  0.0438  0.6328  0.0669
    1PC     C31 4725   0.275   1.227   6.916  0.9011 -0.2537 -0.0085
    1PC     H1A 4726   0.316   1.328   6.926  1.8717 -0.5087 -1.2720
    1PC     H1B 4727   0.185   1.238   6.856  0.6931 -0.8865  0.1906
    1PC     C32 4728   0.232   1.177   7.058 -0.2700 -0.4851  0.6735
    1PC     H2A 4729   0.317   1.163   7.125  2.2786  2.5401 -1.7844
    1PC     H2B 4730   0.181   1.261   7.106 -1.2673 -0.3346 -0.6192
    1PC     N31 4731   0.145   1.053   7.062 -0.2407 -0.0635 -0.4181
    1PC     C33 4732   0.227   0.932   7.042  0.0513 -0.3395 -0.4353
    1PC     H3A 4733   0.276   0.929   6.945 -1.8654 -1.6782 -1.3964
    1PC     H3B 4734   0.307   0.937   7.115 -0.0740 -2.3284 -0.1512
    1PC     H3C 4735   0.163   0.844   7.050 -0.8006 -0.0615 -3.6386
    1PC     C34 4736   0.084   1.048   7.200 -0.0069 -0.5341 -0.0365
    1PC     H4A 4737   0.161   1.057   7.277  0.0633  1.0939 -0.2702
    1PC     H4B 4738   0.022   1.138   7.195  0.4293 -0.2702 -0.8887
    1PC     H4C 4739   0.033   0.952   7.207 -1.3841 -0.0582 -2.6039
    1PC     C35 4740   0.028   1.049   6.971 -0.6099 -0.1095  0.7987
    1PC     H5A 4741  -0.038   0.976   7.017  1.5537 -0.5991  3.2299
    1PC     H5B 4742   0.057   1.021   6.869 -1.7033 -0.6178  0.6246
    1PC     H5C 4743  -0.033   1.140   6.976 -0.9797 -0.3258  0.2806
    1PC     O33 4744   0.537   0.969   6.858 -0.1061  0.1776 -0.1666
    1PC     O34 4745   0.544   1.168   7.016 -0.5409  0.2013  0.7593
    1PC     O21 4746   0.618   1.478   6.585 -0.3378 -0.0652 -0.9348
    1PC     C21 4747   0.676   1.594   6.546 -0.4515 -0.5886 -0.4046
    1PC     O22 4748   0.797   1.618   6.558 -0.0183  0.3257 -0.0975
    1OL     C12 4749   0.583   1.676   6.460  0.4370 -0.5747  0.1064
    1OL     H2R 4750   0.590   1.782   6.487 -0.3066 -0.6583  0.6587
    1OL     H2S 4751   0.483   1.640   6.486 -0.5484  0.9080 -1.5347
    1OL     C13 4752   0.629   1.665   6.313  0.6770  0.2775 -0.2112
    1OL     H3R 4753   0.737   1.682   6.304  0.5185  1.3597 -0.1782
    1OL     H3S 4754   0.581   1.747   6.258  1.9756  1.4416  0.3349
    1OL     C14 4755   0.584   1.538   6.249  0.7177  0.2547 -0.1473
    1OL     H4R 4756   0.474   1.535   6.250  0.6788  1.5370  0.7183
    1OL     H4S 4757   0.623   1.446   6.293 -1.5446 -1.2956 -1.2816
    1OL     C15 4758   0.625   1.524   6.104  0.2916 -0.3437 -0.2720
    1OL     H5R 4759   0.731   1.501   6.095  0.5000 -0.8699  3.0883
    1OL     H5S 4760   0.605   1.618   6.052 -3.4352 -0.3755  0.9129
    1OL     C16 4761   0.525   1.435   6.033  0.7527  0.0251 -0.5549
    1OL     H6R 4762   0.434   1.495   6.026  1.2484  0.8211 -0.1746
    1OL     H6S 4763   0.502   1.349   6.096 -1.3957  1.4388  0.6538
    1OL     C17 4764   0.567   1.392   5.890  0.4559 -0.2417 -0.8327
    1OL     H7R 4765   0.672   1.361   5.891 -0.1212 -2.3400 -1.2154
    1OL     H7S 4766   0.577   1.482   5.830 -4.1397  0.6082 -0.4417
    1OL     C18 4767   0.476   1.287   5.829  0.4217 -0.3652 -0.2320
    1OL     H8R 4768   0.434   1.216   5.901  0.3928  1.2340  1.3695
    1OL     H8S 4769   0.548   1.236   5.764  0.2631 -1.6316  0.5581
    1OL     C19 4770   0.360   1.357   5.762 -0.1351  0.1376 -0.3747
    1OL     H9R 4771   0.293   1.402   5.835 -0.0271  1.0112 -0.7986
    1OL    C110 4772   0.336   1.375   5.634  0.0036 -0.2846 -0.0368
    1OL    H10R 4773   0.255   1.442   5.605  0.1158 -0.3946 -0.6202
    1OL    C111 4774   0.419   1.322   5.520  0.3656 -0.0033 -0.4371
    1OL    H11R 4775   0.390   1.220   5.492 -0.9238  0.8354 -2.2431
    1OL    H11S 4776   0.521   1.336   5.554 -0.9618  3.3575  2.4249
    1OL    C112 4777   0.412   1.411   5.389 -0.2252 -0.2820  0.3764
    1OL    H12R 4778   0.418   1.516   5.420  0.6023 -0.0882 -0.4116
    1OL    H12S 4779   0.313   1.404   5.343 -0.5762  1.3273  0.8322
    1OL    C113 4780   0.526   1.379   5.293  0.3567 -0.0524  0.9524
    1OL    H13R 4781   0.622   1.374   5.344  0.6206 -0.9914  0.3729
    1OL    H13S 4782   0.536   1.456   5.216 -0.4514 -0.9260 -0.0571
    1OL    C114 4783   0.501   1.249   5.209  0.1351 -0.8540  0.1266
    1OL    H14R 4784   0.458   1.168   5.268 -0.4172  0.2843  1.3242
    1OL    H14S 4785   0.599   1.214   5.176 -0.1361 -1.7521  0.2649
    1OL    C115 4786   0.409   1.272   5.087  0.4911  0.6781  0.2940
    1OL    H15R 4787   0.451   1.355   5.030  0.5688  1.3253  1.2645
    1OL    H15S 4788   0.317   1.302   5.139  0.0483  0.4990 -0.3900
    1OL    C116 4789   0.382   1.157   4.991  0.1718 -0.0225  0.5597
    1OL    H16R 4790   0.372   1.066   5.051  0.9234 -0.3555  0.1982
    1OL    H16S 4791   0.469   1.143   4.926  0.7626  1.6461  0.9852
    1OL    C117 4792   0.263   1.193   4.908  0.3333  0.1025  0.4868
    1OL    H17R 4793   0.287   1.283   4.850  1.3978  1.1205  2.4720
    1OL    H17S 4794   0.172   1.215   4.965 -1.3395  1.6567 -2.6181
    1OL    C118 4795   0.221   1.095   4.807 -0.0573  0.9458 -0.1021
    1OL    H18R 4796   0.292   1.084   4.725 -1.0777  1.4766 -1.0714
    1OL    H18S 4797   0.120   1.116   4.771 -0.3175 -0.6733 -0.3821
    1OL    H18T 4798   0.223   1.000   4.862 -0.1656  0.8774 -0.2168
    1PA    C116 4799   1.100   1.773   5.060 -0.5612 -0.0520  0.0181
    1PA    H16R 4800   1.023   1.840   5.021 -0.9899 -0.0886  0.7800
    1PA    H16S 4801   1.093   1.675   5.011  0.9440  0.0778 -0.4739
    1PA    H16T 4802   1.193   1.822   5.032 -2.4895  1.7378 -3.5004
    1PA    C115 4803   1.080   1.783   5.211  0.1630 -0.0654  0.0511
    1PA    H15R 4804   0.984   1.741   5.242 -1.2761  1.4155 -2.2313
    1PA    H15S 4805   1.155   1.726   5.268  1.2907  0.6584 -0.6828
    1PA    C114 4806   1.088   1.927   5.256 -0.3655 -0.3866  0.2693
    1PA    H14R 4807   1.194   1.953   5.261 -0.4974 -0.0112  1.3399
    1PA    H14S 4808   1.044   1.999   5.187  0.6519  0.5908  0.6165
    1PA    C113 4809   1.025   1.967   5.392 -0.5245  0.1324  0.7217
    1PA    H13R 4810   0.916   1.961   5.386 -0.4263  0.3184 -2.0902
    1PA    H13S 4811   1.071   1.892   5.456  0.5845 -0.4284 -0.7081
    1PA    C112 4812   1.082   2.104   5.435 -0.4585 -0.5573 -0.0379
    1PA    H12R 4813   1.191   2.105   5.426 -0.5478  1.4929 -1.1989
    1PA    H12S 4814   1.044   2.179   5.366 -0.4415 -0.6050 -0.0992
    1PA    C111 4815   1.056   2.137   5.583  0.2774 -0.0916  0.7828
    1PA    H11R 4816   1.105   2.063   5.646 -1.7320 -1.2962  0.9951
    1PA    H11S 4817   1.101   2.235   5.603  0.9703 -0.3455  0.4693
    1PA    C110 4818   0.901   2.125   5.606 -0.3709 -0.2159  0.2984
    1PA    H10R 4819   0.852   2.199   5.543  0.8580 -1.2729 -1.9283
    1PA    H10S 4820   0.861   2.028   5.574  0.1935 -0.1278 -0.6869
    1PA     C19 4821   0.851   2.146   5.751 -0.0901  0.2362 -0.0759
    1PA     H9R 4822   0.889   2.068   5.816  0.4677  1.9416  1.7104
    1PA     H9S 4823   0.903   2.239   5.778 -2.2086  2.2003 -2.5537
    1PA     C18 4824   0.704   2.160   5.753  0.5941 -0.2954  0.9133
    1PA     H8R 4825   0.685   2.263   5.722  0.4782 -0.8595 -0.9165
    1PA     H8S 4826   0.660   2.096   5.676  3.9625 -2.1030  0.4162
    1PA     C17 4827   0.623   2.145   5.888 -0.7730 -0.7378 -0.4342
    1PA     H7R 4828   0.632   2.044   5.929  0.4448 -0.9976 -1.3122
    1PA     H7S 4829   0.667   2.209   5.965 -1.3881 -1.2178  0.3178
    1PA     C16 4830   0.472   2.175   5.868  0.7336 -0.2195  0.2434
    1PA     H6R 4831   0.464   2.270   5.813 -0.6690 -0.7278 -0.4563
    1PA     H6S 4832   0.419   2.095   5.816 -1.1710  0.0333  1.7701
    1PA     C15 4833   0.393   2.206   6.002 -0.5044 -0.6928 -0.0013
    1PA     H5R 4834   0.423   2.308   6.030 -1.7680 -0.2098 -0.3536
    1PA     H5S 4835   0.288   2.220   5.973 -0.1204  2.5936 -0.0172
    1PA     C14 4836   0.400   2.120   6.127  0.9963 -0.3422 -0.4972
    1PA     H4R 4837   0.399   2.015   6.099 -0.4757 -0.6858  0.8113
    1PA     H4S 4838   0.498   2.133   6.173 -0.0702 -0.1306  1.7424
    1PA     C13 4839   0.305   2.154   6.245  0.0604 -0.7024  0.1084
    1PA     H3R 4840   0.347   2.252   6.269 -0.9276 -0.1661 -0.3230
    1PA     H3S 4841   0.203   2.162   6.207  0.5120  0.8108 -0.8181
    1PA     C12 4842   0.312   2.056   6.360 -0.2140  0.2680  0.6227
    1PA     H2R 4843   0.261   1.965   6.326 -0.6976  0.5261  0.6527
    1PA     H2S 4844   0.414   2.024   6.382 -0.3471 -1.2342 -0.8230
    1PC     C11 4845   0.241   2.119   6.479 -0.8768  0.4308  0.3961
    1PC     O12 4846   0.274   2.226   6.519 -0.7739  0.0863 -0.1733
    1PC     O11 4847   0.157   2.032   6.540 -0.0744  0.5526 -0.4639
    1PC      C1 4848   0.119   2.062   6.681 -0.3403 -0.0278  0.1198
    1PC      HR 4849   0.114   2.170   6.700 -1.8289 -0.0674 -0.0315
    1PC      HS 4850   0.020   2.024   6.704 -1.1511  1.2059 -1.2368
    1PC      C2 4851   0.217   1.997   6.783 -0.4827 -0.2484 -0.3089
    1PC      HX 4852   0.242   1.902   6.734 -3.2914 -0.2449 -1.8564
    1PC      C3 4853   0.151   1.975   6.926 -0.0977 -0.3844  0.0406
    1PC      HA 4854   0.064   1.908   6.922  0.4383 -1.1602  1.1316
    1PC      HB 4855   0.223   1.917   6.984 -0.0806 -0.1080  0.3011
    1PC     O31 4856   0.115   2.093   7.009 -0.3317  0.5263  0.0570
    1PC     P31 4857   0.223   2.156   7.104  0.0216  0.3387 -0.3942
    1PC     O32 4858   0.331   2.238   7.015 -0.3000 -0.3242 -0.0628
    1PC     C31 4859   0.314   2.363   6.944  0.4348 -0.1098 -0.0061
    1PC     H1A 4860   0.324   2.337   6.838  0.5738 -1.6960  0.3766
    1PC     H1B 4861   0.213   2.400   6.961  0.0268 -1.1345 -0.1756
    1PC     C32 4862   0.414   2.474   6.986 -0.2137  0.6025  0.2726
    1PC     H2A 4863   0.508   2.448   6.936 -0.2736  3.4551 -1.3959
    1PC     H2B 4864   0.381   2.567   6.940 -0.0310 -0.0023 -1.1331
    1PC     N31 4865   0.438   2.500   7.133 -0.7919  0.1538 -0.2169
    1PC     C33 4866   0.307   2.531   7.205 -0.3853 -0.0944  0.1719
    1PC     H3A 4867   0.262   2.627   7.178 -0.5405  0.1810  1.3622
    1PC     H3B 4868   0.228   2.456   7.205 -0.1150 -0.3870 -1.1281
    1PC     H3C 4869   0.334   2.546   7.310 -0.5747  1.9088 -0.0397
    1PC     C34 4870   0.494   2.381   7.194  0.1740 -0.2415 -0.1184
    1PC     H4A 4871   0.573   2.346   7.127  1.2439  0.3893  0.7909
    1PC     H4B 4872   0.517   2.404   7.298 -3.3846 -0.5787  0.7928
    1PC     H4C 4873   0.410   2.311   7.193 -1.5060  1.7317  0.0273
    1PC     C35 4874   0.551   2.603   7.146  0.1902  0.2145  0.4025
    1PC     H5A 4875   0.529   2.698   7.097  1.7137  0.1691 -0.4113
    1PC     H5B 4876   0.640   2.558   7.103  0.6903 -1.1542  2.7776
    1PC     H5C 4877   0.573   2.628   7.250  2.2539  0.3644 -0.0422
    1PC     O33 4878   0.156   2.252   7.191 -0.2748 -0.3959  0.8038
    1PC     O34 4879   0.289   2.042   7.167  0.5474 -0.3335 -0.2310
    1PC     O21 4880   0.335   2.078   6.787 -0.2998 -0.0994 -0.3707
    1PC     C21 4881   0.446   2.024   6.844  0.3345 -0.5051 -0.5467
    1PC     O22 4882   0.456   1.902   6.861 -0.5427 -0.0028 -0.1405
    1OL     C12 4883   0.560   2.125   6.855  0.6518 -0.4303 -0.1277
    1OL     H2R 4884   0.575   2.147   6.961  1.1996 -1.1489 -0.0475
    1OL     H2S 4885   0.526   2.218   6.810 -2.3369 -1.2637  0.2868
    1OL     C13 4886   0.688   2.064   6.784 -0.3026 -0.4625  0.0258
    1OL     H3R 4887   0.704   1.968   6.834 -0.4216 -0.0873  0.7983
    1OL     H3S 4888   0.776   2.125   6.806  1.8723 -2.4577 -2.8626
    1OL     C14 4889   0.668   2.050   6.628  0.7091 -0.2925 -0.0285
    1OL     H4R 4890   0.639   2.142   6.578  0.9641  0.3818  1.0370
    1OL     H4S 4891   0.595   1.970   6.617 -0.4487  0.4862  1.8415
    1OL     C15 4892   0.805   2.008   6.557 -0.8126  0.5113  0.9590
    1OL     H5R 4893   0.825   1.906   6.591 -1.0088 -1.1712 -3.6704
    1OL     H5S 4894   0.888   2.074   6.586  1.2341 -1.9698  0.9313
    1OL     C16 4895   0.781   2.004   6.406 -0.5940  0.1380  0.1632
    1OL     H6R 4896   0.738   2.099   6.373 -0.5711 -0.4279 -1.5055
    1OL     H6S 4897   0.699   1.935   6.387 -0.0155 -0.5295  0.0968
    1OL     C17 4898   0.911   1.964   6.331  0.5441  0.7445  0.1326
    1OL     H7R 4899   0.939   1.870   6.380 -1.9448  0.5796  1.2949
    1OL     H7S 4900   0.986   2.039   6.356  0.9049  0.2078  0.6676
    1OL     C18 4901   0.900   1.943   6.182 -0.8107  0.4639 -0.2196
    1OL     H8R 4902   0.871   2.035   6.132  0.0781  0.8428 -0.0308
    1OL     H8S 4903   0.822   1.866   6.172 -2.5264  1.6320  3.3373
    1OL     C19 4904   1.030   1.913   6.117 -0.2105 -0.3524  0.4708
    1OL     H9R 4905   1.119   1.966   6.152 -1.1702  0.7591  1.2562
    1OL    C110 4906   1.043   1.837   6.002 -0.5085  0.4036 -0.3352
    1OL    H10R 4907   1.141   1.817   5.959 -0.8785  1.7034 -1.8452
    1OL    C111 4908   0.938   1.763   5.930 -0.0776  0.0380  0.3340
    1OL    H11R 4909   0.844   1.811   5.956 -0.1324  0.0250  0.1627
    1OL    H11S 4910   0.928   1.664   5.974  2.0747  0.7538  2.5194
    1OL    C112 4911   0.968   1.758   5.780 -1.1647  0.5259 -0.2404
    1OL    H12R 4912   1.065   1.711   5.762 -0.9423  0.5517  0.8157
    1OL    H12S 4913   0.965   1.859   5.740  0.9931 -0.3247 -2.6816
    1OL    C113 4914   0.877   1.667   5.693 -0.3212 -0.3531 -0.0517
    1OL    H13R 4915   0.776   1.707   5.700 -0.1785 -0.1647  1.2180
    1OL    H13S 4916   0.873   1.563   5.727  0.0398 -0.5165 -0.5048
    1OL    C114 4917   0.916   1.659   5.538 -0.5960 -0.0814  0.0682
    1OL    H14R 4918   1.023   1.637   5.525 -0.3670 -0.0759  1.8137
    1OL    H14S 4919   0.894   1.760   5.504 -0.5355  0.1733  0.7610
    1OL    C115 4920   0.846   1.554   5.451 -0.0271  0.8788 -0.1118
    1OL    H15R 4921   0.842   1.589   5.348  2.1447  1.2601 -0.0910
    1OL    H15S 4922   0.742   1.545   5.484  1.1905 -1.5366  3.4180
    1OL    C116 4923   0.920   1.413   5.453  0.2947 -0.1906 -0.3090
    1OL    H16R 4924   1.023   1.433   5.423  0.8510 -0.0307  1.6636
    1OL    H16S 4925   0.879   1.354   5.370  1.6226 -0.6527 -0.6504
    1OL    C117 4926   0.929   1.341   5.589  0.7523  0.4721  1.3865
    1OL    H17R 4927   0.982   1.405   5.660  1.5510  2.5351 -1.0087
    1OL    H17S 4928   0.988   1.251   5.572 -0.1792 -0.2664  2.0466
    1OL    C118 4929   0.796   1.303   5.655 -0.2540  0.0826 -0.6810
    1OL    H18R 4930   0.832   1.255   5.747 -0.8377  2.8543  1.0600
    1OL    H18S 4931   0.736   1.392   5.677  0.4016 -0.1121  2.1787
    1OL    H18T 4932   0.733   1.232   5.601  0.2277  0.1742 -1.3759
    1PA    C116 4933   0.534   4.648   5.475 -0.2170  0.2007  0.2078
    1PA    H16R 4934   0.533   4.555   5.417  2.0111  0.3652 -0.1162
    1PA    H16S 4935   0.495   4.723   5.406 -2.1009 -0.2471  0.7605
    1PA    H16T 4936   0.467   4.631   5.560 -0.8227 -1.4510 -0.5667
    1PA    C115 4937   0.673   4.681   5.523  0.4524 -0.6032 -0.0288
    1PA    H15R 4938   0.728   4.735   5.446  2.0938 -0.8616  0.9419
    1PA    H15S 4939   0.662   4.761   5.596  2.1680  1.4326 -1.9452
    1PA    C114 4940   0.750   4.561   5.575  0.3395 -0.3800  0.0166
    1PA    H14R 4941   0.704   4.475   5.525 -3.2406  1.0760  0.6740
    1PA    H14S 4942   0.852   4.581   5.543  0.5927 -0.6835  0.6232
    1PA    C113 4943   0.752   4.551   5.731  1.0558  0.2047 -0.0609
    1PA    H13R 4944   0.788   4.644   5.776  0.4815 -0.1870  1.2284
    1PA    H13S 4945   0.652   4.545   5.774  0.9295 -0.3755 -0.4252
    1PA    C112 4946   0.839   4.438   5.790  0.5845  0.1702  0.7569
    1PA    H12R 4947   0.944   4.447   5.760  0.3534  1.7625  0.3853
    1PA    H12S 4948   0.843   4.453   5.898 -0.3919  0.2346  0.7866
    1PA    C111 4949   0.784   4.301   5.751  0.5083 -0.0692 -0.9073
    1PA    H11R 4950   0.683   4.295   5.792  1.2119  3.5826  1.5599
    1PA    H11S 4951   0.772   4.292   5.643 -0.2991  0.5117 -0.8720
    1PA    C110 4952   0.884   4.193   5.811  0.1074  0.0682  0.7653
    1PA    H10R 4953   0.862   4.100   5.759 -0.5380  1.0983 -0.8580
    1PA    H10S 4954   0.983   4.228   5.783  0.2014 -0.3701  0.5543
    1PA     C19 4955   0.887   4.160   5.962 -0.8165 -0.2780  0.4954
    1PA     H9R 4956   0.968   4.087   5.967 -1.3772 -0.9538 -0.0641
    1PA     H9S 4957   0.910   4.255   6.010  1.1528  0.9735 -2.7699
    1PA     C18 4958   0.756   4.109   6.014 -0.6706  0.2719  0.0663
    1PA     H8R 4959   0.671   4.175   5.993 -0.1797  0.8536 -0.1011
    1PA     H8S 4960   0.729   4.019   5.957 -1.3222 -0.3595  1.3512
    1PA     C17 4961   0.768   4.056   6.158 -0.5475 -0.6080  0.4546
    1PA     H7R 4962   0.834   3.969   6.160 -0.1275 -0.2945  0.2804
    1PA     H7S 4963   0.812   4.138   6.214 -0.2891 -1.4948  1.5803
    1PA     C16 4964   0.632   4.027   6.214 -0.1922  0.6964 -0.5743
    1PA     H6R 4965   0.582   4.123   6.226 -0.4640  0.5375 -0.4261
    1PA     H6S 4966   0.574   3.959   6.152 -0.5629 -1.3731  1.9343
    1PA     C15 4967   0.639   3.970   6.362 -0.1942  0.0077  0.1180
    1PA     H5R 4968   0.718   4.023   6.416 -0.7057 -0.3189  1.2017
    1PA     H5S 4969   0.547   4.000   6.412 -0.4585  0.2232 -0.4957
    1PA     C14 4970   0.669   3.824   6.367 -0.0916  0.3098  0.0487
    1PA     H4R 4971   0.581   3.766   6.339 -1.0016  0.0557  3.3396
    1PA     H4S 4972   0.736   3.792   6.287 -0.2609 -1.4004  0.5855
    1PA     C13 4973   0.710   3.771   6.508  0.7151 -0.6196 -0.1052
    1PA     H3R 4974   0.811   3.806   6.528 -0.0524  2.9154 -1.9209
    1PA     H3S 4975   0.640   3.818   6.577 -0.3389  0.2585 -1.7245
    1PA     C12 4976   0.715   3.614   6.508  0.1779 -0.2383  0.2659
    1PA     H2R 4977   0.610   3.585   6.497 -0.1581  0.6578  0.9735
    1PA     H2S 4978   0.775   3.581   6.423  0.4684  2.6402 -0.7184
    1PC     C11 4979   0.763   3.559   6.635  0.4893 -0.1872 -0.7800
    1PC     O12 4980   0.698   3.569   6.736  0.0196 -0.4224 -0.3405
    1PC     O11 4981   0.876   3.483   6.623  0.5332  0.2881 -0.4025
    1PC      C1 4982   0.928   3.416   6.742  0.5954  0.6380  0.6605
    1PC      HR 4983   0.848   3.405   6.816  0.6238  0.4110  0.6588
    1PC      HS 4984   0.961   3.316   6.711 -0.4751  0.6219 -0.4842
    1PC      C2 4985   1.045   3.500   6.798 -1.2991  0.5060 -0.3759
    1PC      HX 4986   1.095   3.454   6.883 -0.1650 -0.9066 -1.7679
    1PC      C3 4987   0.995   3.641   6.856  0.7976  0.1651  0.1758
    1PC      HA 4988   0.969   3.716   6.782 -0.8217  1.5975  2.1293
    1PC      HB 4989   0.910   3.621   6.922  0.5276 -0.4786 -0.3641
    1PC     O31 4990   1.095   3.692   6.954  0.1538  0.1109 -0.1256
    1PC     P31 4991   1.116   3.631   7.101 -0.0107 -0.0161  0.1374
    1PC     O32 4992   1.073   3.754   7.203 -0.5010  0.3274 -0.3562
    1PC     C31 4993   0.935   3.766   7.244  0.6742  0.1384  0.6519
    1PC     H1A 4994   0.891   3.669   7.268 -1.3668  1.0513  0.7277
    1PC     H1B 4995   0.942   3.817   7.340  1.2507 -0.5372  0.9672
    1PC     C32 4996   0.839   3.844   7.152 -0.5824  0.1269  0.1327
    1PC     H2A 4997   0.835   3.804   7.051 -0.2973 -0.4736  0.3585
    1PC     H2B 4998   0.739   3.837   7.194  0.0094  0.0008  1.5679
    1PC     N31 4999   0.864   3.988   7.126 -0.1647  0.1540 -0.0840
    1PC     C33 5000   0.962   3.995   7.015 -0.1181  0.2644 -0.1507
    1PC     H3A 5001   0.974   4.100   6.988  1.0849 -0.1863 -1.4760
    1PC     H3B 5002   1.058   3.955   7.048  0.9443  2.0621 -0.9923
    1PC     H3C 5003   0.924   3.937   6.930  1.2113  1.5000 -1.6220
    1PC     C34 5004   0.737   4.050   7.071  0.1742  0.8318 -0.5036
    1PC     H4A 5005   0.764   4.139   7.015  0.7233  0.9549 -0.0502
    1PC     H4B 5006   0.672   3.981   7.017 -2.4132  1.3289  1.9054
    1PC     H4C 5007   0.672   4.077   7.154 -0.4673  0.0374 -0.7437
    1PC     C35 5008   0.915   4.076   7.231  0.0196 -0.2673  0.6091
    1PC     H5A 5009   0.844   4.108   7.308 -1.9694 -2.6898 -0.1420
    1PC     H5B 5010   0.974   4.163   7.201  0.3986 -0.5384  0.5690
    1PC     H5C 5011   0.995   4.022   7.283  1.4032  0.2590 -0.9576
    1PC     O33 5012   1.020   3.516   7.110  0.6408 -0.4959 -0.6423
    1PC     O34 5013   1.257   3.594   7.119  0.7859 -0.4015  0.3157
    1PC     O21 5014   1.151   3.512   6.695  0.6489 -0.2081  0.2207
    1PC     C21 5015   1.229   3.413   6.664  0.1086 -0.0513 -0.0446
    1PC     O22 5016   1.223   3.302   6.716 -0.4639 -0.2581 -0.0869
    1OL     C12 5017   1.337   3.452   6.566 -0.2140 -0.2890  0.3167
    1OL     H2R 5018   1.429   3.447   6.624 -0.5538  0.4219  0.9363
    1OL     H2S 5019   1.325   3.558   6.544 -1.3461  0.3966  3.8566
    1OL     C13 5020   1.343   3.368   6.435  0.1634 -0.0996 -0.1485
    1OL     H3R 5021   1.319   3.265   6.461 -0.6546 -0.2522 -1.5125
    1OL     H3S 5022   1.436   3.387   6.381 -0.2836  1.5332 -0.3669
    1OL     C14 5023   1.230   3.406   6.343  0.1845  1.3345 -0.0583
    1OL     H4R 5024   1.213   3.513   6.330  2.5122  1.8304  0.6607
    1OL     H4S 5025   1.138   3.360   6.380 -0.0693 -0.0362 -2.2966
    1OL     C15 5026   1.263   3.352   6.200  0.3994 -0.9151 -0.7110
    1OL     H5R 5027   1.313   3.254   6.199  1.0026 -0.6998  2.4129
    1OL     H5S 5028   1.346   3.411   6.160  0.5198  0.0989  0.9879
    1OL     C16 5029   1.138   3.350   6.112  0.1938  0.8330  0.2719
    1OL     H6R 5030   1.075   3.262   6.127  1.7571 -0.7622 -2.1457
    1OL     H6S 5031   1.174   3.348   6.009 -0.8310 -1.1328 -0.0783
    1OL     C17 5032   1.039   3.470   6.117  0.4186 -0.0599 -0.3774
    1OL     H7R 5033   1.086   3.560   6.077 -0.3333  1.1056  1.3139
    1OL     H7S 5034   1.016   3.498   6.221 -0.3253 -1.3793 -0.1697
    1OL     C18 5035   0.912   3.462   6.022 -0.0900  0.4192  0.0429
    1OL     H8R 5036   0.857   3.367   6.020  0.9989 -0.2207 -1.7724
    1OL     H8S 5037   0.952   3.467   5.920 -0.8659  0.0485 -0.2869
    1OL     C19 5038   0.831   3.582   6.039  0.6461  0.0658  0.2256
    1OL     H9R 5039   0.759   3.577   6.120 -0.4426  2.3584 -0.5739
    1OL    C110 5040   0.839   3.696   5.963 -0.0031  0.1524 -0.1273
    1OL    H10R 5041   0.776   3.783   5.978  2.4676  2.0034 -0.2312
    1OL    C111 5042   0.947   3.724   5.860 -0.1117 -0.7672  0.1090
    1OL    H11R 5043   1.033   3.663   5.887 -0.6193 -0.7270  1.8877
    1OL    H11S 5044   0.984   3.825   5.880  0.5000 -1.4457  2.5699
    1OL    C112 5045   0.910   3.710   5.715  0.7316 -0.1892 -0.2740
    1OL    H12R 5046   0.822   3.773   5.698 -0.5212 -2.1019 -1.1208
    1OL    H12S 5047   0.878   3.606   5.701  2.1858 -0.6109 -0.4975
    1OL    C113 5048   1.014   3.740   5.602 -0.1342 -0.2951  0.8923
    1OL    H13R 5049   1.038   3.844   5.626 -1.1134  0.7340 -2.3708
    1OL    H13S 5050   0.971   3.738   5.502 -1.7236 -1.4580  1.5742
    1OL    C114 5051   1.129   3.643   5.619  0.4582 -0.4421  1.0083
    1OL    H14R 5052   1.083   3.545   5.630  1.1735 -0.9221 -0.1767
    1OL    H14S 5053   1.176   3.667   5.715  1.2098 -3.5527  1.4650
    1OL    C115 5054   1.232   3.638   5.505 -0.3926 -0.7245 -0.0475
    1OL    H15R 5055   1.288   3.731   5.492 -0.7525 -0.9167 -3.5320
    1OL    H15S 5056   1.187   3.627   5.406  0.7302  2.1824 -0.9256
    1OL    C116 5057   1.323   3.519   5.521 -0.5236 -0.9048  0.2302
    1OL    H16R 5058   1.264   3.432   5.549 -2.3513  0.4914  0.7720
    1OL    H16S 5059   1.381   3.539   5.611  0.4025  0.3550 -0.6159
    1OL    C117 5060   1.429   3.489   5.414  0.0449  0.1311  0.4062
    1OL    H17R 5061   1.478   3.581   5.379  1.7874 -0.6591  0.7473
    1OL    H17S 5062   1.375   3.442   5.331 -0.3460 -0.5137  1.0289
    1OL    C118 5063   1.550   3.397   5.452  0.0444  0.4411 -0.3236
    1OL    H18R 5064   1.511   3.295   5.458  0.3259  0.3497 -0.0356
    1OL    H18S 5065   1.601   3.434   5.541  2.8835 -0.7734 -1.3892
    1OL    H18T 5066   1.624   3.397   5.373  0.8512  1.5480  0.4188
    1PA    C116 5067   0.031   0.616   4.965 -0.6367 -0.4517  0.1688
    1PA    H16R 5068   0.045   0.538   5.040  2.4111 -1.3501 -1.2573
    1PA    H16S 5069   0.040   0.569   4.867  0.6721  1.3978 -0.6246
    1PA    H16T 5070  -0.070   0.656   4.978 -0.0143  1.1906  0.1638
    1PA    C115 5071   0.141   0.716   4.989  0.5477 -0.1135  0.4708
    1PA    H15R 5072   0.241   0.673   4.977  0.5501 -0.1676  0.6740
    1PA    H15S 5073   0.144   0.803   4.923  0.9186 -0.2172  0.3494
    1PA    C114 5074   0.135   0.778   5.135 -0.2658  0.0933 -0.6394
    1PA    H14R 5075   0.218   0.846   5.154  1.1530 -1.1909 -2.1273
    1PA    H14S 5076   0.039   0.831   5.142 -0.3316  0.1274 -1.7552
    1PA    C113 5077   0.123   0.677   5.258 -0.6016 -0.3253 -0.4519
    1PA    H13R 5078   0.038   0.610   5.241 -0.2312 -1.4077  1.7370
    1PA    H13S 5079   0.206   0.606   5.251  0.2831  0.7162 -0.5542
    1PA    C112 5080   0.117   0.743   5.399  0.5991 -0.2641 -0.5472
    1PA    H12R 5081   0.217   0.773   5.431  0.6870 -3.3207  2.2810
    1PA    H12S 5082   0.058   0.834   5.391 -0.8220 -1.0626  0.4836
    1PA    C111 5083   0.074   0.651   5.513 -0.3119  0.8247 -0.4375
    1PA    H11R 5084  -0.010   0.586   5.487 -0.5981  0.8714  0.3638
    1PA    H11S 5085   0.157   0.580   5.524 -1.2571 -0.2344 -0.0137
    1PA    C110 5086   0.035   0.731   5.643 -0.4579  0.5916  0.7018
    1PA    H10R 5087   0.124   0.788   5.672  0.9780 -1.3261  0.1369
    1PA    H10S 5088  -0.035   0.811   5.619  0.0577  0.4094 -1.5783
    1PA     C19 5089  -0.007   0.646   5.769 -0.7226 -0.3100  0.0903
    1PA     H9R 5090   0.073   0.573   5.782  0.0823 -0.0845 -3.1340
    1PA     H9S 5091  -0.009   0.706   5.860 -2.7048 -1.7800  1.0425
    1PA     C18 5092  -0.146   0.582   5.760  0.6826  0.6714 -0.5141
    1PA     H8R 5093  -0.207   0.672   5.750  1.3843  1.2254  0.1291
    1PA     H8S 5094  -0.157   0.531   5.664  2.1544 -0.3313 -0.1633
    1PA     C17 5095  -0.195   0.490   5.873 -0.7794  0.7712 -0.3235
    1PA     H7R 5096  -0.215   0.558   5.957  2.9434  1.6777 -0.1223
    1PA     H7S 5097  -0.288   0.446   5.837 -0.2138 -1.2067  0.5461
    1PA     C16 5098  -0.099   0.394   5.939  0.3643  0.6019  0.1674
    1PA     H6R 5099  -0.052   0.336   5.860 -0.6535 -1.2776  0.9107
    1PA     H6S 5100  -0.016   0.442   5.991  1.5838 -0.0589 -1.1472
    1PA     C15 5101  -0.155   0.287   6.038  1.1529  0.2292 -0.4209
    1PA     H5R 5102  -0.212   0.345   6.111  0.6319 -0.5644 -0.1909
    1PA     H5S 5103  -0.234   0.224   5.996  0.8882  0.2842 -0.0064
    1PA     C14 5104  -0.053   0.199   6.112  0.6292  0.0012  0.0817
    1PA     H4R 5105   0.027   0.174   6.041 -1.5218 -1.8373 -1.7815
    1PA     H4S 5106  -0.001   0.260   6.186  0.8623  0.3272 -0.3454
    1PA     C13 5107  -0.104   0.064   6.154 -0.4698 -0.1434 -0.0279
    1PA     H3R 5108  -0.151   0.004   6.075 -2.9283 -0.5547  1.7130
    1PA     H3S 5109  -0.029   0.001   6.202 -1.8299 -1.0398  0.9690
    1PA     C12 5110  -0.225   0.088   6.252 -0.3116 -0.0241 -0.2275
    1PA     H2R 5111  -0.293   0.159   6.203 -2.2820 -2.8099 -1.6395
    1PA     H2S 5112  -0.283  -0.004   6.257 -0.4248  0.1419  2.1011
    1PC     C11 5113  -0.187   0.140   6.386 -0.4052  0.7660  0.0415
    1PC     O12 5114  -0.135   0.247   6.409 -0.5743  0.4468 -0.3843
    1PC     O11 5115  -0.202   0.045   6.487  0.3378  0.3851  0.6192
    1PC      C1 5116  -0.146   0.069   6.618 -1.1424 -0.0731  0.0991
    1PC      HR 5117  -0.185  -0.008   6.684 -1.6151  0.4496  0.4271
    1PC      HS 5118  -0.037   0.063   6.623 -1.0059  1.6076 -0.3879
    1PC      C2 5119  -0.186   0.200   6.696 -0.2416  0.1666  0.4663
    1PC      HX 5120  -0.144   0.292   6.653 -0.0135  0.7891  2.0167
    1PC      C3 5121  -0.129   0.194   6.840  0.4725 -0.8713  0.8932
    1PC      HA 5122  -0.021   0.178   6.844  0.3198 -1.4908  3.4180
    1PC      HB 5123  -0.143   0.294   6.882 -0.6451 -0.4407 -0.4779
    1PC     O31 5124  -0.196   0.093   6.922  0.3246  0.0405 -0.0517
    1PC     P31 5125  -0.142   0.056   7.068  0.3274 -0.2328 -0.1922
    1PC     O32 5126  -0.213   0.167   7.168 -0.2084  0.6678  0.6181
    1PC     C31 5127  -0.354   0.172   7.169 -0.2181  0.0719 -0.5506
    1PC     H1A 5128  -0.397   0.124   7.080 -2.0604  0.2522  0.2076
    1PC     H1B 5129  -0.402   0.120   7.253 -0.1352 -1.1060 -1.2083
    1PC     C32 5130  -0.392   0.318   7.167 -0.0476 -1.0471 -0.0496
    1PC     H2A 5131  -0.391   0.351   7.271 -0.5086  1.1247 -0.6986
    1PC     H2B 5132  -0.315   0.374   7.114 -0.0245 -1.5717 -0.5781
    1PC     N31 5133  -0.536   0.363   7.121  0.3207 -0.3584  0.2949
    1PC     C33 5134  -0.535   0.508   7.158 -0.3392 -0.2199  0.3940
    1PC     H3A 5135  -0.533   0.521   7.266  0.5997 -1.2595  0.5135
    1PC     H3B 5136  -0.438   0.540   7.119 -1.3767  1.1550 -1.1240
    1PC     H3C 5137  -0.620   0.562   7.115 -0.3634  0.3013  1.0828
    1PC     C34 5138  -0.561   0.360   6.978 -0.0079 -0.2817  0.0574
    1PC     H4A 5139  -0.473   0.405   6.932 -1.0157  2.9415  1.1732
    1PC     H4B 5140  -0.583   0.257   6.947  0.3180 -1.2893  3.0538
    1PC     H4C 5141  -0.640   0.433   6.962  2.1069  1.6059 -2.2081
    1PC     C35 5142  -0.656   0.295   7.190  0.0944  0.5450 -0.4829
    1PC     H5A 5143  -0.635   0.329   7.292  0.5718 -2.0524  0.3230
    1PC     H5B 5144  -0.648   0.186   7.194  2.4511  0.7396  0.9504
    1PC     H5C 5145  -0.753   0.330   7.154  0.6723  2.0196 -0.6174
    1PC     O33 5146  -0.200  -0.075   7.109  0.5072  0.0670  0.5227
    1PC     O34 5147   0.003   0.073   7.072 -0.4021  0.0336 -0.1150
    1PC     O21 5148  -0.327   0.203   6.686  0.0471 -0.2024 -0.0722
    1PC     C21 5149  -0.377   0.326   6.655 -0.0946 -0.0667  0.1508
    1PC     O22 5150  -0.316   0.430   6.655  0.2475 -0.0190 -0.3462
    1OL     C12 5151  -0.524   0.329   6.616  0.3759 -0.0822  0.0587
    1OL     H2R 5152  -0.582   0.277   6.693 -2.3922 -0.3126 -2.1145
    1OL     H2S 5153  -0.528   0.275   6.522  1.6098  1.7373 -1.0729
    1OL     C13 5154  -0.575   0.474   6.612 -0.0952 -0.0939  0.2811
    1OL     H3R 5155  -0.511   0.538   6.550 -1.6400 -0.5034 -1.7868
    1OL     H3S 5156  -0.575   0.518   6.712 -1.8143  0.1611  0.1731
    1OL     C14 5157  -0.719   0.470   6.563 -0.4984 -0.0059  0.0680
    1OL     H4R 5158  -0.729   0.424   6.465 -2.3311 -1.1437  0.7704
    1OL     H4S 5159  -0.750   0.574   6.550  1.1418  0.4983  0.0482
    1OL     C15 5160  -0.828   0.408   6.656  0.0834  0.0927  0.1719
    1OL     H5R 5161  -0.831   0.453   6.755 -1.3130 -0.1056  0.2335
    1OL     H5S 5162  -0.809   0.305   6.686 -1.0795 -0.7287 -1.8197
    1OL     C16 5163  -0.974   0.425   6.600 -0.3351 -0.0562 -0.4594
    1OL     H6R 5164  -0.968   0.517   6.542  0.7370 -0.7730 -1.5132
    1OL     H6S 5165  -1.040   0.448   6.684  1.2529 -0.3694  0.9018
    1OL     C17 5166  -1.026   0.312   6.508 -0.7089 -0.1799  0.5468
    1OL     H7R 5167  -1.133   0.314   6.487 -0.5003  1.7112 -0.4208
    1OL     H7S 5168  -1.029   0.216   6.561 -1.9392 -0.8452 -0.6874
    1OL     C18 5169  -0.959   0.291   6.370 -0.6543  0.2009 -0.0396
    1OL     H8R 5170  -1.008   0.203   6.328  0.2630  0.3799 -1.5094
    1OL     H8S 5171  -0.856   0.265   6.395 -1.0459  1.5059  3.1257
    1OL     C19 5172  -0.983   0.401   6.266 -0.2166 -0.0717  0.0575
    1OL     H9R 5173  -1.087   0.434   6.259 -0.3272 -0.3055  0.6407
    1OL    C110 5174  -0.892   0.464   6.191  0.9196 -0.2784 -0.4771
    1OL    H10R 5175  -0.928   0.544   6.126 -0.4145 -1.2930 -1.0299
    1OL    C111 5176  -0.754   0.426   6.170 -1.0718 -0.3205 -0.2690
    1OL    H11R 5177  -0.710   0.352   6.237 -0.4490 -0.1770 -0.5098
    1OL    H11S 5178  -0.693   0.517   6.176  0.9274 -1.5654 -1.1987
    1OL    C112 5179  -0.736   0.379   6.025 -0.0281  0.2596 -0.1705
    1OL    H12R 5180  -0.774   0.462   5.965 -1.4620  0.2610  0.7329
    1OL    H12S 5181  -0.813   0.304   6.006  0.2736  0.1879 -1.1452
    1OL    C113 5182  -0.600   0.327   5.981 -0.6065 -0.1248  0.0295
    1OL    H13R 5183  -0.569   0.234   6.028  1.0395  0.2882 -0.2221
    1OL    H13S 5184  -0.525   0.403   6.002  0.2207 -1.0320  0.3688
    1OL    C114 5185  -0.606   0.287   5.831  0.5077  0.2423  0.0473
    1OL    H14R 5186  -0.504   0.256   5.810  0.6552  1.1060 -0.5195
    1OL    H14S 5187  -0.629   0.374   5.769 -0.5895 -0.0588  0.0101
    1OL    C115 5188  -0.697   0.162   5.815  0.4095 -0.0996 -0.1003
    1OL    H15R 5189  -0.796   0.193   5.850  0.7129  0.9299 -0.1180
    1OL    H15S 5190  -0.652   0.090   5.883  0.7739  0.8649  0.7041
    1OL    C116 5191  -0.704   0.116   5.669  0.5654 -0.0004 -0.1762
    1OL    H16R 5192  -0.606   0.087   5.631  0.4178 -1.0189  0.2001
    1OL    H16S 5193  -0.736   0.194   5.600  1.8751 -0.9528 -1.8894
    1OL    C117 5194  -0.810   0.003   5.658  0.5290  0.1854  0.3576
    1OL    H17R 5195  -0.907   0.047   5.682  0.5053 -0.1605  0.8922
    1OL    H17S 5196  -0.789  -0.088   5.713  0.2422 -0.5051 -0.6648
    1OL    C118 5197  -0.810  -0.048   5.511  0.1005  0.7062 -0.0454
    1OL    H18R 5198  -0.823   0.038   5.445  1.1351 -0.2549 -1.5317
    1OL    H18S 5199  -0.876  -0.134   5.498  0.0091  0.4556  1.9616
    1OL    H18T 5200  -0.708  -0.080   5.488  0.3653  0.2187  1.7772
    1PA    C116 5201   0.863   0.262   5.154 -0.7246  0.3362 -0.2492
    1PA    H16R 5202   0.954   0.210   5.126 -0.4912  0.3710  0.4275
    1PA    H16S 5203   0.811   0.266   5.059  0.2955 -2.6373 -0.9808
    1PA    H16T 5204   0.788   0.203   5.207  0.9074  0.7244  2.6216
    1PA    C115 5205   0.897   0.400   5.210 -0.4861  0.0043  0.4191
    1PA    H15R 5206   0.942   0.459   5.130 -1.1205 -0.3905 -0.2397
    1PA    H15S 5207   0.803   0.450   5.231  0.3610  1.4348  0.8710
    1PA    C114 5208   0.986   0.393   5.337 -0.2901 -0.5147 -0.3942
    1PA    H14R 5209   1.078   0.338   5.315 -1.3862 -2.2055 -0.8750
    1PA    H14S 5210   1.008   0.496   5.365 -0.1124 -1.0152  1.3812
    1PA    C113 5211   0.918   0.318   5.459 -0.1697  0.0414 -0.5140
    1PA    H13R 5212   0.906   0.216   5.421  0.2632 -0.7588  1.4184
    1PA    H13S 5213   0.992   0.311   5.539  0.8848  0.9377 -1.3994
    1PA    C112 5214   0.778   0.377   5.519  0.1772  0.1113  0.2469
    1PA    H12R 5215   0.702   0.357   5.443  0.3936  1.2995 -0.3003
    1PA    H12S 5216   0.759   0.324   5.613 -0.5761  2.8953  1.7274
    1PA    C111 5217   0.788   0.530   5.565  0.2854  0.1440 -0.6487
    1PA    H11R 5218   0.807   0.588   5.474 -1.4019  0.4150 -0.8593
    1PA    H11S 5219   0.688   0.555   5.603  1.1364 -0.0653  1.8108
    1PA    C110 5220   0.888   0.554   5.675 -0.0132 -0.3039  0.2388
    1PA    H10R 5221   0.988   0.533   5.638  0.7069  1.3737  1.2046
    1PA    H10S 5222   0.883   0.662   5.690 -1.3267 -0.4071  0.6142
    1PA     C19 5223   0.861   0.474   5.802 -0.2433  0.2195  0.1288
    1PA     H9R 5224   0.755   0.474   5.825 -0.2168 -0.2005  0.2613
    1PA     H9S 5225   0.888   0.369   5.788  1.3477  0.5379  0.6498
    1PA     C18 5226   0.941   0.533   5.920  0.5564 -0.0315  0.3714
    1PA     H8R 5227   1.043   0.555   5.888  0.4461  0.1411  0.1383
    1PA     H8S 5228   0.900   0.631   5.947  0.6907 -0.1643  1.0779
    1PA     C17 5229   0.937   0.449   6.047  0.2554  0.0808 -0.0508
    1PA     H7R 5230   0.834   0.433   6.078  0.3281 -1.0579 -0.3939
    1PA     H7S 5231   0.997   0.359   6.036 -2.0630 -1.3740 -1.1351
    1PA     C16 5232   0.998   0.529   6.163 -0.6559 -0.2614  0.7019
    1PA     H6R 5233   1.099   0.546   6.125 -1.6066  3.5234 -0.3692
    1PA     H6S 5234   0.947   0.623   6.181  0.1314  0.3440 -0.2002
    1PA     C15 5235   1.006   0.451   6.291 -0.7404 -0.1325  0.1686
    1PA     H5R 5236   0.903   0.430   6.323 -1.5689  2.2967 -0.7646
    1PA     H5S 5237   1.056   0.356   6.274  1.3775  0.9824  0.0171
    1PA     C14 5238   1.087   0.512   6.404 -0.2362  0.5058  0.0980
    1PA     H4R 5239   1.190   0.498   6.372 -1.2292 -1.7351 -2.3498
    1PA     H4S 5240   1.072   0.620   6.396 -0.1605  0.2564 -4.5334
    1PA     C13 5241   1.077   0.460   6.552 -0.1358 -0.6088 -0.1228
    1PA     H3R 5242   1.162   0.503   6.605 -1.0326  2.8475 -1.3573
    1PA     H3S 5243   0.980   0.485   6.595 -0.0892  0.6607 -0.7439
    1PA     C12 5244   1.097   0.309   6.551 -0.7180  0.0285  0.2130
    1PA     H2R 5245   1.033   0.252   6.484 -1.0666 -0.7066  1.1546
    1PA     H2S 5246   1.200   0.290   6.521 -0.0805 -0.8052  2.8240
    1PC     C11 5247   1.082   0.246   6.688  0.1201 -0.1977 -0.0739
    1PC     O12 5248   1.157   0.282   6.779  0.5156  0.1233  0.2007
    1PC     O11 5249   0.977   0.157   6.708  0.0195 -0.5466  0.3509
    1PC      C1 5250   0.963   0.085   6.834  0.2178  0.1632 -0.0577
    1PC      HR 5251   0.881   0.013   6.821  1.9940 -1.6637 -1.5462
    1PC      HS 5252   1.051   0.027   6.866 -0.4805 -0.7224  0.2924
    1PC      C2 5253   0.916   0.180   6.948  0.4838 -0.1345  0.1594
    1PC      HX 5254   0.989   0.260   6.956  2.4538 -1.8730  0.0748
    1PC      C3 5255   0.914   0.104   7.080 -0.0286  0.0259  0.1538
    1PC      HA 5256   0.828   0.039   7.094  1.9743 -2.7247  0.0523
    1PC      HB 5257   0.993   0.029   7.083  0.4242  0.5400  2.1681
    1PC     O31 5258   0.945   0.187   7.200 -0.6847  0.1369 -0.2051
    1PC     P31 5259   0.835   0.288   7.265  0.1672 -0.0451  0.2746
    1PC     O32 5260   0.833   0.415   7.165  0.4133  0.5387 -0.2095
    1PC     C31 5261   0.933   0.512   7.165 -0.1969 -0.5141  0.2082
    1PC     H1A 5262   1.004   0.509   7.248  0.6616  0.1404 -0.4954
    1PC     H1B 5263   1.004   0.485   7.087  0.8849 -0.0334  1.0162
    1PC     C32 5264   0.863   0.649   7.155  0.8025  0.0176 -0.0008
    1PC     H2A 5265   0.788   0.655   7.076  1.6825  2.0290 -0.7411
    1PC     H2B 5266   0.823   0.661   7.255 -0.4580  1.6131 -0.6611
    1PC     N31 5267   0.960   0.764   7.130  1.3009 -0.2788 -0.4806
    1PC     C33 5268   1.029   0.748   6.999 -0.5853 -0.2673  0.2995
    1PC     H3A 5269   1.078   0.650   6.996  2.1749  1.1160 -3.3441
    1PC     H3B 5270   0.961   0.780   6.919 -1.6057  0.0205  1.2677
    1PC     H3C 5271   1.110   0.821   7.003  0.3056 -1.2519  0.2365
    1PC     C34 5272   0.868   0.884   7.123  0.1015  0.3753 -0.0300
    1PC     H4A 5273   0.803   0.876   7.036  0.8917  1.1520 -0.7101
    1PC     H4B 5274   0.806   0.886   7.213 -0.2288 -0.4619 -0.2380
    1PC     H4C 5275   0.919   0.981   7.127 -2.4329  1.7569 -0.2757
    1PC     C35 5276   1.058   0.788   7.242  0.2645  0.4988  0.1335
    1PC     H5A 5277   1.114   0.881   7.224 -0.8224  1.2540  0.6081
    1PC     H5B 5278   1.135   0.710   7.238 -1.0758 -0.8266 -0.1000
    1PC     H5C 5279   1.026   0.784   7.346  0.6516  3.3452  0.3985
    1PC     O33 5280   0.702   0.222   7.253  0.4615 -0.2603 -0.5676
    1PC     O34 5281   0.872   0.341   7.395 -0.5946  0.6486 -0.2215
    1PC     O21 5282   0.778   0.224   6.927 -0.1188  0.4430 -0.6591
    1PC     C21 5283   0.758   0.342   6.866 -0.2361 -0.6479 -1.0831
    1PC     O22 5284   0.844   0.424   6.852 -0.4602 -0.0994  0.1299
    1OL     C12 5285   0.618   0.367   6.821  0.4373 -0.5181  0.1536
    1OL     H2R 5286   0.591   0.473   6.821  0.3424 -0.5346 -0.8087
    1OL     H2S 5287   0.553   0.306   6.883  0.4361  0.0732  0.7347
    1OL     C13 5288   0.596   0.306   6.678 -0.0562 -0.7474 -0.4465
    1OL     H3R 5289   0.487   0.315   6.667 -0.2601 -0.2403  1.6912
    1OL     H3S 5290   0.620   0.200   6.677 -0.7341 -0.8976 -1.8806
    1OL     C14 5291   0.666   0.378   6.565 -0.6687 -0.2370 -0.6611
    1OL     H4R 5292   0.647   0.326   6.471 -0.7762  0.6332 -1.1211
    1OL     H4S 5293   0.775   0.374   6.576 -0.9634 -2.1208  2.3496
    1OL     C15 5294   0.629   0.530   6.552 -0.1316 -0.2497  0.0705
    1OL     H5R 5295   0.670   0.578   6.641  0.5319  0.5630 -0.6683
    1OL     H5S 5296   0.521   0.545   6.551  0.1138  1.8907  1.8284
    1OL     C16 5297   0.694   0.600   6.435  0.3624  0.5746  0.2743
    1OL     H6R 5298   0.687   0.544   6.342  0.1996 -0.8053  1.1131
    1OL     H6S 5299   0.801   0.620   6.451 -0.1283  2.5733  1.3120
    1OL     C17 5300   0.644   0.743   6.416 -0.1032  0.0248 -0.9069
    1OL     H7R 5301   0.652   0.799   6.509  0.6491  1.6303 -1.9148
    1OL     H7S 5302   0.537   0.751   6.395  0.1778  1.2363 -1.9600
    1OL     C18 5303   0.714   0.815   6.304  0.0744 -0.1479  0.0845
    1OL     H8R 5304   0.678   0.784   6.205 -0.5623  0.5338  0.0886
    1OL     H8S 5305   0.817   0.781   6.311  0.0907 -0.0420  0.3410
    1OL     C19 5306   0.711   0.966   6.320 -0.5386 -0.9777 -0.2542
    1OL     H9R 5307   0.736   0.999   6.420 -0.9234  0.1622 -0.5253
    1OL    C110 5308   0.703   1.054   6.221 -0.1481  0.0196  0.4992
    1OL    H10R 5309   0.722   1.157   6.248  0.1603  0.1783 -0.3200
    1OL    C111 5310   0.700   1.017   6.077  0.4620  0.5015  0.2537
    1OL    H11R 5311   0.655   1.101   6.023  1.2785 -0.1162 -1.4440
    1OL    H11S 5312   0.632   0.933   6.061  2.1388 -1.0854  1.3357
    1OL    C112 5313   0.846   1.001   6.017 -0.1731 -0.1473 -0.1266
    1OL    H12R 5314   0.899   0.930   6.080 -1.2252  0.1437  1.1203
    1OL    H12S 5315   0.895   1.097   6.036 -0.9374  0.4528 -1.1561
    1OL    C113 5316   0.867   0.950   5.870  0.4440  0.0247 -1.1381
    1OL    H13R 5317   0.798   0.987   5.793  1.9693  2.2104 -1.4947
    1OL    H13S 5318   0.862   0.841   5.869 -0.7467  0.0724 -1.0007
    1OL    C114 5319   1.010   0.987   5.823 -0.0817 -0.2781 -0.3437
    1OL    H14R 5320   1.087   0.944   5.887 -0.3944 -1.1254 -0.5335
    1OL    H14S 5321   1.028   1.095   5.831 -1.0496 -0.1792  0.6338
    1OL    C115 5322   1.040   0.946   5.682  0.9556  0.2256  0.1717
    1OL    H15R 5323   0.972   1.005   5.619  0.9192 -0.8925 -0.8462
    1OL    H15S 5324   1.005   0.843   5.672 -1.0616  0.9440 -0.4604
    1OL    C116 5325   1.183   0.973   5.648  0.2955  0.0603  0.2057
    1OL    H16R 5326   1.242   0.912   5.717  0.8033 -1.3154 -1.4078
    1OL    H16S 5327   1.204   1.079   5.660  0.2765 -0.0615  1.3469
    1OL    C117 5328   1.225   0.929   5.504 -0.7965  0.6164 -0.0650
    1OL    H17R 5329   1.164   0.975   5.426 -2.4329 -1.4497 -0.0311
    1OL    H17S 5330   1.204   0.822   5.512 -3.2391  1.0927  0.3829
    1OL    C118 5331   1.376   0.939   5.478  0.0535 -0.1008  0.4803
    1OL    H18R 5332   1.423   0.847   5.441 -0.5304 -0.2751  0.1699
    1OL    H18S 5333   1.440   0.932   5.566  3.5479 -0.0874 -1.9318
    1OL    H18T 5334   1.404   1.016   5.405 -0.7927 -0.8363 -0.6358
    1PA    C116 5335   4.890   0.474   5.027 -0.1465  0.0682  0.0907
    1PA    H16R 5336   4.834   0.562   5.060  0.4509 -0.3673  2.3307
    1PA    H16S 5337   4.815   0.398   5.006  1.3339 -1.1845 -0.7179
    1PA    H16T 5338   4.952   0.497   4.941 -0.2603  1.5868  0.3822
    1PA    C115 5339   4.975   0.407   5.133 -0.3467 -0.3477 -0.5200
    1PA    H15R 5340   5.071   0.460   5.140  0.2949 -1.6315  0.7922
    1PA    H15S 5341   4.921   0.417   5.227 -0.2962  1.2491 -0.6561
    1PA    C114 5342   5.005   0.257   5.090 -0.3704 -1.0994 -0.3461
    1PA    H14R 5343   4.918   0.209   5.045 -0.1197 -0.8193 -1.1427
    1PA    H14S 5344   5.086   0.263   5.016  0.7096 -0.1546  0.9023
    1PA    C113 5345   5.059   0.177   5.210  0.2676  0.3281 -0.2107
    1PA    H13R 5346   5.090   0.078   5.178  0.8580 -0.1184  1.6836
    1PA    H13S 5347   5.141   0.232   5.257  0.5234  2.0213 -2.5589
    1PA    C112 5348   4.961   0.159   5.327 -0.0373 -0.1243 -0.0646
    1PA    H12R 5349   4.927   0.256   5.365  1.6725  0.2619  0.5234
    1PA    H12S 5350   4.873   0.101   5.299  1.0867 -2.8819  1.9193
    1PA    C111 5351   5.039   0.096   5.437  0.2344  0.4875  0.2813
    1PA    H11R 5352   5.088   0.011   5.389 -2.3044 -1.1498  0.5104
    1PA    H11S 5353   5.109   0.157   5.496 -0.5129  0.0412  1.6418
    1PA    C110 5354   4.952   0.028   5.551  0.4178 -0.1257  0.5693
    1PA    H10R 5355   4.894   0.109   5.595  0.9497  1.3775 -1.4304
    1PA    H10S 5356   4.883  -0.040   5.501  1.1274 -1.4254  1.3230
    1PA     C19 5357   5.039  -0.060   5.641  0.0895 -0.4320 -0.5160
    1PA     H9R 5358   5.075  -0.140   5.576 -1.5170 -0.9289 -0.8284
    1PA     H9S 5359   5.126  -0.004   5.674 -0.8471  0.4689  0.4777
    1PA     C18 5360   4.962  -0.121   5.760  0.1781 -0.2691 -0.2612
    1PA     H8R 5361   4.899  -0.045   5.808  0.1593  0.6465 -1.7169
    1PA     H8S 5362   4.889  -0.197   5.731  1.9868 -2.5012  0.8742
    1PA     C17 5363   5.054  -0.188   5.866 -0.8055 -0.6865  1.0407
    1PA     H7R 5364   5.111  -0.275   5.835 -2.1979 -1.9946  2.1154
    1PA     H7S 5365   5.131  -0.120   5.905 -3.3022  3.0557 -0.2717
    1PA     C16 5366   4.984  -0.236   5.994  0.1523 -0.4406  0.2751
    1PA     H6R 5367   4.915  -0.160   6.030 -0.8080 -1.5591  0.8017
    1PA     H6S 5368   4.926  -0.324   5.969 -1.5242  0.1448  2.0526
    1PA     C15 5369   5.077  -0.284   6.110  0.6583  0.2964 -0.1121
    1PA     H5R 5370   5.138  -0.370   6.083 -1.5720 -1.6487  0.8547
    1PA     H5S 5371   5.151  -0.209   6.139  0.4768 -0.3114  2.0052
    1PA     C14 5372   5.004  -0.333   6.240  0.0964  0.2029  0.0049
    1PA     H4R 5373   4.937  -0.255   6.278  1.2209  0.5930  1.2429
    1PA     H4S 5374   4.937  -0.415   6.214  0.9383 -0.8153  1.0124
    1PA     C13 5375   5.085  -0.388   6.355  0.4604  0.0634 -0.5969
    1PA     H3R 5376   5.019  -0.439   6.425 -1.2133  1.0427 -1.4247
    1PA     H3S 5377   5.148  -0.472   6.325 -0.3468  0.1328 -2.6090
    1PA     C12 5378   5.171  -0.286   6.426 -0.1140 -0.5956  0.4871
    1PA     H2R 5379   5.242  -0.241   6.357  0.2736 -1.6379  0.1912
    1PA     H2S 5380   5.102  -0.208   6.460 -0.3296 -0.3775 -0.4477
    1PC     C11 5381   5.248  -0.350   6.541 -0.1212 -0.0291  0.4185
    1PC     O12 5382   5.248  -0.469   6.569 -0.4051  0.0410  0.1515
    1PC     O11 5383   5.314  -0.254   6.610  0.1676  0.0272 -0.3538
    1PC      C1 5384   5.359  -0.291   6.738  0.2351  0.2577  0.1510
    1PC      HR 5385   5.413  -0.386   6.732 -0.4158 -0.1277  0.2617
    1PC      HS 5386   5.436  -0.223   6.777  0.8848 -1.2225  1.5144
    1PC      C2 5387   5.237  -0.288   6.834  0.1536 -0.2490  1.3723
    1PC      HX 5388   5.172  -0.201   6.823  0.0733 -0.4363  0.3294
    1PC      C3 5389   5.281  -0.296   6.980  0.1467  0.9249  0.3767
    1PC      HA 5390   5.324  -0.198   7.003  1.4547 -0.0734  2.2122
    1PC      HB 5391   5.198  -0.310   7.049 -0.7700  3.2360 -0.1958
    1PC     O31 5392   5.390  -0.386   7.005 -0.3749 -0.7144  0.0964
    1PC     P31 5393   5.418  -0.448   7.145 -0.0565 -0.1380  0.1520
    1PC     O32 5394   5.308  -0.562   7.157 -0.1281  0.2142  0.0400
    1PC     C31 5395   5.327  -0.688   7.088 -0.8192  0.0937  0.0991
    1PC     H1A 5396   5.434  -0.710   7.096 -0.7059  0.4553 -0.4329
    1PC     H1B 5397   5.266  -0.751   7.154 -1.7675  0.8628 -0.0329
    1PC     C32 5398   5.280  -0.678   6.942  0.0822 -0.1029 -0.1238
    1PC     H2A 5399   5.175  -0.650   6.935  0.7270  1.6075 -4.6951
    1PC     H2B 5400   5.340  -0.608   6.884 -0.1230 -1.6817 -2.2866
    1PC     N31 5401   5.277  -0.792   6.857 -0.4771  0.1459 -0.4253
    1PC     C33 5402   5.189  -0.898   6.909  0.4611  0.2288 -0.1700
    1PC     H3A 5403   5.165  -0.953   6.818 -0.4133 -0.3956  0.4392
    1PC     H3B 5404   5.239  -0.956   6.987  0.7105 -1.0890 -1.2791
    1PC     H3C 5405   5.101  -0.840   6.935 -0.0241 -0.8643  0.6230
    1PC     C34 5406   5.228  -0.745   6.726 -0.0749  0.1097  0.3542
    1PC     H4A 5407   5.292  -0.670   6.681  0.0743  0.8659  1.8061
    1PC     H4B 5408   5.245  -0.825   6.653  1.1359  0.0591  0.6912
    1PC     H4C 5409   5.130  -0.698   6.723  0.7216  1.7328 -0.7408
    1PC     C35 5410   5.406  -0.864   6.861  0.0360 -0.5492 -1.0559
    1PC     H5A 5411   5.486  -0.801   6.822 -0.8700  0.7749 -0.8225
    1PC     H5B 5412   5.386  -0.954   6.803  1.1875 -0.7865 -1.0994
    1PC     H5C 5413   5.429  -0.877   6.967 -0.4473  0.6903 -0.7862
    1PC     O33 5414   5.546  -0.518   7.141  0.0387 -0.2652  0.4908
    1PC     O34 5415   5.382  -0.354   7.253 -0.4391 -0.3616  0.2619
    1PC     O21 5416   5.158  -0.409   6.809  0.0701  0.0061  0.5142
    1PC     C21 5417   5.034  -0.390   6.762 -0.6965  0.4461 -0.0509
    1PC     O22 5418   4.992  -0.279   6.739  0.0228 -0.0012 -0.2050
    1OL     C12 5419   4.954  -0.512   6.727 -0.3786  0.3671  0.1248
    1OL     H2R 5420   4.943  -0.577   6.814 -2.9680  0.7711  0.1265
    1OL     H2S 5421   5.005  -0.556   6.641  1.5024 -1.0127  1.8742
    1OL     C13 5422   4.808  -0.482   6.691 -0.3040 -0.4487  0.3422
    1OL     H3R 5423   4.792  -0.434   6.594 -0.0744  0.3213  0.6763
    1OL     H3S 5424   4.769  -0.401   6.754  0.7561 -0.1817  0.6752
    1OL     C14 5425   4.705  -0.603   6.689 -0.1123 -0.6863  0.4668
    1OL     H4R 5426   4.679  -0.634   6.791  1.5665  0.1524  1.1750
    1OL     H4S 5427   4.747  -0.685   6.631  0.5229 -0.6053  0.8014
    1OL     C15 5428   4.572  -0.570   6.615  0.7480  0.6777 -0.4937
    1OL     H5R 5429   4.510  -0.528   6.693  0.3681  0.5557 -0.7294
    1OL     H5S 5430   4.525  -0.665   6.587  3.6058 -0.7270 -0.7803
    1OL     C16 5431   4.561  -0.470   6.492 -0.3038  0.4990  0.5514
    1OL     H6R 5432   4.608  -0.374   6.519  1.4609 -0.4784  1.0405
    1OL     H6S 5433   4.455  -0.452   6.473 -0.2916  1.0465  0.9831
    1OL     C17 5434   4.626  -0.509   6.362  0.0361 -0.3374  0.0066
    1OL     H7R 5435   4.732  -0.530   6.371  0.0649  0.6139  2.3205
    1OL     H7S 5436   4.615  -0.423   6.295  0.7852  0.2802  0.6721
    1OL     C18 5437   4.556  -0.634   6.310 -0.0060  0.2279  0.4781
    1OL     H8R 5438   4.554  -0.710   6.388 -1.0324  0.5496  0.7759
    1OL     H8S 5439   4.614  -0.659   6.221  0.3537  1.7608  0.2627
    1OL     C19 5440   4.416  -0.587   6.264 -0.9072  0.0027  0.4531
    1OL     H9R 5441   4.350  -0.570   6.348 -0.2126 -1.6192  1.3575
    1OL    C110 5442   4.370  -0.598   6.138  0.1670 -0.0560 -0.1073
    1OL    H10R 5443   4.265  -0.577   6.120 -0.1015 -0.4283  0.9824
    1OL    C111 5444   4.448  -0.638   6.015 -0.7759  0.9185  0.3157
    1OL    H11R 5445   4.368  -0.667   5.946  0.5859 -0.1377 -0.8600
    1OL    H11S 5446   4.510  -0.724   6.042 -2.7571 -0.3308  0.9229
    1OL    C112 5447   4.533  -0.523   5.953  0.6875  0.0401 -0.1761
    1OL    H12R 5448   4.628  -0.511   6.004  0.6798 -0.0009 -0.1523
    1OL    H12S 5449   4.485  -0.426   5.960  0.9739  0.1386  0.4167
    1OL    C113 5450   4.567  -0.553   5.804  0.3396  0.6224 -0.0325
    1OL    H13R 5451   4.470  -0.563   5.754  0.0878  2.6550 -0.0002
    1OL    H13S 5452   4.608  -0.651   5.778 -1.6765 -0.3582  0.3540
    1OL    C114 5453   4.643  -0.442   5.738 -0.7015  0.0241  0.1596
    1OL    H14R 5454   4.731  -0.425   5.801 -0.0122  2.4747 -1.4132
    1OL    H14S 5455   4.576  -0.356   5.735 -0.7985 -0.0126  0.9595
    1OL    C115 5456   4.677  -0.479   5.594 -0.0747 -0.1364  0.4433
    1OL    H15R 5457   4.589  -0.484   5.529 -0.1336  0.8587  0.4423
    1OL    H15S 5458   4.717  -0.581   5.586 -0.3419 -0.3883  2.1739
    1OL    C116 5459   4.778  -0.374   5.539 -0.0311 -0.5786 -0.0999
    1OL    H16R 5460   4.869  -0.376   5.598 -0.4168  0.9226  0.5692
    1OL    H16S 5461   4.738  -0.274   5.557 -2.2220 -1.1427 -1.5063
    1OL    C117 5462   4.823  -0.384   5.396 -0.3750 -1.5128 -0.0841
    1OL    H17R 5463   4.888  -0.473   5.390 -1.0709 -2.0273 -0.0226
    1OL    H17S 5464   4.899  -0.310   5.372  0.8239 -2.5933  0.2606
    1OL    C118 5465   4.720  -0.383   5.274 -0.1243  0.0231 -0.4621
    1OL    H18R 5466   4.671  -0.286   5.264 -1.0234 -0.1908  1.5298
    1OL    H18S 5467   4.649  -0.465   5.289  0.2701 -0.1042  0.7290
    1OL    H18T 5468   4.774  -0.415   5.185  0.6447 -0.9058  0.3246
    1PA    C116 5469   0.085   3.507   5.470 -0.9910 -0.2530  0.0914
    1PA    H16R 5470   0.099   3.429   5.394  1.3287 -1.5066  1.7464
    1PA    H16S 5471   0.154   3.497   5.554  0.7989  2.0968 -1.0361
    1PA    H16T 5472   0.091   3.603   5.418 -0.5917 -0.8926 -1.0723
    1PA    C115 5473  -0.053   3.493   5.524 -0.1333 -0.0704 -0.2072
    1PA    H15R 5474  -0.117   3.488   5.435  1.4910  2.4784 -1.5934
    1PA    H15S 5475  -0.058   3.397   5.575 -0.7640 -0.3377 -0.7660
    1PA    C114 5476  -0.115   3.581   5.626  0.2040 -0.0246  0.2966
    1PA    H14R 5477  -0.128   3.676   5.573  1.5810  0.2363  0.4008
    1PA    H14S 5478  -0.217   3.556   5.656 -0.3186  1.7039  0.0257
    1PA    C113 5479  -0.016   3.596   5.749  0.1662  0.1106 -0.1708
    1PA    H13R 5480  -0.019   3.511   5.818 -1.5751 -1.6618 -2.3184
    1PA    H13S 5481   0.087   3.609   5.718  0.2368 -0.1370 -0.0462
    1PA    C112 5482  -0.062   3.709   5.837  0.1277 -0.5325 -0.4678
    1PA    H12R 5483   0.009   3.708   5.920 -1.0494 -1.9582  0.5579
    1PA    H12S 5484  -0.039   3.803   5.787 -0.6228  0.4187  0.9368
    1PA    C111 5485  -0.208   3.718   5.886 -0.4213 -0.0318  0.0555
    1PA    H11R 5486  -0.230   3.810   5.940 -0.1679 -0.2809  0.5829
    1PA    H11S 5487  -0.270   3.722   5.796  0.2684 -0.2553 -0.4352
    1PA    C110 5488  -0.252   3.593   5.959 -0.0423 -0.4248  0.1815
    1PA    H10R 5489  -0.356   3.598   5.991  0.0646 -1.3065  0.6920
    1PA    H10S 5490  -0.253   3.501   5.899  0.4584 -0.6289  0.4806
    1PA     C19 5491  -0.158   3.569   6.079  0.1919  0.0137  0.5510
    1PA     H9R 5492  -0.196   3.494   6.149 -1.4591  2.4804  2.4089
    1PA     H9S 5493  -0.058   3.547   6.043 -1.1043 -0.1851 -3.1407
    1PA     C18 5494  -0.154   3.699   6.170 -0.3355  0.3634 -0.1419
    1PA     H8R 5495  -0.111   3.780   6.110  0.5137 -1.3451 -1.9110
    1PA     H8S 5496  -0.255   3.735   6.188 -0.6037 -0.2843 -0.3369
    1PA     C17 5497  -0.083   3.696   6.304 -0.0450 -0.2306 -0.1313
    1PA     H7R 5498   0.016   3.649   6.299 -0.0178 -0.0746 -1.0370
    1PA     H7S 5499  -0.064   3.798   6.337  2.6140 -1.2160  1.6515
    1PA     C16 5500  -0.158   3.628   6.414 -0.3459 -0.1581  1.3489
    1PA     H6R 5501  -0.265   3.651   6.407 -0.4019 -0.9102 -0.5130
    1PA     H6S 5502  -0.160   3.520   6.395 -0.8767  0.3096 -1.4031
    1PA     C15 5503  -0.100   3.661   6.552 -0.2201  0.1411  0.3712
    1PA     H5R 5504  -0.077   3.767   6.540  1.3839 -0.4177 -1.7825
    1PA     H5S 5505  -0.175   3.648   6.630  0.4566  0.3446  1.0675
    1PA     C14 5506   0.033   3.601   6.590  0.1216 -0.9340  1.2621
    1PA     H4R 5507   0.089   3.581   6.498 -2.6970  0.2167 -0.7936
    1PA     H4S 5508   0.084   3.675   6.651 -1.5893  0.7144  0.7371
    1PA     C13 5509   0.025   3.462   6.665  0.6670 -0.1350 -0.6271
    1PA     H3R 5510  -0.027   3.473   6.760  1.1519  0.8713 -0.4676
    1PA     H3S 5511  -0.031   3.393   6.602  2.5023 -2.5239  0.2542
    1PA     C12 5512   0.172   3.419   6.693 -0.1929  0.4260 -0.3611
    1PA     H2R 5513   0.212   3.406   6.592 -0.5728  0.1560 -0.4792
    1PA     H2S 5514   0.235   3.499   6.733  1.8652 -2.0685  1.5726
    1PC     C11 5515   0.186   3.295   6.770 -0.2012 -0.9526  0.0266
    1PC     O12 5516   0.098   3.257   6.849 -0.4941  0.1149 -0.3576
    1PC     O11 5517   0.296   3.231   6.738 -0.4854  0.0757 -0.0421
    1PC      C1 5518   0.343   3.125   6.817 -0.4531  0.2094 -0.6008
    1PC      HR 5519   0.346   3.160   6.920  2.2843  0.5965 -0.7655
    1PC      HS 5520   0.271   3.043   6.817  0.3151 -0.4902 -1.5216
    1PC      C2 5521   0.481   3.063   6.769  0.3916 -0.2788  0.1815
    1PC      HX 5522   0.514   2.980   6.833  1.7773  1.7005  2.1060
    1PC      C3 5523   0.602   3.163   6.779  0.1748  0.7340 -0.4917
    1PC      HA 5524   0.696   3.122   6.741 -0.0254 -0.2337  0.0288
    1PC      HB 5525   0.571   3.254   6.729 -0.8947  0.9352  0.5351
    1PC     O31 5526   0.645   3.197   6.916 -0.0705 -0.0663  0.2996
    1PC     P31 5527   0.686   3.094   7.022 -0.6408  0.7104  0.1590
    1PC     O32 5528   0.546   3.067   7.101 -0.0136 -0.7453  0.2161
    1PC     C31 5529   0.483   3.177   7.170  0.2870 -0.2580 -0.9047
    1PC     H1A 5530   0.556   3.245   7.215  0.4392  0.4295 -2.1618
    1PC     H1B 5531   0.431   3.241   7.097 -1.1666 -1.1378 -0.6530
    1PC     C32 5532   0.378   3.124   7.268  0.3172 -0.0462 -0.2703
    1PC     H2A 5533   0.352   3.222   7.308  0.8780 -0.9926  2.6076
    1PC     H2B 5534   0.299   3.071   7.215  0.6819 -0.1809 -0.6839
    1PC     N31 5535   0.418   3.017   7.377  0.1883  0.0926  0.5365
    1PC     C33 5536   0.521   3.068   7.474  0.4422 -0.1564 -0.5133
    1PC     H3A 5537   0.615   3.091   7.423 -0.2041  2.3733 -0.5972
    1PC     H3B 5538   0.481   3.157   7.522  0.3827 -1.1350  1.2824
    1PC     H3C 5539   0.538   2.988   7.547  0.2356 -1.5282 -1.9405
    1PC     C34 5540   0.304   2.989   7.460  0.2947 -0.5191  0.4738
    1PC     H4A 5541   0.235   2.927   7.403  2.9571 -2.6323 -0.5744
    1PC     H4B 5542   0.332   2.946   7.556 -0.5160  1.2738  1.5367
    1PC     H4C 5543   0.254   3.084   7.480  0.7418  0.2660 -1.9709
    1PC     C35 5544   0.471   2.884   7.315  0.6952  0.3929  0.4317
    1PC     H5A 5545   0.495   2.809   7.391 -0.1077 -0.8420 -0.5040
    1PC     H5B 5546   0.573   2.906   7.281  0.3880  2.3759  0.7446
    1PC     H5C 5547   0.405   2.837   7.242  1.6397 -2.2565  1.1993
    1PC     O33 5548   0.726   2.966   6.965 -0.5376 -0.1791  0.1629
    1PC     O34 5549   0.782   3.153   7.123 -0.0324 -0.0653 -0.2146
    1PC     O21 5550   0.458   3.023   6.627 -0.1512  0.2998  0.1977
    1PC     C21 5551   0.400   2.904   6.594 -0.4421  0.2044 -0.0587
    1PC     O22 5552   0.361   2.825   6.678  0.2522  0.1837 -0.1937
    1OL     C12 5553   0.392   2.887   6.448 -0.3113 -0.2919  0.0362
    1OL     H2R 5554   0.473   2.818   6.422  2.1402  2.4377  0.0984
    1OL     H2S 5555   0.404   2.979   6.391 -1.9266 -0.4531 -0.5753
    1OL     C13 5556   0.258   2.833   6.397  0.7901 -0.1364  0.2504
    1OL     H3R 5557   0.239   2.736   6.443 -2.1135 -0.5796 -1.7816
    1OL     H3S 5558   0.263   2.815   6.289  1.3952 -1.9593  0.5649
    1OL     C14 5559   0.137   2.926   6.432  0.0925  0.5710 -0.1187
    1OL     H4R 5560   0.142   3.023   6.381 -2.2622  1.1080  0.6032
    1OL     H4S 5561   0.127   2.949   6.538  0.8705  2.3640 -0.4091
    1OL     C15 5562   0.005   2.867   6.387 -0.5036 -0.5131  0.3518
    1OL     H5R 5563  -0.068   2.939   6.425  0.2133  0.2213  0.3730
    1OL     H5S 5564  -0.018   2.772   6.434  0.6592 -0.9362  0.1004
    1OL     C16 5565  -0.017   2.857   6.231  0.1806 -0.1820 -0.1823
    1OL     H6R 5566  -0.111   2.805   6.214  0.1715 -0.7248  1.4139
    1OL     H6S 5567   0.067   2.816   6.174 -0.3513  0.4533 -1.4263
    1OL     C17 5568  -0.032   2.998   6.169  0.9635  0.0719  0.2821
    1OL     H7R 5569   0.061   3.051   6.147  0.6223  0.5990  0.1187
    1OL     H7S 5570  -0.072   3.062   6.248 -2.1632 -1.6275  0.1491
    1OL     C18 5571  -0.127   3.008   6.040 -0.1541 -0.2808  0.1090
    1OL     H8R 5572  -0.227   2.978   6.071  0.4666 -0.2937  2.1945
    1OL     H8S 5573  -0.104   2.931   5.965 -0.3888 -0.4453  0.2053
    1OL     C19 5574  -0.127   3.143   5.981 -1.0689 -0.1279  0.1517
    1OL     H9R 5575  -0.144   3.227   6.047  1.5867  0.5009  0.0892
    1OL    C110 5576  -0.093   3.169   5.855  0.0109  0.0876 -0.2073
    1OL    H10R 5577  -0.087   3.272   5.820  2.6938  0.4421  1.2012
    1OL    C111 5578  -0.047   3.065   5.753  0.2922  0.3295  0.0525
    1OL    H11R 5579  -0.127   3.065   5.679  0.6363  0.0079 -0.3207
    1OL    H11S 5580  -0.033   2.965   5.797 -1.5541  0.4136  0.9112
    1OL    C112 5581   0.085   3.097   5.682  0.1663  0.0105 -0.8331
    1OL    H12R 5582   0.072   3.182   5.615 -1.3668  2.0170  1.8627
    1OL    H12S 5583   0.108   3.007   5.625  0.7955 -0.9732  0.9328
    1OL    C113 5584   0.216   3.116   5.759  0.2776  0.4475 -0.0006
    1OL    H13R 5585   0.198   3.212   5.807 -0.4943 -0.3019  1.2184
    1OL    H13S 5586   0.302   3.128   5.693 -0.3617  2.5382 -0.4655
    1OL    C114 5587   0.241   3.004   5.865 -0.3555  0.3471  0.1371
    1OL    H14R 5588   0.278   2.913   5.817  0.3575  0.6779  0.0502
    1OL    H14S 5589   0.145   2.972   5.905 -0.0792 -0.9230 -0.1788
    1OL    C115 5590   0.329   3.038   5.979 -0.4276 -0.9520  0.5716
    1OL    H15R 5591   0.318   2.953   6.047  0.0037 -0.5865  1.1036
    1OL    H15S 5592   0.288   3.124   6.033 -2.5563 -0.2074 -2.1277
    1OL    C116 5593   0.472   3.067   5.934 -0.0576  0.0055  0.5698
    1OL    H16R 5594   0.479   3.142   5.855  1.7373 -0.3973  0.3204
    1OL    H16S 5595   0.511   2.971   5.901 -0.8958  0.1246 -0.7920
    1OL    C117 5596   0.574   3.110   6.044 -0.3793  0.1730  0.0915
    1OL    H17R 5597   0.582   3.042   6.130 -0.4849  0.9146  0.6955
    1OL    H17S 5598   0.554   3.210   6.085  2.0754  0.1448  1.4451
    1OL    C118 5599   0.723   3.121   5.986  0.0310  0.0793 -0.0952
    1OL    H18R 5600   0.736   3.216   5.934  0.2334  0.6725  1.0362
    1OL    H18S 5601   0.793   3.113   6.070 -0.2259 -0.4495  0.0754
    1OL    H18T 5602   0.737   3.036   5.919  0.9926  0.8377 -0.8627
    1PA    C116 5603   1.120   4.663   5.164  0.1203  0.5747  0.5106
    1PA    H16R 5604   1.029   4.706   5.122  1.4558  3.3179  0.2631
    1PA    H16S 5605   1.109   4.559   5.195  0.7794 -0.0321 -1.2262
    1PA    H16T 5606   1.193   4.663   5.084 -0.8828  2.0411 -0.4350
    1PA    C115 5607   1.162   4.750   5.280  0.0295  1.1894  0.7587
    1PA    H15R 5608   1.259   4.707   5.304 -1.1213 -1.3197  1.1094
    1PA    H15S 5609   1.169   4.850   5.237  1.3686  1.7678  2.2961
    1PA    C114 5610   1.066   4.751   5.405 -0.4151  0.5046 -0.0831
    1PA    H14R 5611   0.971   4.772   5.356  0.0471  1.4248 -0.5904
    1PA    H14S 5612   1.064   4.661   5.466 -1.7394  2.0545  2.2658
    1PA    C113 5613   1.099   4.862   5.505 -1.2401 -1.1062 -0.3830
    1PA    H13R 5614   1.183   4.829   5.566 -0.7170  2.1503  0.7497
    1PA    H13S 5615   1.118   4.954   5.449  0.2945 -1.7033 -0.8547
    1PA    C112 5616   0.985   4.878   5.603  0.0186 -0.0778  0.8712
    1PA    H12R 5617   0.894   4.872   5.543 -0.5445 -0.5871  1.7584
    1PA    H12S 5618   1.001   4.796   5.674  1.2062 -2.0607 -1.6164
    1PA    C111 5619   0.978   5.011   5.688  0.2029 -0.3192 -0.7651
    1PA    H11R 5620   0.966   5.100   5.627 -2.2116  0.2527  0.4768
    1PA    H11S 5621   0.891   5.009   5.754  0.8091  0.5225  0.0754
    1PA    C110 5622   1.086   5.027   5.796  0.4644 -0.2577  0.4947
    1PA    H10R 5623   1.185   5.044   5.753 -0.3526  1.4076 -0.8089
    1PA    H10S 5624   1.067   5.120   5.849  1.2393 -0.7893  1.7190
    1PA     C19 5625   1.103   4.902   5.886 -0.0555  0.0349 -0.2606
    1PA     H9R 5626   1.007   4.853   5.905  0.5393 -0.7620  0.7755
    1PA     H9S 5627   1.161   4.830   5.826  3.2755  1.4540  1.1193
    1PA     C18 5628   1.175   4.932   6.026 -0.4910  0.1258  0.0297
    1PA     H8R 5629   1.280   4.958   6.007 -0.5384 -0.3909 -0.9753
    1PA     H8S 5630   1.146   5.026   6.073  0.9407  0.4198  0.3558
    1PA     C17 5631   1.157   4.808   6.122 -0.1313 -0.3197  0.2259
    1PA     H7R 5632   1.051   4.784   6.138 -0.3079 -0.2320 -0.7393
    1PA     H7S 5633   1.194   4.721   6.068  0.5466  0.2622 -0.2617
    1PA     C16 5634   1.221   4.816   6.261 -0.5903  0.0420 -0.8638
    1PA     H6R 5635   1.180   4.893   6.327 -0.1225  0.6242 -1.2442
    1PA     H6S 5636   1.210   4.723   6.317  0.0496  0.5729  0.1523
    1PA     C15 5637   1.375   4.838   6.254 -0.6226 -0.2083 -0.3757
    1PA     H5R 5638   1.427   4.753   6.208  0.9292  0.9332 -0.7687
    1PA     H5S 5639   1.389   4.929   6.196 -0.2479 -1.2957 -1.9991
    1PA     C14 5640   1.451   4.860   6.389 -0.6186 -0.0659 -0.5273
    1PA     H4R 5641   1.409   4.941   6.449 -3.1611 -0.7911 -1.2607
    1PA     H4S 5642   1.425   4.771   6.446  0.6781 -0.3925 -0.4338
    1PA     C13 5643   1.608   4.867   6.358 -0.8479  0.3433 -0.0408
    1PA     H3R 5644   1.630   4.784   6.290 -3.3725 -0.4240  0.0009
    1PA     H3S 5645   1.632   4.960   6.307 -1.5586  1.1356  1.0305
    1PA     C12 5646   1.693   4.851   6.487 -0.4600  0.4330 -0.5306
    1PA     H2R 5647   1.679   4.749   6.525  1.9091  0.3158  0.0566
    1PA     H2S 5648   1.799   4.871   6.474 -0.3239 -0.6849 -1.2735
    1PC     C11 5649   1.649   4.948   6.596  0.1593 -0.2207  0.2030
    1PC     O12 5650   1.662   5.066   6.581  0.1018 -0.0320  0.4330
    1PC     O11 5651   1.595   4.886   6.696 -0.9750 -0.3547  0.0176
    1PC      C1 5652   1.547   4.974   6.805  0.3642  0.5856 -0.6913
    1PC      HR 5653   1.607   4.954   6.895 -1.9670  2.6334  1.3576
    1PC      HS 5654   1.567   5.080   6.787  2.1148  0.4587  0.3116
    1PC      C2 5655   1.399   4.957   6.843 -0.5655  0.4563  0.2411
    1PC      HX 5656   1.386   5.020   6.931  2.8887  1.0972  0.3767
    1PC      C3 5657   1.362   4.808   6.863  0.2971 -0.7522 -0.5077
    1PC      HA 5658   1.374   4.757   6.767  0.0247 -0.6674 -0.5868
    1PC      HB 5659   1.426   4.765   6.940  0.8557 -0.5041 -0.8342
    1PC     O31 5660   1.212   4.803   6.907 -0.0774 -0.2111 -0.1723
    1PC     P31 5661   1.173   4.859   7.051  0.1343  0.8236  0.0660
    1PC     O32 5662   1.108   4.725   7.109  0.7448  0.2112  0.5057
    1PC     C31 5663   0.973   4.680   7.083  0.0112 -0.2930  0.1947
    1PC     H1A 5664   0.962   4.690   6.975 -1.9743  1.1715  0.4889
    1PC     H1B 5665   0.965   4.575   7.112  1.3111 -0.9969 -1.9114
    1PC     C32 5666   0.875   4.767   7.157 -0.3244  0.1718 -0.0593
    1PC     H2A 5667   0.886   4.869   7.118  1.2229  0.7187  1.7333
    1PC     H2B 5668   0.773   4.740   7.133  0.5355 -2.3879 -0.9477
    1PC     N31 5669   0.884   4.788   7.309  0.4478  0.4957  0.0499
    1PC     C33 5670   0.900   4.654   7.374  0.3994 -0.6821 -0.0613
    1PC     H3A 5671   0.870   4.667   7.478 -0.3098  2.0781 -0.5736
    1PC     H3B 5672   0.830   4.587   7.323 -1.1815  1.3856 -0.6986
    1PC     H3C 5673   1.003   4.619   7.363  0.7074 -0.2701  1.3993
    1PC     C34 5674   0.983   4.886   7.355 -0.8711  0.5766  0.0499
    1PC     H4A 5675   0.983   4.875   7.464  0.3744  1.4797  0.1614
    1PC     H4B 5676   1.082   4.864   7.313  0.1044 -0.4879  2.8111
    1PC     H4C 5677   0.943   4.986   7.336  1.6462  1.4221 -1.0910
    1PC     C35 5678   0.751   4.841   7.359 -0.3531  0.0981 -0.3647
    1PC     H5A 5679   0.673   4.771   7.329 -1.6285  1.3206  0.0543
    1PC     H5B 5680   0.723   4.937   7.316 -1.0157 -0.2424 -0.6897
    1PC     H5C 5681   0.747   4.850   7.468  1.7790  2.9825 -0.4680
    1PC     O33 5682   1.297   4.873   7.125  0.3744 -0.4574  0.0080
    1PC     O34 5683   1.076   4.971   7.046  0.4129  0.1784  0.0521
    1PC     O21 5684   1.319   5.000   6.725  0.1653 -0.1931  0.1696
    1PC     C21 5685   1.276   5.126   6.734 -0.3219  0.4291  0.5933
    1PC     O22 5686   1.303   5.206   6.820 -0.3287 -0.8208  0.1672
    1OL     C12 5687   1.208   5.168   6.614 -0.0237  0.1669  0.6221
    1OL     H2R 5688   1.137   5.250   6.627  0.0811  0.6479 -1.5635
    1OL     H2S 5689   1.158   5.082   6.569 -3.1819  1.8865  0.6909
    1OL     C13 5690   1.324   5.217   6.519 -0.8036  0.3390 -0.7034
    1OL     H3R 5691   1.399   5.139   6.533  0.2373  1.5691  0.7253
    1OL     H3S 5692   1.355   5.314   6.558 -0.5229  1.0795 -2.7012
    1OL     C14 5693   1.305   5.232   6.368 -0.1334 -0.3307  0.0463
    1OL     H4R 5694   1.217   5.295   6.356  0.4001  0.1459 -1.3979
    1OL     H4S 5695   1.284   5.141   6.311 -0.3117  0.0539 -0.4991
    1OL     C15 5696   1.430   5.299   6.315  0.4501  0.5467 -0.1121
    1OL     H5R 5697   1.519   5.237   6.326  0.2029  0.3979  1.1217
    1OL     H5S 5698   1.452   5.394   6.364  0.3208  0.6615 -0.2746
    1OL     C16 5699   1.418   5.338   6.167 -0.7297 -0.1129  0.3103
    1OL     H6R 5700   1.509   5.392   6.138  0.5255 -2.7381 -0.8315
    1OL     H6S 5701   1.330   5.403   6.167 -0.8674 -0.2962  0.5667
    1OL     C17 5702   1.393   5.240   6.049  0.2536  0.3055 -0.4427
    1OL     H7R 5703   1.294   5.195   6.062 -0.5105  1.7722 -1.1034
    1OL     H7S 5704   1.453   5.151   6.071 -3.6906 -2.1769  0.6779
    1OL     C18 5705   1.408   5.293   5.899  0.5427  0.1670  0.6068
    1OL     H8R 5706   1.421   5.209   5.830  0.2186  1.6982 -1.3722
    1OL     H8S 5707   1.497   5.356   5.898  1.0991 -0.5707 -1.8120
    1OL     C19 5708   1.293   5.372   5.861  0.1001  0.4195 -0.7464
    1OL     H9R 5709   1.236   5.421   5.940  0.9996 -1.3281  1.0514
    1OL    C110 5710   1.247   5.384   5.738 -0.8566 -0.6026  0.7903
    1OL    H10R 5711   1.163   5.453   5.733  0.4736  0.8447 -2.7067
    1OL    C111 5712   1.309   5.317   5.614  0.1590 -0.1308 -0.0555
    1OL    H11R 5713   1.262   5.220   5.605 -1.5526  0.7130 -0.3735
    1OL    H11S 5714   1.418   5.305   5.616 -0.0520 -2.9530 -2.6458
    1OL    C112 5715   1.261   5.382   5.486 -0.3146  0.5472 -0.4272
    1OL    H12R 5716   1.306   5.480   5.470  2.7386 -0.6292  0.5439
    1OL    H12S 5717   1.154   5.403   5.494 -0.2602 -0.1225  2.4913
    1OL    C113 5718   1.266   5.288   5.370  0.5731  0.3466  0.2259
    1OL    H13R 5719   1.210   5.196   5.388  1.0999 -0.0414 -0.0890
    1OL    H13S 5720   1.371   5.260   5.361  0.1403 -0.8627 -1.3098
    1OL    C114 5721   1.211   5.357   5.248  0.7000  0.3526 -0.0021
    1OL    H14R 5722   1.267   5.447   5.220  0.5174 -0.1660 -2.0909
    1OL    H14S 5723   1.110   5.392   5.272  0.6449  0.4452 -0.3704
    1OL    C115 5724   1.207   5.262   5.127 -0.4707  0.0848 -0.3118
    1OL    H15R 5725   1.148   5.175   5.155 -0.3770  0.3611  0.7859
    1OL    H15S 5726   1.312   5.233   5.124 -0.8480 -1.4686  0.9961
    1OL    C116 5727   1.162   5.331   4.998 -0.2082  0.1826  0.8468
    1OL    H16R 5728   1.057   5.355   5.014 -0.4932 -0.0748 -0.6284
    1OL    H16S 5729   1.183   5.255   4.922 -0.8753 -0.7270  1.5602
    1OL    C117 5730   1.248   5.453   4.959  0.3880  0.2621  0.2927
    1OL    H17R 5731   1.231   5.535   5.028  0.4197 -0.7597  1.5215
    1OL    H17S 5732   1.214   5.478   4.858  1.5492  0.1895 -0.1307
    1OL    C118 5733   1.397   5.412   4.951 -0.1504  0.7330  0.0925
    1OL    H18R 5734   1.456   5.501   4.929 -1.0939  0.6835 -2.8032
    1OL    H18S 5735   1.420   5.341   4.871 -2.4281  0.8428 -0.6801
    1OL    H18T 5736   1.435   5.376   5.047 -0.3368 -0.1042 -0.1447
    1PA    C116 5737   0.097   5.269   5.422  0.0247  0.6912 -0.0010
    1PA    H16R 5738   0.092   5.328   5.331 -0.0831 -2.1036 -1.8924
    1PA    H16S 5739   0.088   5.339   5.504 -2.3331  1.8932 -1.2471
    1PA    H16T 5740   0.010   5.202   5.424 -0.6937  1.6053 -0.4416
    1PA    C115 5741   0.217   5.176   5.438  0.3686 -0.4572  0.1347
    1PA    H15R 5742   0.233   5.119   5.346  3.9555 -0.6623  0.7965
    1PA    H15S 5743   0.308   5.235   5.451 -0.1101  0.2259  0.4175
    1PA    C114 5744   0.200   5.077   5.561  0.3844  0.1890 -0.2307
    1PA    H14R 5745   0.098   5.037   5.567  0.6323 -0.7826 -2.0604
    1PA    H14S 5746   0.263   4.989   5.546 -0.5242 -0.5999  0.5015
    1PA    C113 5747   0.233   5.160   5.693  0.3944 -0.3291 -0.7696
    1PA    H13R 5748   0.341   5.174   5.699  0.4770 -0.2308 -2.1658
    1PA    H13S 5749   0.180   5.256   5.697  1.3879  0.2239 -0.8276
    1PA    C112 5750   0.190   5.063   5.805 -0.4261 -0.3323  0.3967
    1PA    H12R 5751   0.087   5.034   5.786 -0.2947 -1.2167  0.9981
    1PA    H12S 5752   0.244   4.968   5.803 -0.3898 -0.2964 -0.4445
    1PA    C111 5753   0.197   5.118   5.948 -0.3094 -0.2383  0.3326
    1PA    H11R 5754   0.124   5.199   5.959 -0.8073 -0.3410 -2.0835
    1PA    H11S 5755   0.161   5.046   6.021 -2.2265 -0.7292 -1.0781
    1PA    C110 5756   0.338   5.165   5.996  0.9079 -0.0564  0.0183
    1PA    H10R 5757   0.388   5.246   5.942  2.9472  0.3720  2.4315
    1PA    H10S 5758   0.323   5.201   6.097  1.0523  2.9208 -0.9697
    1PA     C19 5759   0.436   5.045   6.001 -0.1291 -0.2742 -0.0411
    1PA     H9R 5760   0.401   4.976   6.079 -1.0298  0.6669  0.4033
    1PA     H9S 5761   0.445   4.991   5.907  1.2874 -1.7682  0.9288
    1PA     C18 5762   0.582   5.087   6.058  0.0533  0.0091  0.1000
    1PA     H8R 5763   0.611   5.182   6.012  3.9854 -1.0529  0.1979
    1PA     H8S 5764   0.574   5.100   6.166 -0.9687 -1.8976  0.2746
    1PA     C17 5765   0.681   4.974   6.032 -0.1308 -0.0552 -0.0480
    1PA     H7R 5766   0.692   4.973   5.923  0.0782  2.6203 -0.0724
    1PA     H7S 5767   0.777   4.998   6.079  0.6389 -0.1330 -1.5518
    1PA     C16 5768   0.648   4.834   6.080  0.6513 -0.0390 -0.4746
    1PA     H6R 5769   0.610   4.835   6.182 -0.2618 -1.9709 -0.7683
    1PA     H6S 5770   0.576   4.789   6.012  0.5908 -0.2490 -0.2728
    1PA     C15 5771   0.770   4.735   6.079  0.3567  0.3877 -0.3456
    1PA     H5R 5772   0.805   4.703   5.981  1.2684 -1.1026  0.4391
    1PA     H5S 5773   0.848   4.789   6.135 -1.7813  2.4051  0.7664
    1PA     C14 5774   0.737   4.607   6.153 -0.0462  0.5070 -0.2248
    1PA     H4R 5775   0.819   4.536   6.140 -0.0240  0.6558 -0.8861
    1PA     H4S 5776   0.730   4.638   6.258 -0.9152 -2.2484  0.5683
    1PA     C13 5777   0.599   4.551   6.123 -0.2272  0.3933 -0.4315
    1PA     H3R 5778   0.513   4.608   6.158 -1.0094 -0.9443 -0.1116
    1PA     H3S 5779   0.586   4.545   6.015 -1.8656  1.1515 -0.2889
    1PA     C12 5780   0.584   4.405   6.162  0.2394  0.7240 -0.6939
    1PA     H2R 5781   0.483   4.367   6.147 -0.3890  1.3230  1.7995
    1PA     H2S 5782   0.646   4.338   6.101  0.5591 -0.5602  1.0049
    1PC     C11 5783   0.609   4.379   6.307  0.2638  0.2001 -0.2764
    1PC     O12 5784   0.719   4.400   6.354  0.3727  0.1343 -0.0415
    1PC     O11 5785   0.500   4.338   6.375 -0.1606 -0.2504 -0.3994
    1PC      C1 5786   0.509   4.285   6.503 -0.1765 -0.3707  0.4690
    1PC      HR 5787   0.427   4.213   6.512  0.6117 -1.2679  0.5033
    1PC      HS 5788   0.608   4.242   6.521  0.7406  0.1828 -2.8069
    1PC      C2 5789   0.488   4.408   6.602  0.4448  0.3983  0.6240
    1PC      HX 5790   0.554   4.493   6.582 -0.4378  1.2457  1.2920
    1PC      C3 5791   0.498   4.373   6.748 -0.1432 -0.2920  0.1244
    1PC      HA 5792   0.486   4.461   6.812 -2.7063 -2.2049  2.3783
    1PC      HB 5793   0.424   4.301   6.784  0.5312 -0.4366  1.2373
    1PC     O31 5794   0.631   4.314   6.772  0.0821 -0.3374  0.6142
    1PC     P31 5795   0.760   4.395   6.827  0.1440  0.2673 -0.2929
    1PC     O32 5796   0.805   4.498   6.716  0.0616 -0.7931  0.3299
    1PC     C31 5797   0.762   4.634   6.715 -0.0695  0.1173  0.2529
    1PC     H1A 5798   0.702   4.651   6.625  1.9398  0.4291 -1.0898
    1PC     H1B 5799   0.704   4.664   6.803 -0.4076 -1.3326  0.5243
    1PC     C32 5800   0.888   4.729   6.709 -0.1774  0.0551 -0.3710
    1PC     H2A 5801   0.858   4.832   6.689 -2.6087 -0.1441  1.9687
    1PC     H2B 5802   0.941   4.720   6.804 -0.3515 -0.1060 -0.2881
    1PC     N31 5803   0.987   4.703   6.607 -0.3952 -0.0658  0.5176
    1PC     C33 5804   1.087   4.602   6.643  0.5104 -0.1446  0.0415
    1PC     H3A 5805   1.144   4.547   6.567 -1.2336 -1.7353 -0.1497
    1PC     H3B 5806   1.162   4.652   6.705 -1.5624  2.2402  0.7160
    1PC     H3C 5807   1.038   4.526   6.705  1.9453 -0.4842  0.7833
    1PC     C34 5808   0.927   4.657   6.482  0.3959  0.0294 -0.3773
    1PC     H4A 5809   0.880   4.562   6.510  1.1086  0.1822  1.3589
    1PC     H4B 5810   0.851   4.728   6.447 -0.5886 -0.8776 -0.1313
    1PC     H4C 5811   1.009   4.641   6.412  2.0412 -0.0528  1.5396
    1PC     C35 5812   1.070   4.826   6.578  0.6098 -0.6681 -0.5974
    1PC     H5A 5813   1.129   4.857   6.664  0.3855 -1.1838 -0.2508
    1PC     H5B 5814   1.012   4.913   6.546  0.0652 -0.2504  1.4211
    1PC     H5C 5815   1.143   4.808   6.499  2.7482  0.8835  0.9742
    1PC     O33 5816   0.724   4.455   6.957 -0.4474 -0.1792 -0.1211
    1PC     O34 5817   0.865   4.292   6.835 -0.6784 -0.3146 -0.0900
    1PC     O21 5818   0.353   4.456   6.585 -0.0179  0.7198 -0.1742
    1PC     C21 5819   0.338   4.561   6.499 -0.4852 -0.0144  0.0549
    1PC     O22 5820   0.424   4.626   6.440 -0.2587  0.4704  0.1568
    1OL     C12 5821   0.194   4.602   6.506  0.3068  0.5327  0.3773
    1OL     H2R 5822   0.174   4.685   6.574  0.9565 -0.1475  1.4219
    1OL     H2S 5823   0.136   4.530   6.565  0.5564  0.0795  0.0758
    1OL     C13 5824   0.146   4.619   6.360 -0.0226  0.0451 -0.1168
    1OL     H3R 5825   0.195   4.704   6.312 -0.0753 -0.6521 -1.4182
    1OL     H3S 5826   0.038   4.632   6.366  0.2073  2.4307 -0.5528
    1OL     C14 5827   0.169   4.501   6.265  0.1616 -0.1875 -0.0127
    1OL     H4R 5828   0.123   4.413   6.311 -0.4924  0.7357  1.1371
    1OL     H4S 5829   0.273   4.476   6.246  0.7346  2.0827 -0.0144
    1OL     C15 5830   0.104   4.534   6.125 -0.6899  0.4505  0.6363
    1OL     H5R 5831   0.175   4.598   6.073 -1.4318  2.1741  1.7028
    1OL     H5S 5832   0.016   4.597   6.138 -0.7760  0.6564 -0.8626
    1OL     C16 5833   0.073   4.405   6.045 -0.0916 -0.1707 -0.0892
    1OL     H6R 5834   0.020   4.433   5.953  0.0204 -0.7974 -0.3454
    1OL     H6S 5835  -0.008   4.358   6.100  0.0647  0.3544  0.5945
    1OL     C17 5836   0.193   4.319   6.000 -0.4916 -0.5712 -0.1780
    1OL     H7R 5837   0.147   4.230   5.958 -1.8217  0.2902 -0.5670
    1OL     H7S 5838   0.242   4.284   6.092 -0.4983 -0.4647 -0.1340
    1OL     C18 5839   0.289   4.384   5.898  0.0453 -0.4655  0.1308
    1OL     H8R 5840   0.326   4.479   5.937 -3.2942  1.0616 -0.1961
    1OL     H8S 5841   0.225   4.408   5.813  1.3769  1.8128 -0.2544
    1OL     C19 5842   0.404   4.289   5.868 -0.0741 -0.1570  0.0532
    1OL     H9R 5843   0.450   4.245   5.956  1.7962 -0.4746 -1.0622
    1OL    C110 5844   0.453   4.265   5.749  0.0187  0.1099 -0.3279
    1OL    H10R 5845   0.538   4.198   5.737  0.2647  0.1742  1.0581
    1OL    C111 5846   0.393   4.309   5.616 -0.2203  0.0784  0.0474
    1OL    H11R 5847   0.423   4.411   5.590  3.0421 -0.9514 -0.4372
    1OL    H11S 5848   0.287   4.320   5.637 -0.0837  0.1553  0.6863
    1OL    C112 5849   0.415   4.213   5.510 -0.2705  0.1017  0.0815
    1OL    H12R 5850   0.374   4.115   5.535  1.2064 -0.6100 -0.2189
    1OL    H12S 5851   0.522   4.202   5.491 -0.3683 -0.4708 -0.1674
    1OL    C113 5852   0.351   4.271   5.380 -0.0231 -0.6163 -0.3776
    1OL    H13R 5853   0.415   4.354   5.351 -3.1353  2.0805  0.1262
    1OL    H13S 5854   0.250   4.311   5.396  0.1944  0.4582 -1.6749
    1OL    C114 5855   0.353   4.175   5.261  0.2556  0.2637 -0.4972
    1OL    H14R 5856   0.305   4.085   5.301 -1.2445  0.7005 -1.2884
    1OL    H14S 5857   0.457   4.156   5.234  0.1415  2.4007 -2.6183
    1OL    C115 5858   0.272   4.232   5.143  0.5221  0.5053  0.3813
    1OL    H15R 5859   0.296   4.338   5.128 -0.7555  0.6911 -0.3950
    1OL    H15S 5860   0.164   4.228   5.157  0.4394 -0.7929 -0.5528
    1OL    C116 5861   0.303   4.153   5.016 -0.1952 -0.2534 -0.2496
    1OL    H16R 5862   0.274   4.054   5.051 -0.2626 -0.7009 -1.5350
    1OL    H16S 5863   0.410   4.157   4.992  0.2706  1.2977  1.9434
    1OL    C117 5864   0.206   4.183   4.907  0.6325 -0.0771 -0.3489
    1OL    H17R 5865   0.199   4.288   4.878  0.2971 -1.3693 -5.5093
    1OL    H17S 5866   0.111   4.146   4.948 -0.4960  1.1859 -1.7484
    1OL    C118 5867   0.235   4.090   4.786  0.6414 -0.1103  0.2652
    1OL    H18R 5868   0.157   4.089   4.709 -2.0944  0.2302  2.9173
    1OL    H18S 5869   0.241   3.986   4.819 -1.9347 -0.5666 -0.5640
    1OL    H18T 5870   0.332   4.110   4.740  0.6853  0.9965  0.8362
    1PA    C116 5871   5.015   0.836   5.034 -0.4321  0.2253 -0.4721
    1PA    H16R 5872   4.924   0.869   4.983 -1.2537 -1.5610 -0.1889
    1PA    H16S 5873   4.999   0.793   5.133 -0.4486  0.4132 -0.3940
    1PA    H16T 5874   5.045   0.751   4.971  0.0532 -0.3512  0.5271
    1PA    C115 5875   5.128   0.938   5.039  0.2817 -0.1965  0.2246
    1PA    H15R 5876   5.222   0.903   4.995  0.1622  0.4446 -0.5605
    1PA    H15S 5877   5.103   1.019   4.970 -3.3015  0.3463  2.0217
    1PA    C114 5878   5.137   1.012   5.173  0.1923 -0.0752  0.4512
    1PA    H14R 5879   5.039   1.038   5.213  0.8666  1.8571  0.8652
    1PA    H14S 5880   5.173   0.935   5.241 -0.6043 -0.8417  0.0208
    1PA    C113 5881   5.228   1.134   5.171 -0.1351 -0.2083 -0.0194
    1PA    H13R 5882   5.327   1.088   5.160  0.2780  0.1413  2.0377
    1PA    H13S 5883   5.194   1.191   5.084 -1.6586  0.3585  0.9362
    1PA    C112 5884   5.228   1.212   5.306 -0.0324 -0.6051  0.2187
    1PA    H12R 5885   5.291   1.300   5.291 -0.8289 -0.0742 -0.0505
    1PA    H12S 5886   5.129   1.256   5.320 -0.3450 -0.8348 -1.1808
    1PA    C111 5887   5.278   1.136   5.433  0.4694  0.2605  0.6379
    1PA    H11R 5888   5.203   1.060   5.457 -0.9842  1.0983 -1.1905
    1PA    H11S 5889   5.372   1.082   5.416 -0.0160  0.2337 -2.0341
    1PA    C110 5890   5.286   1.218   5.564 -0.2910 -0.3371  0.2521
    1PA    H10R 5891   5.344   1.306   5.535 -0.6694 -0.5979 -1.3939
    1PA    H10S 5892   5.191   1.258   5.599 -0.4728 -1.7997  1.4665
    1PA     C19 5893   5.337   1.127   5.686 -0.0567 -0.1906  0.5850
    1PA     H9R 5894   5.263   1.046   5.687 -2.2226  1.7219 -0.4511
    1PA     H9S 5895   5.418   1.067   5.644  0.5343  2.0658 -1.6299
    1PA     C18 5896   5.360   1.201   5.824 -0.2784 -0.7463  0.0035
    1PA     H8R 5897   5.432   1.283   5.814 -1.4768  0.2925 -0.1110
    1PA     H8S 5898   5.266   1.236   5.866 -0.9749  0.2111 -2.3432
    1PA     C17 5899   5.419   1.094   5.918  0.4955 -0.3478  0.6524
    1PA     H7R 5900   5.366   0.999   5.915 -0.9955  0.4182  2.1562
    1PA     H7S 5901   5.516   1.070   5.874 -0.4667  0.3689 -1.9191
    1PA     C16 5902   5.425   1.149   6.060 -0.5188  0.6529  0.0474
    1PA     H6R 5903   5.464   1.251   6.065 -1.0373  0.8784 -0.4586
    1PA     H6S 5904   5.323   1.158   6.098  0.0195  0.4743  1.5714
    1PA     C15 5905   5.506   1.049   6.143  0.1017 -0.6075  0.0646
    1PA     H5R 5906   5.459   0.951   6.146 -2.3554  0.5543  0.6693
    1PA     H5S 5907   5.600   1.039   6.087  0.2571  2.2777 -0.2863
    1PA     C14 5908   5.532   1.080   6.293 -0.0183 -0.0079  0.3313
    1PA     H4R 5909   5.554   1.186   6.305 -1.7926  0.4471 -0.1988
    1PA     H4S 5910   5.438   1.057   6.345  0.1981 -1.7283  0.0119
    1PA     C13 5911   5.632   0.994   6.370  1.1357 -0.4394  0.8567
    1PA     H3R 5912   5.617   0.886   6.359 -2.1564  0.1507 -1.5046
    1PA     H3S 5913   5.729   1.019   6.327  0.2362  1.7778  0.0705
    1PA     C12 5914   5.634   1.031   6.522  0.0365 -0.0211  0.0373
    1PA     H2R 5915   5.724   0.988   6.566  1.9286  2.0717 -1.6669
    1PA     H2S 5916   5.642   1.137   6.544 -2.2286  0.2062 -0.1069
    1PC     C11 5917   5.516   0.974   6.603 -0.3054 -0.3741 -0.4420
    1PC     O12 5918   5.414   1.037   6.627  0.4104  0.0974 -0.1423
    1PC     O11 5919   5.546   0.852   6.646  0.4196  0.4686 -0.3336
    1PC      C1 5920   5.452   0.784   6.731  0.1699 -0.0408  0.0977
    1PC      HR 5921   5.455   0.813   6.836 -0.9269  0.8541 -0.1059
    1PC      HS 5922   5.353   0.811   6.691  0.5465  0.6344 -0.3919
    1PC      C2 5923   5.472   0.631   6.712  0.2602 -0.0973 -0.0702
    1PC      HX 5924   5.405   0.579   6.780  1.7024 -1.0549  0.6448
    1PC      C3 5925   5.615   0.597   6.758 -0.9055 -0.4349  0.3265
    1PC      HA 5926   5.630   0.494   6.726  0.0334 -0.4212  0.7054
    1PC      HB 5927   5.687   0.653   6.699  0.7594 -0.2633  2.4475
    1PC     O31 5928   5.643   0.628   6.897 -0.0151  0.0455 -0.8473
    1PC     P31 5929   5.580   0.543   7.012  0.0790 -0.2970  0.3891
    1PC     O32 5930   5.674   0.561   7.133 -0.1203  0.1241  0.1716
    1PC     C31 5931   5.793   0.484   7.150 -0.1026  0.0417  0.3947
    1PC     H1A 5932   5.769   0.380   7.123 -0.8211  0.3956 -0.3738
    1PC     H1B 5933   5.870   0.526   7.085 -2.1419  1.8255 -0.9571
    1PC     C32 5934   5.850   0.506   7.288 -0.7778  0.6287  0.4175
    1PC     H2A 5935   5.950   0.462   7.289 -0.7295  0.7611  1.7923
    1PC     H2B 5936   5.852   0.612   7.312  0.8378  0.4388  1.2195
    1PC     N31 5937   5.778   0.438   7.400 -1.1194 -0.7244 -0.0309
    1PC     C33 5938   5.883   0.417   7.506 -0.5763 -0.5520 -1.2034
    1PC     H3A 5939   5.841   0.376   7.598 -0.2829 -2.0723 -1.7262
    1PC     H3B 5940   5.946   0.345   7.454 -1.6588 -0.8386 -2.1268
    1PC     H3C 5941   5.925   0.513   7.536 -0.6735 -1.2558  1.3498
    1PC     C34 5942   5.664   0.525   7.443 -0.3069 -0.2345  0.7771
    1PC     H4A 5943   5.613   0.455   7.509  1.6612 -2.0325  0.4368
    1PC     H4B 5944   5.706   0.610   7.497 -2.2875  0.8234  0.6939
    1PC     H4C 5945   5.596   0.556   7.363  0.7322 -1.4148 -0.5995
    1PC     C35 5946   5.721   0.299   7.359 -0.8952 -0.2538 -0.6471
    1PC     H5A 5947   5.805   0.238   7.324 -1.1683  0.4551 -2.5800
    1PC     H5B 5948   5.649   0.315   7.279 -0.1268 -0.8012 -1.4668
    1PC     H5C 5949   5.670   0.260   7.447  0.0373  1.0898  0.5248
    1PC     O33 5950   5.452   0.613   7.048  0.0107  0.0589  0.3671
    1PC     O34 5951   5.562   0.403   6.971 -0.2035  0.6860 -0.6956
    1PC     O21 5952   5.450   0.592   6.575 -0.1012  0.1498  0.1328
    1PC     C21 5953   5.442   0.460   6.538  0.2462  0.6648 -0.4821
    1PC     O22 5954   5.450   0.367   6.615 -0.1945 -0.1177  0.0063
    1OL     C12 5955   5.447   0.459   6.389 -0.0302  0.6139  0.2178
    1OL     H2R 5956   5.350   0.499   6.358 -1.7522 -2.3655  1.5441
    1OL     H2S 5957   5.458   0.357   6.353  1.3800  0.7551  0.2221
    1OL     C13 5958   5.546   0.554   6.325 -0.3470  0.4906  0.5032
    1OL     H3R 5959   5.647   0.532   6.359 -0.2077  0.4175  0.0437
    1OL     H3S 5960   5.520   0.655   6.358  2.6000  0.7600  2.1558
    1OL     C14 5961   5.544   0.562   6.167 -0.0842 -0.6557  0.1487
    1OL     H4R 5962   5.452   0.608   6.128  0.3896 -0.5367 -0.8559
    1OL     H4S 5963   5.542   0.465   6.118  1.3895 -0.1060 -1.0488
    1OL     C15 5964   5.664   0.645   6.121  0.3395  0.6071 -0.7530
    1OL     H5R 5965   5.762   0.601   6.136  0.1877  0.2511 -0.8072
    1OL     H5S 5966   5.665   0.734   6.185 -0.7764 -1.3326  2.0590
    1OL     C16 5967   5.641   0.665   5.971  0.4475 -0.6633  0.0212
    1OL     H6R 5968   5.543   0.709   5.954  0.6781  0.5333  1.6380
    1OL     H6S 5969   5.653   0.570   5.918  1.0265  0.6858 -2.3072
    1OL     C17 5970   5.749   0.752   5.919 -0.2016  0.5633 -0.2943
    1OL     H7R 5971   5.845   0.707   5.945 -1.4067 -1.0329  1.5540
    1OL     H7S 5972   5.742   0.849   5.968  1.3830  1.1193 -1.1520
    1OL     C18 5973   5.748   0.775   5.772 -0.1359  0.0937  0.6907
    1OL     H8R 5974   5.662   0.836   5.746 -0.5981 -0.6690  0.4053
    1OL     H8S 5975   5.744   0.675   5.727  1.4871 -0.7710  2.3790
    1OL     C19 5976   5.874   0.845   5.733  0.2830 -0.0941  0.1654
    1OL     H9R 5977   5.953   0.847   5.807 -0.3481 -0.0096  0.8501
    1OL    C110 5978   5.894   0.912   5.618  0.6888  0.1183  0.1275
    1OL    H10R 5979   5.987   0.967   5.604  0.0374  0.7067 -2.0458
    1OL    C111 5980   5.801   0.912   5.497 -0.0179 -0.1662 -0.8924
    1OL    H11R 5981   5.766   1.015   5.486 -0.1769  0.1466  2.2505
    1OL    H11S 5982   5.717   0.848   5.523  0.9025 -0.7974  0.5818
    1OL    C112 5983   5.867   0.851   5.371 -0.0401  0.7715  0.3339
    1OL    H12R 5984   5.795   0.842   5.289  1.5351  2.8420 -1.3010
    1OL    H12S 5985   5.888   0.745   5.388  0.4896  0.6473 -1.0029
    1OL    C113 5986   6.002   0.918   5.333  0.5838 -0.3783  0.1387
    1OL    H13R 5987   6.075   0.888   5.409 -0.9249 -3.0996  0.5925
    1OL    H13S 5988   5.999   1.027   5.327  1.1595 -0.2723  1.4692
    1OL    C114 5989   6.055   0.856   5.204 -0.4356  0.3600  0.2684
    1OL    H14R 5990   5.995   0.889   5.119 -0.8209 -1.9507 -0.3884
    1OL    H14S 5991   6.037   0.749   5.213 -0.2822  0.1879 -1.3140
    1OL    C115 5992   6.208   0.893   5.187  0.1358 -0.3683 -0.0975
    1OL    H15R 5993   6.258   0.861   5.279  1.4372  2.3864  0.2110
    1OL    H15S 5994   6.230   0.999   5.173 -1.4621  0.1356  1.0914
    1OL    C116 5995   6.269   0.820   5.073 -0.2211 -0.4766  1.0155
    1OL    H16R 5996   6.249   0.881   4.985 -2.5469 -2.9546 -0.2439
    1OL    H16S 5997   6.218   0.724   5.061 -0.0185 -0.5042  0.3635
    1OL    C117 5998   6.422   0.789   5.083 -0.1826  0.6843 -0.2331
    1OL    H17R 5999   6.459   0.751   4.988 -3.0499 -1.6836 -0.4922
    1OL    H17S 6000   6.438   0.715   5.161 -1.8473  0.4391 -0.1117
    1OL    C118 6001   6.500   0.915   5.117  0.0215 -0.5213  0.0075
    1OL    H18R 6002   6.475   0.988   5.040  1.1013  1.0884  1.1473
    1OL    H18S 6003   6.607   0.896   5.112 -0.1603 -1.1879 -1.7574
    1OL    H18T 6004   6.473   0.951   5.216  1.0444 -1.3472  0.6003
    1PA    C116 6005   0.483   0.500   5.259 -0.3592 -0.1815 -0.3337
    1PA    H16R 6006   0.586   0.512   5.291 -0.3611 -0.5258 -0.2016
    1PA    H16S 6007   0.414   0.532   5.337  0.0477  0.9142 -0.4177
    1PA    H16T 6008   0.446   0.565   5.180 -0.3921  1.9591  1.4000
    1PA    C115 6009   0.452   0.349   5.227  0.4709 -0.4154 -0.3166
    1PA    H15R 6010   0.478   0.341   5.121 -3.7356  0.8185 -1.5297
    1PA    H15S 6011   0.523   0.289   5.285 -0.5837  0.4633  1.9674
    1PA    C114 6012   0.311   0.298   5.245  0.2371  0.3891  0.3571
    1PA    H14R 6013   0.245   0.353   5.177 -1.3239 -0.2697  1.3022
    1PA    H14S 6014   0.322   0.194   5.212 -0.8498  0.6240 -0.7885
    1PA    C113 6015   0.263   0.298   5.392 -0.2688 -0.3329 -0.8580
    1PA    H13R 6016   0.241   0.401   5.420 -3.2450 -0.2223 -3.4221
    1PA    H13S 6017   0.169   0.243   5.396  0.2168 -1.0752  1.1324
    1PA    C112 6018   0.353   0.232   5.505 -0.2313  0.3639  0.8944
    1PA    H12R 6019   0.371   0.128   5.475  1.1687  0.9633 -0.4255
    1PA    H12S 6020   0.449   0.284   5.500  0.9884 -1.9279 -0.2105
    1PA    C111 6021   0.282   0.241   5.643 -0.1028 -0.0527  0.4182
    1PA    H11R 6022   0.224   0.331   5.666  0.1039 -0.4471  2.5765
    1PA    H11S 6023   0.198   0.172   5.644  1.4208 -2.1262 -3.2211
    1PA    C110 6024   0.372   0.190   5.766 -0.0405  0.7448 -0.2452
    1PA    H10R 6025   0.316   0.189   5.860 -1.0793  2.7011 -0.7994
    1PA    H10S 6026   0.405   0.088   5.746 -2.8097 -0.4067  0.8302
    1PA     C19 6027   0.493   0.267   5.811  0.0671  0.4927 -0.0803
    1PA     H9R 6028   0.578   0.268   5.742 -1.5203  0.9376 -2.0565
    1PA     H9S 6029   0.467   0.370   5.835 -1.7431  0.2774 -1.0880
    1PA     C18 6030   0.561   0.223   5.944  0.5030  0.5226 -0.6494
    1PA     H8R 6031   0.598   0.121   5.944  0.5264  0.4649  2.7857
    1PA     H8S 6032   0.641   0.296   5.957  0.6299  0.3441 -0.4201
    1PA     C17 6033   0.481   0.252   6.073  0.4732 -0.1344  0.9045
    1PA     H7R 6034   0.478   0.358   6.099 -0.2048 -0.5214  2.4517
    1PA     H7S 6035   0.374   0.232   6.062  0.9400 -1.2478 -2.2498
    1PA     C16 6036   0.538   0.175   6.190 -0.4709  0.3837  0.0045
    1PA     H6R 6037   0.551   0.071   6.161  0.7883  0.6557 -0.4309
    1PA     H6S 6038   0.639   0.213   6.208 -0.2338 -1.2299  2.2975
    1PA     C15 6039   0.460   0.190   6.323 -0.2391  0.1013  0.1813
    1PA     H5R 6040   0.526   0.167   6.407  1.9831  0.0378 -1.5279
    1PA     H5S 6041   0.421   0.291   6.325  0.9045  0.5558  0.2175
    1PA     C14 6042   0.345   0.079   6.333 -0.0378  0.1959  0.0092
    1PA     H4R 6043   0.270   0.118   6.264 -0.1702 -0.3089 -0.1333
    1PA     H4S 6044   0.399  -0.009   6.297  0.4307 -0.1320  1.4830
    1PA     C13 6045   0.277   0.064   6.466 -0.1613 -0.2275 -1.0354
    1PA     H3R 6046   0.363   0.029   6.523  0.9609  1.5567 -1.5967
    1PA     H3S 6047   0.241   0.164   6.495  0.6779  0.1039 -1.1209
    1PA     C12 6048   0.170  -0.046   6.470 -0.1147 -0.1813  0.0217
    1PA     H2R 6049   0.132  -0.054   6.573 -0.2394 -0.1230 -0.0199
    1PA     H2S 6050   0.075  -0.017   6.426  0.3787  1.5776  0.0878
    1PC     C11 6051   0.218  -0.178   6.409 -0.9342  0.3030 -1.4530
    1PC     O12 6052   0.190  -0.210   6.296 -0.1600 -1.2034  0.3768
    1PC     O11 6053   0.302  -0.253   6.485 -0.3356 -0.8603  0.0493
    1PC      C1 6054   0.386  -0.363   6.427  0.7435  0.3067  0.0415
    1PC      HR 6055   0.333  -0.459   6.430  0.0235  0.5657 -2.5086
    1PC      HS 6056   0.400  -0.347   6.320 -2.6048 -1.0179 -0.6639
    1PC      C2 6057   0.526  -0.381   6.496  0.0414 -0.3577  0.5243
    1PC      HX 6058   0.583  -0.453   6.437 -0.4418 -2.9071  3.0753
    1PC      C3 6059   0.507  -0.431   6.641 -0.7231  0.6271  0.4767
    1PC      HA 6060   0.420  -0.394   6.696 -1.1357  0.3155  0.0430
    1PC      HB 6061   0.496  -0.540   6.637 -0.5704  0.4842  3.4323
    1PC     O31 6062   0.624  -0.403   6.715  0.1717  0.4018 -0.2897
    1PC     P31 6063   0.621  -0.390   6.876  0.2307  0.4565 -0.2170
    1PC     O32 6064   0.523  -0.259   6.892  0.4655 -0.3274 -0.2558
    1PC     C31 6065   0.579  -0.132   6.870 -0.2586 -0.3962 -0.2710
    1PC     H1A 6066   0.683  -0.128   6.902 -0.1500 -1.2261 -0.5129
    1PC     H1B 6067   0.574  -0.106   6.764  0.5804  1.3796  0.0996
    1PC     C32 6068   0.500  -0.017   6.947 -0.2638 -0.1794 -0.4684
    1PC     H2A 6069   0.570   0.067   6.948  1.4197 -1.5441 -0.2181
    1PC     H2B 6070   0.408  -0.001   6.891 -0.8163  1.1427  0.7610
    1PC     N31 6071   0.448  -0.031   7.091 -0.0894  0.8674 -0.1290
    1PC     C33 6072   0.379   0.090   7.135  0.4097  0.2943  0.2113
    1PC     H3A 6073   0.346   0.069   7.237 -1.3755 -1.6438 -0.7212
    1PC     H3B 6074   0.445   0.174   7.116  1.2211 -1.0707 -3.4047
    1PC     H3C 6075   0.286   0.092   7.077 -0.1585 -1.0992  1.0468
    1PC     C34 6076   0.357  -0.150   7.110 -0.4384  0.1529  0.8713
    1PC     H4A 6077   0.322  -0.150   7.213  3.7360  2.5983  2.4328
    1PC     H4B 6078   0.273  -0.124   7.046  0.1414  1.7604  0.7198
    1PC     H4C 6079   0.416  -0.234   7.075  0.8242  0.9055  1.1612
    1PC     C35 6080   0.570  -0.050   7.169  0.2315 -0.4536  0.1210
    1PC     H5A 6081   0.602  -0.152   7.149  0.3933 -0.0804 -1.5799
    1PC     H5B 6082   0.542  -0.022   7.271 -2.8310 -0.3263 -0.6882
    1PC     H5C 6083   0.644   0.023   7.136  0.8126 -0.8867  0.4617
    1PC     O33 6084   0.541  -0.509   6.915 -0.2228  0.3602  0.2420
    1PC     O34 6085   0.753  -0.377   6.936 -0.5336 -0.6089 -0.3156
    1PC     O21 6086   0.595  -0.255   6.487  0.0597  0.6947  0.2318
    1PC     C21 6087   0.731  -0.267   6.482 -0.0693 -0.3682 -0.0058
    1PC     O22 6088   0.789  -0.372   6.465  0.2865 -0.1312 -0.1434
    1OL     C12 6089   0.805  -0.142   6.479 -0.1246 -0.1807  0.0920
    1OL     H2R 6090   0.900  -0.153   6.532  0.4711 -2.6569 -1.4413
    1OL     H2S 6091   0.751  -0.060   6.528  0.2195 -0.2987  0.6726
    1OL     C13 6092   0.837  -0.100   6.335 -0.4402 -0.0316 -0.3268
    1OL     H3R 6093   0.739  -0.083   6.291 -0.1164  2.1641 -0.2613
    1OL     H3S 6094   0.884  -0.189   6.292  1.6443  0.7043  0.3437
    1OL     C14 6095   0.918   0.033   6.320 -0.2480 -0.2837 -0.1147
    1OL     H4R 6096   1.001   0.034   6.392  1.3017 -0.9680 -1.8477
    1OL     H4S 6097   0.852   0.117   6.345 -0.5084 -0.7179  0.6908
    1OL     C15 6098   0.984   0.054   6.184  0.3749 -0.3142 -0.1469
    1OL     H5R 6099   1.037  -0.036   6.156  0.8746  0.8626 -3.1465
    1OL     H5S 6100   1.063   0.129   6.191  0.2175 -0.0594 -0.9581
    1OL     C16 6101   0.886   0.084   6.068 -0.3163 -0.3504  0.4697
    1OL     H6R 6102   0.848   0.186   6.070 -0.6862 -0.4980  0.8401
    1OL     H6S 6103   0.799   0.018   6.070 -2.3223  2.0735 -2.9152
    1OL     C17 6104   0.960   0.075   5.929  0.5910 -0.2815 -0.6493
    1OL     H7R 6105   1.027  -0.011   5.937  0.2718 -0.5723 -1.0539
    1OL     H7S 6106   1.030   0.159   5.917 -1.4421  1.3569 -1.2337
    1OL     C18 6107   0.868   0.067   5.808 -0.3376 -0.2276  0.0480
    1OL     H8R 6108   0.916   0.086   5.712 -0.5922  2.9005  0.4804
    1OL     H8S 6109   0.814   0.161   5.824  1.5263  0.5126  2.1674
    1OL     C19 6110   0.776  -0.053   5.811  0.1871 -0.6417 -0.6887
    1OL     H9R 6111   0.797  -0.119   5.895 -0.6849  0.4519  0.4058
    1OL    C110 6112   0.693  -0.105   5.720 -0.1773 -0.8655  0.2903
    1OL    H10R 6113   0.637  -0.194   5.748  2.2442 -2.7657 -0.6429
    1OL    C111 6114   0.666  -0.053   5.582  0.0046  0.8554  0.2347
    1OL    H11R 6115   0.730   0.035   5.572  2.6912 -1.2259 -1.4660
    1OL    H11S 6116   0.562  -0.018   5.580  0.0123  0.8640 -2.3007
    1OL    C112 6117   0.689  -0.156   5.470 -0.5291 -0.2272 -0.3927
    1OL    H12R 6118   0.611  -0.232   5.469  0.3774 -1.2035  0.7709
    1OL    H12S 6119   0.786  -0.204   5.483  0.8274  2.5025 -0.1225
    1OL    C113 6120   0.688  -0.080   5.333 -0.4830 -0.2952  0.0004
    1OL    H13R 6121   0.770  -0.010   5.317 -0.0236  0.1448  3.9059
    1OL    H13S 6122   0.593  -0.027   5.320  1.3865  2.4127 -3.5364
    1OL    C114 6123   0.709  -0.164   5.209  0.6086  0.1973  0.4473
    1OL    H14R 6124   0.615  -0.211   5.177  0.6203  0.7756 -0.4328
    1OL    H14S 6125   0.779  -0.247   5.224 -0.8766 -0.7702  2.2638
    1OL    C115 6126   0.759  -0.084   5.082 -0.0101 -0.2447 -0.1833
    1OL    H15R 6127   0.864  -0.054   5.087 -0.1436  0.3317 -0.7709
    1OL    H15S 6128   0.696   0.003   5.065  0.7525  0.2380 -0.5621
    1OL    C116 6129   0.742  -0.172   4.964  0.3895  0.1241 -0.5833
    1OL    H16R 6130   0.637  -0.179   4.933  0.5355  1.4899 -1.3927
    1OL    H16S 6131   0.784  -0.272   4.977  0.5821 -0.0775 -2.6375
    1OL    C117 6132   0.822  -0.111   4.848 -0.2468 -1.1292  0.3453
    1OL    H17R 6133   0.806  -0.181   4.765 -1.3907 -0.5288  0.0565
    1OL    H17S 6134   0.927  -0.131   4.871 -0.6055 -2.8496  0.6071
    1OL    C118 6135   0.802   0.038   4.814  0.2046  0.6081 -0.9031
    1OL    H18R 6136   0.832   0.098   4.901 -1.1639 -1.0147  0.7129
    1OL    H18S 6137   0.697   0.054   4.790  0.4956 -0.2056 -2.8018
    1OL    H18T 6138   0.851   0.065   4.720 -0.7296  1.4728 -1.1516
    1PA    C116 6139   3.025   1.038   4.849 -0.2705  0.3680  0.4758
    1PA    H16R 6140   3.106   1.093   4.898  0.7508  0.7092 -1.5254
    1PA    H16S 6141   3.033   0.931   4.868 -2.1448  0.1216 -0.0399
    1PA    H16T 6142   2.928   1.076   4.883 -2.1226 -2.0813 -1.8636
    1PA    C115 6143   3.041   1.065   4.699  0.3403 -0.1243  0.2536
    1PA    H15R 6144   3.052   1.172   4.680 -1.0860 -0.3222 -1.8050
    1PA    H15S 6145   3.129   1.017   4.655  1.0324  0.2209  1.2289
    1PA    C114 6146   2.906   1.015   4.638  0.3114 -0.5091 -0.4690
    1PA    H14R 6147   2.913   0.906   4.630 -4.3151 -0.9253 -0.0798
    1PA    H14S 6148   2.825   1.051   4.702  0.4171 -2.4812  0.8114
    1PA    C113 6149   2.888   1.068   4.491 -0.5813 -0.4419  0.1413
    1PA    H13R 6150   2.918   1.173   4.498 -1.3867 -0.1687 -0.4019
    1PA    H13S 6151   2.965   1.023   4.428 -0.4035 -0.0618  0.0847
    1PA    C112 6152   2.755   1.051   4.439 -0.1162 -0.0653  0.3273
    1PA    H12R 6153   2.730   0.946   4.422 -1.4955  0.5194 -1.4570
    1PA    H12S 6154   2.687   1.089   4.517 -0.5967 -0.8240  0.2848
    1PA    C111 6155   2.713   1.119   4.308  0.0692  0.1319 -0.6187
    1PA    H11R 6156   2.782   1.086   4.230 -0.9180 -0.6099 -1.1919
    1PA    H11S 6157   2.615   1.081   4.278  1.0364 -0.1028 -3.6674
    1PA    C110 6158   2.705   1.270   4.318  0.1194 -0.3297  0.2275
    1PA    H10R 6159   2.644   1.283   4.408  3.3459 -0.4552  2.5304
    1PA    H10S 6160   2.805   1.306   4.342  0.5022  0.3179 -2.2578
    1PA     C19 6161   2.654   1.344   4.193  0.1149  0.0880  0.7768
    1PA     H9R 6162   2.550   1.323   4.169  0.7460 -2.1056 -0.2360
    1PA     H9S 6163   2.651   1.450   4.219 -0.6154  0.9460 -2.6374
    1PA     C18 6164   2.732   1.320   4.066  0.2077  0.2569  0.3519
    1PA     H8R 6165   2.841   1.314   4.076  0.2956  1.4476  0.1512
    1PA     H8S 6166   2.697   1.225   4.025  0.3634  0.6680 -0.7328
    1PA     C17 6167   2.705   1.428   3.958  0.5644  0.3906 -0.0952
    1PA     H7R 6168   2.597   1.441   3.949  0.1815 -2.1714  0.4239
    1PA     H7S 6169   2.743   1.522   3.997 -1.4261  1.0197  0.3981
    1PA     C16 6170   2.773   1.389   3.831 -0.5698 -0.3057  1.1076
    1PA     H6R 6171   2.810   1.481   3.786 -0.3603 -1.3350 -0.8412
    1PA     H6S 6172   2.867   1.340   3.859  0.2638  1.1809  0.9313
    1PA     C15 6173   2.702   1.298   3.731 -0.3375  0.0775  0.1059
    1PA     H5R 6174   2.771   1.281   3.648 -0.0485  0.2416  0.3143
    1PA     H5S 6175   2.680   1.201   3.776 -0.6533  0.6704  1.2387
    1PA     C14 6176   2.578   1.358   3.663 -0.1890  0.4496  0.3923
    1PA     H4R 6177   2.496   1.371   3.733 -0.1692  2.3815  0.0996
    1PA     H4S 6178   2.601   1.462   3.637  1.2681 -0.3951 -1.8980
    1PA     C13 6179   2.537   1.268   3.544  0.6615 -0.3915  1.0065
    1PA     H3R 6180   2.619   1.267   3.471 -1.1654  0.4162 -1.1035
    1PA     H3S 6181   2.515   1.170   3.586 -0.6331 -0.2352  0.6995
    1PA     C12 6182   2.419   1.314   3.452 -0.6819  0.3291 -0.5861
    1PA     H2R 6183   2.389   1.244   3.374  1.2786 -0.0024 -1.0505
    1PA     H2S 6184   2.325   1.330   3.506 -0.2899  1.5686 -0.2725
    1PC     C11 6185   2.442   1.445   3.379  0.1830  0.8659 -0.1652
    1PC     O12 6186   2.464   1.452   3.262 -0.7778 -0.4664  0.7500
    1PC     O11 6187   2.435   1.553   3.458 -0.0531 -0.4260  0.7394
    1PC      C1 6188   2.465   1.673   3.390  0.1097 -0.6878  0.0153
    1PC      HR 6189   2.567   1.671   3.352  0.3546  0.4051  0.5854
    1PC      HS 6190   2.393   1.696   3.311 -1.0974 -2.0999  0.6801
    1PC      C2 6191   2.434   1.794   3.480  0.6207  0.1226 -0.4521
    1PC      HX 6192   2.328   1.797   3.508  0.8571 -0.9248  0.6193
    1PC      C3 6193   2.453   1.929   3.405  0.0178 -0.2945  0.4434
    1PC      HA 6194   2.391   1.928   3.316 -1.4106 -0.6816  1.4224
    1PC      HB 6195   2.425   2.016   3.465 -1.1301 -1.1440  1.1705
    1PC     O31 6196   2.598   1.940   3.356 -0.0250 -0.0491  0.1036
    1PC     P31 6197   2.648   1.917   3.211 -0.0962  0.0001 -0.0283
    1PC     O32 6198   2.664   2.070   3.153  0.0958 -0.7523 -0.5015
    1PC     C31 6199   2.772   2.150   3.207 -0.1355 -0.7834  0.4863
    1PC     H1A 6200   2.861   2.095   3.237  0.4214 -0.9676 -1.4331
    1PC     H1B 6201   2.798   2.220   3.127 -1.1075 -1.4879 -0.4724
    1PC     C32 6202   2.720   2.239   3.323 -0.2564  0.8727  0.3399
    1PC     H2A 6203   2.657   2.173   3.384  0.6388  0.1956  0.5349
    1PC     H2B 6204   2.807   2.267   3.382  0.1200  0.2078  0.0976
    1PC     N31 6205   2.629   2.352   3.285  0.4414  0.0575 -0.2036
    1PC     C33 6206   2.488   2.307   3.253  0.1523  0.1461 -0.3674
    1PC     H3A 6207   2.459   2.215   3.304 -2.0174  0.3672 -1.1258
    1PC     H3B 6208   2.414   2.383   3.277  1.3307  1.2898 -0.3087
    1PC     H3C 6209   2.494   2.279   3.147  1.7658  2.1324 -0.8416
    1PC     C34 6210   2.601   2.429   3.408 -0.8649 -0.0098  0.4482
    1PC     H4A 6211   2.534   2.513   3.387  0.8112  1.5480  1.2230
    1PC     H4B 6212   2.562   2.366   3.487  1.0855 -1.8360  0.0188
    1PC     H4C 6213   2.695   2.465   3.451 -0.0887 -1.7502  0.2633
    1PC     C35 6214   2.684   2.442   3.189  0.5564  0.0466 -0.3225
    1PC     H5A 6215   2.625   2.534   3.192  1.8116  0.9078 -1.3536
    1PC     H5B 6216   2.678   2.389   3.094  0.2221 -1.8541  0.7360
    1PC     H5C 6217   2.787   2.464   3.217  0.9060 -1.0674 -0.7231
    1PC     O33 6218   2.778   1.850   3.218 -0.2921  0.1260 -0.3778
    1PC     O34 6219   2.536   1.842   3.148 -0.3360 -0.4658  0.2662
    1PC     O21 6220   2.510   1.781   3.605 -0.2555 -0.4667 -0.2353
    1PC     C21 6221   2.476   1.863   3.706  0.4964  0.0344  0.4518
    1PC     O22 6222   2.384   1.950   3.704  0.1545 -0.4654 -0.6718
    1OL     C12 6223   2.555   1.828   3.830  0.0909 -0.2650  0.5946
    1OL     H2R 6224   2.649   1.882   3.822 -0.7463  0.9584 -1.4769
    1OL     H2S 6225   2.571   1.720   3.821  0.5788 -0.0458 -1.5425
    1OL     C13 6226   2.491   1.845   3.969  0.0252  0.2359  0.5877
    1OL     H3R 6227   2.393   1.797   3.976  0.8354 -1.3966  1.2797
    1OL     H3S 6228   2.478   1.952   3.984  1.3575  0.6532 -1.1300
    1OL     C14 6229   2.578   1.785   4.090  0.3316 -0.0547  0.1529
    1OL     H4R 6230   2.682   1.817   4.080  0.2726  0.5129  1.2416
    1OL     H4S 6231   2.579   1.676   4.076  0.2801 -0.1602  0.9616
    1OL     C15 6232   2.522   1.812   4.234  0.5844 -0.2665 -0.4964
    1OL     H5R 6233   2.418   1.782   4.247  0.0773  1.6279 -0.1047
    1OL     H5S 6234   2.514   1.919   4.253 -0.9920 -0.4139 -0.2208
    1OL     C16 6235   2.610   1.745   4.341 -0.1594 -0.4429  0.1119
    1OL     H6R 6236   2.713   1.782   4.331 -0.8680  1.3711 -0.7263
    1OL     H6S 6237   2.599   1.639   4.319 -1.6101 -0.3852  0.5000
    1OL     C17 6238   2.564   1.781   4.481 -0.0382 -0.4139 -0.5243
    1OL     H7R 6239   2.470   1.727   4.488  0.3928 -1.1038  0.0605
    1OL     H7S 6240   2.541   1.887   4.488 -0.2398 -0.4023 -1.3730
    1OL     C18 6241   2.667   1.732   4.582 -0.3180 -0.2973 -0.1281
    1OL     H8R 6242   2.764   1.773   4.554 -0.6004  1.8878  1.8487
    1OL     H8S 6243   2.694   1.627   4.584 -0.0637 -0.2153  1.6866
    1OL     C19 6244   2.639   1.774   4.730  0.1286  0.0684 -0.0487
    1OL     H9R 6245   2.555   1.842   4.738 -1.4169 -1.8958  0.7187
    1OL    C110 6246   2.696   1.729   4.840 -0.1899 -0.4217  0.3245
    1OL    H10R 6247   2.669   1.780   4.932  0.6735  1.0232 -0.2116
    1OL    C111 6248   2.809   1.628   4.846 -0.0932  0.7516  0.7462
    1OL    H11R 6249   2.890   1.663   4.910 -1.0436  0.3115  2.2076
    1OL    H11S 6250   2.850   1.613   4.746 -1.8014  1.9655 -0.1613
    1OL    C112 6251   2.763   1.496   4.918  0.6513 -0.1400 -0.1413
    1OL    H12R 6252   2.699   1.531   4.999  0.1827  2.1706 -1.4703
    1OL    H12S 6253   2.841   1.432   4.962 -1.4224 -1.9058  1.0790
    1OL    C113 6254   2.680   1.411   4.807 -0.0153  0.0111 -0.6353
    1OL    H13R 6255   2.727   1.313   4.798  1.9597  0.8369  0.4642
    1OL    H13S 6256   2.693   1.467   4.714 -0.4477  1.4687  0.1770
    1OL    C114 6257   2.534   1.416   4.832  0.1224  0.4288 -0.5693
    1OL    H14R 6258   2.477   1.381   4.745  1.2012  1.2028 -1.6048
    1OL    H14S 6259   2.497   1.518   4.847  0.6609  0.5680 -0.1878
    1OL    C115 6260   2.501   1.334   4.961  0.5632  0.3577  0.6223
    1OL    H15R 6261   2.400   1.365   4.987 -0.0831 -1.4340  0.2977
    1OL    H15S 6262   2.572   1.354   5.042  2.2228 -0.7458 -0.5168
    1OL    C116 6263   2.515   1.182   4.939  0.2655 -0.3929  0.0315
    1OL    H16R 6264   2.601   1.157   4.878  0.1091 -1.3307  0.1850
    1OL    H16S 6265   2.428   1.158   4.877  0.3661  0.3329 -0.3929
    1OL    C117 6266   2.513   1.094   5.070  0.0408 -0.1055 -0.2957
    1OL    H17R 6267   2.599   1.127   5.129 -0.4605 -1.0013  0.9541
    1OL    H17S 6268   2.528   0.991   5.038  1.3469  0.1033 -0.3913
    1OL    C118 6269   2.380   1.125   5.145  0.1574 -0.7830  0.4287
    1OL    H18R 6270   2.295   1.067   5.107  1.6165 -1.1083 -2.4477
    1OL    H18S 6271   2.348   1.230   5.142  0.1122 -0.7692  1.2451
    1OL    H18T 6272   2.396   1.107   5.251 -0.1654  1.9311  0.9706
    1PA    C116 6273   2.731   3.208   4.841  0.1752  0.2668  0.3586
    1PA    H16R 6274   2.774   3.225   4.940 -2.8485  4.2761  1.1083
    1PA    H16S 6275   2.661   3.125   4.852  0.8971 -0.0992  2.3424
    1PA    H16T 6276   2.670   3.288   4.799  0.7083  1.3926  1.6953
    1PA    C115 6277   2.837   3.171   4.733 -0.0169 -0.0117  0.2018
    1PA    H15R 6278   2.780   3.156   4.641  1.1013 -0.6649 -0.4052
    1PA    H15S 6279   2.911   3.248   4.710 -0.6166 -0.0879 -2.1682
    1PA    C114 6280   2.925   3.043   4.777 -0.3097  0.1085 -0.1181
    1PA    H14R 6281   2.960   3.060   4.879  0.6027 -0.7457 -0.2792
    1PA    H14S 6282   2.869   2.950   4.784  0.9150 -0.6413 -0.2452
    1PA    C113 6283   3.051   3.026   4.686 -0.5874 -0.2489  0.8624
    1PA    H13R 6284   3.112   3.115   4.704 -0.5535  0.0002 -0.4354
    1PA    H13S 6285   3.108   2.943   4.727 -1.4992 -0.5450  1.5535
    1PA    C112 6286   3.026   3.004   4.537 -0.1312 -0.7197  0.1070
    1PA    H12R 6287   3.013   2.896   4.525  1.1750 -1.0763  1.6516
    1PA    H12S 6288   2.933   3.046   4.501  0.8168  1.1799 -0.1754
    1PA    C111 6289   3.152   3.037   4.451 -0.2268  0.5532  0.0751
    1PA    H11R 6290   3.173   3.143   4.463 -0.4418  0.6256 -0.1880
    1PA    H11S 6291   3.239   2.981   4.488 -0.5191 -0.9171 -1.3707
    1PA    C110 6292   3.138   2.999   4.299  0.1187 -0.0461  0.2870
    1PA    H10R 6293   3.051   3.042   4.248  0.1290 -2.2748 -1.7036
    1PA    H10S 6294   3.223   3.052   4.256  0.9616 -1.2026  0.5179
    1PA     C19 6295   3.140   2.848   4.272 -0.1071 -0.7901  0.4720
    1PA     H9R 6296   3.234   2.810   4.312  2.0231  2.4589 -1.2272
    1PA     H9S 6297   3.055   2.790   4.309  0.8729 -2.0907  0.7206
    1PA     C18 6298   3.130   2.827   4.120  0.5205  0.1528 -0.8871
    1PA     H8R 6299   3.032   2.845   4.076  0.3911 -0.7201 -0.9640
    1PA     H8S 6300   3.193   2.899   4.067  1.3787 -0.1705 -0.3161
    1PA     C17 6301   3.172   2.683   4.087 -0.6176 -0.1256 -0.0800
    1PA     H7R 6302   3.280   2.672   4.098 -0.6948 -1.0163 -0.2259
    1PA     H7S 6303   3.114   2.616   4.150 -3.1483  0.2008 -1.9983
    1PA     C16 6304   3.131   2.649   3.942 -0.1285 -0.4417 -0.4781
    1PA     H6R 6305   3.137   2.540   3.936 -0.7826 -0.5430  0.5757
    1PA     H6S 6306   3.026   2.673   3.925 -0.0728 -1.0811 -1.8487
    1PA     C15 6307   3.224   2.710   3.831 -0.2963 -0.7827 -0.1189
    1PA     H5R 6308   3.243   2.810   3.869 -0.8598 -0.9756  0.6972
    1PA     H5S 6309   3.321   2.660   3.835 -0.2297 -0.5023  2.1686
    1PA     C14 6310   3.177   2.693   3.690  0.0836 -0.8589  0.2026
    1PA     H4R 6311   3.140   2.593   3.667 -0.1310 -1.0294  1.2993
    1PA     H4S 6312   3.097   2.764   3.667 -2.1599 -2.6827  2.1778
    1PA     C13 6313   3.282   2.736   3.588  0.2105 -0.5242  0.4611
    1PA     H3R 6314   3.316   2.836   3.619 -1.9118 -0.1116  1.5139
    1PA     H3S 6315   3.368   2.669   3.588  1.0154  0.4791 -0.1141
    1PA     C12 6316   3.242   2.749   3.439 -0.4841  0.3854  0.5084
    1PA     H2R 6317   3.326   2.774   3.374  0.5754 -2.2470  0.8153
    1PA     H2S 6318   3.217   2.645   3.418 -0.8328  0.2856  1.4005
    1PC     C11 6319   3.122   2.835   3.410  1.2553 -0.1157  0.4946
    1PC     O12 6320   3.020   2.794   3.367 -0.1795  0.0969  0.5993
    1PC     O11 6321   3.143   2.963   3.448 -0.2819  0.2475 -0.1833
    1PC      C1 6322   3.043   3.065   3.409  0.3637  0.2393  0.0662
    1PC      HR 6323   3.021   3.060   3.302 -0.8870 -2.1964  0.4102
    1PC      HS 6324   2.948   3.030   3.449  0.8331 -3.2716 -1.6953
    1PC      C2 6325   3.081   3.206   3.458 -0.6212  0.0690  0.0567
    1PC      HX 6326   3.000   3.280   3.455 -0.2520  0.4788  0.0983
    1PC      C3 6327   3.200   3.267   3.392 -0.1132  0.4561  0.3379
    1PC      HA 6328   3.213   3.373   3.413 -0.9873  0.8438 -1.0474
    1PC      HB 6329   3.288   3.213   3.429  0.2302 -0.1564 -1.3392
    1PC     O31 6330   3.194   3.262   3.243 -0.0922  0.4654 -0.2339
    1PC     P31 6331   3.313   3.309   3.153 -0.5738 -0.3587 -0.1644
    1PC     O32 6332   3.432   3.207   3.191 -0.2018  0.7968 -0.5150
    1PC     C31 6333   3.443   3.068   3.146  0.1086 -0.4102  0.0251
    1PC     H1A 6334   3.382   3.002   3.209 -0.2289 -0.2306 -0.1138
    1PC     H1B 6335   3.418   3.060   3.040  1.1861  1.0530 -0.3400
    1PC     C32 6336   3.586   3.028   3.155 -0.0341  0.0633  0.4664
    1PC     H2A 6337   3.619   3.054   3.256 -1.2773 -3.1935  1.7602
    1PC     H2B 6338   3.599   2.921   3.140 -1.7713 -0.1545  0.4496
    1PC     N31 6339   3.697   3.093   3.069  0.1015 -0.0049  0.2137
    1PC     C33 6340   3.713   3.238   3.091  0.4362 -0.3781 -0.2699
    1PC     H3A 6341   3.611   3.276   3.076  1.4475  2.2504 -0.7519
    1PC     H3B 6342   3.753   3.243   3.192  2.2198  0.1966 -0.9963
    1PC     H3C 6343   3.784   3.264   3.012  1.2701 -0.0700  0.5783
    1PC     C34 6344   3.826   3.023   3.100  0.1291 -0.0869 -0.2300
    1PC     H4A 6345   3.817   2.925   3.053 -0.7746  0.6641 -1.6717
    1PC     H4B 6346   3.910   3.076   3.054  0.3142  0.1542  0.3917
    1PC     H4C 6347   3.831   3.017   3.208 -0.0572  1.3319 -0.1370
    1PC     C35 6348   3.659   3.080   2.925 -0.5713  0.0021 -0.2191
    1PC     H5A 6349   3.653   2.973   2.909 -1.2495 -0.4345  2.6660
    1PC     H5B 6350   3.743   3.133   2.879 -0.1391 -2.2966 -2.1807
    1PC     H5C 6351   3.560   3.121   2.905  0.3015  2.1271 -0.4237
    1PC     O33 6352   3.266   3.295   3.008 -0.3852 -0.0141  0.2875
    1PC     O34 6353   3.353   3.443   3.190 -0.2718  0.2610  0.3961
    1PC     O21 6354   3.119   3.186   3.594 -0.0681 -0.4010 -0.0346
    1PC     C21 6355   3.029   3.151   3.690 -0.1144  0.1365  0.1567
    1PC     O22 6356   2.909   3.157   3.661 -0.1086 -0.3657 -0.2030
    1OL     C12 6357   3.080   3.107   3.829 -0.4908 -0.0745 -0.7288
    1OL     H2R 6358   3.161   3.033   3.827 -0.8467 -0.4377 -1.7189
    1OL     H2S 6359   3.005   3.044   3.878  0.6871 -0.2686  0.8812
    1OL     C13 6360   3.109   3.234   3.911 -0.5528 -0.2760 -0.0425
    1OL     H3R 6361   3.175   3.302   3.858 -1.9187  2.2681  1.4495
    1OL     H3S 6362   3.155   3.209   4.007 -1.2617 -0.7658  0.1769
    1OL     C14 6363   2.978   3.309   3.938  0.6815 -0.2148  0.0531
    1OL     H4R 6364   2.904   3.245   3.985 -0.1297  0.2537 -0.5726
    1OL     H4S 6365   2.922   3.353   3.855 -0.6061  0.6999  1.3734
    1OL     C15 6366   3.006   3.429   4.040 -0.4798  0.4443  0.6901
    1OL     H5R 6367   2.907   3.470   4.063 -1.1706 -1.1730  0.6965
    1OL     H5S 6368   3.065   3.501   3.983 -0.7451 -0.3548 -0.6245
    1OL     C16 6369   3.077   3.393   4.175  0.7782 -0.4056  0.5712
    1OL     H6R 6370   3.176   3.357   4.149  0.0901 -0.0558 -2.6710
    1OL     H6S 6371   3.029   3.316   4.236 -0.9993 -0.4335 -0.8246
    1OL     C17 6372   3.081   3.522   4.259 -0.8437  0.0094  0.0780
    1OL     H7R 6373   2.988   3.530   4.315 -1.0504  2.4011 -0.5346
    1OL     H7S 6374   3.069   3.610   4.194  1.4620 -0.3704 -0.9300
    1OL     C18 6375   3.217   3.533   4.340  0.0280 -0.7927 -0.0814
    1OL     H8R 6376   3.211   3.624   4.400 -1.1215 -0.4848 -0.6326
    1OL     H8S 6377   3.300   3.540   4.269 -0.5028 -2.6769 -0.9400
    1OL     C19 6378   3.247   3.421   4.439 -0.4364  0.6423  0.2251
    1OL     H9R 6379   3.203   3.326   4.410 -0.2092  0.7162 -0.3791
    1OL    C110 6380   3.317   3.420   4.551  0.1863 -0.8173 -0.1735
    1OL    H10R 6381   3.326   3.328   4.608  0.2139 -0.9324 -0.3610
    1OL    C111 6382   3.390   3.545   4.610  0.1086 -0.4457  0.0987
    1OL    H11R 6383   3.408   3.616   4.528  1.1827  0.3744  1.0190
    1OL    H11S 6384   3.495   3.521   4.631  0.4074 -0.6082 -1.4953
    1OL    C112 6385   3.323   3.609   4.728 -0.1767  0.1227 -0.7719
    1OL    H12R 6386   3.369   3.701   4.766  1.1024 -1.4742  1.6621
    1OL    H12S 6387   3.337   3.535   4.807 -0.4444  0.8899  0.0052
    1OL    C113 6388   3.167   3.633   4.715 -0.2029 -0.3527  0.0945
    1OL    H13R 6389   3.125   3.532   4.715  0.1797 -0.5218  1.0440
    1OL    H13S 6390   3.147   3.682   4.620  4.1074 -0.3773 -0.9230
    1OL    C114 6391   3.097   3.717   4.824  0.1031  0.2491  0.4451
    1OL    H14R 6392   3.105   3.824   4.805  1.7356 -0.0861 -0.9423
    1OL    H14S 6393   3.141   3.705   4.923  2.2122 -1.2682 -0.6241
    1OL    C115 6394   2.946   3.695   4.841 -0.1434 -0.1879 -0.0608
    1OL    H15R 6395   2.930   3.593   4.877  0.9618 -1.2653 -2.4634
    1OL    H15S 6396   2.889   3.716   4.750 -0.3780 -1.2667 -0.1744
    1OL    C116 6397   2.892   3.793   4.944  0.1349 -0.2309 -0.3273
    1OL    H16R 6398   2.929   3.891   4.915 -2.3454  0.8403 -0.0203
    1OL    H16S 6399   2.951   3.779   5.035 -1.5963  0.1208  0.8679
    1OL    C117 6400   2.734   3.800   4.953 -0.7793  1.0239  0.4172
    1OL    H17R 6401   2.714   3.864   5.039  0.4100  0.1514  1.3526
    1OL    H17S 6402   2.688   3.704   4.978  0.1647  0.3322 -0.4414
    1OL    C118 6403   2.665   3.859   4.830  0.2080  0.6051 -0.1258
    1OL    H18R 6404   2.734   3.938   4.799  0.0228  0.3419 -1.2598
    1OL    H18S 6405   2.564   3.883   4.863  0.0523 -0.7592  0.4513
    1OL    H18T 6406   2.668   3.780   4.754 -1.8170  0.5354 -0.1730
    1PA    C116 6407   3.809   1.829   5.041  0.1701 -0.6468 -0.0537
    1PA    H16R 6408   3.900   1.854   4.986  1.1977 -0.5085  1.6752
    1PA    H16S 6409   3.830   1.850   5.146 -1.0756  0.3308  0.0152
    1PA    H16T 6410   3.731   1.902   5.019 -1.5454 -1.8106  2.0247
    1PA    C115 6411   3.775   1.671   5.029  0.1054 -0.2914 -0.5445
    1PA    H15R 6412   3.849   1.608   5.080  0.3498 -0.7578 -1.4670
    1PA    H15S 6413   3.684   1.658   5.088  0.5074  1.6235  0.5351
    1PA    C114 6414   3.760   1.618   4.889 -0.2483 -0.2711 -0.0039
    1PA    H14R 6415   3.685   1.673   4.832  1.1640 -0.0806 -1.7362
    1PA    H14S 6416   3.853   1.633   4.834  0.5537  0.8147  1.6374
    1PA    C113 6417   3.723   1.468   4.892  0.7597  0.0932  0.5786
    1PA    H13R 6418   3.793   1.416   4.959  1.1730 -1.3655 -0.9695
    1PA    H13S 6419   3.624   1.457   4.936  0.6622  0.4201  0.4436
    1PA    C112 6420   3.723   1.401   4.753 -0.0384 -0.3480 -0.2846
    1PA    H12R 6421   3.791   1.457   4.689  1.2453 -0.0109  1.3473
    1PA    H12S 6422   3.756   1.297   4.762  2.6050  0.6479  2.2737
    1PA    C111 6423   3.582   1.396   4.694  0.0646 -0.5021 -0.4797
    1PA    H11R 6424   3.522   1.353   4.775 -0.2714  0.3677 -0.2646
    1PA    H11S 6425   3.543   1.495   4.669  0.6526 -0.3558 -0.8192
    1PA    C110 6426   3.576   1.305   4.568 -0.7152 -0.7892 -0.5533
    1PA    H10R 6427   3.637   1.352   4.491  2.3146 -0.5419  1.9231
    1PA    H10S 6428   3.618   1.208   4.593 -2.1715 -1.4061 -0.4427
    1PA     C19 6429   3.433   1.275   4.522  0.1479  0.5448  0.2019
    1PA     H9R 6430   3.372   1.222   4.596 -0.8970 -0.0685 -1.0837
    1PA     H9S 6431   3.380   1.367   4.499  0.1685  0.0253 -2.0497
    1PA     C18 6432   3.430   1.199   4.384 -0.1089 -0.2266 -0.3365
    1PA     H8R 6433   3.477   1.259   4.306  0.5205 -1.4435 -0.9051
    1PA     H8S 6434   3.476   1.100   4.380 -0.8979 -0.5445 -1.7151
    1PA     C17 6435   3.290   1.162   4.343 -0.2162  0.3599  0.2494
    1PA     H7R 6436   3.247   1.081   4.402 -0.5460  0.6296  0.3808
    1PA     H7S 6437   3.226   1.250   4.351  0.7102  1.1173 -0.5214
    1PA     C16 6438   3.296   1.124   4.194 -0.4575 -0.2421  0.3397
    1PA     H6R 6439   3.329   1.202   4.126 -0.6308 -1.1032 -0.7413
    1PA     H6S 6440   3.361   1.036   4.189 -0.5721 -0.2965 -0.1669
    1PA     C15 6441   3.158   1.076   4.141  0.3644  1.0218 -0.3417
    1PA     H5R 6442   3.110   1.014   4.217  1.1743  1.2180  0.3316
    1PA     H5S 6443   3.090   1.161   4.131 -0.0110  0.6304 -1.2300
    1PA     C14 6444   3.179   1.021   4.002  0.0735 -0.4772  0.5345
    1PA     H4R 6445   3.222   1.106   3.948  0.4057  1.2707  3.4514
    1PA     H4S 6446   3.250   0.938   4.000  1.4002  0.5613  2.9534
    1PA     C13 6447   3.044   0.973   3.955  0.1526  0.0628 -0.1329
    1PA     H3R 6448   3.005   0.896   4.021  0.3529  0.4570  0.4561
    1PA     H3S 6449   2.977   1.060   3.960 -0.5635 -0.3897 -1.7292
    1PA     C12 6450   3.054   0.920   3.804 -0.4957 -0.7118 -0.2233
    1PA     H2R 6451   3.141   0.854   3.808 -0.3457 -0.6207 -1.4767
    1PA     H2S 6452   2.967   0.862   3.773 -0.1086 -2.4782  1.9039
    1PC     C11 6453   3.078   1.028   3.700  0.4104  0.5364 -0.1488
    1PC     O12 6454   3.047   1.146   3.708  0.4386 -0.5778 -0.3740
    1PC     O11 6455   3.140   0.973   3.591 -0.0725 -0.1990  0.3713
    1PC      C1 6456   3.171   1.048   3.474 -0.4542  0.0523 -0.2839
    1PC      HR 6457   3.184   0.980   3.389  4.1137 -0.3747  0.6430
    1PC      HS 6458   3.083   1.111   3.460  0.1425  1.2666  1.2568
    1PC      C2 6459   3.303   1.128   3.483 -0.0511  0.4720  0.4039
    1PC      HX 6460   3.307   1.204   3.404  1.4420 -0.2191 -0.1885
    1PC      C3 6461   3.435   1.044   3.473 -0.0602 -0.8521  0.4924
    1PC      HA 6462   3.479   1.043   3.573 -0.4463 -0.0675  0.6793
    1PC      HB 6463   3.411   0.939   3.456 -0.3058 -0.6518 -0.4310
    1PC     O31 6464   3.526   1.089   3.369  0.5880  0.2553  0.1753
    1PC     P31 6465   3.498   1.058   3.224  0.3542 -0.1072 -0.1244
    1PC     O32 6466   3.612   0.951   3.190  0.5056 -0.1213  0.0659
    1PC     C31 6467   3.601   0.810   3.218  0.2497 -0.3117 -0.0044
    1PC     H1A 6468   3.697   0.768   3.250  0.4958 -0.4589 -0.9339
    1PC     H1B 6469   3.538   0.803   3.307  0.5260  1.5372  0.3580
    1PC     C32 6470   3.540   0.733   3.099  0.4515  0.4241 -0.2059
    1PC     H2A 6471   3.528   0.627   3.123  0.7372  1.1825  3.5874
    1PC     H2B 6472   3.448   0.785   3.076 -0.1098 -1.4178 -2.2781
    1PC     N31 6473   3.617   0.728   2.967 -0.1068  0.9232 -0.0750
    1PC     C33 6474   3.738   0.647   2.990 -0.3152  0.3032 -0.3580
    1PC     H3A 6475   3.772   0.579   2.911 -2.2899  0.3965 -1.3198
    1PC     H3B 6476   3.825   0.698   3.031  0.5077  0.3394 -2.0959
    1PC     H3C 6477   3.700   0.587   3.073  0.4289 -0.4353 -0.5406
    1PC     C34 6478   3.541   0.663   2.864 -0.3411  0.2908 -0.0977
    1PC     H4A 6479   3.599   0.675   2.772 -2.1368  0.7812 -1.1935
    1PC     H4B 6480   3.516   0.560   2.891 -1.1124  0.5161  0.0711
    1PC     H4C 6481   3.450   0.724   2.860  0.7291  1.9962  0.9821
    1PC     C35 6482   3.646   0.862   2.924  0.1889 -0.4390 -0.2584
    1PC     H5A 6483   3.691   0.859   2.825  0.7061  0.7914 -0.0651
    1PC     H5B 6484   3.714   0.915   2.991 -1.9934  0.7074  1.0988
    1PC     H5C 6485   3.548   0.907   2.908  0.2885 -0.7977 -2.0057
    1PC     O33 6486   3.372   0.988   3.211  0.2962 -0.4787  0.6597
    1PC     O34 6487   3.519   1.179   3.137  0.2637  0.3883 -0.2418
    1PC     O21 6488   3.303   1.201   3.606 -0.5591 -0.2303 -0.4580
    1PC     C21 6489   3.353   1.321   3.619 -0.1270  0.1320  0.1180
    1PC     O22 6490   3.405   1.388   3.536 -0.0392  0.2452 -0.7925
    1OL     C12 6491   3.337   1.359   3.765 -0.1735  0.2377  0.4045
    1OL     H2R 6492   3.420   1.311   3.819  0.3085  0.6548  0.0456
    1OL     H2S 6493   3.247   1.313   3.805 -0.2298 -0.6238 -0.6865
    1OL     C13 6494   3.340   1.508   3.794  0.2117 -0.3741 -0.1756
    1OL     H3R 6495   3.270   1.549   3.721  0.5280  1.0380  0.3072
    1OL     H3S 6496   3.442   1.544   3.779  0.2510 -0.2911  0.2998
    1OL     C14 6497   3.301   1.542   3.935  0.1857  0.0258 -0.5244
    1OL     H4R 6498   3.303   1.651   3.947 -0.5264 -0.0301  0.1650
    1OL     H4S 6499   3.373   1.502   4.007  0.1784 -0.4444 -0.7795
    1OL     C15 6500   3.158   1.511   3.979 -0.2932  0.2788  0.3014
    1OL     H5R 6501   3.144   1.404   3.997 -1.0187 -0.0966 -2.2333
    1OL     H5S 6502   3.092   1.526   3.893  1.1022  0.7989 -0.6820
    1OL     C16 6503   3.119   1.588   4.101  0.2160  0.3722  0.0914
    1OL     H6R 6504   3.014   1.612   4.081  0.6853  2.8082  0.4652
    1OL     H6S 6505   3.170   1.683   4.114  0.8585  0.0230  0.1220
    1OL     C17 6506   3.124   1.508   4.227  0.4786  0.2828  0.1035
    1OL     H7R 6507   3.224   1.514   4.270  0.9131  0.3897 -0.9063
    1OL     H7S 6508   3.108   1.401   4.209  0.7015  0.2830 -0.0966
    1OL     C18 6509   3.032   1.579   4.323  0.2220 -0.0355 -0.4123
    1OL     H8R 6510   2.931   1.592   4.283 -0.0075  3.2007  1.0754
    1OL     H8S 6511   3.081   1.673   4.349  2.6611 -2.1769  3.3012
    1OL     C19 6512   3.026   1.499   4.449  0.6362  0.1148  0.4085
    1OL     H9R 6513   2.988   1.400   4.428 -1.4889  1.1569 -0.8542
    1OL    C110 6514   3.067   1.530   4.570  0.0026  1.4807  0.0711
    1OL    H10R 6515   3.052   1.457   4.649  2.3309  0.6706 -0.2210
    1OL    C111 6516   3.142   1.660   4.610  0.7738  0.2105 -0.2473
    1OL    H11R 6517   3.112   1.693   4.709 -0.0284  1.2076 -0.8031
    1OL    H11S 6518   3.115   1.746   4.547  0.2729  0.9486  0.9650
    1OL    C112 6519   3.293   1.641   4.625 -0.4070 -0.1025 -0.3999
    1OL    H12R 6520   3.327   1.595   4.532  2.5138  0.6004  0.2799
    1OL    H12S 6521   3.304   1.566   4.703  0.4183  1.2515  0.8023
    1OL    C113 6522   3.373   1.770   4.649  0.2845  0.0640 -0.5690
    1OL    H13R 6523   3.470   1.747   4.693  0.1466 -0.6521 -0.6365
    1OL    H13S 6524   3.335   1.825   4.736 -0.2217 -1.3826  0.1359
    1OL    C114 6525   3.368   1.867   4.525  0.6441  0.1641 -0.6310
    1OL    H14R 6526   3.414   1.962   4.553  0.2273  0.8035 -2.0780
    1OL    H14S 6527   3.265   1.884   4.493  0.5264  0.2669 -0.1853
    1OL    C115 6528   3.448   1.816   4.409  0.5333  0.3221 -0.8970
    1OL    H15R 6529   3.411   1.720   4.373 -1.2792  0.3235  0.8424
    1OL    H15S 6530   3.548   1.796   4.446 -0.1719 -3.0695 -0.7299
    1OL    C116 6531   3.449   1.904   4.283  0.1486  0.3068 -0.1557
    1OL    H16R 6532   3.510   1.993   4.298 -1.0806  1.0332  0.5929
    1OL    H16S 6533   3.347   1.937   4.264  0.5749  1.2661 -0.7863
    1OL    C117 6534   3.503   1.834   4.150  0.1945 -0.1490  0.5253
    1OL    H17R 6535   3.426   1.761   4.128  0.6930 -0.0612 -1.5634
    1OL    H17S 6536   3.596   1.783   4.174  0.2714  0.4436  1.5607
    1OL    C118 6537   3.509   1.929   4.025 -0.3714 -0.1068  0.3952
    1OL    H18R 6538   3.409   1.970   4.008  0.2613  1.0308 -0.5694
    1OL    H18S 6539   3.542   1.879   3.934 -2.2843 -0.0577 -0.3610
    1OL    H18T 6540   3.575   2.013   4.046  2.6916 -2.5259  0.9526
    1PA    C116 6541   2.732   2.211   5.101 -0.7837 -0.1908  0.5287
    1PA    H16R 6542   2.726   2.318   5.123  2.3155  0.0306  0.5159
    1PA    H16S 6543   2.728   2.154   5.194  0.8341  1.8698  1.9223
    1PA    H16T 6544   2.654   2.193   5.027 -0.1442 -0.6731 -0.0374
    1PA    C115 6545   2.871   2.195   5.036 -0.0362 -0.1224  0.3389
    1PA    H15R 6546   2.889   2.269   4.958  0.6616 -1.1037 -0.4505
    1PA    H15S 6547   2.948   2.200   5.114 -0.1941 -1.0627  0.5619
    1PA    C114 6548   2.883   2.055   4.969 -0.3428  0.1123  0.7850
    1PA    H14R 6549   2.877   1.975   5.044 -0.3556 -0.9736 -0.3649
    1PA    H14S 6550   2.798   2.045   4.901 -0.1979  0.7078  0.5110
    1PA    C113 6551   3.021   2.019   4.901  0.2539  0.3145  0.1097
    1PA    H13R 6552   3.101   2.022   4.976  0.6932 -1.6410 -0.2538
    1PA    H13S 6553   3.018   1.917   4.863 -1.5194  0.5018 -0.2686
    1PA    C112 6554   3.066   2.115   4.788  0.2232  0.2202  0.2446
    1PA    H12R 6555   2.981   2.180   4.764  1.2431  2.0965  1.6110
    1PA    H12S 6556   3.156   2.169   4.818 -0.3497  1.1940  0.2345
    1PA    C111 6557   3.088   2.033   4.659  0.1669 -0.0894  0.0426
    1PA    H11R 6558   3.148   2.090   4.587 -0.3847  1.1872  0.5739
    1PA    H11S 6559   3.154   1.949   4.684  0.0279 -0.2604 -0.1741
    1PA    C110 6560   2.954   1.994   4.593  0.3402 -0.1190  0.4903
    1PA    H10R 6561   2.909   1.904   4.637 -5.4830  0.8230 -2.9740
    1PA    H10S 6562   2.875   2.065   4.618 -0.7512 -1.6507  1.4738
    1PA     C19 6563   2.969   1.977   4.439 -0.1442 -0.3385  0.2774
    1PA     H9R 6564   3.061   1.921   4.425 -0.3856 -0.8345  0.6270
    1PA     H9S 6565   2.885   1.915   4.405 -1.2419  1.0102  0.4570
    1PA     C18 6566   2.980   2.106   4.359  0.1291 -0.0418 -0.9055
    1PA     H8R 6567   2.895   2.170   4.382 -0.5151 -0.9626 -0.6896
    1PA     H8S 6568   3.080   2.143   4.382  0.6161 -1.9881  0.2397
    1PA     C17 6569   2.980   2.080   4.206  0.5116 -0.3366 -0.3471
    1PA     H7R 6570   2.880   2.050   4.173  0.0797 -0.1581  0.7987
    1PA     H7S 6571   2.989   2.180   4.162 -2.0794 -0.5831 -1.5910
    1PA     C16 6572   3.092   1.989   4.165  0.5218 -0.0048 -1.1102
    1PA     H6R 6573   3.186   2.033   4.201 -0.7345  0.2303  2.0290
    1PA     H6S 6574   3.085   1.896   4.222 -0.5241  0.8391  0.1890
    1PA     C15 6575   3.111   1.965   4.013  0.2131 -0.1662 -0.1573
    1PA     H5R 6576   3.157   2.052   3.966  0.8462 -0.4846 -0.1241
    1PA     H5S 6577   3.180   1.882   3.998  1.5128  0.7452  0.7413
    1PA     C14 6578   2.977   1.931   3.935  0.0480  0.0303 -0.2609
    1PA     H4R 6579   2.911   1.869   3.997  0.5811  2.0910  2.4507
    1PA     H4S 6580   2.923   2.023   3.910 -1.5700 -1.0222 -0.7402
    1PA     C13 6581   3.007   1.857   3.806 -1.1334  0.3550 -0.6809
    1PA     H3R 6582   3.054   1.763   3.837 -0.1080  1.0794 -0.0037
    1PA     H3S 6583   2.912   1.832   3.758 -0.7786  0.3668 -1.3900
    1PA     C12 6584   3.100   1.937   3.710 -0.3687 -0.0468 -0.6695
    1PA     H2R 6585   3.188   1.981   3.757 -1.0133  1.4137 -0.8016
    1PA     H2S 6586   3.142   1.863   3.643 -1.2804  1.3248 -2.8151
    1PC     C11 6587   3.029   2.033   3.627 -0.3510  0.5410 -0.1681
    1PC     O12 6588   2.916   2.077   3.647  0.0067 -0.1290 -0.3506
    1PC     O11 6589   3.107   2.079   3.534  0.2747 -0.0174  0.1900
    1PC      C1 6590   3.080   2.203   3.465  0.7274  0.7357 -0.4017
    1PC      HR 6591   3.130   2.199   3.368  0.1223 -2.9930 -0.6376
    1PC      HS 6592   2.974   2.218   3.445  0.5187 -0.6340 -0.3720
    1PC      C2 6593   3.134   2.322   3.541 -0.4683  0.8498  0.4292
    1PC      HX 6594   3.092   2.409   3.489 -0.9925  0.5349  0.3292
    1PC      C3 6595   3.294   2.339   3.556  0.4063  0.1148  0.8334
    1PC      HA 6596   3.303   2.383   3.655 -0.2240 -1.8498  1.7944
    1PC      HB 6597   3.339   2.241   3.541  0.2485  0.4593 -2.3422
    1PC     O31 6598   3.351   2.439   3.464 -0.0143 -0.3800  0.5904
    1PC     P31 6599   3.390   2.409   3.313 -0.0230  0.2755  0.0344
    1PC     O32 6600   3.525   2.329   3.331  0.1881  0.4132 -0.4807
    1PC     C31 6601   3.522   2.187   3.328 -0.2449  0.1692 -0.2384
    1PC     H1A 6602   3.583   2.149   3.410  0.0419  1.6133  0.2400
    1PC     H1B 6603   3.426   2.138   3.346  0.0948 -1.2379 -2.1548
    1PC     C32 6604   3.575   2.145   3.189  0.1496  0.3800  0.9887
    1PC     H2A 6605   3.587   2.036   3.185 -2.1145  0.1789 -0.9111
    1PC     H2B 6606   3.504   2.180   3.114 -0.4932 -0.9222  0.9787
    1PC     N31 6607   3.704   2.205   3.149 -0.9842  0.5888 -0.0195
    1PC     C33 6608   3.783   2.114   3.056  0.7483  0.1425 -0.0289
    1PC     H3A 6609   3.794   2.011   3.089 -0.1009 -0.0677 -0.3893
    1PC     H3B 6610   3.733   2.117   2.958  0.0489 -2.0640  0.2485
    1PC     H3C 6611   3.882   2.157   3.039  1.5924 -1.8031 -0.1496
    1PC     C34 6612   3.698   2.335   3.082  0.0755 -0.5904 -0.1495
    1PC     H4A 6613   3.636   2.396   3.147 -0.5016 -0.3171 -0.9487
    1PC     H4B 6614   3.798   2.375   3.071 -0.6335  0.7497 -2.0699
    1PC     H4C 6615   3.645   2.300   2.992  0.7124  1.1420 -1.2198
    1PC     C35 6616   3.807   2.222   3.261 -0.4361 -0.4100 -0.7996
    1PC     H5A 6617   3.869   2.302   3.220  0.1840  0.0045  0.9011
    1PC     H5B 6618   3.868   2.133   3.273  2.6422  1.3785 -2.5155
    1PC     H5C 6619   3.753   2.258   3.349  0.3997 -0.2866 -0.3364
    1PC     O33 6620   3.280   2.322   3.259  0.2023  0.7332 -0.9065
    1PC     O34 6621   3.419   2.535   3.242 -0.1295  0.0414  0.6537
    1PC     O21 6622   3.064   2.325   3.668 -0.3510 -0.0412  0.0839
    1PC     C21 6623   2.941   2.368   3.670 -0.0835  0.4955 -0.0524
    1PC     O22 6624   2.886   2.410   3.569  0.2669 -0.1034  0.6575
    1OL     C12 6625   2.889   2.363   3.810  0.2276  0.8266  0.3976
    1OL     H2R 6626   2.972   2.392   3.875  1.3044  2.0912 -1.5155
    1OL     H2S 6627   2.870   2.257   3.832 -0.0945  0.7261 -0.3681
    1OL     C13 6628   2.779   2.458   3.838  1.0072  0.3257 -0.5844
    1OL     H3R 6629   2.693   2.437   3.774  0.2037 -1.3764  0.9915
    1OL     H3S 6630   2.811   2.560   3.816 -0.6382  0.8175 -0.7818
    1OL     C14 6631   2.723   2.450   3.985  0.2442  0.2671  0.7748
    1OL     H4R 6632   2.694   2.346   4.003 -0.2984  0.0405 -1.2905
    1OL     H4S 6633   2.629   2.505   3.984  0.0819  0.0850  3.1558
    1OL     C15 6634   2.814   2.505   4.093 -0.6423  0.1755 -0.0556
    1OL     H5R 6635   2.806   2.613   4.080 -0.8747  0.2301  0.5397
    1OL     H5S 6636   2.917   2.484   4.063 -0.9348  0.5705 -1.3736
    1OL     C16 6637   2.767   2.455   4.232  0.5387  0.1146  0.9185
    1OL     H6R 6638   2.788   2.348   4.236 -0.2156 -0.2038 -2.0901
    1OL     H6S 6639   2.662   2.477   4.249  0.4210 -0.0288  0.3825
    1OL     C17 6640   2.844   2.519   4.350 -0.5774 -0.6360 -0.5314
    1OL     H7R 6641   2.833   2.627   4.340 -1.1828 -0.6442 -0.0211
    1OL     H7S 6642   2.947   2.488   4.337  0.0781  1.5344 -0.7309
    1OL     C18 6643   2.809   2.469   4.493  0.6985  0.7021 -0.0657
    1OL     H8R 6644   2.851   2.369   4.503  1.1299  1.0839  2.0022
    1OL     H8S 6645   2.702   2.461   4.515  0.8574 -0.3533  0.3254
    1OL     C19 6646   2.880   2.560   4.591  0.3627 -0.2419  0.3020
    1OL     H9R 6647   2.987   2.539   4.599  0.8338  1.2369 -1.6293
    1OL    C110 6648   2.821   2.651   4.668 -0.2336  0.4148 -0.0994
    1OL    H10R 6649   2.883   2.707   4.738 -0.7204 -0.8828  1.3782
    1OL    C111 6650   2.676   2.688   4.671 -0.8455 -0.0973 -0.1921
    1OL    H11R 6651   2.614   2.632   4.600  2.3739  1.1281 -4.1501
    1OL    H11S 6652   2.658   2.795   4.657  1.6772  0.0859 -2.5037
    1OL    C112 6653   2.625   2.650   4.806 -0.1475 -0.1807  0.0731
    1OL    H12R 6654   2.678   2.712   4.878  1.5528 -0.1000 -1.2158
    1OL    H12S 6655   2.647   2.545   4.825 -0.8869 -0.5382 -0.9997
    1OL    C113 6656   2.472   2.661   4.820 -0.2377  0.2364 -1.1547
    1OL    H13R 6657   2.435   2.636   4.920  1.2345 -0.0498 -0.6556
    1OL    H13S 6658   2.427   2.595   4.746 -0.8635 -0.5654 -0.0841
    1OL    C114 6659   2.407   2.796   4.786 -0.3520  0.1207 -0.4728
    1OL    H14R 6660   2.386   2.796   4.679  2.1564  0.2039 -0.9810
    1OL    H14S 6661   2.471   2.883   4.794 -1.7246  1.2748 -1.7270
    1OL    C115 6662   2.274   2.828   4.860  0.3196  0.2437 -0.0345
    1OL    H15R 6663   2.213   2.738   4.858  0.3062  0.2803 -2.3266
    1OL    H15S 6664   2.213   2.905   4.812  0.0407  1.2214  1.8575
    1OL    C116 6665   2.293   2.879   5.003  0.1016 -0.6742  0.3829
    1OL    H16R 6666   2.354   2.807   5.057  0.8453  0.8382  1.6225
    1OL    H16S 6667   2.193   2.892   5.044  0.6965  0.2977  1.5602
    1OL    C117 6668   2.357   3.023   5.003 -0.2046 -0.0615  0.1458
    1OL    H17R 6669   2.297   3.091   4.942  1.7793  0.0217 -1.7778
    1OL    H17S 6670   2.455   3.028   4.956  0.6652  0.7981  1.9839
    1OL    C118 6671   2.387   3.081   5.138  0.3284  0.1561  0.0478
    1OL    H18R 6672   2.424   2.999   5.200  0.7131  0.5280  0.3105
    1OL    H18S 6673   2.290   3.115   5.173 -0.9786 -1.8262 -1.5221
    1OL    H18T 6674   2.458   3.163   5.123 -0.7898  1.1690  0.2291
    1PA    C116 6675   2.235   3.434   4.574 -0.3724  0.1953  0.2614
    1PA    H16R 6676   2.182   3.522   4.538  0.7648 -0.0505 -2.1542
    1PA    H16S 6677   2.333   3.461   4.615  0.3659 -1.6070 -0.2621
    1PA    H16T 6678   2.170   3.416   4.659 -0.5213 -1.3259 -0.1501
    1PA    C115 6679   2.229   3.326   4.465  0.3137 -0.6828  0.5875
    1PA    H15R 6680   2.130   3.337   4.420  0.9129  0.8045 -0.4066
    1PA    H15S 6681   2.303   3.352   4.389  0.5446 -1.5378  0.5069
    1PA    C114 6682   2.257   3.176   4.497 -0.0255 -0.4716 -0.1689
    1PA    H14R 6683   2.360   3.162   4.530  0.2954  3.7725  0.9287
    1PA    H14S 6684   2.193   3.143   4.579  0.8449 -0.3921  0.5482
    1PA    C113 6685   2.210   3.103   4.372 -0.4966  0.2014 -0.2704
    1PA    H13R 6686   2.104   3.119   4.354 -0.7430 -0.8574  0.1903
    1PA    H13S 6687   2.256   3.159   4.291 -0.4127 -0.0109 -0.3692
    1PA    C112 6688   2.215   2.951   4.368 -0.0403  0.4782 -0.4484
    1PA    H12R 6689   2.145   2.913   4.443  0.0545  2.8310  0.8827
    1PA    H12S 6690   2.172   2.925   4.271  0.6690  0.9827 -0.8989
    1PA    C111 6691   2.355   2.876   4.391 -0.2941 -0.2585 -1.1469
    1PA    H11R 6692   2.382   2.905   4.493  0.7230  0.3859 -1.5910
    1PA    H11S 6693   2.343   2.768   4.377 -0.2890 -0.5124  0.6079
    1PA    C110 6694   2.473   2.934   4.303  0.5600 -0.0543 -0.6767
    1PA    H10R 6695   2.428   2.938   4.204 -1.2098 -0.3726  0.0937
    1PA    H10S 6696   2.496   3.028   4.352  1.0468 -1.3490  1.6753
    1PA     C19 6697   2.598   2.845   4.313  0.0271 -0.8103 -0.6865
    1PA     H9R 6698   2.593   2.796   4.410  2.2728 -3.0017 -1.6298
    1PA     H9S 6699   2.595   2.756   4.251 -2.6171 -1.3238  0.0946
    1PA     C18 6700   2.737   2.906   4.294  0.4983 -0.2314  0.2502
    1PA     H8R 6701   2.757   2.983   4.369  2.9604 -1.3021  0.7526
    1PA     H8S 6702   2.825   2.843   4.310  1.2110 -0.2474 -3.2751
    1PA     C17 6703   2.750   2.978   4.156  0.0479 -0.0697 -0.6483
    1PA     H7R 6704   2.692   3.070   4.152  0.9543  0.4971 -0.9872
    1PA     H7S 6705   2.854   3.011   4.147 -0.1214  0.4216 -0.7935
    1PA     C16 6706   2.710   2.888   4.036  0.1884  0.4225 -0.1766
    1PA     H6R 6707   2.795   2.829   4.002 -0.4636 -0.8728  0.4286
    1PA     H6S 6708   2.633   2.813   4.056 -0.1224  1.0911  1.1737
    1PA     C15 6709   2.671   2.973   3.917 -0.8935 -0.3694  0.3995
    1PA     H5R 6710   2.581   3.028   3.942 -0.5410  0.3459  0.1206
    1PA     H5S 6711   2.750   3.045   3.896 -1.1426  0.4753  2.3197
    1PA     C14 6712   2.641   2.892   3.791 -0.0701  0.4630  0.6523
    1PA     H4R 6713   2.578   2.809   3.823  0.9736 -1.2511 -1.5814
    1PA     H4S 6714   2.582   2.955   3.725 -0.2397  0.5082  0.8484
    1PA     C13 6715   2.768   2.836   3.729  0.4001  0.1950 -0.0315
    1PA     H3R 6716   2.839   2.914   3.703  2.4605 -2.6151 -3.2760
    1PA     H3S 6717   2.820   2.788   3.812  0.3018  0.7027  0.3234
    1PA     C12 6718   2.737   2.749   3.607 -0.5716  0.9372 -0.6958
    1PA     H2R 6719   2.828   2.698   3.576 -2.0249 -2.0697 -0.1560
    1PA     H2S 6720   2.675   2.665   3.639  0.8363 -0.2930 -1.1902
    1PC     C11 6721   2.665   2.822   3.494 -0.0144 -0.1161 -0.7517
    1PC     O12 6722   2.650   2.944   3.484 -0.7557  0.2719  0.2744
    1PC     O11 6723   2.628   2.736   3.392 -0.4429 -0.5001  0.2605
    1PC      C1 6724   2.537   2.785   3.296 -0.3944  0.3681 -0.7438
    1PC      HR 6725   2.570   2.887   3.275 -1.0120  1.1340  1.8441
    1PC      HS 6726   2.556   2.720   3.209  0.7445 -1.0776  0.5513
    1PC      C2 6727   2.394   2.778   3.351  0.6144  0.5212 -0.3235
    1PC      HX 6728   2.370   2.678   3.388 -0.5312  1.5972  1.9464
    1PC      C3 6729   2.285   2.811   3.245 -0.3307  0.0738  0.1564
    1PC      HA 6730   2.260   2.726   3.181 -2.1187  0.9218 -0.3038
    1PC      HB 6731   2.190   2.836   3.293  0.5558 -0.3947  2.2051
    1PC     O31 6732   2.316   2.918   3.157 -0.5289  0.0139  0.8013
    1PC     P31 6733   2.200   2.998   3.073 -0.1071 -0.1705 -0.1700
    1PC     O32 6734   2.155   3.117   3.175 -0.3961  0.0038  0.1248
    1PC     C31 6735   2.032   3.130   3.239  0.0775 -0.4231  0.2852
    1PC     H1A 6736   1.987   3.228   3.223  0.2354 -0.1846  1.2647
    1PC     H1B 6737   1.970   3.055   3.190 -1.0868  0.0035  1.1014
    1PC     C32 6738   2.064   3.094   3.384  0.3457 -0.6251 -0.0103
    1PC     H2A 6739   2.091   2.989   3.393 -0.6911 -1.1611 -2.6012
    1PC     H2B 6740   2.149   3.154   3.420 -0.8734  0.3361  1.2985
    1PC     N31 6741   1.947   3.114   3.474 -0.1637 -0.5076 -0.6894
    1PC     C33 6742   1.895   3.257   3.465  0.4271 -0.0430  0.6729
    1PC     H3A 6743   1.857   3.275   3.364  1.6043 -2.1062 -0.1478
    1PC     H3B 6744   1.806   3.267   3.528 -0.4033 -2.6447 -0.0159
    1PC     H3C 6745   1.972   3.326   3.499 -1.4340  0.8020  3.2947
    1PC     C34 6746   1.827   3.031   3.442  0.0055  0.0933 -0.0804
    1PC     H4A 6747   1.765   3.014   3.530  0.9325 -1.7207  0.2481
    1PC     H4B 6748   1.778   3.070   3.353  0.5749  0.9817 -0.0116
    1PC     H4C 6749   1.863   2.936   3.403 -0.3474  0.3341 -0.9971
    1PC     C35 6750   1.990   3.082   3.615 -0.4962 -0.1482  0.5352
    1PC     H5A 6751   2.026   2.979   3.619  1.1896  0.4906  2.7745
    1PC     H5B 6752   1.901   3.084   3.678 -0.3063 -0.8526  0.8358
    1PC     H5C 6753   2.074   3.149   3.636 -0.1419  0.2672 -2.0630
    1PC     O33 6754   2.272   3.057   2.958  0.0723 -0.2873 -0.1422
    1PC     O34 6755   2.082   2.909   3.049  0.2001 -0.2435  0.2592
    1PC     O21 6756   2.376   2.870   3.465  0.7945  0.1266  0.2921
    1PC     C21 6757   2.364   2.812   3.585  0.0322  0.3454  0.0055
    1PC     O22 6758   2.408   2.700   3.611  0.0678  0.0992  0.0196
    1OL     C12 6759   2.298   2.901   3.683  0.4663  0.6450  0.1802
    1OL     H2R 6760   2.213   2.952   3.638 -0.5955  0.2685  1.6809
    1OL     H2S 6761   2.360   2.986   3.711  0.3863  0.8823 -0.3597
    1OL     C13 6762   2.249   2.824   3.808  0.1903  0.7349  0.0336
    1OL     H3R 6763   2.314   2.738   3.825 -1.6666 -0.4456  1.3350
    1OL     H3S 6764   2.149   2.784   3.791 -0.3494  1.0259  2.4327
    1OL     C14 6765   2.268   2.899   3.939 -0.1533 -0.0557  0.0635
    1OL     H4R 6766   2.364   2.952   3.938 -0.5898  0.7392 -0.3751
    1OL     H4S 6767   2.263   2.840   4.031 -1.9801 -0.6714 -0.4075
    1OL     C15 6768   2.175   3.021   3.956  0.0982 -0.8613 -0.0560
    1OL     H5R 6769   2.180   3.095   3.876 -0.3172 -0.4936  0.2595
    1OL     H5S 6770   2.209   3.066   4.050  2.6507 -2.5065 -0.1449
    1OL     C16 6771   2.026   2.982   3.977 -0.2201 -0.3515  0.1446
    1OL     H6R 6772   2.022   2.900   4.049  0.3822  0.5942  1.2755
    1OL     H6S 6773   1.977   2.953   3.884  0.8260 -2.8300  0.3156
    1OL     C17 6774   1.942   3.092   4.040  0.2178 -0.2310  0.0910
    1OL     H7R 6775   1.962   3.188   3.991 -0.0717  1.4497  3.1359
    1OL     H7S 6776   1.969   3.101   4.145  0.6311  3.7069 -0.2561
    1OL     C18 6777   1.792   3.055   4.025 -0.5977  0.6887  0.1133
    1OL     H8R 6778   1.775   2.949   4.046 -0.8205  1.1310  2.2191
    1OL     H8S 6779   1.767   3.060   3.919 -0.2588 -1.2732 -0.0822
    1OL     C19 6780   1.707   3.144   4.108  0.2982  0.6567 -0.0358
    1OL     H9R 6781   1.696   3.243   4.065  0.4566  0.1379 -1.2917
    1OL    C110 6782   1.650   3.121   4.231  0.6627 -0.3003  0.6644
    1OL    H10R 6783   1.583   3.194   4.275 -0.3089 -0.9441  0.2516
    1OL    C111 6784   1.648   2.990   4.307 -0.5647 -0.5108  0.0701
    1OL    H11R 6785   1.671   2.907   4.240  0.7820 -2.1154  2.4324
    1OL    H11S 6786   1.549   2.976   4.350 -1.1846 -0.7017 -1.3931
    1OL    C112 6787   1.754   2.999   4.421 -0.5170  0.7926 -0.5301
    1OL    H12R 6788   1.747   3.096   4.470  1.9558  0.2471  0.9615
    1OL    H12S 6789   1.851   2.991   4.372  0.2490 -1.2477  1.2752
    1OL    C113 6790   1.756   2.885   4.529  0.4479  0.1571  0.1040
    1OL    H13R 6791   1.652   2.875   4.560  0.4491 -0.9976 -0.2463
    1OL    H13S 6792   1.807   2.918   4.620 -0.6949  0.6426  0.5813
    1OL    C114 6793   1.793   2.743   4.496 -0.3308  0.1157  0.1913
    1OL    H14R 6794   1.749   2.718   4.399  0.6732 -0.7643 -0.0448
    1OL    H14S 6795   1.757   2.679   4.577  1.4166 -0.8233  0.2394
    1OL    C115 6796   1.939   2.721   4.499  0.0226 -0.5886  0.8817
    1OL    H15R 6797   1.978   2.791   4.573 -0.5075 -0.2879  0.8741
    1OL    H15S 6798   1.983   2.754   4.404 -2.1769 -0.0526  0.0266
    1OL    C116 6799   1.970   2.572   4.521 -0.3223 -0.6953  1.3611
    1OL    H16R 6800   2.073   2.561   4.487 -0.7688  2.6823 -1.3790
    1OL    H16S 6801   1.902   2.518   4.454  2.6204 -0.0043 -2.3340
    1OL    C117 6802   1.965   2.506   4.656 -0.4326 -0.4455  1.2957
    1OL    H17R 6803   1.862   2.496   4.691 -0.9181 -0.2709 -0.0499
    1OL    H17S 6804   2.024   2.550   4.736  0.5440 -2.2582  1.5977
    1OL    C118 6805   2.006   2.360   4.649  0.0968 -0.1278  0.3733
    1OL    H18R 6806   1.943   2.302   4.581 -1.0563  0.0084  1.3048
    1OL    H18S 6807   1.990   2.302   4.740 -1.2182 -0.5031 -0.0823
    1OL    H18T 6808   2.106   2.341   4.610 -0.3843  1.7866 -1.9279
    1PA    C116 6809   2.069   0.832   5.219  0.9077 -0.1032  0.2384
    1PA    H16R 6810   2.112   0.932   5.231 -0.3953  0.3091  1.5558
    1PA    H16S 6811   2.142   0.751   5.221  0.5218 -0.4970 -0.9284
    1PA    H16T 6812   2.025   0.811   5.317  0.6031  2.5949  0.7054
    1PA    C115 6813   1.969   0.817   5.110  0.1632 -0.2382  0.4685
    1PA    H15R 6814   1.916   0.722   5.114  0.9157 -0.7278 -0.8383
    1PA    H15S 6815   1.890   0.892   5.107  1.3252  1.0504  1.2114
    1PA    C114 6816   2.054   0.820   4.979 -0.2267  0.3680 -0.7030
    1PA    H14R 6817   2.118   0.909   4.973 -0.3081  0.3421 -2.0702
    1PA    H14S 6818   2.122   0.735   4.974  1.0099  1.3355 -0.7325
    1PA    C113 6819   1.961   0.813   4.853 -0.9898 -0.9920 -0.5754
    1PA    H13R 6820   1.894   0.728   4.863 -0.5567 -1.3672 -0.8571
    1PA    H13S 6821   1.904   0.907   4.850 -2.1533 -1.4696  3.3213
    1PA    C112 6822   2.036   0.794   4.719 -0.3164 -0.2219 -0.6057
    1PA    H12R 6823   2.126   0.736   4.738  0.7757  1.5580 -0.2279
    1PA    H12S 6824   1.973   0.745   4.644 -0.8676  0.7413 -0.7811
    1PA    C111 6825   2.067   0.929   4.656 -0.5641 -1.2188  0.4798
    1PA    H11R 6826   1.979   0.988   4.632 -0.5572 -1.2745  0.3206
    1PA    H11S 6827   2.126   0.980   4.734 -0.4658  3.6708 -2.5848
    1PA    C110 6828   2.156   0.901   4.531 -0.2104 -0.4140 -0.3285
    1PA    H10R 6829   2.225   0.818   4.552  0.8489  0.1469 -1.5563
    1PA    H10S 6830   2.096   0.844   4.460  2.2560 -1.1395 -1.9069
    1PA     C19 6831   2.214   1.028   4.467  0.9886  0.0126 -0.7605
    1PA     H9R 6832   2.129   1.087   4.431 -0.6905 -2.3153 -0.7321
    1PA     H9S 6833   2.272   1.083   4.542 -0.6343 -1.2914  1.5053
    1PA     C18 6834   2.301   1.007   4.342  0.6617  0.1682  0.3722
    1PA     H8R 6835   2.340   1.100   4.301  0.8713  0.2207  0.6847
    1PA     H8S 6836   2.377   0.939   4.382 -0.4390  0.6158  3.3677
    1PA     C17 6837   2.235   0.927   4.226 -0.0028  0.7369 -0.1101
    1PA     H7R 6838   2.314   0.875   4.171 -0.6166  0.1255 -0.4217
    1PA     H7S 6839   2.156   0.859   4.259  1.8840 -1.6840 -0.4790
    1PA     C16 6840   2.178   1.040   4.129 -0.9439  0.0397  0.3359
    1PA     H6R 6841   2.092   1.089   4.176 -1.6751  1.3727 -2.3359
    1PA     H6S 6842   2.254   1.113   4.100  0.5079 -2.5175 -2.4806
    1PA     C15 6843   2.134   0.985   3.985 -0.6209  0.1953 -0.2522
    1PA     H5R 6844   2.093   1.063   3.920 -1.0817  0.0579 -0.1311
    1PA     H5S 6845   2.228   0.956   3.938 -0.0185  1.4184  0.1816
    1PA     C14 6846   2.040   0.866   3.991 -0.0373 -0.2178 -0.2473
    1PA     H4R 6847   2.098   0.778   4.021  0.8709 -0.3960 -2.4668
    1PA     H4S 6848   1.960   0.894   4.060  1.3264 -1.5770  1.9524
    1PA     C13 6849   1.973   0.837   3.859  0.1178  0.3849  0.0458
    1PA     H3R 6850   1.902   0.755   3.872 -1.2432  1.0225 -3.0915
    1PA     H3S 6851   1.929   0.927   3.815 -3.0524 -0.7611  0.7620
    1PA     C12 6852   2.073   0.791   3.746  0.1375 -0.0248 -0.1328
    1PA     H2R 6853   2.140   0.710   3.776  1.3893  1.4195  1.0421
    1PA     H2S 6854   2.008   0.753   3.667 -0.1344 -0.1411  0.1457
    1PC     C11 6855   2.152   0.897   3.678  0.1253 -0.0030  0.0493
    1PC     O12 6856   2.274   0.907   3.687  0.0823 -0.3899 -0.1433
    1PC     O11 6857   2.084   0.976   3.593  0.4990 -0.8156  0.1387
    1PC      C1 6858   2.146   1.096   3.532 -0.4880 -0.6229  0.1335
    1PC      HR 6859   2.139   1.168   3.614 -2.4859 -0.2058 -0.3659
    1PC      HS 6860   2.250   1.081   3.505 -1.1715 -1.0734 -2.4033
    1PC      C2 6861   2.065   1.140   3.407 -0.3328 -0.6146 -0.0737
    1PC      HX 6862   1.958   1.131   3.424 -0.5723  0.2494 -1.1156
    1PC      C3 6863   2.106   1.058   3.282 -0.4390  0.5208  0.4101
    1PC      HA 6864   2.210   1.076   3.256 -0.5123  1.6959  0.9116
    1PC      HB 6865   2.085   0.954   3.308 -1.9972  1.0028  1.1404
    1PC     O31 6866   2.028   1.092   3.163 -0.3971 -0.3770 -0.8011
    1PC     P31 6867   2.090   1.103   3.012 -0.1101  0.2142  0.1883
    1PC     O32 6868   2.219   1.192   3.038 -0.0045 -0.4098 -0.0371
    1PC     C31 6869   2.220   1.332   3.022  0.0481  0.4789  0.3561
    1PC     H1A 6870   2.125   1.383   3.042 -0.9957 -0.8354 -1.1351
    1PC     H1B 6871   2.297   1.370   3.090 -2.0870 -1.2346  3.8308
    1PC     C32 6872   2.257   1.363   2.873 -0.1502  0.6584  0.3606
    1PC     H2A 6873   2.178   1.340   2.801  0.9551 -0.5807 -0.4767
    1PC     H2B 6874   2.267   1.472   2.872 -1.6687  0.8116  0.2566
    1PC     N31 6875   2.385   1.313   2.814 -0.0739  0.1137 -0.6478
    1PC     C33 6876   2.415   1.402   2.700 -0.2150 -0.1244  0.6754
    1PC     H3A 6877   2.445   1.497   2.743 -1.1279  0.3499  0.2640
    1PC     H3B 6878   2.499   1.351   2.654  0.8194  1.3723  0.8918
    1PC     H3C 6879   2.338   1.395   2.622 -0.5214 -0.8496  1.0283
    1PC     C34 6880   2.506   1.319   2.904 -0.1369  0.2992 -0.2665
    1PC     H4A 6881   2.511   1.411   2.962 -0.5042  1.3456 -1.8754
    1PC     H4B 6882   2.501   1.247   2.986 -1.5853  0.8102  0.1179
    1PC     H4C 6883   2.594   1.313   2.841  2.1120 -3.6087  2.9827
    1PC     C35 6884   2.366   1.172   2.777 -0.6980  0.1577 -0.2454
    1PC     H5A 6885   2.440   1.151   2.700  0.5383 -2.0425  1.5059
    1PC     H5B 6886   2.264   1.162   2.739 -0.2008  0.9189 -1.8219
    1PC     H5C 6887   2.383   1.113   2.867  0.1541  1.0041  0.1533
    1PC     O33 6888   2.148   0.974   2.980  0.4745  0.3887  0.1921
    1PC     O34 6889   1.997   1.169   2.915  0.8626  0.6644 -0.0659
    1PC     O21 6890   2.100   1.282   3.369 -0.2601  0.6104 -0.8062
    1PC     C21 6891   1.993   1.358   3.339  0.0999  0.3252 -0.3532
    1PC     O22 6892   1.879   1.328   3.368  0.1824 -0.4995  0.1273
    1OL     C12 6893   2.042   1.500   3.292  0.8835  0.0721 -0.0563
    1OL     H2R 6894   1.976   1.548   3.219  1.9930 -2.1717 -2.6755
    1OL     H2S 6895   2.137   1.492   3.239  1.2643 -0.5695  0.7084
    1OL     C13 6896   2.066   1.600   3.408  0.3475  0.0481  0.1363
    1OL     H3R 6897   2.131   1.683   3.381  0.7027 -0.1703  0.3222
    1OL     H3S 6898   2.126   1.547   3.481 -0.3982 -1.7345 -0.5114
    1OL     C14 6899   1.934   1.631   3.481 -0.4935 -0.2059  0.1879
    1OL     H4R 6900   1.890   1.534   3.505 -0.2255 -0.3786 -0.0138
    1OL     H4S 6901   1.875   1.685   3.408 -2.0260 -1.9857  0.0801
    1OL     C15 6902   1.938   1.704   3.616  0.2606 -0.7772  0.0323
    1OL     H5R 6903   1.837   1.720   3.656  0.4705 -0.8733  0.6021
    1OL     H5S 6904   1.977   1.804   3.597 -1.3651 -0.2092 -0.4688
    1OL     C16 6905   2.032   1.647   3.726 -0.2257  0.0391  0.4950
    1OL     H6R 6906   2.044   1.718   3.808 -1.8226 -0.4163  1.1432
    1OL     H6S 6907   2.132   1.628   3.687 -0.7155  0.3777 -0.9410
    1OL     C17 6908   1.995   1.510   3.797  0.2022 -0.0137  0.3893
    1OL     H7R 6909   2.074   1.496   3.871  1.2594 -2.3345 -1.1161
    1OL     H7S 6910   2.010   1.427   3.727  2.2607  0.6551 -0.0038
    1OL     C18 6911   1.854   1.491   3.865  0.1477  0.7633  0.6416
    1OL     H8R 6912   1.858   1.390   3.908 -0.7201  0.2380 -0.4743
    1OL     H8S 6913   1.789   1.497   3.777  0.7875 -0.9070  0.0270
    1OL     C19 6914   1.829   1.611   3.956 -0.0047  0.4513  0.0841
    1OL     H9R 6915   1.810   1.695   3.890 -0.0906 -0.8090 -1.5163
    1OL    C110 6916   1.811   1.623   4.086  0.0909 -0.3483  0.2053
    1OL    H10R 6917   1.784   1.723   4.120 -0.9306  0.1204 -1.9236
    1OL    C111 6918   1.826   1.500   4.177  0.4779  0.9911 -0.6322
    1OL    H11R 6919   1.849   1.408   4.123 -0.7941  0.5171 -0.3749
    1OL    H11S 6920   1.727   1.489   4.222  1.4559  0.8870  1.5240
    1OL    C112 6921   1.921   1.531   4.282 -0.3087 -0.2092 -0.5383
    1OL    H12R 6922   1.905   1.635   4.313  2.3004  0.2997 -0.7637
    1OL    H12S 6923   2.022   1.515   4.243 -0.0749  1.1292 -0.4986
    1OL    C113 6924   1.909   1.443   4.413 -0.1073 -0.3695  0.0753
    1OL    H13R 6925   1.902   1.338   4.386  0.1257  0.2544 -2.5629
    1OL    H13S 6926   1.826   1.480   4.473  0.4455  0.0056  0.6049
    1OL    C114 6927   2.042   1.471   4.490 -0.1876  0.0233  0.1021
    1OL    H14R 6928   2.035   1.578   4.508  4.6349  0.4149  0.1927
    1OL    H14S 6929   2.130   1.454   4.428  0.7344  2.6017  0.6788
    1OL    C115 6930   2.047   1.399   4.629  0.3963  0.0168  0.4634
    1OL    H15R 6931   2.056   1.292   4.612 -0.5151 -0.0438  0.3026
    1OL    H15S 6932   1.964   1.437   4.690  1.1760  2.2181  0.2129
    1OL    C116 6933   2.160   1.439   4.721 -0.5059 -0.1177 -0.7074
    1OL    H16R 6934   2.253   1.395   4.684 -0.6958 -0.5867 -0.6324
    1OL    H16S 6935   2.132   1.385   4.812 -1.3757 -1.2504 -1.6219
    1OL    C117 6936   2.163   1.591   4.756  0.1729 -0.5735  0.2815
    1OL    H17R 6937   2.160   1.647   4.662 -0.7066  1.4656  1.4918
    1OL    H17S 6938   2.253   1.614   4.814 -0.4394 -0.5730  1.2447
    1OL    C118 6939   2.046   1.647   4.839  0.6121  0.0680  0.8171
    1OL    H18R 6940   2.042   1.599   4.937 -1.1216 -2.4278 -0.4299
    1OL    H18S 6941   1.950   1.621   4.794  1.7783  0.0093 -1.7483
    1OL    H18T 6942   2.063   1.755   4.847  0.5500  0.2900 -1.6849
    1PA    C116 6943   2.482   2.109   4.714 -0.2956  0.1923 -0.6167
    1PA    H16R 6944   2.587   2.093   4.687 -0.5331  1.3607 -2.2971
    1PA    H16S 6945   2.422   2.020   4.696 -1.6016  0.5484  1.6890
    1PA    H16T 6946   2.479   2.144   4.818 -1.2519 -0.3294 -0.4664
    1PA    C115 6947   2.427   2.232   4.633 -0.4083  0.2890  0.0547
    1PA    H15R 6948   2.325   2.247   4.669 -1.0952  0.0045 -1.7048
    1PA    H15S 6949   2.488   2.318   4.662 -0.0323  0.2945 -0.7504
    1PA    C114 6950   2.431   2.203   4.483  0.3161 -0.5165  0.0972
    1PA    H14R 6951   2.535   2.181   4.460  0.4621 -1.7878  1.8323
    1PA    H14S 6952   2.368   2.114   4.474  0.9471 -0.9364 -0.2163
    1PA    C113 6953   2.384   2.314   4.389  0.7293  0.1075  0.5794
    1PA    H13R 6954   2.276   2.322   4.403  0.6599 -1.0323  0.7684
    1PA    H13S 6955   2.419   2.408   4.430 -3.2500  2.3297 -0.8275
    1PA    C112 6956   2.405   2.306   4.234 -0.0426 -0.4075 -0.8730
    1PA    H12R 6957   2.511   2.285   4.223  0.0564  1.0880 -3.0026
    1PA    H12S 6958   2.341   2.229   4.190 -0.1875  0.2380 -1.8201
    1PA    C111 6959   2.380   2.440   4.163  0.1258 -0.0875 -0.1902
    1PA    H11R 6960   2.463   2.509   4.179  0.0392 -0.0530  0.1067
    1PA    H11S 6961   2.396   2.423   4.056  0.7466 -1.4000  0.1026
    1PA    C110 6962   2.242   2.513   4.194  0.1704  0.0037  0.2381
    1PA    H10R 6963   2.260   2.565   4.288  3.4709 -0.8892  0.1631
    1PA    H10S 6964   2.234   2.589   4.116  0.1401  0.9616  1.1614
    1PA     C19 6965   2.109   2.438   4.200  0.3370  0.1660  0.3482
    1PA     H9R 6966   2.112   2.370   4.285  4.2159 -0.7048 -0.3884
    1PA     H9S 6967   2.040   2.517   4.228  1.1776  1.3046 -0.7475
    1PA     C18 6968   2.077   2.371   4.067  0.7562  0.3466  0.4441
    1PA     H8R 6969   2.163   2.312   4.034 -0.6314 -0.1259 -2.5095
    1PA     H8S 6970   1.989   2.309   4.080  1.0522 -0.2154 -0.1895
    1PA     C17 6971   2.051   2.468   3.946  0.0129 -0.3630  0.1217
    1PA     H7R 6972   2.133   2.540   3.946 -1.5892  1.5144  1.7250
    1PA     H7S 6973   2.043   2.415   3.851  0.9844 -1.0362  0.4061
    1PA     C16 6974   1.924   2.542   3.976 -0.2368 -0.1772 -0.0876
    1PA     H6R 6975   1.849   2.467   4.000  0.8771 -0.9547  1.0152
    1PA     H6S 6976   1.926   2.608   4.063 -0.3937  1.6201 -1.4030
    1PA     C15 6977   1.870   2.629   3.863 -0.1560  0.6960 -0.3943
    1PA     H5R 6978   1.957   2.682   3.823  1.5143 -1.6022  0.0164
    1PA     H5S 6979   1.856   2.558   3.781  1.7857 -1.4732  1.0788
    1PA     C14 6980   1.737   2.699   3.897 -0.5492  0.0591  0.0730
    1PA     H4R 6981   1.666   2.623   3.929  0.6037 -0.1086  2.3348
    1PA     H4S 6982   1.748   2.755   3.989 -1.1371  1.1442 -0.5074
    1PA     C13 6983   1.674   2.788   3.793 -0.1678 -0.8181  0.1026
    1PA     H3R 6984   1.588   2.833   3.843  1.5112  2.0807  0.5329
    1PA     H3S 6985   1.736   2.867   3.750 -0.4210 -0.6413  0.0612
    1PA     C12 6986   1.607   2.714   3.676 -0.2954  0.4039  0.5681
    1PA     H2R 6987   1.544   2.629   3.705  0.6108 -1.0591 -1.5667
    1PA     H2S 6988   1.534   2.774   3.621  0.9729 -0.3722 -2.0760
    1PC     C11 6989   1.701   2.676   3.566  0.2928 -0.1945 -0.0810
    1PC     O12 6990   1.796   2.745   3.537  0.1739 -0.4125  0.7083
    1PC     O11 6991   1.667   2.554   3.512 -0.4894  0.0364 -0.4542
    1PC      C1 6992   1.770   2.486   3.427  0.2841  0.0978  0.0202
    1PC      HR 6993   1.799   2.553   3.345  0.7321 -1.4170 -1.0806
    1PC      HS 6994   1.859   2.470   3.488  2.4888  3.2431 -2.1895
    1PC      C2 6995   1.719   2.353   3.353  0.7851 -0.3625 -0.5613
    1PC      HX 6996   1.797   2.323   3.284  0.8131 -1.7190  0.0584
    1PC      C3 6997   1.593   2.391   3.265  0.3487 -0.5333 -0.2610
    1PC      HA 6998   1.501   2.394   3.325  1.0221  1.1704  0.7263
    1PC      HB 6999   1.605   2.494   3.231  0.4501 -0.2857  0.5058
    1PC     O31 7000   1.570   2.296   3.157 -0.3306 -0.5203 -0.5103
    1PC     P31 7001   1.644   2.308   3.016 -0.0497  0.1408  0.2582
    1PC     O32 7002   1.734   2.186   3.019  0.4029  0.2839  0.1950
    1PC     C31 7003   1.708   2.074   2.930  0.0354 -0.2268  0.6259
    1PC     H1A 7004   1.625   2.015   2.968 -0.5533 -0.7355 -1.3691
    1PC     H1B 7005   1.677   2.127   2.839  1.4603  0.3900  0.4745
    1PC     C32 7006   1.842   1.996   2.923  0.2490  0.8215 -0.4557
    1PC     H2A 7007   1.887   1.994   3.023  1.7251 -1.4502 -1.1348
    1PC     H2B 7008   1.822   1.897   2.883  0.9628  1.0047 -1.2872
    1PC     N31 7009   1.953   2.055   2.837  0.7107  0.7915 -0.2211
    1PC     C33 7010   1.907   2.113   2.706 -0.3766  0.7144 -0.4596
    1PC     H3A 7011   1.994   2.133   2.643  0.9908 -0.9107  0.8715
    1PC     H3B 7012   1.849   2.041   2.647 -0.9555  2.2165 -1.7600
    1PC     H3C 7013   1.859   2.207   2.735 -0.0948  0.4116  1.0237
    1PC     C34 7014   2.029   2.154   2.912  0.0842  0.1125  0.0898
    1PC     H4A 7015   2.094   2.187   2.832 -1.5527  0.5331 -1.0997
    1PC     H4B 7016   1.970   2.243   2.937  0.0120 -0.1702  0.9562
    1PC     H4C 7017   2.090   2.121   2.996  0.6939 -0.0047 -0.3999
    1PC     C35 7018   2.050   1.945   2.813 -0.3815  0.6010  0.6403
    1PC     H5A 7019   2.010   1.870   2.745 -3.3973  1.6900  1.1447
    1PC     H5B 7020   2.084   1.903   2.908  0.3586 -1.0636 -0.3310
    1PC     H5C 7021   2.134   1.987   2.757 -0.3076 -0.1758  0.1628
    1PC     O33 7022   1.538   2.297   2.917 -0.3456 -0.8798  0.1596
    1PC     O34 7023   1.728   2.427   3.014 -0.1487  0.0351 -0.6478
    1PC     O21 7024   1.676   2.247   3.442 -0.0914 -0.5628 -0.0155
    1PC     C21 7025   1.766   2.149   3.466 -0.4407  0.0931 -0.2953
    1PC     O22 7026   1.887   2.150   3.433 -0.2192 -0.3083  0.0831
    1OL     C12 7027   1.706   2.033   3.536 -0.3186 -0.3060  0.2905
    1OL     H2R 7028   1.757   1.946   3.495  0.1928 -0.1789  0.6527
    1OL     H2S 7029   1.598   2.024   3.520 -0.3500  1.2469 -0.4078
    1OL     C13 7030   1.727   2.036   3.690  0.1491  0.2353  0.0474
    1OL     H3R 7031   1.691   1.945   3.739  3.1626  0.0305  2.0153
    1OL     H3S 7032   1.673   2.117   3.739 -0.1212  0.5529 -0.7682
    1OL     C14 7033   1.872   2.066   3.749 -0.0209 -0.1074 -0.2593
    1OL     H4R 7034   1.882   2.175   3.757  3.5659 -0.4667  0.9728
    1OL     H4S 7035   1.951   2.020   3.690 -0.3211 -0.5051 -0.3480
    1OL     C15 7036   1.885   2.008   3.893 -0.3147  0.0070 -0.1832
    1OL     H5R 7037   1.848   1.905   3.893  0.7010 -0.3604 -0.6399
    1OL     H5S 7038   1.815   2.062   3.958  0.2813 -0.4900  0.8886
    1OL     C16 7039   2.030   2.012   3.956  0.2877  0.3082 -0.1133
    1OL     H6R 7040   2.063   2.115   3.975 -0.4149  0.8009 -1.4839
    1OL     H6S 7041   2.102   1.958   3.895 -1.5636  0.5293 -2.5603
    1OL     C17 7042   2.020   1.942   4.096  0.2157 -0.0848 -0.1673
    1OL     H7R 7043   2.005   1.836   4.074  1.4615 -0.5638  1.2239
    1OL     H7S 7044   1.929   1.970   4.151 -0.6278 -2.4353 -0.3067
    1OL     C18 7045   2.146   1.966   4.188  0.2239 -0.1417  0.1738
    1OL     H8R 7046   2.151   2.069   4.224  0.7957  0.3993 -1.3730
    1OL     H8S 7047   2.238   1.958   4.130  0.0512 -2.3533  0.1899
    1OL     C19 7048   2.155   1.855   4.300  0.2698  0.5305 -0.6792
    1OL     H9R 7049   2.185   1.757   4.263  1.2934  1.3092 -1.9708
    1OL    C110 7050   2.133   1.870   4.432  0.3735 -0.1239 -0.1555
    1OL    H10R 7051   2.148   1.785   4.498  0.9888 -0.3733 -0.6048
    1OL    C111 7052   2.082   2.000   4.494  0.2631  0.3691  0.1976
    1OL    H11R 7053   2.031   2.060   4.419  0.2117  0.3473  0.2160
    1OL    H11S 7054   2.168   2.058   4.530 -1.2462  2.9586 -0.2068
    1OL    C112 7055   1.997   1.979   4.622 -0.2173 -0.0147  0.2323
    1OL    H12R 7056   1.968   2.080   4.652  0.6531  0.2598  0.1539
    1OL    H12S 7057   2.057   1.933   4.701 -0.4509 -1.8437 -0.6157
    1OL    C113 7058   1.861   1.908   4.594 -0.0125 -0.3527 -0.1453
    1OL    H13R 7059   1.815   1.884   4.690  1.0687  1.9715  1.0071
    1OL    H13S 7060   1.889   1.813   4.550 -0.5248 -0.7038  0.2780
    1OL    C114 7061   1.758   1.969   4.497 -0.6448  0.1422  1.0350
    1OL    H14R 7062   1.800   1.959   4.397 -1.5954 -2.8530  0.8944
    1OL    H14S 7063   1.734   2.075   4.513 -1.8008  0.1045 -0.4138
    1OL    C115 7064   1.619   1.901   4.497 -0.1091 -0.0988  0.1302
    1OL    H15R 7065   1.563   1.952   4.419  0.0766  0.6435  0.4817
    1OL    H15S 7066   1.564   1.899   4.591  1.8957 -0.4521  1.3273
    1OL    C116 7067   1.627   1.754   4.459 -0.0966  0.5031  0.4518
    1OL    H16R 7068   1.685   1.704   4.537  0.5000  2.0885  1.0467
    1OL    H16S 7069   1.679   1.735   4.364 -0.1762 -0.1592  0.5396
    1OL    C117 7070   1.490   1.683   4.455  0.1340 -0.2270  0.2358
    1OL    H17R 7071   1.421   1.739   4.393  1.4322  1.1347 -0.0130
    1OL    H17S 7072   1.445   1.683   4.555  1.0643 -1.0139  0.6750
    1OL    C118 7073   1.497   1.536   4.401 -0.5300  0.7590  0.3431
    1OL    H18R 7074   1.575   1.476   4.449  0.1502  0.7565 -0.7546
    1OL    H18S 7075   1.517   1.531   4.294 -0.3877  0.3766  0.3871
    1OL    H18T 7076   1.407   1.478   4.422  0.9146 -1.2736  1.1827
    1PA    C116 7077   2.256   4.281   5.073  0.6437 -0.3546  0.2566
    1PA    H16R 7078   2.290   4.206   5.144 -0.8403 -0.6277  0.7017
    1PA    H16S 7079   2.162   4.319   5.115  0.8840 -2.2053  2.5558
    1PA    H16T 7080   2.334   4.357   5.062  0.4010 -0.4568 -2.6146
    1PA    C115 7081   2.217   4.211   4.942 -0.2659  0.2261  0.9670
    1PA    H15R 7082   2.144   4.132   4.959  0.2139 -1.2362 -3.2484
    1PA    H15S 7083   2.172   4.287   4.879 -0.7940 -1.5932 -0.9048
    1PA    C114 7084   2.340   4.155   4.875 -0.0563  0.0213  0.1105
    1PA    H14R 7085   2.428   4.210   4.907  1.0423 -1.1942 -0.7416
    1PA    H14S 7086   2.336   4.052   4.911 -1.1268  0.3180  0.8482
    1PA    C113 7087   2.346   4.164   4.725  0.0336  0.0079  0.7461
    1PA    H13R 7088   2.255   4.119   4.685  0.9496 -0.7451 -0.4962
    1PA    H13S 7089   2.332   4.270   4.699  1.2747  0.0034  0.0093
    1PA    C112 7090   2.465   4.091   4.655 -0.3486  0.2870  0.6472
    1PA    H12R 7091   2.557   4.092   4.715 -2.0488 -1.4783  3.4096
    1PA    H12S 7092   2.442   3.986   4.638 -1.7170  0.3762  1.8845
    1PA    C111 7093   2.493   4.147   4.515 -0.6980 -0.4751  0.2572
    1PA    H11R 7094   2.399   4.144   4.461 -0.4589 -2.7021 -0.1027
    1PA    H11S 7095   2.535   4.244   4.542  0.9708 -0.7030 -1.4189
    1PA    C110 7096   2.599   4.080   4.435 -0.1943 -0.1815  0.2813
    1PA    H10R 7097   2.585   4.127   4.338  0.7955  0.9274  0.6580
    1PA    H10S 7098   2.698   4.107   4.471 -0.7133  0.9405  0.9180
    1PA     C19 7099   2.577   3.923   4.416 -0.3133 -0.1684 -0.2456
    1PA     H9R 7100   2.609   3.868   4.504 -2.2951 -0.6133  0.2378
    1PA     H9S 7101   2.471   3.897   4.418 -0.3115 -0.1274  1.2672
    1PA     C18 7102   2.637   3.857   4.288  0.9930  0.6049  0.4709
    1PA     H8R 7103   2.581   3.902   4.206 -1.0941 -2.4564  0.1452
    1PA     H8S 7104   2.744   3.878   4.278  0.6016  2.9349  1.0378
    1PA     C17 7105   2.603   3.716   4.288 -0.2586 -0.0322 -0.9055
    1PA     H7R 7106   2.624   3.658   4.378 -0.3823 -0.7941 -1.3581
    1PA     H7S 7107   2.498   3.712   4.259 -0.1826 -2.0133 -0.9624
    1PA     C16 7108   2.676   3.650   4.165  0.3980  0.1986 -0.6163
    1PA     H6R 7109   2.687   3.711   4.076  1.9816 -2.0765 -2.0305
    1PA     H6S 7110   2.779   3.628   4.193  1.3616  1.8166 -2.7878
    1PA     C15 7111   2.621   3.514   4.111  0.0299 -0.2278 -0.5294
    1PA     H5R 7112   2.694   3.474   4.041  0.8482  0.1698  0.0806
    1PA     H5S 7113   2.613   3.436   4.187 -0.5251 -0.6668 -1.0326
    1PA     C14 7114   2.488   3.515   4.036  0.0914  0.1143  0.3795
    1PA     H4R 7115   2.414   3.554   4.107 -2.2116 -1.5636 -1.0267
    1PA     H4S 7116   2.494   3.583   3.951 -0.3584 -1.7713 -1.2014
    1PA     C13 7117   2.449   3.373   3.983 -1.4799  0.2082 -0.3110
    1PA     H3R 7118   2.451   3.300   4.064 -1.1841  2.2271  1.5189
    1PA     H3S 7119   2.346   3.367   3.948 -1.3886 -0.8702 -0.4279
    1PA     C12 7120   2.543   3.334   3.862  0.4745 -0.1222 -0.2953
    1PA     H2R 7121   2.647   3.321   3.890  0.1571  0.2898  1.1024
    1PA     H2S 7122   2.515   3.237   3.820 -0.4251  1.8074 -4.3885
    1PC     C11 7123   2.543   3.432   3.755 -0.0241  0.3290  0.3554
    1PC     O12 7124   2.447   3.455   3.686 -0.4996 -0.6203 -0.8831
    1PC     O11 7125   2.659   3.503   3.754 -0.1143 -0.1589  0.3953
    1PC      C1 7126   2.676   3.612   3.658 -0.1255  0.2286 -0.3704
    1PC      HR 7127   2.614   3.592   3.571 -2.4831  0.4704  1.2007
    1PC      HS 7128   2.636   3.703   3.704 -1.8340 -1.1790  1.0394
    1PC      C2 7129   2.825   3.636   3.624  0.3903  0.4969 -0.2538
    1PC      HX 7130   2.831   3.723   3.559 -0.1015  0.7247  0.0034
    1PC      C3 7131   2.893   3.511   3.559  0.4188 -0.2230  0.1107
    1PC      HA 7132   2.973   3.477   3.625  1.2392  1.1887 -0.1171
    1PC      HB 7133   2.814   3.436   3.545 -1.6325  1.6745  1.1171
    1PC     O31 7134   2.957   3.546   3.430  0.3538 -0.1963 -0.6926
    1PC     P31 7135   2.879   3.552   3.293 -0.6127  0.0291 -0.0538
    1PC     O32 7136   2.826   3.404   3.260 -0.2700  0.0714  0.3568
    1PC     C31 7137   2.747   3.366   3.142  0.0438  0.0318  0.1044
    1PC     H1A 7138   2.796   3.409   3.054  0.9326 -2.4579 -0.6497
    1PC     H1B 7139   2.752   3.257   3.135 -0.4369 -0.1643  2.3733
    1PC     C32 7140   2.603   3.413   3.148 -0.1972 -0.9070 -0.4109
    1PC     H2A 7141   2.598   3.522   3.141 -1.6452 -0.8689  0.7870
    1PC     H2B 7142   2.559   3.379   3.054  0.0606 -1.0780 -0.4679
    1PC     N31 7143   2.500   3.373   3.256  0.0277  0.0760 -0.3708
    1PC     C33 7144   2.364   3.373   3.194  0.5877  0.0107 -0.5352
    1PC     H3A 7145   2.293   3.323   3.260  1.3436 -0.6262 -0.1909
    1PC     H3B 7146   2.336   3.475   3.168  0.0977 -0.1224 -0.5312
    1PC     H3C 7147   2.378   3.307   3.108  0.8244  0.9200 -1.1994
    1PC     C34 7148   2.532   3.239   3.313  0.0075  1.3256  0.4390
    1PC     H4A 7149   2.448   3.212   3.378 -0.0373 -1.6986 -0.7926
    1PC     H4B 7150   2.533   3.163   3.235 -1.4022  0.6945  1.0060
    1PC     H4C 7151   2.628   3.247   3.364  1.1402 -1.2463 -1.1990
    1PC     C35 7152   2.504   3.460   3.383  0.2330  0.0266  0.2232
    1PC     H5A 7153   2.437   3.423   3.460  0.4454  0.7873  0.7776
    1PC     H5B 7154   2.483   3.565   3.363 -0.6382  0.0572  1.2344
    1PC     H5C 7155   2.606   3.451   3.419  0.4156 -1.6261 -0.6208
    1PC     O33 7156   2.764   3.642   3.317 -0.6290 -0.5081 -0.1459
    1PC     O34 7157   2.973   3.583   3.185  0.1117  0.7452  0.2679
    1PC     O21 7158   2.897   3.672   3.739 -0.0805  0.0134  0.1096
    1PC     C21 7159   2.942   3.801   3.754  1.0227  0.3626 -0.2431
    1PC     O22 7160   2.936   3.894   3.676 -0.3813  0.0994  0.1184
    1OL     C12 7161   3.003   3.810   3.889 -0.4473  0.1822  0.1623
    1OL     H2R 7162   3.101   3.763   3.892 -1.8295 -2.8902 -1.3726
    1OL     H2S 7163   2.938   3.755   3.956  0.9516 -0.5960  0.8862
    1OL     C13 7164   3.005   3.961   3.927 -0.5772  0.4120 -0.2797
    1OL     H3R 7165   2.902   3.996   3.936 -0.7014  0.1891 -0.7971
    1OL     H3S 7166   3.067   4.019   3.859  0.0931 -2.4039 -2.1600
    1OL     C14 7167   3.058   3.968   4.065  0.2605 -0.4302 -0.0824
    1OL     H4R 7168   2.991   3.914   4.131 -0.6918  1.5978  0.6633
    1OL     H4S 7169   3.052   4.070   4.104  0.0529 -0.4872  0.0335
    1OL     C15 7170   3.205   3.924   4.092  0.4409 -0.3299  0.5096
    1OL     H5R 7171   3.272   4.004   4.059 -0.6666  0.9310  1.2415
    1OL     H5S 7172   3.218   3.829   4.040  0.1295  0.5056 -1.1220
    1OL     C16 7173   3.226   3.907   4.245 -0.7661 -0.9732  0.3244
    1OL     H6R 7174   3.141   3.860   4.295  0.0094 -2.1879  0.5223
    1OL     H6S 7175   3.235   4.011   4.277  0.5030  0.2022 -3.5132
    1OL     C17 7176   3.364   3.845   4.275  0.9910 -1.0654  0.6173
    1OL     H7R 7177   3.383   3.757   4.214  1.2651  0.4612 -1.5483
    1OL     H7S 7178   3.366   3.814   4.380 -1.1900 -0.8588  0.7466
    1OL     C18 7179   3.483   3.943   4.253 -0.0232  0.8573  0.4204
    1OL     H8R 7180   3.466   4.019   4.329 -0.5315 -0.7029  1.9061
    1OL     H8S 7181   3.484   3.987   4.153 -0.4568  3.4695  1.5216
    1OL     C19 7182   3.612   3.874   4.286  0.3343 -0.4264 -0.0860
    1OL     H9R 7183   3.668   3.848   4.196 -0.5657  0.5387 -0.9445
    1OL    C110 7184   3.658   3.864   4.408  0.3679 -0.4951  0.2501
    1OL    H10R 7185   3.758   3.822   4.407  1.0715  1.1405 -2.9166
    1OL    C111 7186   3.600   3.891   4.543  0.7458  0.1129 -0.5733
    1OL    H11R 7187   3.618   3.816   4.620  1.9921  0.0181 -0.9482
    1OL    H11S 7188   3.493   3.910   4.539  0.8382  1.1836  1.4616
    1OL    C112 7189   3.649   4.026   4.599 -0.0884 -0.0469 -0.2302
    1OL    H12R 7190   3.625   4.108   4.531 -2.2005 -0.5380 -0.1129
    1OL    H12S 7191   3.757   4.024   4.609 -0.2874 -0.4190  2.2382
    1OL    C113 7192   3.594   4.059   4.737  0.0243 -0.3526  0.2646
    1OL    H13R 7193   3.630   4.159   4.760 -1.5481  0.3752 -0.3755
    1OL    H13S 7194   3.627   3.996   4.820 -2.3515 -3.4221 -1.0415
    1OL    C114 7195   3.445   4.066   4.750  0.4285  0.2652 -0.2175
    1OL    H14R 7196   3.419   4.103   4.849  2.3463  0.4894  0.2183
    1OL    H14S 7197   3.416   3.961   4.737  0.5142  0.0942  0.9498
    1OL    C115 7198   3.372   4.147   4.643 -0.4291 -0.6795 -0.3257
    1OL    H15R 7199   3.414   4.131   4.544 -1.3622  1.2391 -1.0534
    1OL    H15S 7200   3.391   4.253   4.659 -0.4967 -0.2921 -2.6169
    1OL    C116 7201   3.224   4.119   4.651 -0.4416  0.7779 -0.2306
    1OL    H16R 7202   3.188   4.151   4.749  0.2662  0.6857  0.0579
    1OL    H16S 7203   3.207   4.011   4.648 -2.2175  1.0249  0.2019
    1OL    C117 7204   3.141   4.174   4.534  0.7028 -0.0974  0.0573
    1OL    H17R 7205   3.177   4.145   4.435  1.5279  0.6572  0.1347
    1OL    H17S 7206   3.148   4.282   4.547 -2.7798 -0.0886  2.5286
    1OL    C118 7207   2.994   4.148   4.548 -0.1280 -0.0262  0.2343
    1OL    H18R 7208   2.943   4.229   4.497 -0.1849 -1.0356 -1.3353
    1OL    H18S 7209   2.966   4.147   4.654  1.1536 -0.3799  0.5831
    1OL    H18T 7210   2.972   4.052   4.500  1.3904 -0.4083  0.2497
    1PA    C116 7211   3.338   2.180   5.106  1.1300  0.4147  0.0725
    1PA    H16R 7212   3.374   2.280   5.132 -2.9601  1.1620  3.3425
    1PA    H16S 7213   3.301   2.130   5.196  2.4114 -2.5987 -0.9913
    1PA    H16T 7214   3.248   2.194   5.045  0.6647  0.5381  0.7794
    1PA    C115 7215   3.435   2.089   5.028  0.2167  0.4919  0.3917
    1PA    H15R 7216   3.514   2.044   5.089 -0.2742 -2.3534 -0.9701
    1PA    H15S 7217   3.377   1.999   5.005  1.3640 -0.0762 -0.3360
    1PA    C114 7218   3.493   2.164   4.906  0.3042 -0.4077 -0.1363
    1PA    H14R 7219   3.407   2.210   4.858  1.2896  2.9122  1.1847
    1PA    H14S 7220   3.555   2.247   4.941 -1.9919  0.0235  3.0712
    1PA    C113 7221   3.557   2.064   4.803 -0.3785 -0.2611  0.2030
    1PA    H13R 7222   3.651   2.026   4.843 -0.4261 -0.4881  0.0992
    1PA    H13S 7223   3.485   1.983   4.792  0.4670 -1.0069  0.0590
    1PA    C112 7224   3.577   2.130   4.662  0.0141  0.3897  0.5146
    1PA    H12R 7225   3.626   2.056   4.598  0.8895  1.1711  0.2747
    1PA    H12S 7226   3.478   2.157   4.623 -0.6690 -3.1103 -0.3527
    1PA    C111 7227   3.677   2.249   4.676 -0.0229 -0.6707 -0.0224
    1PA    H11R 7228   3.628   2.331   4.728 -1.8091  0.1351 -2.8660
    1PA    H11S 7229   3.762   2.231   4.742  1.0086  1.9039 -0.5856
    1PA    C110 7230   3.730   2.284   4.533  0.1765  0.1893  0.3613
    1PA    H10R 7231   3.793   2.201   4.500 -0.3670 -0.9561  2.0654
    1PA    H10S 7232   3.646   2.282   4.463  1.0055  0.2257 -0.6467
    1PA     C19 7233   3.801   2.419   4.520 -0.2584  0.4165  0.3724
    1PA     H9R 7234   3.740   2.505   4.550 -0.7746  1.4077 -3.1578
    1PA     H9S 7235   3.895   2.414   4.574  0.6808  2.8374 -0.9395
    1PA     C18 7236   3.832   2.441   4.372  0.1283 -0.7045  0.8659
    1PA     H8R 7237   3.857   2.345   4.328  0.7877 -0.3512  0.4500
    1PA     H8S 7238   3.744   2.479   4.319  0.4999 -1.1786 -0.0875
    1PA     C17 7239   3.943   2.543   4.352 -0.0414 -0.0409  0.3388
    1PA     H7R 7240   3.909   2.632   4.404 -1.7031 -0.6113  0.2495
    1PA     H7S 7241   4.028   2.503   4.409  0.0540 -1.6621 -0.8865
    1PA     C16 7242   3.972   2.568   4.204  0.0239  0.0363  0.0506
    1PA     H6R 7243   3.886   2.596   4.144 -0.4489  1.3180  1.3037
    1PA     H6S 7244   4.042   2.652   4.200  1.6796 -1.3661 -1.0083
    1PA     C15 7245   4.022   2.442   4.131  0.0411  0.1247 -0.3064
    1PA     H5R 7246   4.114   2.395   4.168 -0.2536  1.2462  1.9530
    1PA     H5S 7247   3.948   2.363   4.143  1.6167 -1.7933 -2.6768
    1PA     C14 7248   4.045   2.466   3.981 -0.1748  0.4652  0.0871
    1PA     H4R 7249   3.950   2.475   3.927 -0.8741 -1.9469  0.8397
    1PA     H4S 7250   4.094   2.562   3.965  1.3346 -0.2338  0.4190
    1PA     C13 7251   4.126   2.345   3.934 -0.5322  0.0689 -0.0453
    1PA     H3R 7252   4.234   2.342   3.952  0.0280  3.5357 -2.2447
    1PA     H3S 7253   4.078   2.253   3.966 -0.6187  1.0131  2.6510
    1PA     C12 7254   4.102   2.335   3.786 -0.5438  0.7818  0.3487
    1PA     H2R 7255   4.153   2.243   3.757  0.9545  0.9399  2.3960
    1PA     H2S 7256   3.997   2.307   3.769  0.1020 -1.8534  0.5066
    1PC     C11 7257   4.153   2.451   3.707  0.8801  0.1575  1.1086
    1PC     O12 7258   4.255   2.439   3.643  0.4540 -0.4073 -0.2886
    1PC     O11 7259   4.075   2.565   3.716 -0.2412 -0.0271 -0.2213
    1PC      C1 7260   4.081   2.649   3.603  0.5412  0.9703  1.1995
    1PC      HR 7261   4.073   2.752   3.639  1.1003  1.7314 -0.8049
    1PC      HS 7262   4.177   2.646   3.551 -0.0004 -2.7890  0.2495
    1PC      C2 7263   3.971   2.608   3.498  0.0483 -0.4969 -0.5472
    1PC      HX 7264   4.007   2.523   3.440  2.1623 -0.7000  1.0148
    1PC      C3 7265   3.946   2.726   3.403 -0.0524 -0.0968  0.9472
    1PC      HA 7266   3.914   2.813   3.460  0.9148  0.3117  0.8847
    1PC      HB 7267   4.045   2.755   3.366  0.6176 -1.2371  1.8416
    1PC     O31 7268   3.851   2.694   3.295 -0.0287  0.1146  0.3428
    1PC     P31 7269   3.893   2.641   3.154  0.0016 -0.3480  0.2459
    1PC     O32 7270   4.008   2.750   3.115  0.9045  0.3732  0.3059
    1PC     C31 7271   4.148   2.722   3.129 -0.2571 -0.3248  0.4176
    1PC     H1A 7272   4.196   2.806   3.181  0.7472  0.8187 -2.2757
    1PC     H1B 7273   4.159   2.644   3.205  1.1270 -0.6550 -0.1053
    1PC     C32 7274   4.214   2.682   2.995 -0.3161  0.6694 -0.0144
    1PC     H2A 7275   4.319   2.662   3.016 -0.6282 -0.7257  0.2490
    1PC     H2B 7276   4.172   2.590   2.954  0.4618  0.4656 -0.3527
    1PC     N31 7277   4.207   2.787   2.886  0.5360  0.3248 -0.2030
    1PC     C33 7278   4.270   2.912   2.937  0.0892  0.5359  0.5951
    1PC     H3A 7279   4.283   2.971   2.847  0.8690  2.2726  1.8259
    1PC     H3B 7280   4.202   2.959   3.009 -1.3223 -0.6372  0.0561
    1PC     H3C 7281   4.368   2.897   2.981  0.4311  0.4408 -0.1983
    1PC     C34 7282   4.275   2.736   2.761  0.5141  0.4266 -0.0529
    1PC     H4A 7283   4.263   2.628   2.753  1.0869  0.3110  0.6024
    1PC     H4B 7284   4.235   2.790   2.676  0.6189 -2.2822 -1.8841
    1PC     H4C 7285   4.382   2.752   2.765  0.4661  0.2959  3.0925
    1PC     C35 7286   4.072   2.821   2.838  0.0842  0.1014  0.3245
    1PC     H5A 7287   4.080   2.905   2.768  0.0175  0.1006  0.3162
    1PC     H5B 7288   4.015   2.845   2.928  1.8740  1.9276  1.0127
    1PC     H5C 7289   4.017   2.738   2.792 -0.6757 -0.2457  1.8443
    1PC     O33 7290   3.951   2.509   3.176  0.2254 -0.2930  0.6914
    1PC     O34 7291   3.786   2.664   3.056  0.3440 -0.2641  0.2691
    1PC     O21 7292   3.850   2.569   3.565  0.1176  0.6096 -0.0776
    1PC     C21 7293   3.821   2.440   3.573  0.6107  0.6020 -0.0365
    1PC     O22 7294   3.893   2.348   3.540  0.3263 -0.4333  0.8701
    1OL     C12 7295   3.693   2.416   3.644  0.4081  0.2030 -0.9480
    1OL     H2R 7296   3.648   2.327   3.598  2.4042 -0.8084 -0.9924
    1OL     H2S 7297   3.626   2.499   3.621  1.3287  1.6581  1.4728
    1OL     C13 7298   3.705   2.410   3.801  0.2760 -0.2555  0.2938
    1OL     H3R 7299   3.764   2.500   3.819 -0.1246 -0.3931  2.5151
    1OL     H3S 7300   3.771   2.327   3.830  0.4889  0.0559  0.7153
    1OL     C14 7301   3.571   2.393   3.869 -0.5714 -0.2199  0.4903
    1OL     H4R 7302   3.529   2.303   3.824 -1.0192  0.0528  0.3693
    1OL     H4S 7303   3.505   2.477   3.847 -1.7903 -0.8481  1.6618
    1OL     C15 7304   3.576   2.368   4.020 -0.0755 -0.0651  0.6878
    1OL     H5R 7305   3.625   2.456   4.060  1.5082 -0.6317  0.0316
    1OL     H5S 7306   3.643   2.283   4.034 -0.0465 -0.3655 -1.0642
    1OL     C16 7307   3.445   2.349   4.089  0.1037  0.3396  0.1589
    1OL     H6R 7308   3.388   2.277   4.030 -0.1882  1.5814 -1.0854
    1OL     H6S 7309   3.396   2.445   4.075 -3.2425 -1.0704  1.6158
    1OL     C17 7310   3.450   2.309   4.235  0.1195 -0.0796 -0.7304
    1OL     H7R 7311   3.528   2.363   4.289 -1.0610  0.6237  0.2815
    1OL     H7S 7312   3.473   2.202   4.238 -0.9266 -0.2984 -0.0042
    1OL     C18 7313   3.313   2.332   4.291 -0.5063  0.1524 -0.1694
    1OL     H8R 7314   3.240   2.271   4.236 -0.5108  2.4226 -2.7812
    1OL     H8S 7315   3.287   2.436   4.271  1.2938  1.2241  2.6845
    1OL     C19 7316   3.319   2.300   4.439 -0.6551 -0.1139 -0.0268
    1OL     H9R 7317   3.329   2.195   4.467  1.6780  0.2608  0.6494
    1OL    C110 7318   3.343   2.384   4.538  0.1031 -0.3935 -0.0854
    1OL    H10R 7319   3.355   2.339   4.637 -0.5752  0.8749  0.5946
    1OL    C111 7320   3.372   2.528   4.528 -0.5997 -0.6792  0.3142
    1OL    H11R 7321   3.405   2.541   4.425 -0.3749 -3.2533  0.0379
    1OL    H11S 7322   3.463   2.557   4.580 -0.5271 -1.2392  0.4964
    1OL    C112 7323   3.249   2.621   4.561  0.6510  0.0235 -0.3928
    1OL    H12R 7324   3.167   2.587   4.497  2.0358  0.3416 -2.3900
    1OL    H12S 7325   3.266   2.722   4.523  0.4506  0.1655 -0.1044
    1OL    C113 7326   3.220   2.619   4.709  0.0800 -0.1051  0.1904
    1OL    H13R 7327   3.214   2.518   4.749  0.7791 -0.5700 -0.8697
    1OL    H13S 7328   3.127   2.673   4.730  0.6716  1.2272 -0.4893
    1OL    C114 7329   3.329   2.694   4.786  0.0703  0.1087  0.0032
    1OL    H14R 7330   3.334   2.793   4.742 -0.6711 -0.6050 -1.7213
    1OL    H14S 7331   3.426   2.645   4.774 -0.7434 -1.6754  0.4961
    1OL    C115 7332   3.290   2.719   4.935  0.5599  0.6100 -0.3973
    1OL    H15R 7333   3.217   2.801   4.936  0.3822  0.4503 -0.3289
    1OL    H15S 7334   3.383   2.749   4.984  0.1532  0.8894  0.2137
    1OL    C116 7335   3.220   2.600   5.003 -0.1145  0.7417 -0.9797
    1OL    H16R 7336   3.294   2.523   4.984 -1.6661 -1.4377  1.5419
    1OL    H16S 7337   3.121   2.578   4.961 -1.0107  1.6736  0.5865
    1OL    C117 7338   3.212   2.609   5.152 -0.1018 -0.7187 -0.1887
    1OL    H17R 7339   3.140   2.689   5.171 -0.0024 -1.1545  2.1671
    1OL    H17S 7340   3.307   2.643   5.195 -0.3345  0.8847 -0.8983
    1OL    C118 7341   3.149   2.486   5.223  0.2231  0.3880  0.0204
    1OL    H18R 7342   3.218   2.402   5.214  0.9940  1.1017 -0.8534
    1OL    H18S 7343   3.057   2.459   5.170  0.0335 -1.9075  1.4500
    1OL    H18T 7344   3.122   2.500   5.328  1.0849  0.5445  0.2238
    1PA    C116 7345   3.488   3.139   4.858  0.0370 -0.1755 -0.3351
    1PA    H16R 7346   3.407   3.138   4.785 -0.7122 -1.1764  0.5045
    1PA    H16S 7347   3.493   3.236   4.909 -1.0185 -0.5587  0.5182
    1PA    H16T 7348   3.469   3.061   4.931  2.2940 -0.9242 -0.5033
    1PA    C115 7349   3.626   3.105   4.788 -0.2276 -0.0276  0.1430
    1PA    H15R 7350   3.657   3.190   4.728 -0.3420 -0.1654 -0.1095
    1PA    H15S 7351   3.704   3.089   4.863 -1.9463 -5.1773  1.0858
    1PA    C114 7352   3.626   2.982   4.700  0.4611  0.1374  0.2399
    1PA    H14R 7353   3.718   2.955   4.647  1.1148  1.2635  0.7733
    1PA    H14S 7354   3.599   2.896   4.762 -0.9734  1.3330  1.3091
    1PA    C113 7355   3.525   2.991   4.581  0.3665  0.0207 -0.3946
    1PA    H13R 7356   3.423   2.986   4.619 -0.0484 -0.8806 -1.6105
    1PA    H13S 7357   3.540   3.092   4.541  1.0894  0.1961  0.3071
    1PA    C112 7358   3.536   2.874   4.480 -0.2064 -0.1453 -0.4385
    1PA    H12R 7359   3.554   2.777   4.526  0.5487 -0.6763 -1.8144
    1PA    H12S 7360   3.437   2.866   4.434 -0.9436 -2.0092  1.3703
    1PA    C111 7361   3.645   2.906   4.380  0.5927 -0.1139  1.1897
    1PA    H11R 7362   3.619   2.993   4.320  1.4166 -1.7617 -1.6252
    1PA    H11S 7363   3.737   2.922   4.437  1.6489 -1.2858 -0.1643
    1PA    C110 7364   3.677   2.790   4.280 -0.4597  0.0327 -0.1533
    1PA    H10R 7365   3.775   2.813   4.237 -0.7343  1.1452 -0.2013
    1PA    H10S 7366   3.700   2.699   4.335  2.0396 -0.1514 -1.4364
    1PA     C19 7367   3.569   2.749   4.181 -0.0423 -0.1408 -0.0382
    1PA     H9R 7368   3.599   2.670   4.112 -5.3811 -1.4483 -1.1211
    1PA     H9S 7369   3.481   2.711   4.233  0.4568  1.3324  1.9417
    1PA     C18 7370   3.516   2.862   4.087  0.2805 -0.0794 -0.3743
    1PA     H8R 7371   3.424   2.834   4.034  0.1564  1.1592 -0.8291
    1PA     H8S 7372   3.490   2.944   4.153  0.2695  0.7166 -1.3461
    1PA     C17 7373   3.621   2.915   3.983  0.1618 -0.1937 -0.1665
    1PA     H7R 7374   3.569   2.997   3.932 -1.0730 -0.8964 -0.0682
    1PA     H7S 7375   3.711   2.948   4.034 -1.2936  1.3045  1.4800
    1PA     C16 7376   3.668   2.813   3.881 -0.4125 -0.9233 -0.1686
    1PA     H6R 7377   3.719   2.729   3.928  0.6786 -0.2628 -0.1535
    1PA     H6S 7378   3.578   2.773   3.834 -0.9157 -0.5677  0.4807
    1PA     C15 7379   3.759   2.871   3.775 -0.6651 -0.4617 -0.0422
    1PA     H5R 7380   3.854   2.899   3.819 -1.3539  0.8496  0.6579
    1PA     H5S 7381   3.777   2.802   3.692  1.1366  0.8939 -0.7863
    1PA     C14 7382   3.694   2.999   3.710  0.1989  0.9004 -0.4914
    1PA     H4R 7383   3.658   3.071   3.783  0.2351 -0.4493  0.8686
    1PA     H4S 7384   3.772   3.058   3.661  1.1639  0.7120  0.7908
    1PA     C13 7385   3.587   2.955   3.608  0.5729 -0.3351 -0.2114
    1PA     H3R 7386   3.643   2.907   3.527 -0.6600 -1.4209 -0.4324
    1PA     H3S 7387   3.533   2.872   3.655  1.9036 -0.2002  1.6143
    1PA     C12 7388   3.488   3.065   3.569 -1.1667  0.9527 -0.2100
    1PA     H2R 7389   3.414   3.014   3.507  2.2056 -2.9614 -1.2410
    1PA     H2S 7390   3.437   3.110   3.654  1.4269 -2.0792  3.1224
    1PC     C11 7391   3.555   3.171   3.489  0.2758  0.4686 -0.3467
    1PC     O12 7392   3.659   3.157   3.421  0.0634 -0.6836 -0.3376
    1PC     O11 7393   3.494   3.285   3.513 -0.6604 -0.2894  0.0444
    1PC      C1 7394   3.556   3.404   3.454  0.4608 -0.3240  0.2470
    1PC      HR 7395   3.654   3.418   3.500  0.8374 -1.5158 -0.1783
    1PC      HS 7396   3.577   3.391   3.348  0.0526  2.0667 -0.1386
    1PC      C2 7397   3.474   3.526   3.496  0.7296 -0.5677 -0.6173
    1PC      HX 7398   3.367   3.509   3.484  0.5334 -1.6713  2.2369
    1PC      C3 7399   3.511   3.654   3.416  0.6508  0.0169 -0.2216
    1PC      HA 7400   3.444   3.658   3.329  0.5367 -0.1734 -0.1428
    1PC      HB 7401   3.499   3.747   3.472  0.7007  0.3997 -0.8346
    1PC     O31 7402   3.652   3.649   3.376 -0.3321 -0.0176  0.1682
    1PC     P31 7403   3.696   3.733   3.248  0.0319 -0.1844  0.2442
    1PC     O32 7404   3.767   3.865   3.293 -0.3671  0.1887  0.2914
    1PC     C31 7405   3.908   3.865   3.311 -0.0747  0.1864 -0.5632
    1PC     H1A 7406   3.938   3.917   3.402  0.1735 -0.7332 -0.1135
    1PC     H1B 7407   3.944   3.761   3.316  2.5468  0.8220 -3.9910
    1PC     C32 7408   3.966   3.930   3.184  0.4467 -0.2641 -0.2839
    1PC     H2A 7409   3.934   3.869   3.098 -0.4079 -0.4169  0.1313
    1PC     H2B 7410   3.908   4.022   3.176  0.1799 -0.2289  1.7820
    1PC     N31 7411   4.111   3.965   3.175  0.0954 -0.3086 -0.1141
    1PC     C33 7412   4.128   4.054   3.059 -0.0119 -0.3983 -0.0826
    1PC     H3A 7413   4.068   4.141   3.088 -0.0522  0.2546 -2.0363
    1PC     H3B 7414   4.232   4.076   3.033  0.4621 -0.9512  1.3338
    1PC     H3C 7415   4.086   4.018   2.965 -0.6794  0.2928 -0.0560
    1PC     C34 7416   4.156   4.029   3.298  0.2180 -0.6471 -0.2168
    1PC     H4A 7417   4.154   3.950   3.374 -1.0998 -1.3814 -0.9916
    1PC     H4B 7418   4.255   4.067   3.269  0.3607 -2.3827 -2.1423
    1PC     H4C 7419   4.088   4.110   3.325  0.3192 -1.2501  1.9678
    1PC     C35 7420   4.190   3.839   3.166 -0.1136 -0.1611 -0.5777
    1PC     H5A 7421   4.168   3.782   3.256 -3.4662 -1.2373 -1.9776
    1PC     H5B 7422   4.296   3.859   3.154  0.1591 -1.6850 -0.8958
    1PC     H5C 7423   4.152   3.790   3.075  0.9523 -0.1790 -1.0160
    1PC     O33 7424   3.796   3.642   3.185  0.3189  0.3537 -0.4411
    1PC     O34 7425   3.579   3.767   3.164 -0.6978  0.4982 -0.6323
    1PC     O21 7426   3.506   3.535   3.631  0.1944  0.1882  0.0784
    1PC     C21 7427   3.434   3.620   3.709 -0.0065  0.5044 -0.6788
    1PC     O22 7428   3.328   3.668   3.673 -0.0487 -0.2993  0.0880
    1OL     C12 7429   3.468   3.634   3.858 -0.7814 -0.3580  0.1142
    1OL     H2R 7430   3.431   3.731   3.892 -1.3633 -0.4121 -0.3662
    1OL     H2S 7431   3.577   3.629   3.868 -0.6861  0.2332 -0.6161
    1OL     C13 7432   3.396   3.525   3.936 -0.2651  0.2396  0.3908
    1OL     H3R 7433   3.294   3.519   3.897  0.3866  0.6308 -1.4250
    1OL     H3S 7434   3.385   3.568   4.036  0.4752  0.1977  0.4899
    1OL     C14 7435   3.447   3.381   3.922  0.0619  0.1510  0.2450
    1OL     H4R 7436   3.448   3.370   3.814  1.2930  0.6129  0.2030
    1OL     H4S 7437   3.364   3.318   3.957  1.3360 -2.0710 -0.5936
    1OL     C15 7438   3.575   3.334   3.988 -0.5402  0.3290 -0.2344
    1OL     H5R 7439   3.654   3.393   3.942  0.1688 -2.3635 -2.6061
    1OL     H5S 7440   3.600   3.228   3.976 -1.9582 -0.1493  0.7899
    1OL     C16 7441   3.570   3.366   4.138 -0.7946  0.2082 -0.0751
    1OL     H6R 7442   3.478   3.326   4.181 -0.1001 -0.6899  0.5877
    1OL     H6S 7443   3.574   3.473   4.158  0.7825  0.8037 -3.2700
    1OL     C17 7444   3.683   3.300   4.215 -0.5048  0.7108 -0.3602
    1OL     H7R 7445   3.778   3.332   4.171  0.8873 -0.0688  1.9818
    1OL     H7S 7446   3.680   3.190   4.214  0.4991  0.6721 -3.4025
    1OL     C18 7447   3.686   3.334   4.364 -0.2976 -0.1907  0.0014
    1OL     H8R 7448   3.763   3.285   4.424  0.9990 -1.6349 -2.7014
    1OL     H8S 7449   3.587   3.301   4.395 -1.4013 -1.0624 -4.0994
    1OL     C19 7450   3.695   3.483   4.396  0.5472  0.5223  0.0726
    1OL     H9R 7451   3.628   3.548   4.341  2.0341  2.8544  0.9311
    1OL    C110 7452   3.777   3.544   4.481  0.0241 -0.0582 -0.1206
    1OL    H10R 7453   3.776   3.652   4.486 -1.0680  0.1879 -4.1567
    1OL    C111 7454   3.877   3.476   4.564 -0.7304 -0.0460 -0.4509
    1OL    H11R 7455   3.949   3.553   4.596 -0.5876 -0.0800 -0.6909
    1OL    H11S 7456   3.934   3.397   4.515 -0.8707 -0.2924 -0.2128
    1OL    C112 7457   3.811   3.444   4.705  0.1704 -0.6798  0.0972
    1OL    H12R 7458   3.730   3.372   4.699  2.1128 -2.9514  0.1095
    1OL    H12S 7459   3.769   3.536   4.747  1.6208 -0.2305  0.6272
    1OL    C113 7460   3.921   3.398   4.798 -0.1300 -0.1262  0.0519
    1OL    H13R 7461   3.996   3.477   4.803  0.3332 -0.4211 -1.9650
    1OL    H13S 7462   3.971   3.309   4.759  0.9013 -0.8230  2.8451
    1OL    C114 7463   3.884   3.360   4.946  0.7579 -0.1219 -0.0757
    1OL    H14R 7464   3.795   3.298   4.950  0.9782 -0.4456 -0.1640
    1OL    H14S 7465   3.865   3.456   4.994 -2.3390 -0.7218 -0.0311
    1OL    C115 7466   4.003   3.305   5.031  0.4566 -0.0798 -0.3424
    1OL    H15R 7467   3.978   3.334   5.134  1.3410  2.7217 -0.8560
    1OL    H15S 7468   4.102   3.348   5.013  0.3127 -0.0475 -1.0557
    1OL    C116 7469   4.016   3.158   5.024 -0.0777 -0.4663 -0.0769
    1OL    H16R 7470   4.035   3.126   4.921  0.0362  4.3136 -1.6544
    1OL    H16S 7471   3.918   3.117   5.051  0.0447  0.8460  2.4482
    1OL    C117 7472   4.132   3.097   5.109  0.1363  0.0266  0.0940
    1OL    H17R 7473   4.227   3.119   5.059  0.4791 -2.8841 -0.6326
    1OL    H17S 7474   4.134   2.988   5.117  0.1998 -0.2309 -2.7406
    1OL    C118 7475   4.134   3.136   5.254 -0.1868 -0.3158  1.1549
    1OL    H18R 7476   4.182   3.234   5.269  0.6151 -0.3962 -0.7419
    1OL    H18S 7477   4.182   3.059   5.314  0.3713 -0.8809  0.0122
    1OL    H18T 7478   4.031   3.137   5.290 -0.5673  0.9568  0.0857
    1PA    C116 7479   4.540   0.776   4.888  0.6041 -0.0826  0.0716
    1PA    H16R 7480   4.517   0.789   4.994 -1.0286 -1.9327 -0.0247
    1PA    H16S 7481   4.617   0.702   4.862 -0.7856 -1.5713  0.0952
    1PA    H16T 7482   4.449   0.736   4.842  1.5699  0.2261 -2.1695
    1PA    C115 7483   4.588   0.908   4.827  0.0170 -0.0878  0.4130
    1PA    H15R 7484   4.663   0.961   4.886  1.1090 -1.8692  0.6576
    1PA    H15S 7485   4.640   0.891   4.733  0.5307  1.4784  0.4139
    1PA    C114 7486   4.473   1.007   4.801 -0.6308  0.7824 -0.3327
    1PA    H14R 7487   4.388   0.964   4.747 -1.2235  1.1582  0.2953
    1PA    H14S 7488   4.437   1.049   4.895  1.8563 -0.9981  1.4848
    1PA    C113 7489   4.519   1.133   4.719 -0.5276  0.1827 -1.0292
    1PA    H13R 7490   4.443   1.212   4.721  0.8241  1.5594 -2.3756
    1PA    H13S 7491   4.602   1.179   4.773 -1.0548  1.7785 -1.5384
    1PA    C112 7492   4.572   1.098   4.579  0.0539 -0.5369 -0.0913
    1PA    H12R 7493   4.580   1.196   4.531 -3.3279 -0.3455 -0.3355
    1PA    H12S 7494   4.672   1.055   4.590  0.0700 -0.6726 -0.7352
    1PA    C111 7495   4.465   1.012   4.498  0.2670  0.3845  0.2691
    1PA    H11R 7496   4.471   0.906   4.525  0.2202  0.7220  1.6830
    1PA    H11S 7497   4.362   1.039   4.524 -0.2349 -3.4156  2.6004
    1PA    C110 7498   4.466   1.023   4.343 -0.4567  0.3912 -0.8120
    1PA    H10R 7499   4.568   1.005   4.309 -0.0440 -0.3088  0.7329
    1PA    H10S 7500   4.415   0.935   4.305  0.4873  0.6932 -2.8101
    1PA     C19 7501   4.424   1.160   4.296  0.3662  0.0543  0.1561
    1PA     H9R 7502   4.343   1.202   4.357 -1.8674 -1.5361 -1.6082
    1PA     H9S 7503   4.510   1.227   4.295  2.1698 -2.1331 -3.4044
    1PA     C18 7504   4.375   1.137   4.152 -0.6048 -0.1753 -0.3761
    1PA     H8R 7505   4.364   1.235   4.105  0.9426 -0.5461 -1.5642
    1PA     H8S 7506   4.457   1.085   4.101 -0.5109  1.9339 -2.4472
    1PA     C17 7507   4.247   1.055   4.137  0.1758 -0.1480  0.1003
    1PA     H7R 7508   4.263   0.948   4.149 -2.6095 -0.5951  0.2585
    1PA     H7S 7509   4.181   1.084   4.219  0.7303  2.7009 -0.4061
    1PA     C16 7510   4.165   1.087   4.007 -0.2731 -0.2609  0.5743
    1PA     H6R 7511   4.066   1.044   4.023  0.5521 -2.9830 -1.1845
    1PA     H6S 7512   4.153   1.195   3.998 -1.5242 -0.4288  0.1441
    1PA     C15 7513   4.220   1.015   3.886  0.2383  0.3331 -0.2693
    1PA     H5R 7514   4.319   1.050   3.854 -0.4549 -0.6769 -3.7538
    1PA     H5S 7515   4.240   0.913   3.920 -2.8441 -0.1757  0.1585
    1PA     C14 7516   4.135   1.044   3.767  0.4360 -0.5679  0.3061
    1PA     H4R 7517   4.051   0.974   3.763  0.9627 -1.2191  0.6039
    1PA     H4S 7518   4.090   1.143   3.779 -0.7264 -0.8586 -1.5054
    1PA     C13 7519   4.212   1.036   3.636  0.2949  1.0180 -0.9185
    1PA     H3R 7520   4.275   1.125   3.627  1.9335  0.0722  0.9987
    1PA     H3S 7521   4.276   0.949   3.647 -0.7188  0.4385  0.6250
    1PA     C12 7522   4.124   1.032   3.511  0.6403  0.4241  0.5111
    1PA     H2R 7523   4.186   0.982   3.437 -0.2519  0.0367  0.0240
    1PA     H2S 7524   4.036   0.968   3.521  0.0369  0.9599 -1.2128
    1PC     C11 7525   4.079   1.170   3.458  0.1471  0.6942  0.7612
    1PC     O12 7526   4.102   1.277   3.505 -0.5845 -0.9238 -0.0829
    1PC     O11 7527   4.012   1.151   3.345 -0.0469  0.1712  0.7780
    1PC      C1 7528   3.955   1.271   3.280 -0.0775 -0.2955 -0.0879
    1PC      HR 7529   3.998   1.367   3.311 -0.0601 -0.7869  1.4619
    1PC      HS 7530   3.969   1.264   3.172  1.3395 -1.1076  0.1299
    1PC      C2 7531   3.802   1.284   3.298 -0.9340  0.6475  0.5166
    1PC      HX 7532   3.756   1.185   3.292  1.6215 -0.6853  1.9148
    1PC      C3 7533   3.745   1.371   3.177  0.1041 -0.1200 -0.3200
    1PC      HA 7534   3.722   1.298   3.098  0.3555  0.2149 -0.7077
    1PC      HB 7535   3.655   1.418   3.216 -0.0535  0.5034 -1.4079
    1PC     O31 7536   3.827   1.484   3.139  0.3912 -0.3362 -0.0488
    1PC     P31 7537   3.897   1.495   2.992  0.5524  0.1433 -0.0941
    1PC     O32 7538   3.787   1.570   2.904  0.6964  0.0307  0.1855
    1PC     C31 7539   3.686   1.490   2.838 -0.3036  0.6001  0.4024
    1PC     H1A 7540   3.743   1.420   2.776  0.4622  0.1146  1.6373
    1PC     H1B 7541   3.621   1.433   2.905  0.3899 -1.0438 -0.2883
    1PC     C32 7542   3.595   1.573   2.753  0.4830  0.8228 -0.7950
    1PC     H2A 7543   3.528   1.509   2.696  0.1672  1.2156 -0.8647
    1PC     H2B 7544   3.531   1.641   2.809  0.5269  1.7944 -1.9102
    1PC     N31 7545   3.652   1.672   2.658  0.0044 -0.1569 -0.5090
    1PC     C33 7546   3.770   1.623   2.579 -0.3354 -0.5851 -0.3327
    1PC     H3A 7547   3.839   1.595   2.659  0.6588 -3.0081 -1.9853
    1PC     H3B 7548   3.740   1.533   2.525 -1.0909 -0.9146  0.6111
    1PC     H3C 7549   3.804   1.702   2.513  1.7614  0.8566  2.3590
    1PC     C34 7550   3.540   1.717   2.572 -0.2782 -1.0081 -0.2408
    1PC     H4A 7551   3.477   1.636   2.534 -2.0280  0.0249  0.3898
    1PC     H4B 7552   3.478   1.782   2.634 -0.0629  0.4993 -1.5955
    1PC     H4C 7553   3.575   1.779   2.490 -1.6419  0.2857  0.1333
    1PC     C35 7554   3.686   1.798   2.726  0.0084 -0.6662  0.1403
    1PC     H5A 7555   3.617   1.823   2.807 -0.4284  1.3122 -0.8351
    1PC     H5B 7556   3.689   1.882   2.657 -0.1507  0.9084  1.9993
    1PC     H5C 7557   3.784   1.795   2.774  0.0670 -1.0042  0.0019
    1PC     O33 7558   4.012   1.585   3.011 -0.1776  0.3582  1.1095
    1PC     O34 7559   3.918   1.352   2.945 -0.4463 -0.5441  0.1385
    1PC     O21 7560   3.763   1.352   3.415 -0.1205  0.0493 -0.3108
    1PC     C21 7561   3.766   1.288   3.531  0.7303 -0.2153 -0.7432
    1PC     O22 7562   3.794   1.167   3.550  0.1817 -0.3147 -0.1021
    1OL     C12 7563   3.718   1.372   3.646  0.1924  0.1829 -0.6837
    1OL     H2R 7564   3.619   1.343   3.682  0.7125  0.0251  0.6543
    1OL     H2S 7565   3.713   1.476   3.614  0.2245 -0.1143 -1.6574
    1OL     C13 7566   3.819   1.349   3.763 -0.1560  0.5010 -0.1187
    1OL     H3R 7567   3.912   1.394   3.730 -0.3327  1.0634  0.1452
    1OL     H3S 7568   3.840   1.244   3.781 -0.1173  0.8459  1.9414
    1OL     C14 7569   3.773   1.416   3.893 -0.1202  1.1575 -0.1940
    1OL     H4R 7570   3.691   1.350   3.923 -0.6466  1.8097 -0.1951
    1OL     H4S 7571   3.741   1.520   3.882 -0.9245  1.1208  1.6094
    1OL     C15 7572   3.881   1.426   3.998  0.2525 -0.4240  0.0672
    1OL     H5R 7573   3.951   1.506   3.973  0.9104 -0.9499  0.1766
    1OL     H5S 7574   3.933   1.330   3.994 -0.3285 -0.7814  0.8787
    1OL     C16 7575   3.822   1.456   4.138  0.1551 -0.3073  0.1220
    1OL     H6R 7576   3.739   1.388   4.159  0.7459  0.1171  4.3233
    1OL     H6S 7577   3.764   1.549   4.134  1.2238  0.4717  1.9365
    1OL     C17 7578   3.914   1.461   4.256  0.1827 -0.8732  0.4510
    1OL     H7R 7579   3.857   1.498   4.342 -0.5018 -0.9094  0.0223
    1OL     H7S 7580   3.992   1.532   4.230  0.3060 -1.5433 -1.0686
    1OL     C18 7581   3.967   1.323   4.299  0.6286 -0.2052 -0.8423
    1OL     H8R 7582   4.002   1.277   4.206  2.4324  0.3634 -0.4737
    1OL     H8S 7583   3.887   1.257   4.332  0.8766  0.2839  0.7708
    1OL     C19 7584   4.074   1.329   4.407 -0.3961  0.0244  0.4545
    1OL     H9R 7585   4.122   1.427   4.414  0.8582 -0.6686  1.9565
    1OL    C110 7586   4.109   1.231   4.491  0.1782 -1.0604  0.5880
    1OL    H10R 7587   4.181   1.248   4.571 -0.0934  0.9301  0.4373
    1OL    C111 7588   4.045   1.090   4.497  0.4552  0.3115 -0.3724
    1OL    H11R 7589   4.121   1.018   4.467  0.6352  0.5854 -0.5884
    1OL    H11S 7590   3.960   1.076   4.430 -0.1528 -1.5855  0.7838
    1OL    C112 7591   3.994   1.061   4.642 -0.1692 -0.0683  0.3090
    1OL    H12R 7592   3.919   0.981   4.643 -0.7954  0.4979 -0.4574
    1OL    H12S 7593   3.947   1.157   4.663 -1.3516 -1.1136  2.6470
    1OL    C113 7594   4.102   1.017   4.739  0.2461 -0.2932  0.5303
    1OL    H13R 7595   4.166   1.105   4.755 -0.2905 -0.1162  1.7486
    1OL    H13S 7596   4.170   0.942   4.698 -1.1207 -2.4340  2.0492
    1OL    C114 7597   4.058   0.988   4.882  0.1948 -0.1420  0.3181
    1OL    H14R 7598   4.001   0.895   4.882  2.2223 -1.4405 -1.9549
    1OL    H14S 7599   3.984   1.063   4.909  0.0496  0.6963 -2.2808
    1OL    C115 7600   4.165   0.964   4.990  0.6366  0.0284 -0.6610
    1OL    H15R 7601   4.212   1.062   5.005 -1.5400  0.9112  0.5424
    1OL    H15S 7602   4.244   0.898   4.955 -0.1228 -1.5822  0.6154
    1OL    C116 7603   4.113   0.909   5.127  0.2517  0.0478  0.3428
    1OL    H16R 7604   4.072   0.809   5.116  1.0374 -0.1098 -1.5079
    1OL    H16S 7605   4.033   0.973   5.163 -0.4565 -2.1571  2.7654
    1OL    C117 7606   4.227   0.905   5.230  0.3302 -1.1171  0.7903
    1OL    H17R 7607   4.293   0.824   5.200  1.6916 -0.0650  0.8762
    1OL    H17S 7608   4.183   0.878   5.325 -0.7371 -0.0870  0.6093
    1OL    C118 7609   4.319   1.028   5.241 -0.1914 -0.4947 -0.2988
    1OL    H18R 7610   4.257   1.117   5.254  0.8154  0.2168 -0.3478
    1OL    H18S 7611   4.370   1.040   5.146  0.4523 -1.2407 -0.0557
    1OL    H18T 7612   4.392   1.032   5.323 -0.7226 -0.5543  0.1807
    1PA    C116 7613   0.297   2.924   4.360 -0.4581  0.1997 -0.4017
    1PA    H16R 7614   0.333   2.923   4.463  0.6212  1.8009 -0.7381
    1PA    H16S 7615   0.265   2.830   4.315 -0.0447  0.4540 -1.2463
    1PA    H16T 7616   0.198   2.971   4.369 -0.6697 -0.4474  0.7013
    1PA    C115 7617   0.393   2.996   4.264  0.5038 -0.4660 -0.3425
    1PA    H15R 7618   0.344   3.005   4.167  0.4402  0.4709 -0.2275
    1PA    H15S 7619   0.413   3.099   4.294  0.7357  0.3202 -3.0475
    1PA    C114 7620   0.521   2.917   4.241  0.0647 -0.2760  0.0176
    1PA    H14R 7621   0.594   2.925   4.321  2.7391  1.4246 -2.4631
    1PA    H14S 7622   0.500   2.810   4.241 -0.9975 -0.0671  0.0323
    1PA    C113 7623   0.595   2.935   4.111  0.4481  0.2385 -0.5692
    1PA    H13R 7624   0.685   2.875   4.120 -0.8803 -1.5811  0.8740
    1PA    H13S 7625   0.538   2.886   4.031  1.9944  1.0622 -2.2173
    1PA    C112 7626   0.621   3.082   4.082  0.1934 -0.2486  0.7459
    1PA    H12R 7627   0.687   3.081   3.995 -0.1284  0.4464  0.4906
    1PA    H12S 7628   0.529   3.129   4.047  0.7280  0.6771  0.5716
    1PA    C111 7629   0.685   3.173   4.192 -1.1458 -0.3012  0.5289
    1PA    H11R 7630   0.693   3.276   4.155  0.5445 -0.5411  0.2037
    1PA    H11S 7631   0.609   3.178   4.270 -0.3991 -1.7841  1.3687
    1PA    C110 7632   0.812   3.125   4.266 -0.1221  0.6555  0.2767
    1PA    H10R 7633   0.790   3.114   4.373  0.5614  0.7071  0.4293
    1PA    H10S 7634   0.835   3.025   4.229  3.8261  1.3052  0.7084
    1PA     C19 7635   0.926   3.224   4.226  0.5162  0.0258  0.0682
    1PA     H9R 7636   0.903   3.330   4.227 -0.0402  0.0051 -4.0514
    1PA     H9S 7637   1.006   3.210   4.299  0.4364  1.3876  0.4181
    1PA     C18 7638   0.970   3.192   4.073 -0.8799 -0.0520  0.7419
    1PA     H8R 7639   0.978   3.086   4.051 -2.5387 -0.4895  2.1758
    1PA     H8S 7640   0.890   3.230   4.008 -0.5392 -0.0361  0.3308
    1PA     C17 7641   1.102   3.269   4.039 -0.7792  0.0259  0.9191
    1PA     H7R 7642   1.116   3.262   3.930  0.2837 -0.3314  1.0745
    1PA     H7S 7643   1.091   3.371   4.076 -0.0333 -0.1842  1.7219
    1PA     C16 7644   1.226   3.209   4.100  0.0496  0.5061  0.8122
    1PA     H6R 7645   1.219   3.183   4.206  4.1137 -2.3139  0.5149
    1PA     H6S 7646   1.254   3.116   4.051 -0.0652  1.1214 -0.4626
    1PA     C15 7647   1.347   3.300   4.068 -0.1492 -0.8174 -0.7206
    1PA     H5R 7648   1.314   3.402   4.092 -2.0608 -2.0291  2.0635
    1PA     H5S 7649   1.429   3.288   4.138 -1.0443  1.6125  0.8014
    1PA     C14 7650   1.402   3.278   3.924 -0.4597  0.3945 -0.2715
    1PA     H4R 7651   1.437   3.175   3.924  0.2135  0.6188 -0.4083
    1PA     H4S 7652   1.314   3.300   3.863 -1.4242 -1.5532  0.3932
    1PA     C13 7653   1.510   3.370   3.863 -0.2487 -0.5603 -0.2152
    1PA     H3R 7654   1.483   3.473   3.888  1.0806  0.1121 -1.4473
    1PA     H3S 7655   1.611   3.347   3.899 -0.5472 -1.2689  0.1862
    1PA     C12 7656   1.510   3.363   3.713 -0.7952 -0.0205 -0.1019
    1PA     H2R 7657   1.410   3.388   3.678 -1.5434 -0.6725  1.5220
    1PA     H2S 7658   1.573   3.441   3.671  0.2034 -0.2878  0.8711
    1PC     C11 7659   1.558   3.226   3.653 -0.6428 -0.0951 -0.2983
    1PC     O12 7660   1.669   3.176   3.671 -0.5827 -0.2325  0.2017
    1PC     O11 7661   1.463   3.155   3.588 -0.1933  0.0738  0.1085
    1PC      C1 7662   1.500   3.031   3.527  0.4652  0.1922 -0.1398
    1PC      HR 7663   1.586   3.039   3.461  0.3034 -2.3020 -0.7202
    1PC      HS 7664   1.521   2.965   3.612 -2.4917  0.7767  1.1399
    1PC      C2 7665   1.377   2.979   3.447 -0.0953 -0.4733  0.0051
    1PC      HX 7666   1.413   2.889   3.396 -1.7886 -1.4748  0.5354
    1PC      C3 7667   1.331   3.075   3.347  0.1424  0.0892 -0.1164
    1PC      HA 7668   1.268   3.148   3.399 -1.0477 -1.9851  1.4477
    1PC      HB 7669   1.418   3.130   3.310  1.9133 -1.5883  1.4596
    1PC     O31 7670   1.265   3.001   3.246  0.5767  0.6378 -0.0805
    1PC     P31 7671   1.334   2.923   3.130  0.3089  0.1689 -0.1121
    1PC     O32 7672   1.341   2.769   3.187  0.0887  0.0537  0.1248
    1PC     C31 7673   1.224   2.684   3.190 -0.4093  0.5677 -0.0167
    1PC     H1A 7674   1.262   2.606   3.256  0.9127  1.2654  0.0624
    1PC     H1B 7675   1.136   2.729   3.238 -0.7353 -2.0618  1.9418
    1PC     C32 7676   1.185   2.631   3.050 -0.3166 -0.2252 -0.3753
    1PC     H2A 7677   1.105   2.558   3.062 -1.4577  1.3019  1.5583
    1PC     H2B 7678   1.159   2.707   2.976 -1.8222 -0.3087  0.0449
    1PC     N31 7679   1.288   2.535   2.991 -0.7255 -0.3793 -0.3563
    1PC     C33 7680   1.247   2.493   2.850  0.3907 -0.2857 -0.6508
    1PC     H3A 7681   1.313   2.414   2.812  0.7701  0.1350 -0.8782
    1PC     H3B 7682   1.145   2.455   2.849 -0.1411  1.0512  0.9177
    1PC     H3C 7683   1.254   2.580   2.786 -1.8811  0.5040  0.1503
    1PC     C34 7684   1.421   2.597   2.963 -0.1609 -0.1807 -0.5062
    1PC     H4A 7685   1.472   2.614   3.058  0.6485 -0.7071 -0.8358
    1PC     H4B 7686   1.482   2.528   2.904  1.2193 -0.6079  1.3696
    1PC     H4C 7687   1.407   2.688   2.903  1.7584  0.5844  0.1754
    1PC     C35 7688   1.294   2.414   3.079  0.3752  0.3244 -0.1951
    1PC     H5A 7689   1.290   2.449   3.182 -1.6554  1.1535 -0.5351
    1PC     H5B 7690   1.387   2.365   3.050 -0.2152 -0.8675 -0.0885
    1PC     H5C 7691   1.208   2.350   3.061 -0.0760  1.0228 -0.5205
    1PC     O33 7692   1.230   2.917   3.024  0.3891  0.0818  0.5648
    1PC     O34 7693   1.474   2.982   3.107 -0.3622  0.3988  0.2219
    1PC     O21 7694   1.259   2.963   3.529 -0.3520  0.2199  0.3983
    1PC     C21 7695   1.218   2.843   3.547  0.0010  0.1999 -0.7390
    1PC     O22 7696   1.279   2.745   3.510 -0.0583  0.0031 -0.9786
    1OL     C12 7697   1.093   2.838   3.633  0.7405  0.3265 -0.3269
    1OL     H2R 7698   1.015   2.782   3.582  1.9231 -1.0409 -0.6531
    1OL     H2S 7699   1.052   2.937   3.654 -0.8050 -0.4792  0.5322
    1OL     C13 7700   1.119   2.771   3.768 -0.1976  0.1024  0.1874
    1OL     H3R 7701   1.151   2.669   3.747  0.4506  0.2514  0.4286
    1OL     H3S 7702   1.029   2.763   3.829 -0.4345 -0.1597 -0.2008
    1OL     C14 7703   1.222   2.842   3.859 -0.0362  0.1963  0.0118
    1OL     H4R 7704   1.184   2.939   3.893  1.8819  0.9809 -0.0354
    1OL     H4S 7705   1.308   2.856   3.793  1.3309 -0.4652  1.6255
    1OL     C15 7706   1.264   2.738   3.970  0.7798  0.4724 -0.0726
    1OL     H5R 7707   1.349   2.770   4.030  0.7717  2.2795 -1.0081
    1OL     H5S 7708   1.304   2.640   3.942 -1.1381  0.0195 -1.3045
    1OL     C16 7709   1.144   2.704   4.071 -0.0083 -0.4895 -0.0633
    1OL     H6R 7710   1.177   2.627   4.142 -1.6019 -1.0411  0.0839
    1OL     H6S 7711   1.068   2.649   4.016  0.5686 -0.7326 -0.6225
    1OL     C17 7712   1.088   2.820   4.159 -0.2851 -0.6746 -0.1565
    1OL     H7R 7713   0.995   2.791   4.210  0.0872 -2.0301 -0.2318
    1OL     H7S 7714   1.071   2.911   4.101  1.2880  0.8360  1.6693
    1OL     C18 7715   1.183   2.857   4.282 -0.3940 -0.1789  0.2405
    1OL     H8R 7716   1.284   2.878   4.249 -0.3209  0.5906  0.9259
    1OL     H8S 7717   1.201   2.762   4.333  1.9881  0.4860  0.6957
    1OL     C19 7718   1.122   2.966   4.368  0.2436 -0.8370  0.2979
    1OL     H9R 7719   1.135   3.063   4.321 -2.4062 -0.0247  1.1955
    1OL    C110 7720   1.066   2.959   4.488  0.2475 -0.6145  0.0489
    1OL    H10R 7721   1.033   3.049   4.539 -1.2806 -0.0323 -1.9560
    1OL    C111 7722   1.038   2.828   4.562 -0.2374 -0.1583 -0.3032
    1OL    H11R 7723   1.097   2.829   4.653  1.8834  2.2838 -1.6386
    1OL    H11S 7724   1.078   2.748   4.499 -1.3596 -0.6001 -0.4626
    1OL    C112 7725   0.890   2.826   4.590 -0.0356 -0.4428  0.0835
    1OL    H12R 7726   0.861   2.731   4.637 -0.6834 -0.2210  0.1466
    1OL    H12S 7727   0.844   2.840   4.492  1.7265 -0.1885 -0.7145
    1OL    C113 7728   0.835   2.933   4.686 -0.8981 -0.4434  0.1212
    1OL    H13R 7729   0.843   3.030   4.637  0.0571 -2.2939 -3.5448
    1OL    H13S 7730   0.886   2.934   4.783 -2.6248  1.4329  1.0603
    1OL    C114 7731   0.692   2.914   4.714 -0.0484 -0.0686  0.2862
    1OL    H14R 7732   0.681   2.821   4.769 -1.2814  0.3782  0.8242
    1OL    H14S 7733   0.639   2.914   4.618  0.4490 -4.2269 -0.0852
    1OL    C115 7734   0.633   3.028   4.795 -0.2007  0.4837 -0.4037
    1OL    H15R 7735   0.636   3.123   4.741  1.6933  0.4280 -0.4332
    1OL    H15S 7736   0.705   3.048   4.875  0.2789 -0.5146 -0.5782
    1OL    C116 7737   0.504   3.016   4.884  0.0535  0.0360  0.2858
    1OL    H16R 7738   0.473   3.110   4.930 -1.3712  0.1912 -0.9745
    1OL    H16S 7739   0.516   2.933   4.954  2.2067  0.5030  0.5363
    1OL    C117 7740   0.387   2.987   4.793  0.6633 -0.4674  0.6369
    1OL    H17R 7741   0.293   2.999   4.848 -0.4773  0.8510 -1.5678
    1OL    H17S 7742   0.399   2.887   4.752  2.5831  0.4656 -1.1759
    1OL    C118 7743   0.358   3.096   4.686 -0.5869 -0.4532  0.1907
    1OL    H18R 7744   0.351   3.190   4.742 -1.0334 -0.1783 -0.3301
    1OL    H18S 7745   0.265   3.076   4.633 -0.5652 -0.5591  0.1924
    1OL    H18T 7746   0.439   3.102   4.614 -1.6237  0.8814 -0.8964
    1PA    C116 7747   1.498   1.709   5.257  0.3222 -0.1718 -0.8204
    1PA    H16R 7748   1.567   1.660   5.326 -0.6142  0.2000  0.3829
    1PA    H16S 7749   1.402   1.702   5.308  0.8649  0.1949  0.2517
    1PA    H16T 7750   1.521   1.813   5.231 -0.3127  0.4219  0.9066
    1PA    C115 7751   1.484   1.628   5.131  0.3509 -0.3007 -0.0891
    1PA    H15R 7752   1.450   1.527   5.155 -0.6261  0.4987  1.9834
    1PA    H15S 7753   1.410   1.681   5.070  0.6176  1.0407  0.7256
    1PA    C114 7754   1.612   1.625   5.046  0.2608  0.1268  0.6433
    1PA    H14R 7755   1.621   1.729   5.015 -1.6861  0.9265  2.5630
    1PA    H14S 7756   1.701   1.586   5.096  2.5735  0.7913 -2.8112
    1PA    C113 7757   1.605   1.551   4.909 -0.1635  0.4581 -0.5688
    1PA    H13R 7758   1.516   1.593   4.861  0.0298  0.4605 -0.9254
    1PA    H13S 7759   1.693   1.578   4.850  0.7875 -0.7367  0.2843
    1PA    C112 7760   1.597   1.397   4.918  0.3015  0.3738  0.6970
    1PA    H12R 7761   1.671   1.357   4.988 -0.9055 -3.2989  0.0260
    1PA    H12S 7762   1.497   1.375   4.956 -0.6132  2.4590 -0.4758
    1PA    C111 7763   1.620   1.320   4.789  0.7901  0.3117  0.9133
    1PA    H11R 7764   1.559   1.362   4.708  0.4148 -1.3982  0.2909
    1PA    H11S 7765   1.721   1.350   4.761 -0.0837  1.6524 -0.9730
    1PA    C110 7766   1.615   1.166   4.797 -0.6169  0.5835 -0.5642
    1PA    H10R 7767   1.634   1.132   4.899 -1.1076 -1.1132 -1.0195
    1PA    H10S 7768   1.518   1.132   4.761 -1.3156  0.5703  1.2777
    1PA     C19 7769   1.722   1.112   4.704 -0.2298  0.8709  0.4165
    1PA     H9R 7770   1.820   1.147   4.736 -1.4177  2.6177  2.2638
    1PA     H9S 7771   1.723   1.002   4.704 -2.3537  0.8081 -0.3329
    1PA     C18 7772   1.705   1.151   4.555 -0.3402 -0.0155  0.4417
    1PA     H8R 7773   1.729   1.257   4.554 -0.3416 -0.0187  0.2206
    1PA     H8S 7774   1.775   1.092   4.496 -0.6361 -1.1460  1.1963
    1PA     C17 7775   1.563   1.146   4.483  0.4401  0.2795  0.2216
    1PA     H7R 7776   1.514   1.053   4.511 -1.0582  1.9025  3.2334
    1PA     H7S 7777   1.500   1.229   4.516 -1.0431  0.3217 -2.5330
    1PA     C16 7778   1.551   1.177   4.333 -0.4666 -0.2542  0.2904
    1PA     H6R 7779   1.454   1.130   4.313 -1.1130  0.0719  2.5118
    1PA     H6S 7780   1.562   1.285   4.322  1.2088 -0.3479  1.0345
    1PA     C15 7781   1.663   1.110   4.258  0.2764  0.6689 -0.9583
    1PA     H5R 7782   1.760   1.137   4.302  0.1837 -0.3311 -0.1251
    1PA     H5S 7783   1.660   1.001   4.265 -0.7908  0.7040 -0.7852
    1PA     C14 7784   1.654   1.147   4.106 -0.4189  0.4868 -0.6530
    1PA     H4R 7785   1.703   1.243   4.090  0.3380  0.2104 -0.0501
    1PA     H4S 7786   1.713   1.079   4.044  0.9856  0.8703  0.2439
    1PA     C13 7787   1.510   1.156   4.041 -0.4955 -0.2170 -0.6048
    1PA     H3R 7788   1.462   1.059   4.054  2.1784 -1.6779 -1.1546
    1PA     H3S 7789   1.445   1.232   4.083  0.8363  0.3658  0.4253
    1PA     C12 7790   1.520   1.174   3.891  0.1621  0.3357  0.7512
    1PA     H2R 7791   1.588   1.256   3.869 -0.8060  0.6993 -1.0002
    1PA     H2S 7792   1.559   1.087   3.837 -2.7077  0.5918 -1.8735
    1PC     C11 7793   1.389   1.212   3.827 -0.5780  0.1664 -0.1736
    1PC     O12 7794   1.316   1.295   3.869  0.4070  0.6213  0.0897
    1PC     O11 7795   1.352   1.141   3.719 -0.0624 -0.0329 -0.5906
    1PC      C1 7796   1.242   1.188   3.632 -0.0160  0.0262 -0.3506
    1PC      HR 7797   1.181   1.100   3.606  1.5458 -1.1723 -0.0331
    1PC      HS 7798   1.169   1.254   3.680 -2.1102 -0.2342 -3.0303
    1PC      C2 7799   1.306   1.257   3.513  0.5572  0.3480 -0.2536
    1PC      HX 7800   1.228   1.287   3.443 -0.4800 -1.8268 -0.0880
    1PC      C3 7801   1.420   1.168   3.448 -0.5631  1.4721  0.0681
    1PC      HA 7802   1.497   1.134   3.518 -0.9345 -3.4605 -1.7050
    1PC      HB 7803   1.374   1.076   3.412 -1.1953  2.0494 -0.6060
    1PC     O31 7804   1.489   1.227   3.342 -0.1307 -0.0116 -0.0522
    1PC     P31 7805   1.409   1.305   3.224 -0.3033 -0.1211  0.0072
    1PC     O32 7806   1.398   1.451   3.275 -0.2079  0.5414 -0.2560
    1PC     C31 7807   1.506   1.548   3.269  0.1168 -0.4090 -0.6345
    1PC     H1A 7808   1.533   1.572   3.372 -0.7256 -0.2829 -0.4392
    1PC     H1B 7809   1.588   1.508   3.208  0.6563  0.5569 -0.5410
    1PC     C32 7810   1.450   1.680   3.213  1.0303 -0.0184  0.8828
    1PC     H2A 7811   1.360   1.707   3.269  0.2076 -1.0402  0.0800
    1PC     H2B 7812   1.526   1.758   3.222  1.0302  0.5290 -3.0284
    1PC     N31 7813   1.411   1.683   3.065  0.3099  0.5013 -0.4621
    1PC     C33 7814   1.531   1.661   2.980  0.7399  0.4493 -0.1912
    1PC     H3A 7815   1.604   1.739   3.000  1.0717  0.2549 -0.6371
    1PC     H3B 7816   1.579   1.563   2.988  0.4799  0.3466  0.1046
    1PC     H3C 7817   1.501   1.665   2.875  1.0442 -4.0413 -0.5563
    1PC     C34 7818   1.310   1.577   3.030  0.0682  0.4340  0.4614
    1PC     H4A 7819   1.233   1.581   3.108  1.4271  0.5883  1.8165
    1PC     H4B 7820   1.268   1.606   2.934 -1.3417 -2.2738  0.2202
    1PC     H4C 7821   1.363   1.483   3.018 -2.6360 -1.1103  0.2145
    1PC     C35 7822   1.344   1.812   3.037 -0.1277  0.2497 -0.1618
    1PC     H5A 7823   1.254   1.828   3.096  0.7615  0.0954  1.2535
    1PC     H5B 7824   1.312   1.814   2.933 -0.4178  2.4492 -0.0606
    1PC     H5C 7825   1.412   1.897   3.051  0.6656 -0.6611  1.6466
    1PC     O33 7826   1.494   1.302   3.106  0.2319 -0.3877  0.9068
    1PC     O34 7827   1.279   1.248   3.202  0.0942 -0.0901 -0.8422
    1PC     O21 7828   1.369   1.380   3.559 -0.1349 -0.4452 -0.1842
    1PC     C21 7829   1.289   1.488   3.586  0.8103 -0.8938 -0.1979
    1PC     O22 7830   1.166   1.483   3.582  0.3071  0.3659  0.4998
    1OL     C12 7831   1.360   1.609   3.629 -0.3049 -0.3035 -0.1135
    1OL     H2R 7832   1.317   1.702   3.593 -0.2107 -0.4473 -0.6049
    1OL     H2S 7833   1.456   1.597   3.578 -0.7029 -0.5682 -0.8122
    1OL     C13 7834   1.372   1.608   3.783 -0.0895 -0.6200 -0.6976
    1OL     H3R 7835   1.460   1.547   3.804 -0.0867  0.0662  1.3419
    1OL     H3S 7836   1.279   1.577   3.831 -1.6195 -0.3183 -3.3898
    1OL     C14 7837   1.399   1.749   3.842 -0.6125 -0.0258 -0.1424
    1OL     H4R 7838   1.318   1.822   3.832 -0.5552 -0.0271 -0.6377
    1OL     H4S 7839   1.482   1.790   3.784 -0.3629 -1.0962 -0.5483
    1OL     C15 7840   1.443   1.724   3.991  0.5451 -1.1741  0.0914
    1OL     H5R 7841   1.544   1.681   3.995  1.7512  1.4477 -0.9560
    1OL     H5S 7842   1.374   1.657   4.044 -0.8104 -1.2976 -1.8087
    1OL     C16 7843   1.451   1.848   4.081 -0.6019 -0.6977  0.6045
    1OL     H6R 7844   1.488   1.814   4.178 -0.3253 -0.1570  0.6907
    1OL     H6S 7845   1.353   1.884   4.113 -1.3694 -3.2373  1.2302
    1OL     C17 7846   1.562   1.950   4.044 -0.8677  0.1095  0.4456
    1OL     H7R 7847   1.549   1.985   3.941  0.6535  3.1384  1.2250
    1OL     H7S 7848   1.659   1.901   4.047 -0.0290  1.7841  1.2389
    1OL     C18 7849   1.544   2.065   4.145  0.3416  0.4900  0.4879
    1OL     H8R 7850   1.512   2.033   4.245 -1.9360  1.6692  0.1766
    1OL     H8S 7851   1.461   2.122   4.103  0.6031  0.2553 -0.3630
    1OL     C19 7852   1.672   2.138   4.167  0.4033  0.9632  0.5571
    1OL     H9R 7853   1.755   2.069   4.173  0.3675  0.8090 -0.6409
    1OL    C110 7854   1.688   2.268   4.164  0.6285 -0.5206  0.1811
    1OL    H10R 7855   1.788   2.309   4.154 -0.8059  3.2957  0.6457
    1OL    C111 7856   1.575   2.366   4.148  0.3547  0.3397  0.1602
    1OL    H11R 7857   1.478   2.316   4.144  1.0826 -1.0179 -0.6656
    1OL    H11S 7858   1.586   2.421   4.055 -0.6375 -2.2575 -1.5448
    1OL    C112 7859   1.582   2.470   4.261 -0.2171  0.0642 -0.2199
    1OL    H12R 7860   1.539   2.562   4.221 -1.2679 -0.5030 -0.4340
    1OL    H12S 7861   1.684   2.493   4.293  0.0117  0.3125 -1.1314
    1OL    C113 7862   1.503   2.429   4.381 -0.0476 -0.2741 -0.3125
    1OL    H13R 7863   1.525   2.324   4.405  0.2374  0.1830  1.4992
    1OL    H13S 7864   1.400   2.441   4.348  0.4797 -0.1532 -1.9556
    1OL    C114 7865   1.520   2.512   4.510  0.3722  0.3873  0.1937
    1OL    H14R 7866   1.490   2.615   4.491 -2.6793 -0.5146 -0.0943
    1OL    H14S 7867   1.628   2.498   4.519  0.3132 -0.0171  0.2879
    1OL    C115 7868   1.454   2.446   4.636 -0.1615 -0.5115  0.2342
    1OL    H15R 7869   1.475   2.340   4.625  1.0679 -0.0706 -1.9915
    1OL    H15S 7870   1.344   2.445   4.636 -0.2149  0.9756  2.3381
    1OL    C116 7871   1.498   2.501   4.769  0.0789 -0.6424 -0.1188
    1OL    H16R 7872   1.460   2.603   4.779 -1.3652 -1.3682  1.9052
    1OL    H16S 7873   1.607   2.510   4.767  0.0341 -0.2096 -0.6916
    1OL    C117 7874   1.449   2.418   4.894 -0.2422  0.1234  0.0996
    1OL    H17R 7875   1.463   2.310   4.888 -0.8666  0.0246  0.4291
    1OL    H17S 7876   1.342   2.433   4.907 -0.3104 -0.1987 -0.0850
    1OL    C118 7877   1.525   2.465   5.016 -0.0302  0.9483  0.1344
    1OL    H18R 7878   1.631   2.438   5.011 -0.8781 -3.2575  2.5824
    1OL    H18S 7879   1.482   2.426   5.109  0.2293  0.2069 -0.0608
    1OL    H18T 7880   1.519   2.574   5.022 -0.6394  0.9334 -0.1477
    1PA    C116 7881   2.505   0.846   4.710  0.4166 -0.0619 -0.0954
    1PA    H16R 7882   2.454   0.870   4.616  1.1487  2.6179  0.1264
    1PA    H16S 7883   2.606   0.881   4.690  0.3673 -0.9073 -1.8979
    1PA    H16T 7884   2.465   0.906   4.792  1.2988 -0.5030  0.6652
    1PA    C115 7885   2.502   0.692   4.739  0.4577  0.5024  0.6557
    1PA    H15R 7886   2.571   0.673   4.821  0.8077  3.5481  1.1247
    1PA    H15S 7887   2.402   0.663   4.771 -0.4625  1.5106 -1.2416
    1PA    C114 7888   2.540   0.617   4.616 -0.1350  0.2762  0.6127
    1PA    H14R 7889   2.556   0.512   4.643 -0.2656 -0.0069 -0.4158
    1PA    H14S 7890   2.451   0.628   4.554  0.0508  2.0959  0.6323
    1PA    C113 7891   2.660   0.665   4.534  0.2614 -1.0332  0.5258
    1PA    H13R 7892   2.631   0.749   4.471  1.1742 -1.1321 -0.0305
    1PA    H13S 7893   2.738   0.694   4.605 -0.2174 -0.3710  0.7860
    1PA    C112 7894   2.721   0.555   4.442 -0.2782  0.3562 -0.4892
    1PA    H12R 7895   2.793   0.605   4.377  0.3516 -1.0406 -0.8780
    1PA    H12S 7896   2.766   0.479   4.505 -0.3799  1.5380  1.0333
    1PA    C111 7897   2.611   0.480   4.350 -0.1707 -0.1281  0.3203
    1PA    H11R 7898   2.669   0.412   4.289  0.0207  1.2985 -1.1183
    1PA    H11S 7899   2.550   0.425   4.421 -0.3873  1.1480  1.1574
    1PA    C110 7900   2.537   0.568   4.251  0.6469 -0.3586 -0.3733
    1PA    H10R 7901   2.446   0.512   4.232  1.4934 -2.1277  0.6893
    1PA    H10S 7902   2.513   0.667   4.290  0.0886 -0.0623 -1.4344
    1PA     C19 7903   2.602   0.581   4.115 -0.4879  0.0703  0.1318
    1PA     H9R 7904   2.585   0.491   4.055  2.1398  0.8300 -1.8178
    1PA     H9S 7905   2.547   0.654   4.055 -2.4746 -1.9359 -0.5777
    1PA     C18 7906   2.755   0.611   4.112 -0.2510 -0.0688  0.4548
    1PA     H8R 7907   2.766   0.712   4.153 -0.7071  0.1844 -0.0458
    1PA     H8S 7908   2.817   0.539   4.166  1.0194  1.8682  1.6444
    1PA     C17 7909   2.809   0.614   3.971  0.1480 -0.2215  0.2152
    1PA     H7R 7910   2.751   0.687   3.915  2.4971  1.3190 -0.3141
    1PA     H7S 7911   2.910   0.656   3.977 -0.0410  0.0039  2.0206
    1PA     C16 7912   2.820   0.474   3.901 -0.4644  0.3232  0.3784
    1PA     H6R 7913   2.886   0.409   3.959 -0.0286 -1.8190 -2.3860
    1PA     H6S 7914   2.723   0.427   3.884  0.5892 -0.9412 -2.5443
    1PA     C15 7915   2.881   0.482   3.756  0.4530  0.9995 -0.1739
    1PA     H5R 7916   2.839   0.557   3.689 -0.9766  1.3213  1.0601
    1PA     H5S 7917   2.990   0.491   3.759  0.4940  0.2808  0.7704
    1PA     C14 7918   2.849   0.347   3.684 -0.5877  0.0572 -1.0974
    1PA     H4R 7919   2.742   0.341   3.664 -1.5380  2.5482  2.6415
    1PA     H4S 7920   2.894   0.358   3.585  3.9360  0.2168  0.8181
    1PA     C13 7921   2.895   0.222   3.765 -0.4803 -0.6313  0.2494
    1PA     H3R 7922   2.992   0.245   3.810  0.2177 -1.6374 -0.7014
    1PA     H3S 7923   2.830   0.197   3.849 -0.4720 -0.9216  0.1679
    1PA     C12 7924   2.910   0.104   3.674 -0.5089  0.2477  0.1296
    1PA     H2R 7925   2.952   0.145   3.582 -0.7724 -0.7791 -0.4549
    1PA     H2S 7926   2.976   0.029   3.717 -0.9551 -0.5180 -0.5159
    1PC     C11 7927   2.777   0.038   3.650  0.1916  0.3932 -0.0173
    1PC     O12 7928   2.736  -0.067   3.701  0.4282 -0.2654 -0.0158
    1PC     O11 7929   2.696   0.119   3.579 -0.0894 -0.1399  0.6405
    1PC      C1 7930   2.563   0.079   3.537  0.0519 -0.0982  0.2245
    1PC      HR 7931   2.566   0.006   3.456 -0.5826  2.0284 -1.7920
    1PC      HS 7932   2.511   0.048   3.628 -1.7674 -0.6673 -0.9758
    1PC      C2 7933   2.493   0.202   3.483  0.8587 -0.0881  0.0013
    1PC      HX 7934   2.393   0.174   3.447 -0.2569  0.7053  2.3715
    1PC      C3 7935   2.567   0.242   3.359  0.4467 -0.3602  0.2428
    1PC      HA 7936   2.671   0.269   3.376  0.6426  0.6333 -2.3399
    1PC      HB 7937   2.568   0.155   3.293  1.7499 -2.0178  2.3705
    1PC     O31 7938   2.497   0.354   3.300 -0.2159 -0.1212  0.4041
    1PC     P31 7939   2.563   0.431   3.178  0.0938  0.1138 -0.1844
    1PC     O32 7940   2.677   0.517   3.256  0.4299  0.5864 -0.4109
    1PC     C31 7941   2.645   0.638   3.321  0.1344  0.6718 -0.1722
    1PC     H1A 7942   2.621   0.709   3.241  1.2070  1.1408 -0.0870
    1PC     H1B 7943   2.560   0.609   3.384  0.6472  0.1864  0.3038
    1PC     C32 7944   2.762   0.679   3.414 -0.7467 -0.2290 -0.0436
    1PC     H2A 7945   2.732   0.767   3.471 -0.3645 -0.4935  0.5674
    1PC     H2B 7946   2.779   0.605   3.492 -0.8351 -1.0187 -0.7704
    1PC     N31 7947   2.897   0.713   3.347  0.1664 -0.0053 -0.3095
    1PC     C33 7948   2.988   0.762   3.450  0.2447  0.3979  0.7166
    1PC     H3A 7949   2.988   0.694   3.536 -1.8507 -0.2099  0.2697
    1PC     H3B 7950   3.087   0.760   3.405  0.0424 -0.1182  0.2868
    1PC     H3C 7951   2.964   0.866   3.470 -2.7264  0.1607 -1.3530
    1PC     C34 7952   2.956   0.593   3.291  0.1019  0.4637 -0.5856
    1PC     H4A 7953   2.966   0.517   3.368  0.8965  0.5841 -0.5607
    1PC     H4B 7954   2.907   0.549   3.204  0.3149 -1.4099  0.2324
    1PC     H4C 7955   3.059   0.616   3.264 -0.0245 -0.5456 -1.9802
    1PC     C35 7956   2.887   0.814   3.234  0.8075 -0.0826  0.0449
    1PC     H5A 7957   2.849   0.906   3.277 -0.7659 -1.5584  1.8906
    1PC     H5B 7958   2.821   0.767   3.161 -0.9372  0.2290  1.4181
    1PC     H5C 7959   2.985   0.829   3.188  0.3665 -2.6575 -1.8517
    1PC     O33 7960   2.613   0.339   3.081  0.2394  0.1485 -0.3487
    1PC     O34 7961   2.463   0.527   3.136 -0.5505  0.2484  0.3213
    1PC     O21 7962   2.483   0.303   3.585  0.5193 -0.2702 -0.0992
    1PC     C21 7963   2.385   0.298   3.674 -0.0631  0.4716 -0.5407
    1PC     O22 7964   2.282   0.237   3.653 -0.0572  0.5106 -0.0286
    1OL     C12 7965   2.408   0.391   3.786  0.1923 -0.3689  0.4299
    1OL     H2R 7966   2.361   0.482   3.747 -0.4893 -0.8110  0.2147
    1OL     H2S 7967   2.513   0.422   3.791 -0.6251  2.9768 -1.1469
    1OL     C13 7968   2.345   0.335   3.915 -0.3916 -0.3628  0.2548
    1OL     H3R 7969   2.239   0.333   3.887 -0.9456  3.2565  1.8483
    1OL     H3S 7970   2.354   0.404   3.998  1.3544 -1.9597  1.4204
    1OL     C14 7971   2.389   0.190   3.944 -0.2306 -0.4161 -0.0875
    1OL     H4R 7972   2.368   0.119   3.863  0.5704  0.6839 -1.2772
    1OL     H4S 7973   2.349   0.149   4.037  0.1102  0.5682  0.4929
    1OL     C15 7974   2.539   0.178   3.964  0.4552 -0.8138  0.4239
    1OL     H5R 7975   2.566   0.240   4.050 -1.5919  2.4555 -1.1648
    1OL     H5S 7976   2.593   0.200   3.871  0.1388  1.2704  0.7109
    1OL     C16 7977   2.565   0.038   4.006  0.3366  0.3696 -0.6847
    1OL     H6R 7978   2.527  -0.027   3.927  0.6088 -0.6197 -0.0050
    1OL     H6S 7979   2.513   0.014   4.100  0.7512  0.4965 -0.4220
    1OL     C17 7980   2.707  -0.011   4.046  0.6123 -0.0340  0.8140
    1OL     H7R 7981   2.764  -0.018   3.953 -1.5216  0.7376 -0.5817
    1OL     H7S 7982   2.698  -0.112   4.087 -0.8481 -0.7856 -1.2929
    1OL     C18 7983   2.794   0.078   4.145  0.2454  1.1233 -0.2253
    1OL     H8R 7984   2.742   0.101   4.238  0.1169  0.2441 -0.0705
    1OL     H8S 7985   2.802   0.178   4.102  0.8627  0.0622 -2.6166
    1OL     C19 7986   2.931   0.016   4.163  0.2746  0.3340  0.2857
    1OL     H9R 7987   2.925  -0.093   4.156 -0.8211  0.4739 -1.1806
    1OL    C110 7988   3.047   0.082   4.163 -0.7082 -0.6085  0.1448
    1OL    H10R 7989   3.146   0.036   4.159 -0.8032 -0.7024 -1.8699
    1OL    C111 7990   3.069   0.234   4.159  0.0664 -0.2074 -0.0509
    1OL    H11R 7991   3.086   0.275   4.258 -0.9328 -0.9735  0.4492
    1OL    H11S 7992   2.977   0.281   4.122 -0.8114 -1.0521  1.0408
    1OL    C112 7993   3.191   0.264   4.065 -0.1095  0.1813  0.1724
    1OL    H12R 7994   3.181   0.209   3.971 -0.0049 -1.5727  1.1595
    1OL    H12S 7995   3.284   0.228   4.110  0.5356  0.2638 -1.0702
    1OL    C113 7996   3.201   0.413   4.029 -0.7154 -0.3821  0.1453
    1OL    H13R 7997   3.117   0.434   3.963 -2.1841 -1.2468  1.6833
    1OL    H13S 7998   3.298   0.440   3.989 -0.7614 -1.3836 -0.6484
    1OL    C114 7999   3.180   0.490   4.164  0.3672 -0.3550 -0.2656
    1OL    H14R 8000   3.244   0.459   4.247  0.7710  0.0441 -0.4288
    1OL    H14S 8001   3.075   0.487   4.192 -0.2570 -0.3379 -2.5392
    1OL    C115 8002   3.226   0.636   4.161 -0.0016  0.1135  0.9772
    1OL    H15R 8003   3.191   0.683   4.069  0.6134 -1.1908  0.0463
    1OL    H15S 8004   3.334   0.650   4.160  0.1982 -1.3609 -0.1105
    1OL    C116 8005   3.176   0.722   4.266  0.7074  0.2853  0.4672
    1OL    H16R 8006   3.070   0.699   4.279 -0.5384  2.2004 -5.1003
    1OL    H16S 8007   3.172   0.830   4.248 -1.4811  0.1309 -0.1095
    1OL    C117 8008   3.252   0.692   4.397 -1.0683 -0.0708  0.1058
    1OL    H17R 8009   3.350   0.737   4.383 -0.7171 -1.3629 -1.7869
    1OL    H17S 8010   3.275   0.586   4.407 -0.5345 -0.0232 -0.5645
    1OL    C118 8011   3.170   0.745   4.520  0.2858  0.2072 -0.1387
    1OL    H18R 8012   3.073   0.696   4.517 -0.2340  1.2212 -0.0916
    1OL    H18S 8013   3.148   0.851   4.501  0.0046  0.0765 -0.5537
    1OL    H18T 8014   3.234   0.736   4.608 -0.0942  0.8569  0.2064
    1PA    C116 8015   1.867   3.321   5.086 -0.4303  0.4677 -0.3176
    1PA    H16R 8016   1.963   3.372   5.093 -0.3376  0.1635  0.6685
    1PA    H16S 8017   1.865   3.259   5.175  0.0102 -0.0477 -0.6641
    1PA    H16T 8018   1.796   3.404   5.079  0.4292  1.2406  0.1409
    1PA    C115 8019   1.863   3.234   4.953  0.4090  1.0292  0.0735
    1PA    H15R 8020   1.925   3.148   4.976 -1.4374  0.2239  2.2663
    1PA    H15S 8021   1.762   3.196   4.937  0.8667  0.0771 -0.5771
    1PA    C114 8022   1.922   3.299   4.825 -0.5190 -0.3030 -0.1450
    1PA    H14R 8023   1.958   3.399   4.847 -0.0072 -0.7223  0.9283
    1PA    H14S 8024   2.012   3.241   4.805 -0.3903  0.3497 -1.5717
    1PA    C113 8025   1.817   3.307   4.710 -0.0199 -0.1610  0.6821
    1PA    H13R 8026   1.760   3.216   4.692  0.4589 -0.1019 -1.2627
    1PA    H13S 8027   1.738   3.375   4.743 -0.4524 -1.0828  1.5735
    1PA    C112 8028   1.881   3.357   4.587 -0.9001 -0.6893  0.5348
    1PA    H12R 8029   1.937   3.446   4.615 -1.6119  0.8904 -2.7772
    1PA    H12S 8030   1.952   3.287   4.543 -0.5505  0.6061 -1.0102
    1PA    C111 8031   1.784   3.398   4.474 -0.1591  0.3338 -0.5929
    1PA    H11R 8032   1.743   3.307   4.429 -0.1842  0.3320 -0.5666
    1PA    H11S 8033   1.707   3.466   4.511  1.7505  2.2449 -0.0434
    1PA    C110 8034   1.867   3.471   4.370 -0.3513  0.7280 -0.0578
    1PA    H10R 8035   1.929   3.545   4.421  0.1356  0.1022  0.2585
    1PA    H10S 8036   1.925   3.392   4.323  0.3007  0.1289  1.7052
    1PA     C19 8037   1.772   3.536   4.259  0.1393 -0.0426 -0.9897
    1PA     H9R 8038   1.704   3.458   4.227  3.0254 -2.8694 -0.4828
    1PA     H9S 8039   1.709   3.615   4.301  1.9823  0.5062  0.8353
    1PA     C18 8040   1.853   3.590   4.134  0.1859 -0.1376  0.0056
    1PA     H8R 8041   1.921   3.671   4.162  1.0472 -0.7526 -0.2682
    1PA     H8S 8042   1.913   3.507   4.096 -2.7183 -2.2163 -0.1660
    1PA     C17 8043   1.774   3.645   4.012 -0.7800  0.8471 -0.3158
    1PA     H7R 8044   1.696   3.574   3.984  0.3310 -0.5113 -0.0364
    1PA     H7S 8045   1.714   3.732   4.038 -1.9379 -0.0018 -0.1317
    1PA     C16 8046   1.864   3.680   3.890 -0.8700 -0.5633 -0.1210
    1PA     H6R 8047   1.814   3.752   3.825 -2.3434 -1.2029  0.2659
    1PA     H6S 8048   1.953   3.735   3.923 -1.4878  0.9219 -0.8861
    1PA     C15 8049   1.905   3.560   3.808 -0.0375  0.5868 -0.5983
    1PA     H5R 8050   1.973   3.492   3.860  0.4844  1.0224 -0.7009
    1PA     H5S 8051   1.814   3.501   3.800  0.4069 -0.0175 -1.2398
    1PA     C14 8052   1.978   3.594   3.676  0.0528  0.1173  0.5344
    1PA     H4R 8053   1.968   3.503   3.616 -0.2351 -2.2879  4.0891
    1PA     H4S 8054   1.935   3.674   3.615 -1.8644 -2.0238 -0.9962
    1PA     C13 8055   2.131   3.628   3.698 -0.5441 -0.4617  0.3306
    1PA     H3R 8056   2.138   3.675   3.796  0.7992 -1.0117  0.5167
    1PA     H3S 8057   2.200   3.545   3.716 -0.5670 -0.4452  0.4993
    1PA     C12 8058   2.184   3.718   3.589 -0.7902 -0.1750  0.2064
    1PA     H2R 8059   2.131   3.812   3.570  0.1720  0.5650  1.1257
    1PA     H2S 8060   2.290   3.742   3.600 -1.4649  3.1801 -0.0487
    1PC     C11 8061   2.173   3.648   3.451 -0.1612  0.8756 -0.2926
    1PC     O12 8062   2.206   3.528   3.436 -0.5427 -0.3218  0.3571
    1PC     O11 8063   2.118   3.731   3.365 -0.4199 -0.0527  0.2234
    1PC      C1 8064   2.064   3.678   3.245  0.2494  0.7277 -0.2360
    1PC      HR 8065   2.053   3.762   3.175 -1.2204  0.5988 -0.1762
    1PC      HS 8066   2.137   3.614   3.194  1.7286 -0.1125  2.8240
    1PC      C2 8067   1.931   3.607   3.252 -0.3847  0.0366 -0.1872
    1PC      HX 8068   1.945   3.521   3.319  0.2096  0.3727  0.1188
    1PC      C3 8069   1.891   3.549   3.114  0.7176  0.7178  0.1850
    1PC      HA 8070   1.884   3.628   3.039 -1.6609  0.4268  0.0663
    1PC      HB 8071   1.954   3.466   3.081 -1.3509 -0.3220 -1.2418
    1PC     O31 8072   1.766   3.483   3.121  0.2794 -0.2226  0.2927
    1PC     P31 8073   1.643   3.498   3.018  0.0848 -0.2770 -0.0328
    1PC     O32 8074   1.575   3.629   3.064  0.2519 -0.1428 -0.5575
    1PC     C31 8075   1.626   3.757   3.033 -0.2103 -0.5509  0.3475
    1PC     H1A 8076   1.589   3.827   3.109  0.2095  0.0088  0.0419
    1PC     H1B 8077   1.735   3.764   3.040 -0.3129 -0.9240  2.6874
    1PC     C32 8078   1.576   3.812   2.900  0.3737  0.5961 -0.0389
    1PC     H2A 8079   1.606   3.915   2.883  0.4480  0.5207 -0.3608
    1PC     H2B 8080   1.612   3.751   2.817  1.0636  0.6483  0.2136
    1PC     N31 8081   1.423   3.823   2.886 -0.0869  0.1526 -0.8240
    1PC     C33 8082   1.394   3.930   2.780 -0.3313 -0.0916  0.5980
    1PC     H3A 8083   1.287   3.951   2.789 -0.4236  0.4764 -1.3819
    1PC     H3B 8084   1.457   4.015   2.803 -2.2337  1.8199 -1.0567
    1PC     H3C 8085   1.427   3.882   2.687  2.0601  2.5842  0.0322
    1PC     C34 8086   1.351   3.701   2.854  0.1104 -0.0566  0.4442
    1PC     H4A 8087   1.246   3.724   2.870  0.2549  0.7920  0.1881
    1PC     H4B 8088   1.365   3.684   2.747 -1.5026  3.2738 -0.3570
    1PC     H4C 8089   1.385   3.623   2.922  0.3403  1.0160  1.5773
    1PC     C35 8090   1.358   3.879   3.016  0.1162 -0.4054  0.0169
    1PC     H5A 8091   1.383   3.812   3.099 -2.5994  0.1683  1.3647
    1PC     H5B 8092   1.251   3.902   3.012  0.4204  0.9014 -0.9346
    1PC     H5C 8093   1.413   3.971   3.034 -0.9644  0.5211 -1.3056
    1PC     O33 8094   1.688   3.517   2.881 -0.5792  0.4103  0.1176
    1PC     O34 8095   1.555   3.382   3.053  0.3931  0.2337  0.2819
    1PC     O21 8096   1.825   3.692   3.290  0.8779  0.5130  0.1752
    1PC     C21 8097   1.740   3.656   3.390  0.2625 -0.3349  0.2779
    1PC     O22 8098   1.747   3.552   3.450  0.0646 -0.0797 -0.7385
    1OL     C12 8099   1.631   3.754   3.414  0.0293  0.0254 -0.4035
    1OL     H2R 8100   1.558   3.744   3.334 -0.0571 -1.5592 -0.1416
    1OL     H2S 8101   1.675   3.854   3.415  0.2414 -0.0628 -0.9061
    1OL     C13 8102   1.549   3.733   3.544 -0.8485 -0.7665 -0.6571
    1OL     H3R 8103   1.616   3.734   3.630 -1.9472  0.6050  0.2129
    1OL     H3S 8104   1.511   3.631   3.539 -1.9886 -0.2912 -1.8636
    1OL     C14 8105   1.431   3.831   3.553 -0.0046  0.2889  0.4085
    1OL     H4R 8106   1.372   3.822   3.462  1.1454  0.4874 -0.3616
    1OL     H4S 8107   1.462   3.936   3.561  1.3853 -0.0808 -0.0513
    1OL     C15 8108   1.346   3.811   3.679 -0.3328  0.4190 -0.0298
    1OL     H5R 8109   1.285   3.722   3.662  1.0702 -0.6691  0.5028
    1OL     H5S 8110   1.268   3.887   3.688 -0.9600 -0.4099  1.5806
    1OL     C16 8111   1.418   3.798   3.810  0.0397  0.5318 -0.5410
    1OL     H6R 8112   1.479   3.887   3.829 -0.2248  0.0289  2.8215
    1OL     H6S 8113   1.484   3.712   3.800 -2.3624 -1.3276 -0.7247
    1OL     C17 8114   1.318   3.779   3.929  0.1082 -1.1783  0.5565
    1OL     H7R 8115   1.252   3.694   3.917 -2.4882  0.9801 -0.8950
    1OL     H7S 8116   1.250   3.865   3.934 -0.5795 -1.7155  0.4436
    1OL     C18 8117   1.397   3.765   4.068  0.1511  0.5357  0.7281
    1OL     H8R 8118   1.477   3.695   4.042 -0.2824  0.1035  0.5508
    1OL     H8S 8119   1.336   3.735   4.153  2.0722  1.2010  2.3906
    1OL     C19 8120   1.465   3.896   4.109  0.5149  0.0543 -0.2670
    1OL     H9R 8121   1.468   3.967   4.027  1.7537 -0.8772 -1.0613
    1OL    C110 8122   1.520   3.936   4.222  0.6911  0.3268  0.0412
    1OL    H10R 8123   1.564   4.035   4.219  2.2415 -0.2671  2.1570
    1OL    C111 8124   1.528   3.860   4.354 -0.6530  0.5663 -0.0304
    1OL    H11R 8125   1.635   3.855   4.377 -0.3032  0.0358 -1.7511
    1OL    H11S 8126   1.486   3.761   4.337 -0.3726  0.4647 -0.1361
    1OL    C112 8127   1.445   3.940   4.457  0.6002 -0.3066 -0.4892
    1OL    H12R 8128   1.343   3.950   4.420  1.0504  1.7115 -1.2307
    1OL    H12S 8129   1.483   4.042   4.461 -1.3113  0.3614  1.4259
    1OL    C113 8130   1.444   3.889   4.599 -0.5636  0.1058  0.3074
    1OL    H13R 8131   1.378   3.803   4.609  2.1021 -1.8809  1.2328
    1OL    H13S 8132   1.406   3.967   4.666 -0.5359 -0.5088  1.0561
    1OL    C114 8133   1.578   3.837   4.653 -0.6840 -0.0364  0.4997
    1OL    H14R 8134   1.659   3.908   4.637 -0.6757  0.1862  1.5289
    1OL    H14S 8135   1.604   3.747   4.596 -1.8434  0.5166 -0.9346
    1OL    C115 8136   1.567   3.806   4.805 -0.8716 -0.2054  0.2237
    1OL    H15R 8137   1.493   3.878   4.840  1.7673  2.9638 -0.4268
    1OL    H15S 8138   1.662   3.821   4.857 -1.0933  0.3721  0.4651
    1OL    C116 8139   1.509   3.664   4.827  0.0439 -0.2509  0.4469
    1OL    H16R 8140   1.583   3.593   4.789  0.1508 -0.5989  1.3077
    1OL    H16S 8141   1.419   3.639   4.770 -0.0167 -0.4609  0.6369
    1OL    C117 8142   1.482   3.642   4.970 -0.0280  0.1477  0.1126
    1OL    H17R 8143   1.398   3.702   5.006  0.1272  0.4705 -0.0557
    1OL    H17S 8144   1.571   3.669   5.027  0.6988  1.7564 -1.7302
    1OL    C118 8145   1.458   3.491   4.987  0.0330 -0.5479 -0.3557
    1OL    H18R 8146   1.529   3.432   4.929  2.3702  1.6245  0.1897
    1OL    H18S 8147   1.363   3.469   4.939 -0.7858  0.6948  0.6775
    1OL    H18T 8148   1.468   3.470   5.094  1.7895  1.6769 -0.0341
    1PA    C116 8149   4.805   1.512   4.857  0.0640 -0.0281 -0.5810
    1PA    H16R 8150   4.713   1.511   4.917  0.6525 -3.0312  0.4067
    1PA    H16S 8151   4.880   1.583   4.891  1.1314 -1.9488  1.2190
    1PA    H16T 8152   4.845   1.411   4.870 -0.6624 -0.4076 -1.2275
    1PA    C115 8153   4.771   1.538   4.712  0.2633 -0.0703  0.2993
    1PA    H15R 8154   4.736   1.641   4.706  0.0489 -0.0943  1.0799
    1PA    H15S 8155   4.865   1.538   4.657 -0.7080 -2.5939 -1.4930
    1PA    C114 8156   4.671   1.436   4.655  0.0731 -0.5688 -0.0201
    1PA    H14R 8157   4.714   1.335   4.653  0.2244 -0.4987 -0.3341
    1PA    H14S 8158   4.577   1.438   4.711 -0.2065  1.5562 -0.5247
    1PA    C113 8159   4.633   1.470   4.510 -0.8609 -0.2231  0.1451
    1PA    H13R 8160   4.728   1.477   4.456 -0.8611  1.4181  0.3402
    1PA    H13S 8161   4.582   1.391   4.454 -1.5319  1.3820 -1.5605
    1PA    C112 8162   4.544   1.598   4.499  0.3420  0.6364 -0.0333
    1PA    H12R 8163   4.456   1.604   4.564  0.6958 -1.7820  0.7051
    1PA    H12S 8164   4.607   1.679   4.536  1.5821  0.5433 -1.8551
    1PA    C111 8165   4.491   1.623   4.354  0.1817  0.0373 -0.3093
    1PA    H11R 8166   4.565   1.601   4.277  1.9302 -0.3085  1.4200
    1PA    H11S 8167   4.408   1.554   4.337 -0.0492 -0.0447  1.1134
    1PA    C110 8168   4.429   1.757   4.318  0.2836  0.0104 -0.6207
    1PA    H10R 8169   4.371   1.804   4.399  1.6009  2.9371 -1.3055
    1PA    H10S 8170   4.511   1.822   4.286  1.6236 -1.8662 -1.0512
    1PA     C19 8171   4.341   1.736   4.190 -1.2629  0.4030  0.0868
    1PA     H9R 8172   4.398   1.687   4.111 -1.3320  1.1596 -0.4304
    1PA     H9S 8173   4.264   1.663   4.216 -0.4277 -1.2787 -2.0664
    1PA     C18 8174   4.269   1.869   4.141  0.0299  0.0705  0.1649
    1PA     H8R 8175   4.185   1.896   4.206 -0.1481  0.6736 -0.3087
    1PA     H8S 8176   4.347   1.944   4.157 -0.1084  0.3705 -0.5889
    1PA     C17 8177   4.236   1.864   3.988  0.1956  0.4612 -0.0461
    1PA     H7R 8178   4.174   1.777   3.967  1.2827 -0.4446  0.5099
    1PA     H7S 8179   4.181   1.956   3.966 -0.3774  0.0878 -0.1879
    1PA     C16 8180   4.357   1.864   3.895 -0.1778 -0.1600 -0.7221
    1PA     H6R 8181   4.430   1.936   3.933  0.2231 -0.0161 -1.7464
    1PA     H6S 8182   4.406   1.768   3.913  0.2722  0.4404  1.3300
    1PA     C15 8183   4.324   1.896   3.750  0.1716 -0.1008 -0.1632
    1PA     H5R 8184   4.283   1.995   3.729 -0.5724 -0.8067 -2.2383
    1PA     H5S 8185   4.407   1.880   3.680  0.2209 -1.5707  0.2051
    1PA     C14 8186   4.215   1.806   3.692 -0.5609 -0.1321 -0.1727
    1PA     H4R 8187   4.120   1.816   3.745 -0.7994  1.0374 -0.8198
    1PA     H4S 8188   4.195   1.841   3.591  0.9672 -1.7597 -1.0785
    1PA     C13 8189   4.267   1.660   3.678  0.0917 -0.1330  0.1269
    1PA     H3R 8190   4.353   1.653   3.611  1.0812 -1.3194  1.5001
    1PA     H3S 8191   4.306   1.630   3.776  3.3636 -0.8748 -1.3374
    1PA     C12 8192   4.165   1.555   3.638  0.0234 -0.5159 -0.4172
    1PA     H2R 8193   4.217   1.463   3.613 -1.4588 -1.1624 -1.1832
    1PA     H2S 8194   4.096   1.534   3.720  0.5390  1.7104  0.6467
    1PC     C11 8195   4.078   1.592   3.518 -0.5242  0.5266  0.2846
    1PC     O12 8196   4.116   1.561   3.404 -0.0853  0.5525  0.4195
    1PC     O11 8197   3.961   1.654   3.549  0.1990  0.1451  0.5191
    1PC      C1 8198   3.864   1.685   3.449  0.3374  0.3044  0.5593
    1PC      HR 8199   3.850   1.611   3.371 -1.9078  2.9961 -1.6948
    1PC      HS 8200   3.764   1.704   3.490 -1.0728  0.3739 -2.7905
    1PC      C2 8201   3.892   1.818   3.375 -0.0628 -0.0971  0.2322
    1PC      HX 8202   3.799   1.854   3.330 -0.6845 -1.1710  0.6337
    1PC      C3 8203   4.000   1.818   3.274 -0.2725 -0.0706 -0.1844
    1PC      HA 8204   4.097   1.783   3.311  0.8340  1.2905 -1.7170
    1PC      HB 8205   3.980   1.745   3.196  0.8610 -1.7954  1.1000
    1PC     O31 8206   4.013   1.952   3.219  0.3706 -0.8626  0.1027
    1PC     P31 8207   4.146   2.008   3.161  0.4528  0.0546  0.1414
    1PC     O32 8208   4.245   2.013   3.289  0.0472  0.6406 -0.0726
    1PC     C31 8209   4.214   2.106   3.395  0.7948  0.1657 -0.4313
    1PC     H1A 8210   4.139   2.173   3.353 -0.8521 -1.8330 -0.7539
    1PC     H1B 8211   4.188   2.061   3.491 -0.8110  0.8929 -0.4975
    1PC     C32 8212   4.344   2.174   3.413 -0.4817  0.4550  0.4757
    1PC     H2A 8213   4.331   2.226   3.508  1.1808  0.3959  0.7575
    1PC     H2B 8214   4.427   2.102   3.414  0.4524  1.4537 -1.6584
    1PC     N31 8215   4.383   2.281   3.309  0.8205  0.4290 -0.2937
    1PC     C33 8216   4.444   2.231   3.187 -0.1612  0.2455 -0.4255
    1PC     H3A 8217   4.518   2.154   3.209 -0.0776  0.5950  0.5398
    1PC     H3B 8218   4.366   2.194   3.119 -0.6067 -1.3783  0.9359
    1PC     H3C 8219   4.493   2.307   3.126  0.7392 -1.1181 -1.4308
    1PC     C34 8220   4.269   2.369   3.279 -0.2830 -0.0823 -0.8473
    1PC     H4A 8221   4.202   2.329   3.203 -0.0769 -1.6063 -0.2464
    1PC     H4B 8222   4.226   2.391   3.376  2.6680 -1.5156  0.8376
    1PC     H4C 8223   4.320   2.456   3.237  1.2761  0.4449  2.0074
    1PC     C35 8224   4.486   2.370   3.377 -0.1015 -0.4336  0.2254
    1PC     H5A 8225   4.509   2.459   3.317  0.8936 -0.8809 -0.0645
    1PC     H5B 8226   4.578   2.312   3.377  1.2556  1.6242 -1.3370
    1PC     H5C 8227   4.448   2.392   3.477  1.2730  1.9388  0.2759
    1PC     O33 8228   4.204   1.903   3.071  0.0748  0.2134  0.5556
    1PC     O34 8229   4.128   2.146   3.105  0.2686 -0.2096 -0.3599
    1PC     O21 8230   3.931   1.921   3.476 -0.2020 -0.0744  0.1737
    1PC     C21 8231   3.828   1.980   3.540 -0.3975  0.1793  0.1217
    1PC     O22 8232   3.713   1.991   3.497  0.4088 -0.0158  0.2415
    1OL     C12 8233   3.878   2.053   3.663  0.4439 -0.2803  0.1051
    1OL     H2R 8234   3.860   2.160   3.649  0.1036 -0.5820 -1.9224
    1OL     H2S 8235   3.987   2.044   3.666  0.5194  0.4177 -0.3952
    1OL     C13 8236   3.819   1.986   3.792 -0.1102 -0.4778 -0.4656
    1OL     H3R 8237   3.832   1.877   3.791 -2.7207 -0.8451 -2.5086
    1OL     H3S 8238   3.710   1.998   3.798  0.0873  0.2496  2.3269
    1OL     C14 8239   3.878   2.048   3.920 -0.2829 -0.3882 -0.5964
    1OL     H4R 8240   3.819   2.138   3.937  0.2860 -0.1051 -0.0632
    1OL     H4S 8241   3.982   2.070   3.893  0.3584 -1.6606  0.7297
    1OL     C15 8242   3.872   1.954   4.038 -1.1357 -0.4854 -0.6871
    1OL     H5R 8243   3.941   1.869   4.030 -0.8278 -0.1595 -1.5524
    1OL     H5S 8244   3.773   1.914   4.018 -1.2308 -0.2377 -0.7072
    1OL     C16 8245   3.883   2.013   4.184 -0.4857 -0.0084  0.5971
    1OL     H6R 8246   3.820   2.102   4.181  0.8734  0.9799  1.2648
    1OL     H6S 8247   3.980   2.059   4.200 -0.0853 -0.5186 -0.3108
    1OL     C17 8248   3.847   1.931   4.310 -1.1319  0.0036  0.5638
    1OL     H7R 8249   3.762   1.867   4.287  0.7914 -1.9645 -1.2777
    1OL     H7S 8250   3.822   1.988   4.400  0.0784 -0.2805  1.0921
    1OL     C18 8251   3.968   1.834   4.345  0.9190  0.0185 -0.0816
    1OL     H8R 8252   4.049   1.888   4.394  0.4660  0.3740  0.2699
    1OL     H8S 8253   3.997   1.788   4.250  2.5322 -0.5488  0.6705
    1OL     C19 8254   3.925   1.722   4.437  0.4245 -1.0177  0.8904
    1OL     H9R 8255   3.828   1.681   4.412 -0.5165  0.9005  1.2888
    1OL    C110 8256   3.995   1.671   4.542 -0.0160 -0.0897 -0.9672
    1OL    H10R 8257   3.952   1.586   4.595  2.8960  0.5587  2.6306
    1OL    C111 8258   4.130   1.723   4.593 -0.8189  0.3797 -0.4558
    1OL    H11R 8259   4.147   1.827   4.566  0.7000 -0.2633 -2.1082
    1OL    H11S 8260   4.205   1.659   4.544  0.3806 -0.1073  1.9196
    1OL    C112 8261   4.158   1.705   4.745  0.8357 -0.9688 -0.4303
    1OL    H12R 8262   4.086   1.754   4.811  1.8220 -1.2605  0.9035
    1OL    H12S 8263   4.252   1.750   4.778 -0.3523  0.6176  0.8892
    1OL    C113 8264   4.149   1.555   4.776  0.4187 -0.4222 -0.1288
    1OL    H13R 8265   4.193   1.497   4.695  2.3849  2.0672 -0.9049
    1OL    H13S 8266   4.042   1.537   4.764 -0.1240  1.4670  1.6297
    1OL    C114 8267   4.195   1.513   4.916 -0.3059 -0.4727  0.9510
    1OL    H14R 8268   4.167   1.599   4.977 -0.8471  0.6683 -0.8707
    1OL    H14S 8269   4.304   1.513   4.906 -0.3631  2.6163 -0.3546
    1OL    C115 8270   4.140   1.380   4.978 -0.1615 -0.0401  0.6402
    1OL    H15R 8271   4.192   1.300   4.925  0.6509  1.4106 -0.7991
    1OL    H15S 8272   4.032   1.377   4.959  0.2926  2.2941 -2.6780
    1OL    C116 8273   4.171   1.373   5.126 -0.2710  0.5933 -0.0044
    1OL    H16R 8274   4.270   1.416   5.145 -0.2415  0.1241  0.9353
    1OL    H16S 8275   4.172   1.269   5.158  2.5406  0.3749 -0.6299
    1OL    C117 8276   4.066   1.455   5.200 -0.0042 -0.5223  0.6807
    1OL    H17R 8277   3.966   1.420   5.171  0.6602  0.3536 -2.8254
    1OL    H17S 8278   4.070   1.561   5.175  1.7635 -1.1026 -1.6780
    1OL    C118 8279   4.081   1.446   5.354 -0.2466  0.0882 -0.6212
    1OL    H18R 8280   4.016   1.522   5.398 -0.2393 -0.9438  1.2509
    1OL    H18S 8281   4.181   1.467   5.390 -0.7418 -0.6620  1.2407
    1OL    H18T 8282   4.057   1.348   5.394 -2.3850  0.6923 -0.3616
    1PA    C116 8283   3.396   4.562   4.912  0.1210 -1.1656 -0.3647
    1PA    H16R 8284   3.488   4.508   4.890  1.7508  1.1548  0.5879
    1PA    H16S 8285   3.351   4.593   4.817  0.7342 -1.1815 -0.6617
    1PA    H16T 8286   3.313   4.510   4.960 -0.7299  0.9374  0.5108
    1PA    C115 8287   3.430   4.688   4.994  0.1067 -0.1102  0.0503
    1PA    H15R 8288   3.341   4.752   5.001  2.7282  3.9486 -1.6310
    1PA    H15S 8289   3.450   4.659   5.097  2.6380  1.0707 -0.0745
    1PA    C114 8290   3.547   4.784   4.948 -0.2526  0.5208 -0.3214
    1PA    H14R 8291   3.580   4.823   5.044 -0.0324 -2.9398  1.0682
    1PA    H14S 8292   3.625   4.723   4.903 -1.2322  0.7866 -2.4931
    1PA    C113 8293   3.492   4.892   4.859  0.0520 -0.0474  0.2717
    1PA    H13R 8294   3.444   4.840   4.776  0.4950  1.0309 -0.6641
    1PA    H13S 8295   3.410   4.933   4.919 -2.4763 -2.4370 -1.4383
    1PA    C112 8296   3.592   5.009   4.819  0.9508 -0.2856  0.7016
    1PA    H12R 8297   3.611   5.081   4.899 -1.9497  0.2334  0.9898
    1PA    H12S 8298   3.686   4.973   4.776  0.1994 -0.3584 -0.9314
    1PA    C111 8299   3.528   5.089   4.708  1.5338  0.2668  0.9228
    1PA    H11R 8300   3.488   5.016   4.637  1.3555 -1.1827  2.4639
    1PA    H11S 8301   3.439   5.146   4.733  1.6058  0.1411  1.4855
    1PA    C110 8302   3.625   5.183   4.634  0.9636  0.6330 -0.3940
    1PA    H10R 8303   3.608   5.283   4.676  0.0766  0.6458 -0.7642
    1PA    H10S 8304   3.729   5.153   4.645  1.1883  2.2703  2.3234
    1PA     C19 8305   3.587   5.186   4.484  0.3962  0.1459  0.7688
    1PA     H9R 8306   3.595   5.085   4.443 -1.1450 -0.5391  2.1025
    1PA     H9S 8307   3.483   5.215   4.468  0.2345 -0.4197  0.7541
    1PA     C18 8308   3.690   5.258   4.406  0.4723 -0.7579 -0.1445
    1PA     H8R 8309   3.682   5.366   4.409 -0.7692 -0.8883  3.5221
    1PA     H8S 8310   3.791   5.231   4.439  1.5567  2.1332 -0.9636
    1PA     C17 8311   3.687   5.222   4.256 -0.7176  0.7945 -0.0784
    1PA     H7R 8312   3.759   5.294   4.216 -1.9059  1.4327 -1.0837
    1PA     H7S 8313   3.706   5.117   4.236 -0.7507  0.4200  1.7384
    1PA     C16 8314   3.547   5.263   4.206  0.4450 -0.1030  0.1720
    1PA     H6R 8315   3.481   5.194   4.258  4.2977 -1.4606  3.5763
    1PA     H6S 8316   3.518   5.366   4.226  0.6626  0.2751 -1.3642
    1PA     C15 8317   3.532   5.230   4.056  0.4353  0.1055 -0.0765
    1PA     H5R 8318   3.591   5.295   3.990 -1.7215 -0.3041 -2.4949
    1PA     H5S 8319   3.574   5.131   4.036 -0.5888 -0.7829  2.0616
    1PA     C14 8320   3.387   5.240   4.007  0.5577  0.2416  0.4271
    1PA     H4R 8321   3.330   5.160   4.056  1.5047 -2.2635 -2.4076
    1PA     H4S 8322   3.336   5.335   4.022  0.3606  0.1686  0.2192
    1PA     C13 8323   3.373   5.227   3.858 -0.0304  0.1675  0.1366
    1PA     H3R 8324   3.412   5.320   3.815  0.8537  1.0149  2.6770
    1PA     H3S 8325   3.446   5.152   3.827 -0.8677 -0.3274 -0.6502
    1PA     C12 8326   3.239   5.210   3.791 -0.5466  0.1477 -0.8500
    1PA     H2R 8327   3.213   5.105   3.804 -1.6617  0.8212  2.7218
    1PA     H2S 8328   3.164   5.277   3.833 -1.7606 -1.3937 -0.5282
    1PC     C11 8329   3.246   5.237   3.642 -0.2227 -0.3300 -0.3222
    1PC     O12 8330   3.265   5.147   3.560  0.2843  0.5708  0.1332
    1PC     O11 8331   3.236   5.366   3.612 -0.0186  0.4016 -0.1816
    1PC      C1 8332   3.272   5.426   3.485  0.2975  0.7376  0.0895
    1PC      HR 8333   3.381   5.422   3.483  0.3132  1.1465 -2.4956
    1PC      HS 8334   3.221   5.362   3.413  1.0540  0.3320 -0.0896
    1PC      C2 8335   3.226   5.575   3.471  0.5546  0.0315 -0.4813
    1PC      HX 8336   3.125   5.579   3.514  0.5851 -1.4522 -0.2531
    1PC      C3 8337   3.209   5.606   3.321  0.8118  0.2035 -0.2060
    1PC      HA 8338   3.159   5.525   3.267 -0.2610  0.2537  0.6891
    1PC      HB 8339   3.140   5.690   3.315  0.7472  0.4690  3.2801
    1PC     O31 8340   3.336   5.642   3.256 -0.5108 -0.3525 -0.5972
    1PC     P31 8341   3.360   5.628   3.091  0.0670 -0.1887 -0.1249
    1PC     O32 8342   3.340   5.473   3.077 -0.0788 -0.4534  0.2668
    1PC     C31 8343   3.434   5.378   3.132  0.0205  0.7449  0.2831
    1PC     H1A 8344   3.464   5.417   3.230 -1.5600  2.7071  0.0158
    1PC     H1B 8345   3.385   5.282   3.151 -1.2700  1.3079 -0.1225
    1PC     C32 8346   3.559   5.364   3.031  0.4996  0.0532  0.0665
    1PC     H2A 8347   3.615   5.457   3.028  1.3736 -0.4031  2.0315
    1PC     H2B 8348   3.610   5.276   3.071 -0.2276 -0.3460  0.1283
    1PC     N31 8349   3.529   5.328   2.885 -0.4339 -0.4066  0.4140
    1PC     C33 8350   3.432   5.210   2.878 -0.3505  0.7153 -0.2742
    1PC     H3A 8351   3.343   5.247   2.930  0.0476  0.1152  0.8604
    1PC     H3B 8352   3.408   5.201   2.772 -0.6335 -1.7228 -0.0287
    1PC     H3C 8353   3.473   5.120   2.924  1.0737  0.4063 -2.1088
    1PC     C34 8354   3.467   5.446   2.817  0.1761 -0.0419  1.0595
    1PC     H4A 8355   3.521   5.540   2.834 -0.9479  0.3170  2.7301
    1PC     H4B 8356   3.466   5.423   2.710 -1.1150 -1.2438  1.3296
    1PC     H4C 8357   3.361   5.456   2.842 -0.1106 -0.7275  0.1345
    1PC     C35 8358   3.657   5.304   2.817  0.2128 -0.1933  0.5779
    1PC     H5A 8359   3.705   5.234   2.885 -1.1709  0.7719  2.5933
    1PC     H5B 8360   3.715   5.397   2.817 -1.1295  0.6697  1.5375
    1PC     H5C 8361   3.630   5.269   2.717  1.2126  0.6417  0.0038
    1PC     O33 8362   3.248   5.703   3.028 -0.0157  0.0453 -0.4638
    1PC     O34 8363   3.498   5.666   3.054  0.2761  0.1656  0.4434
    1PC     O21 8364   3.319   5.668   3.537  0.1969 -0.0611 -0.4175
    1PC     C21 8365   3.263   5.780   3.584  0.7890  0.6464 -0.5057
    1PC     O22 8366   3.144   5.812   3.571  0.5285  0.3676 -0.1419
    1OL     C12 8367   3.355   5.857   3.669  0.5208  0.1077 -0.7011
    1OL     H2R 8368   3.451   5.831   3.625  0.5394  1.2708 -1.3519
    1OL     H2S 8369   3.351   5.834   3.776  0.7451  1.3256 -0.4259
    1OL     C13 8370   3.335   6.009   3.641  0.1942  0.2571 -0.0167
    1OL     H3R 8371   3.227   6.025   3.649 -0.3213 -0.6509 -3.8607
    1OL     H3S 8372   3.372   6.032   3.540  0.6110  0.4258  0.1748
    1OL     C14 8373   3.401   6.103   3.745 -0.4526 -0.6424  0.0331
    1OL     H4R 8374   3.357   6.078   3.842  0.2176 -0.8628  0.2846
    1OL     H4S 8375   3.376   6.205   3.715 -0.1331 -0.6943 -0.4205
    1OL     C15 8376   3.558   6.090   3.766 -0.0309 -0.8111 -0.1180
    1OL     H5R 8377   3.614   6.144   3.689 -0.6813  1.1780  0.7568
    1OL     H5S 8378   3.586   5.986   3.750  0.9363 -0.2713 -2.0798
    1OL     C16 8379   3.614   6.141   3.903  0.0277 -0.0873 -0.6616
    1OL     H6R 8380   3.573   6.085   3.987  0.6396 -0.5604 -0.6741
    1OL     H6S 8381   3.588   6.246   3.923 -0.2233  0.1199 -2.0041
    1OL     C17 8382   3.764   6.119   3.909  0.5245  0.8832  0.1918
    1OL     H7R 8383   3.815   6.187   3.841  1.0166  0.3981  0.0653
    1OL     H7S 8384   3.781   6.018   3.869  1.2139  0.6744  0.9909
    1OL     C18 8385   3.822   6.130   4.053 -0.2144 -0.3943 -0.1005
    1OL     H8R 8386   3.930   6.112   4.051  0.7578  3.8005  4.1969
    1OL     H8S 8387   3.787   6.041   4.106 -2.8367  0.0110 -1.0717
    1OL     C19 8388   3.796   6.256   4.131  0.3686  0.4429  0.3775
    1OL     H9R 8389   3.848   6.346   4.101  1.8292 -0.8189 -0.9330
    1OL    C110 8390   3.717   6.277   4.238 -0.4915 -0.0834 -0.4084
    1OL    H10R 8391   3.708   6.377   4.278 -0.2889 -0.1388 -0.2202
    1OL    C111 8392   3.618   6.169   4.288  0.0808 -0.1700  0.5816
    1OL    H11R 8393   3.608   6.100   4.204  1.4964  0.2228  0.0951
    1OL    H11S 8394   3.519   6.209   4.312 -0.7835 -1.0221 -1.4876
    1OL    C112 8395   3.677   6.090   4.403  0.6546 -0.5301 -0.5621
    1OL    H12R 8396   3.769   6.041   4.369  0.2703 -1.6118 -0.0499
    1OL    H12S 8397   3.613   6.008   4.434  0.1426  0.5257  1.3004
    1OL    C113 8398   3.696   6.179   4.526 -0.3480  0.0206  0.2056
    1OL    H13R 8399   3.751   6.269   4.497  1.3949 -1.2183 -0.4583
    1OL    H13S 8400   3.768   6.121   4.584 -0.1363 -2.8478 -2.7688
    1OL    C114 8401   3.579   6.203   4.619 -0.3461  0.2964  0.3715
    1OL    H14R 8402   3.530   6.106   4.632 -0.4160  0.2090 -0.5173
    1OL    H14S 8403   3.506   6.271   4.575 -0.7792  0.3383  1.1495
    1OL    C115 8404   3.597   6.261   4.757  0.3548  0.9710 -0.0026
    1OL    H15R 8405   3.647   6.356   4.737  0.0534  1.5086  1.7410
    1OL    H15S 8406   3.665   6.200   4.817 -0.3427  1.2117  1.0501
    1OL    C116 8407   3.461   6.283   4.824 -0.2760  0.7688 -0.4038
    1OL    H16R 8408   3.405   6.191   4.810  3.2714 -1.5011 -0.2868
    1OL    H16S 8409   3.415   6.371   4.777 -1.0096  0.0234 -1.0918
    1OL    C117 8410   3.477   6.308   4.976 -0.0122  0.8931  0.1673
    1OL    H17R 8411   3.533   6.402   4.981 -1.6079  1.8699 -0.0540
    1OL    H17S 8412   3.544   6.234   5.021 -1.1503  0.5297  1.2831
    1OL    C118 8413   3.345   6.320   5.051  0.6623  0.5998 -0.0345
    1OL    H18R 8414   3.380   6.352   5.149  0.6906 -0.1656  0.2080
    1OL    H18S 8415   3.293   6.225   5.063 -0.8976  1.2482 -1.3987
    1OL    H18T 8416   3.265   6.381   5.007 -0.2653  0.0169  0.8321
    1PA    C116 8417   3.860   3.837   4.978  0.1106  0.1058 -0.8298
    1PA    H16R 8418   3.772   3.901   4.977 -0.0992 -0.1573  0.1433
    1PA    H16S 8419   3.919   3.876   5.061 -1.6308 -0.6495  0.7780
    1PA    H16T 8420   3.832   3.735   5.005 -0.9167  0.5896 -0.0299
    1PA    C115 8421   3.939   3.814   4.847  0.0663  0.2693 -0.3444
    1PA    H15R 8422   4.022   3.744   4.862 -0.5545 -0.4181 -0.0894
    1PA    H15S 8423   3.873   3.767   4.774  0.4316 -0.7386 -0.0467
    1PA    C114 8424   4.020   3.936   4.790  0.6399  0.3735 -0.1036
    1PA    H14R 8425   3.964   4.030   4.783  0.5219  0.4354  1.4548
    1PA    H14S 8426   4.093   3.965   4.866  1.0025 -2.2116  0.5591
    1PA    C113 8427   4.091   3.906   4.655  0.2537 -0.5818 -0.2041
    1PA    H13R 8428   4.166   3.983   4.639  0.1031 -0.4747 -0.3906
    1PA    H13S 8429   4.145   3.812   4.668 -0.3774 -0.7729  1.2095
    1PA    C112 8430   4.015   3.888   4.528  0.6049 -0.8856 -0.1588
    1PA    H12R 8431   3.940   3.809   4.536 -0.0833 -0.0190  2.5484
    1PA    H12S 8432   3.955   3.980   4.525  1.6066 -0.2384 -0.4722
    1PA    C111 8433   4.109   3.876   4.413 -1.2066  0.0858  0.4994
    1PA    H11R 8434   4.175   3.963   4.414 -2.2117  0.8563  0.9603
    1PA    H11S 8435   4.167   3.784   4.409  3.4108  2.8363  0.6072
    1PA    C110 8436   4.033   3.888   4.276 -0.4200 -0.1320 -0.0405
    1PA    H10R 8437   3.943   3.949   4.286 -1.1602 -1.1576 -0.3479
    1PA    H10S 8438   4.094   3.932   4.197  0.4511 -3.2528 -1.1748
    1PA     C19 8439   3.975   3.755   4.226  0.3327 -0.0035 -0.9918
    1PA     H9R 8440   3.892   3.719   4.286  0.1848  1.9704  0.0480
    1PA     H9S 8441   3.937   3.781   4.127 -0.9289  0.4638 -0.3975
    1PA     C18 8442   4.076   3.637   4.215  0.0107 -0.1776  0.5783
    1PA     H8R 8443   4.173   3.669   4.177 -0.3617 -1.2073 -1.2993
    1PA     H8S 8444   4.094   3.593   4.314 -0.8849 -0.0316  0.8119
    1PA     C17 8445   4.027   3.519   4.133 -0.0905  0.3978 -0.3171
    1PA     H7R 8446   4.112   3.454   4.112  0.1925  0.1190  1.6442
    1PA     H7S 8447   3.955   3.454   4.184  1.2612  0.2694  1.4463
    1PA     C16 8448   3.966   3.558   3.993  0.4539 -0.2186 -0.2472
    1PA     H6R 8449   3.938   3.470   3.935  0.6732 -0.8268  0.5608
    1PA     H6S 8450   3.879   3.621   4.011  1.2006  1.2813 -1.6656
    1PA     C15 8451   4.060   3.644   3.915  0.0517 -0.3220  0.3607
    1PA     H5R 8452   4.078   3.736   3.972 -0.9433 -0.1422  0.3881
    1PA     H5S 8453   4.155   3.590   3.915  0.2752  0.0643  0.9170
    1PA     C14 8454   4.005   3.684   3.778  0.0398 -0.1226  1.2276
    1PA     H4R 8455   3.903   3.721   3.794 -0.1167  0.0442 -0.1068
    1PA     H4S 8456   4.059   3.772   3.742 -2.4864  0.6040 -0.9215
    1PA     C13 8457   3.992   3.581   3.658 -0.4379  0.6299  0.8684
    1PA     H3R 8458   3.923   3.501   3.686  1.4583 -0.8680  1.4476
    1PA     H3S 8459   3.940   3.631   3.576 -2.1757 -1.0198  0.9356
    1PA     C12 8460   4.136   3.543   3.612  0.1587  0.1867  0.4333
    1PA     H2R 8461   4.196   3.516   3.700 -0.6779 -0.0922  0.9238
    1PA     H2S 8462   4.130   3.457   3.545  0.2711  1.2078 -0.9076
    1PC     C11 8463   4.209   3.659   3.539  0.1504 -0.2764 -0.6846
    1PC     O12 8464   4.152   3.761   3.511 -0.6496 -0.1857 -0.1511
    1PC     O11 8465   4.337   3.639   3.519 -0.5929 -0.0847  0.2977
    1PC      C1 8466   4.424   3.756   3.485 -0.5366 -0.1578  0.0752
    1PC      HR 8467   4.405   3.790   3.383  0.9958  0.9784  0.1394
    1PC      HS 8468   4.395   3.837   3.553  0.1951 -0.4577  0.7548
    1PC      C2 8469   4.572   3.720   3.508  0.5799  0.2682 -1.1119
    1PC      HX 8470   4.633   3.810   3.512  1.0048 -0.0843  1.0355
    1PC      C3 8471   4.634   3.619   3.410 -0.1007 -0.1542  0.2575
    1PC      HA 8472   4.662   3.535   3.474  1.2654  1.3400  1.6966
    1PC      HB 8473   4.564   3.584   3.334  0.4645  1.1109 -0.8682
    1PC     O31 8474   4.748   3.661   3.338  0.0649 -0.2336 -0.1484
    1PC     P31 8475   4.752   3.773   3.217  0.3819  0.6217  0.2862
    1PC     O32 8476   4.695   3.686   3.097 -0.3444 -0.2437 -0.0385
    1PC     C31 8477   4.795   3.625   3.006  0.5533 -0.3122 -0.0207
    1PC     H1A 8478   4.889   3.609   3.060  0.3823  0.2491  0.4542
    1PC     H1B 8479   4.756   3.535   2.959 -0.2701  2.0811 -4.1989
    1PC     C32 8480   4.826   3.726   2.893  0.7788 -0.5414 -0.5451
    1PC     H2A 8481   4.840   3.825   2.936 -0.2756  0.1378 -1.7464
    1PC     H2B 8482   4.923   3.705   2.848  1.0928  2.2259 -1.2587
    1PC     N31 8483   4.730   3.729   2.771 -0.0927 -0.0016  0.5469
    1PC     C33 8484   4.770   3.835   2.672  0.4230  0.7908  0.4264
    1PC     H3A 8485   4.773   3.929   2.727 -0.6599  0.3442  1.2830
    1PC     H3B 8486   4.870   3.811   2.635 -0.7159 -1.2750 -1.4430
    1PC     H3C 8487   4.696   3.837   2.592  0.1847 -3.1536  0.4252
    1PC     C34 8488   4.728   3.591   2.713 -0.1125 -0.0755 -0.2825
    1PC     H4A 8489   4.828   3.547   2.723  0.1204  0.5884  0.3403
    1PC     H4B 8490   4.656   3.535   2.773 -1.6536  1.3117 -0.8257
    1PC     H4C 8491   4.695   3.603   2.610  1.5151 -0.7341 -0.8982
    1PC     C35 8492   4.592   3.771   2.805 -0.6387 -0.4714  0.0485
    1PC     H5A 8493   4.580   3.879   2.810  2.3328 -0.1404  0.9286
    1PC     H5B 8494   4.554   3.719   2.893 -0.8055 -2.7408 -1.3171
    1PC     H5C 8495   4.533   3.737   2.720  0.8420  1.7659 -1.9342
    1PC     O33 8496   4.650   3.874   3.247 -0.0951 -0.2376  0.2603
    1PC     O34 8497   4.892   3.811   3.199  0.0938  0.0064 -0.4264
    1PC     O21 8498   4.587   3.654   3.641  0.0520 -0.2397 -0.6571
    1PC     C21 8499   4.592   3.724   3.754  0.4602  0.2989 -0.0754
    1PC     O22 8500   4.579   3.848   3.750  0.1647 -0.1652  0.9560
    1OL     C12 8501   4.615   3.640   3.877  0.0853  1.1480 -0.1477
    1OL     H2R 8502   4.710   3.590   3.859 -0.1803  1.6587 -3.3599
    1OL     H2S 8503   4.531   3.571   3.889  1.1194 -0.0346  0.2848
    1OL     C13 8504   4.616   3.729   4.004 -0.6966 -0.5346 -0.6083
    1OL     H3R 8505   4.652   3.829   3.981 -0.9900 -0.5979 -1.3704
    1OL     H3S 8506   4.684   3.699   4.083 -0.1174 -0.1075 -0.9474
    1OL     C14 8507   4.471   3.743   4.076 -0.8694 -0.3837  0.4628
    1OL     H4R 8508   4.435   3.641   4.082 -0.3283 -0.5790  0.4620
    1OL     H4S 8509   4.411   3.798   4.003  1.0695  0.7792 -0.3001
    1OL     C15 8510   4.478   3.818   4.210  0.0346 -0.1115  1.0279
    1OL     H5R 8511   4.376   3.857   4.220 -0.0771 -0.1298  0.0232
    1OL     H5S 8512   4.545   3.904   4.205 -0.5017  0.2131 -1.2972
    1OL     C16 8513   4.535   3.734   4.333  0.8094 -0.1131 -0.2307
    1OL     H6R 8514   4.638   3.704   4.313  1.3785  1.3992  0.3440
    1OL     H6S 8515   4.482   3.639   4.348 -0.1871  0.4527 -0.1040
    1OL     C17 8516   4.531   3.810   4.469 -0.3455 -0.6707  0.2194
    1OL     H7R 8517   4.436   3.863   4.476 -0.9718 -1.7824  0.2501
    1OL     H7S 8518   4.614   3.881   4.463  0.6329 -1.7085  1.3864
    1OL     C18 8519   4.534   3.721   4.594  0.2652  0.5784 -0.2836
    1OL     H8R 8520   4.624   3.659   4.590  1.8601  2.9011 -2.6608
    1OL     H8S 8521   4.446   3.657   4.595  1.6557 -1.3887  1.9538
    1OL     C19 8522   4.545   3.783   4.724 -0.7157 -0.1354  0.4239
    1OL     H9R 8523   4.459   3.807   4.786 -2.1920 -2.2083 -0.7440
    1OL    C110 8524   4.658   3.829   4.778 -0.4591  0.5253 -0.0710
    1OL    H10R 8525   4.655   3.893   4.866 -0.3478  0.3107  0.0871
    1OL    C111 8526   4.796   3.817   4.711 -0.3871 -0.0841  0.6541
    1OL    H11R 8527   4.838   3.917   4.694  0.1786 -0.5812 -0.8566
    1OL    H11S 8528   4.781   3.773   4.613  0.8251 -0.7143  0.7427
    1OL    C112 8529   4.884   3.721   4.786 -0.3768 -0.0183  0.0293
    1OL    H12R 8530   4.959   3.679   4.718 -2.0453 -1.2062 -1.1128
    1OL    H12S 8531   4.826   3.634   4.820 -0.7776 -0.4626 -1.7361
    1OL    C113 8532   4.969   3.784   4.894  0.0165  0.1052 -0.3657
    1OL    H13R 8533   5.055   3.836   4.851  0.8291  0.4803  1.6239
    1OL    H13S 8534   5.021   3.709   4.954 -2.4352 -1.3302  0.0356
    1OL    C114 8535   4.897   3.888   4.986  0.3038  0.1776 -0.0455
    1OL    H14R 8536   4.827   3.961   4.946 -0.2046 -1.8621 -3.0618
    1OL    H14S 8537   4.976   3.941   5.039 -0.4344  0.3349  0.9033
    1OL    C115 8538   4.817   3.804   5.096 -0.3217 -0.4594  0.2298
    1OL    H15R 8539   4.728   3.770   5.043  0.4758 -1.1536 -0.7027
    1OL    H15S 8540   4.786   3.878   5.169  2.4678  3.1942 -2.0821
    1OL    C116 8541   4.886   3.694   5.176  0.1693 -0.2758 -0.0453
    1OL    H16R 8542   4.991   3.721   5.177  0.0081  0.3567  1.0857
    1OL    H16S 8543   4.885   3.599   5.122  1.0061 -0.1020 -0.3632
    1OL    C117 8544   4.823   3.662   5.316 -0.5085 -0.4398  0.0032
    1OL    H17R 8545   4.731   3.604   5.310 -1.3425  0.7967  0.6022
    1OL    H17S 8546   4.789   3.752   5.368  0.2437  0.6034 -1.2848
    1OL    C118 8547   4.917   3.583   5.400  0.1880 -0.4355 -0.4100
    1OL    H18R 8548   4.925   3.484   5.355 -0.3070 -0.0115 -1.4387
    1OL    H18S 8549   4.880   3.563   5.501 -1.2173 -2.2809 -1.2437
    1OL    H18T 8550   5.019   3.620   5.395  0.1994 -0.6009 -1.7518
    1PA    C116 8551   3.166   0.299   4.639  0.4878  0.2136  0.1993
    1PA    H16R 8552   3.109   0.384   4.600 -0.5952 -0.9143 -0.7368
    1PA    H16S 8553   3.246   0.263   4.573  3.0931 -0.4908  3.6034
    1PA    H16T 8554   3.205   0.337   4.733 -0.8980 -0.1617  0.9387
    1PA    C115 8555   3.061   0.193   4.680 -0.1047  0.0578 -0.1042
    1PA    H15R 8556   3.036   0.215   4.784  1.2809  2.9949 -0.3379
    1PA    H15S 8557   2.964   0.203   4.632 -0.0883 -0.4122 -0.2400
    1PA    C114 8558   3.109   0.044   4.677 -0.1448  0.1136  0.0488
    1PA    H14R 8559   3.202   0.042   4.733 -0.3774  0.5597  0.4489
    1PA    H14S 8560   3.047  -0.029   4.730  0.2255  0.0291  0.3685
    1PA    C113 8561   3.125  -0.010   4.532  0.6354  0.7032 -0.1005
    1PA    H13R 8562   3.029   0.002   4.481  0.6044  3.1827  0.5058
    1PA    H13S 8563   3.198   0.046   4.474 -0.8771  1.1448 -1.6249
    1PA    C112 8564   3.178  -0.155   4.524 -0.4608 -0.4832  0.4061
    1PA    H12R 8565   3.276  -0.168   4.571 -0.6133 -1.8917  0.3684
    1PA    H12S 8566   3.103  -0.219   4.572 -1.7931 -0.6682 -1.8677
    1PA    C111 8567   3.204  -0.199   4.384 -0.2026  0.3001 -0.2666
    1PA    H11R 8568   3.114  -0.198   4.322 -1.2056 -1.2062  1.1183
    1PA    H11S 8569   3.279  -0.128   4.350  1.8087 -1.7978 -0.3193
    1PA    C110 8570   3.265  -0.341   4.383 -0.5944 -0.3875  0.2453
    1PA    H10R 8571   3.364  -0.334   4.429 -0.6576 -0.5822  0.4091
    1PA    H10S 8572   3.205  -0.406   4.447 -3.2106  2.0784  0.4037
    1PA     C19 8573   3.285  -0.376   4.236 -1.0741 -0.0055 -0.2527
    1PA     H9R 8574   3.186  -0.402   4.196 -0.8552 -0.2410 -0.6432
    1PA     H9S 8575   3.326  -0.287   4.189  1.1434 -0.8122  0.0795
    1PA     C18 8576   3.391  -0.481   4.223  0.1617 -0.0669  0.6970
    1PA     H8R 8577   3.486  -0.429   4.239 -1.3256  2.2645  2.1938
    1PA     H8S 8578   3.371  -0.557   4.299 -2.1639 -0.1043  0.0915
    1PA     C17 8579   3.397  -0.552   4.086  0.0595 -0.5624 -0.3186
    1PA     H7R 8580   3.484  -0.618   4.087  1.1777  0.8176 -2.7210
    1PA     H7S 8581   3.306  -0.612   4.078 -0.5794  0.6067 -1.8900
    1PA     C16 8582   3.416  -0.455   3.970 -0.4797 -0.0611 -0.3545
    1PA     H6R 8583   3.336  -0.383   3.954 -0.4858  0.0605  0.2047
    1PA     H6S 8584   3.499  -0.387   3.990  1.3903 -2.4379  0.2214
    1PA     C15 8585   3.447  -0.535   3.838  0.0633  0.1226  0.0939
    1PA     H5R 8586   3.555  -0.526   3.828 -0.0399  2.2488  0.7705
    1PA     H5S 8587   3.415  -0.640   3.835 -1.8227  0.6587  0.5634
    1PA     C14 8588   3.397  -0.464   3.711  0.3048 -0.1454 -0.2061
    1PA     H4R 8589   3.289  -0.475   3.723  0.5199 -0.5057  1.5766
    1PA     H4S 8590   3.435  -0.362   3.721 -3.1688  1.1811  0.2854
    1PA     C13 8591   3.451  -0.527   3.583  0.0845 -0.4684  0.6411
    1PA     H3R 8592   3.410  -0.471   3.498  3.4358  0.3058 -0.5399
    1PA     H3S 8593   3.558  -0.510   3.577 -0.1394  0.0485 -3.6046
    1PA     C12 8594   3.423  -0.670   3.552  0.4465 -0.5283  0.5656
    1PA     H2R 8595   3.482  -0.730   3.621 -0.3973 -1.5526  0.4152
    1PA     H2S 8596   3.321  -0.703   3.577  0.9663  0.5519  4.5043
    1PC     C11 8597   3.459  -0.717   3.418  0.2828  0.2586 -0.4776
    1PC     O12 8598   3.543  -0.662   3.345  0.0233  0.2001 -0.8752
    1PC     O11 8599   3.405  -0.840   3.395 -0.1329 -0.2657 -0.6328
    1PC      C1 8600   3.452  -0.906   3.276 -0.0801  0.5122 -0.1553
    1PC      HR 8601   3.465  -0.841   3.189 -1.3089 -0.3491 -1.0055
    1PC      HS 8602   3.553  -0.941   3.295  0.8038  2.4075 -1.1882
    1PC      C2 8603   3.357  -1.025   3.250 -0.3199 -0.0876 -0.0392
    1PC      HX 8604   3.407  -1.104   3.193  3.1708  1.4065  0.7615
    1PC      C3 8605   3.235  -0.979   3.183  0.2615 -0.2752  0.2626
    1PC      HA 8606   3.144  -0.985   3.243  0.0617 -1.1921 -0.1325
    1PC      HB 8607   3.245  -0.875   3.151  2.0336 -1.4020 -3.0780
    1PC     O31 8608   3.219  -1.055   3.066  0.1920 -0.0574 -0.2496
    1PC     P31 8609   3.097  -1.020   2.954 -0.1482  0.2185  0.1197
    1PC     O32 8610   2.971  -1.099   3.013  0.3369 -0.6088 -0.1880
    1PC     C31 8611   2.955  -1.242   2.995  0.1975 -0.4719  0.2216
    1PC     H1A 8612   2.847  -1.260   2.996  0.4283 -2.6225 -3.0542
    1PC     H1B 8613   2.989  -1.263   2.893  1.3183  0.3494  0.4282
    1PC     C32 8614   3.028  -1.325   3.099  0.3460 -0.4273  0.5370
    1PC     H2A 8615   3.023  -1.430   3.070 -0.4828 -0.3471  0.3740
    1PC     H2B 8616   3.133  -1.297   3.101  0.2652  0.2380 -2.0617
    1PC     N31 8617   2.969  -1.313   3.238 -0.2622 -0.5245 -0.1412
    1PC     C33 8618   2.824  -1.332   3.240  0.4652  0.0787 -0.0415
    1PC     H3A 8619   2.787  -1.332   3.342  2.5507 -1.0609  0.7521
    1PC     H3B 8620   2.775  -1.254   3.181  1.1345  0.6023  0.0741
    1PC     H3C 8621   2.810  -1.434   3.204 -2.2833  0.6095 -0.5334
    1PC     C34 8622   3.040  -1.416   3.322  1.0770  0.2101 -0.2538
    1PC     H4A 8623   3.046  -1.507   3.262 -1.6399 -0.1575 -0.0249
    1PC     H4B 8624   3.136  -1.387   3.366  0.2385  0.4317  1.4689
    1PC     H4C 8625   2.971  -1.433   3.404 -0.8524  0.1127 -1.8644
    1PC     C35 8626   2.998  -1.187   3.306  0.4009 -0.0690 -0.3605
    1PC     H5A 8627   2.949  -1.106   3.252  1.2780  2.2221  2.1635
    1PC     H5B 8628   3.106  -1.181   3.297  0.1540  2.1407 -2.3042
    1PC     H5C 8629   2.957  -1.198   3.407 -1.8293  2.1016 -0.9727
    1PC     O33 8630   3.062  -0.878   2.977 -0.3125  0.2466  0.8709
    1PC     O34 8631   3.135  -1.078   2.823 -0.0831 -0.3001  0.1487
    1PC     O21 8632   3.319  -1.102   3.374 -0.4620 -0.3991  0.3334
    1PC     C21 8633   3.421  -1.168   3.431  0.1606  0.1993 -0.3769
    1PC     O22 8634   3.535  -1.164   3.390  0.3418 -0.1378 -0.4245
    1OL     C12 8635   3.372  -1.234   3.565 -0.1265 -0.0493  0.0666
    1OL     H2R 8636   3.423  -1.328   3.583 -1.6364 -0.8759  0.1038
    1OL     H2S 8637   3.264  -1.254   3.568  0.3605 -3.2448 -1.3587
    1OL     C13 8638   3.412  -1.150   3.686 -0.5571 -0.1779  0.0023
    1OL     H3R 8639   3.505  -1.099   3.657  0.2794 -0.0887  2.7720
    1OL     H3S 8640   3.423  -1.213   3.774  0.3723  1.5517  1.1378
    1OL     C14 8641   3.314  -1.025   3.702  0.4311 -0.3010  0.0400
    1OL     H4R 8642   3.212  -1.059   3.720  0.9502 -1.8359  0.1309
    1OL     H4S 8643   3.310  -0.962   3.613  0.0131  1.9097  1.5739
    1OL     C15 8644   3.347  -0.934   3.825  0.3349  0.5554 -0.4816
    1OL     H5R 8645   3.266  -0.863   3.838 -0.1674 -0.2927  1.1124
    1OL     H5S 8646   3.443  -0.889   3.799 -0.3813  1.9818 -0.6601
    1OL     C16 8647   3.363  -1.013   3.954 -0.0567 -1.0420 -0.9409
    1OL     H6R 8648   3.465  -1.051   3.966  0.9874  0.9132 -3.2284
    1OL     H6S 8649   3.297  -1.099   3.965  0.5036 -1.3059  0.5113
    1OL     C17 8650   3.333  -0.928   4.076 -1.2389  0.3771  0.5162
    1OL     H7R 8651   3.228  -0.900   4.066 -0.9466  1.9300  1.4634
    1OL     H7S 8652   3.387  -0.833   4.069  0.0500 -0.3636  0.4081
    1OL     C18 8653   3.364  -0.996   4.206  0.4249 -0.6963 -0.3453
    1OL     H8R 8654   3.472  -1.010   4.213  0.1399 -1.9021  2.3686
    1OL     H8S 8655   3.305  -1.087   4.210  0.3577 -0.6297  0.1940
    1OL     C19 8656   3.317  -0.899   4.314 -0.0213  0.1619 -0.5134
    1OL     H9R 8657   3.214  -0.898   4.347  0.4407  0.4173  0.9478
    1OL    C110 8658   3.394  -0.823   4.391  0.4176 -0.5878 -0.2344
    1OL    H10R 8659   3.356  -0.761   4.472  1.9770 -0.0817  0.1156
    1OL    C111 8660   3.547  -0.808   4.387  0.3360  0.1423  0.1318
    1OL    H11R 8661   3.578  -0.703   4.396 -2.5025  1.0624 -0.4615
    1OL    H11S 8662   3.582  -0.841   4.289  0.4729 -1.3198  0.6642
    1OL    C112 8663   3.610  -0.904   4.494 -0.2764 -0.5166 -0.6031
    1OL    H12R 8664   3.615  -1.005   4.455 -1.3691 -0.9282  0.2902
    1OL    H12S 8665   3.550  -0.899   4.585  1.0102  0.3516  0.2182
    1OL    C113 8666   3.739  -0.850   4.549 -0.2762  0.4511 -0.5090
    1OL    H13R 8667   3.714  -0.762   4.609  1.7799  0.3549  0.5154
    1OL    H13S 8668   3.792  -0.814   4.461 -2.0641 -0.0345 -1.8359
    1OL    C114 8669   3.837  -0.951   4.621  0.0462  0.2296  1.2776
    1OL    H14R 8670   3.877  -1.020   4.546  0.1615  0.9884  0.6359
    1OL    H14S 8671   3.780  -1.001   4.700 -1.5321 -1.5058 -0.8859
    1OL    C115 8672   3.949  -0.868   4.684 -0.8533 -0.4890 -0.0310
    1OL    H15R 8673   3.903  -0.784   4.738 -1.1503 -0.1898 -0.7422
    1OL    H15S 8674   4.006  -0.829   4.600 -1.8436  0.1141 -0.4308
    1OL    C116 8675   4.041  -0.924   4.791 -0.1403  0.6244  0.3956
    1OL    H16R 8676   4.121  -0.852   4.814 -1.0097  1.5325  0.6079
    1OL    H16S 8677   4.101  -1.003   4.745  3.6981  3.6136 -0.1031
    1OL    C117 8678   3.968  -0.966   4.927 -0.0233 -0.1140 -0.3166
    1OL    H17R 8679   4.045  -0.995   4.998 -1.4260  0.9521  1.6969
    1OL    H17S 8680   3.892  -1.044   4.919 -0.3411  0.2637 -1.0994
    1OL    C118 8681   3.887  -0.860   5.004 -0.4274 -0.5538  0.5079
    1OL    H18R 8682   3.944  -0.770   5.027  0.1935 -1.0852  1.0836
    1OL    H18S 8683   3.848  -0.907   5.095 -2.5066 -0.0629 -0.0891
    1OL    H18T 8684   3.802  -0.825   4.945  1.1231  0.8438 -0.9631
    1PA    C116 8685   1.108   2.623   5.008 -1.0419 -0.6764  0.1200
    1PA    H16R 8686   1.109   2.547   5.087 -2.3395  0.0476  0.8535
    1PA    H16S 8687   1.080   2.712   5.065  1.7950  1.1634 -1.2391
    1PA    H16T 8688   1.210   2.640   4.972 -1.8939 -0.7688 -2.4336
    1PA    C115 8689   1.002   2.573   4.903 -0.1383  0.1548  0.4991
    1PA    H15R 8690   0.917   2.527   4.953 -2.3629  2.1482 -1.3084
    1PA    H15S 8691   0.974   2.665   4.852  0.3455 -1.2885 -2.4446
    1PA    C114 8692   1.062   2.477   4.805 -0.6810 -0.2348  0.0832
    1PA    H14R 8693   1.143   2.525   4.750 -1.4450  0.4079 -0.4874
    1PA    H14S 8694   1.105   2.396   4.865  2.6773 -0.8901 -3.0473
    1PA    C113 8695   0.954   2.408   4.713  0.0792  0.1452 -0.3739
    1PA    H13R 8696   0.877   2.352   4.766  1.0668 -0.9963 -0.1025
    1PA    H13S 8697   0.912   2.493   4.660 -0.4600 -0.2792 -0.6341
    1PA    C112 8698   1.031   2.326   4.611  0.2475  0.2858  0.1274
    1PA    H12R 8699   1.102   2.398   4.569  1.0863 -1.2662 -1.1855
    1PA    H12S 8700   1.099   2.249   4.649  0.3301 -0.2458 -1.0737
    1PA    C111 8701   0.936   2.251   4.513 -0.7567  0.1412  0.4230
    1PA    H11R 8702   0.878   2.176   4.566  3.1953 -2.1789  1.6390
    1PA    H11S 8703   0.857   2.312   4.467  1.0846  2.7229  0.5558
    1PA    C110 8704   1.014   2.175   4.405  0.0709  0.8439 -0.2917
    1PA    H10R 8705   1.116   2.157   4.436  0.3607  0.2769 -1.5400
    1PA    H10S 8706   0.968   2.078   4.384  2.3865 -0.5283  0.8213
    1PA     C19 8707   1.027   2.241   4.268  0.3796  0.5052  0.5819
    1PA     H9R 8708   0.931   2.278   4.230  0.4543 -0.9007 -1.0469
    1PA     H9S 8709   1.093   2.328   4.279  0.0106  0.8859 -0.1530
    1PA     C18 8710   1.082   2.141   4.161  0.0998 -0.3620  0.8224
    1PA     H8R 8711   1.161   2.078   4.200  0.0821 -1.8124 -1.3890
    1PA     H8S 8712   0.998   2.073   4.144  1.3032 -1.9639  1.2142
    1PA     C17 8713   1.138   2.198   4.023 -0.0867  0.1915 -0.0470
    1PA     H7R 8714   1.062   2.244   3.958  1.8626 -0.1120 -2.6381
    1PA     H7S 8715   1.208   2.279   4.044 -0.3695  1.0874 -2.2942
    1PA     C16 8716   1.199   2.091   3.939  0.0212 -0.0770  0.8425
    1PA     H6R 8717   1.250   2.026   4.010  2.0619 -1.8960 -2.1728
    1PA     H6S 8718   1.119   2.038   3.887  1.3172 -0.4069 -0.8800
    1PA     C15 8719   1.305   2.142   3.838  0.0601  0.1131  0.0500
    1PA     H5R 8720   1.387   2.165   3.907  3.0473 -1.0006 -3.0276
    1PA     H5S 8721   1.328   2.062   3.768 -0.9200  2.5108 -3.1302
    1PA     C14 8722   1.276   2.280   3.780  0.2012 -0.4084 -0.5968
    1PA     H4R 8723   1.176   2.279   3.737 -0.7520  1.0652  1.5543
    1PA     H4S 8724   1.291   2.360   3.852 -1.3968 -0.4489 -0.1993
    1PA     C13 8725   1.369   2.315   3.662 -0.2996  0.4064 -0.3398
    1PA     H3R 8726   1.473   2.319   3.695 -0.1106 -2.6552 -0.3832
    1PA     H3S 8727   1.364   2.243   3.580 -0.2301  0.0431 -0.0297
    1PA     C12 8728   1.319   2.447   3.610  0.3543 -0.2853  0.1912
    1PA     H2R 8729   1.305   2.509   3.699  0.5110 -0.0710  0.0699
    1PA     H2S 8730   1.405   2.491   3.558  0.8173  0.9535  1.9551
    1PC     C11 8731   1.204   2.440   3.510  0.2952  0.0979  0.2808
    1PC     O12 8732   1.212   2.407   3.391 -0.8049 -0.5267 -0.3582
    1PC     O11 8733   1.085   2.473   3.566  0.0392 -0.1790  0.1820
    1PC      C1 8734   0.976   2.493   3.473  0.0582  0.2643  0.0814
    1PC      HR 8735   0.892   2.546   3.519  1.1331  0.1705  2.2220
    1PC      HS 8736   1.006   2.553   3.387  0.9442 -1.0629 -0.5531
    1PC      C2 8737   0.904   2.358   3.429 -0.1531  0.1893 -0.5235
    1PC      HX 8738   0.981   2.292   3.388  0.1019 -0.5058  1.0457
    1PC      C3 8739   0.799   2.381   3.323  0.4358 -0.3273 -0.1521
    1PC      HA 8740   0.743   2.289   3.306  0.3841 -0.0701 -1.4113
    1PC      HB 8741   0.740   2.468   3.351 -0.8030 -1.2919  0.2639
    1PC     O31 8742   0.865   2.413   3.198  0.5286 -0.0438  0.0729
    1PC     P31 8743   0.911   2.296   3.099 -0.3198  0.0964  0.1816
    1PC     O32 8744   0.771   2.216   3.085  0.0251 -0.0898  0.0307
    1PC     C31 8745   0.680   2.242   2.978  0.2960  0.2857 -0.9412
    1PC     H1A 8746   0.581   2.213   3.015  0.2017 -0.6518 -1.8888
    1PC     H1B 8747   0.682   2.347   2.948  2.2375 -0.2965 -2.9875
    1PC     C32 8748   0.731   2.162   2.863 -0.5805  0.1201  0.0268
    1PC     H2A 8749   0.660   2.178   2.782  0.7584 -1.8018 -1.5626
    1PC     H2B 8750   0.830   2.200   2.841 -0.6893 -0.6642 -1.8941
    1PC     N31 8751   0.734   2.011   2.868 -0.9336 -0.1441  0.2778
    1PC     C33 8752   0.813   1.961   2.983  0.9844 -0.0058  0.2393
    1PC     H3A 8753   0.766   1.992   3.076 -0.8019  3.1007 -1.5902
    1PC     H3B 8754   0.804   1.853   2.980 -0.4634  0.0911  0.3978
    1PC     H3C 8755   0.918   1.985   2.964  1.1187 -1.5819 -1.1441
    1PC     C34 8756   0.596   1.960   2.868  0.3686  0.1504 -0.0927
    1PC     H4A 8757   0.599   1.855   2.898  1.8593  0.0742 -0.4520
    1PC     H4B 8758   0.531   2.017   2.935 -0.3324  0.3479 -0.9389
    1PC     H4C 8759   0.568   1.948   2.763 -0.2694  2.3295 -0.1885
    1PC     C35 8760   0.807   1.961   2.742  0.5931 -0.5393 -0.5998
    1PC     H5A 8761   0.799   1.853   2.737  3.6691 -0.7193 -3.4149
    1PC     H5B 8762   0.915   1.973   2.753  0.2330  0.1041  2.8103
    1PC     H5C 8763   0.779   2.007   2.647 -0.1117  0.6830  0.1880
    1PC     O33 8764   0.944   2.358   2.968  0.1294 -0.2754  0.6120
    1PC     O34 8765   1.004   2.200   3.162  0.5795 -0.2003 -0.1304
    1PC     O21 8766   0.842   2.298   3.554  0.4470  0.6526 -0.2957
    1PC     C21 8767   0.903   2.209   3.623  0.2588 -0.4350 -0.4826
    1PC     O22 8768   1.005   2.156   3.588 -0.0146 -0.3204  0.2495
    1OL     C12 8769   0.829   2.195   3.745  0.3000  0.4648 -0.4262
    1OL     H2R 8770   0.756   2.274   3.762 -0.6630 -0.1115 -1.8039
    1OL     H2S 8771   0.903   2.201   3.825  0.5851  0.1392 -0.6628
    1OL     C13 8772   0.766   2.050   3.768  0.0219 -0.6949  0.0187
    1OL     H3R 8773   0.827   1.979   3.713 -3.6360 -2.7992 -1.4550
    1OL     H3S 8774   0.664   2.033   3.732 -0.5405 -1.2221  1.7774
    1OL     C14 8775   0.755   2.010   3.918 -0.2361 -1.0800 -0.0294
    1OL     H4R 8776   0.858   2.026   3.950 -0.7180 -0.9575  1.4907
    1OL     H4S 8777   0.724   1.907   3.933 -0.9186 -1.0441 -1.1116
    1OL     C15 8778   0.658   2.103   3.986  0.1214 -0.6297  0.2793
    1OL     H5R 8779   0.556   2.071   3.967 -0.2315  1.0527 -0.7451
    1OL     H5S 8780   0.672   2.205   3.951  0.9027 -0.6256  0.5910
    1OL     C16 8781   0.672   2.105   4.144 -0.8338 -0.1291 -0.1339
    1OL     H6R 8782   0.748   2.179   4.170  0.1433 -1.0041 -0.4586
    1OL     H6S 8783   0.724   2.013   4.172  0.4470  0.7031  0.2816
    1OL     C17 8784   0.546   2.120   4.229  0.0554  0.6804  0.5640
    1OL     H7R 8785   0.472   2.044   4.203  0.9337 -0.2677  0.8494
    1OL     H7S 8786   0.504   2.219   4.209  0.0536  0.5738  0.0235
    1OL     C18 8787   0.559   2.106   4.377  1.0297  0.0094  0.4822
    1OL     H8R 8788   0.465   2.133   4.427  1.1305 -2.4002  2.0336
    1OL     H8S 8789   0.627   2.184   4.412  1.8600 -0.2006 -0.6414
    1OL     C19 8790   0.621   1.968   4.412 -1.0064 -0.0158  0.5557
    1OL     H9R 8791   0.729   1.971   4.419 -0.7122 -1.1700 -2.6871
    1OL    C110 8792   0.557   1.850   4.436  0.0269 -0.5082 -0.4337
    1OL    H10R 8793   0.616   1.771   4.481  0.3796  0.1879  0.3495
    1OL    C111 8794   0.412   1.820   4.429 -0.0001  0.2056 -0.1298
    1OL    H11R 8795   0.402   1.735   4.361  3.2344  1.3734 -2.2240
    1OL    H11S 8796   0.369   1.904   4.374  2.1691  0.5987 -1.2946
    1OL    C112 8797   0.350   1.806   4.572  0.0685  0.1362  0.1029
    1OL    H12R 8798   0.412   1.844   4.653  1.7836  0.3947 -1.3106
    1OL    H12S 8799   0.347   1.699   4.593 -0.8362 -0.2002 -1.5973
    1OL    C113 8800   0.204   1.857   4.582 -0.2092  0.4301  0.0636
    1OL    H13R 8801   0.141   1.797   4.517 -0.4897 -0.4691  1.1582
    1OL    H13S 8802   0.202   1.963   4.555 -0.6556  0.7110  1.1572
    1OL    C114 8803   0.147   1.847   4.727  0.1253 -0.7406 -1.0129
    1OL    H14R 8804   0.221   1.884   4.798 -1.5262  1.0140 -0.1612
    1OL    H14S 8805   0.128   1.742   4.751 -0.6438 -0.5475 -0.7371
    1OL    C115 8806   0.010   1.913   4.751 -0.5696  0.2130  0.1075
    1OL    H15R 8807  -0.070   1.871   4.690 -0.4054  1.7463 -1.1890
    1OL    H15S 8808   0.011   2.015   4.712 -1.4992 -0.3784 -1.5182
    1OL    C116 8809  -0.025   1.928   4.895  0.7234 -0.4760 -0.7287
    1OL    H16R 8810   0.067   1.950   4.951 -0.5092 -1.0663  1.5939
    1OL    H16S 8811  -0.045   1.828   4.932 -0.1428 -1.1432 -2.9682
    1OL    C117 8812  -0.137   2.029   4.930 -0.3415 -0.3616 -0.3532
    1OL    H17R 8813  -0.098   2.127   4.901 -1.1555  0.2718  0.6266
    1OL    H17S 8814  -0.156   2.034   5.038  3.6720  2.1340  0.3509
    1OL    C118 8815  -0.271   1.998   4.853  0.3039 -0.4079  0.6010
    1OL    H18R 8816  -0.346   2.076   4.866 -0.3147 -0.5288 -2.1151
    1OL    H18S 8817  -0.314   1.900   4.875 -0.7541  0.0346  0.4894
    1OL    H18T 8818  -0.251   2.005   4.746  1.0423 -3.0248  0.5311
    1PA    C116 8819   3.805   2.472   5.063 -0.1562 -0.6997  0.0844
    1PA    H16R 8820   3.728   2.402   5.095  0.0780 -0.4698  1.1887
    1PA    H16S 8821   3.783   2.569   5.108 -2.6879 -0.1249 -2.3003
    1PA    H16T 8822   3.898   2.449   5.117 -0.1981  1.1112  0.9831
    1PA    C115 8823   3.827   2.482   4.906 -0.4317  0.5120 -0.5246
    1PA    H15R 8824   3.839   2.380   4.871  2.5177  0.2496  1.1064
    1PA    H15S 8825   3.739   2.516   4.851 -1.2075  0.4293  0.6373
    1PA    C114 8826   3.958   2.553   4.857  0.3291 -0.2491  0.3946
    1PA    H14R 8827   4.037   2.514   4.921  1.6107 -0.9148 -1.5156
    1PA    H14S 8828   3.965   2.525   4.751 -0.2874  0.7065  0.0913
    1PA    C113 8829   3.941   2.707   4.864  0.0982 -0.2033  0.2273
    1PA    H13R 8830   3.851   2.736   4.809  1.8274  1.5333 -1.7492
    1PA    H13S 8831   3.917   2.738   4.966 -3.2976  2.0167 -1.1363
    1PA    C112 8832   4.054   2.785   4.799 -0.0501 -0.3024  0.3988
    1PA    H12R 8833   4.034   2.893   4.798  0.8633 -0.1287  0.4819
    1PA    H12S 8834   4.139   2.772   4.865 -0.8272  2.6846  2.1230
    1PA    C111 8835   4.099   2.744   4.659 -0.3895  0.0706 -0.1252
    1PA    H11R 8836   4.115   2.637   4.672  0.0105  0.0472 -0.8018
    1PA    H11S 8837   4.020   2.770   4.588  0.1726 -0.3305 -0.9065
    1PA    C110 8838   4.231   2.814   4.612  0.3357 -0.2207  0.5325
    1PA    H10R 8839   4.302   2.812   4.695  0.7673 -0.7482  0.1556
    1PA    H10S 8840   4.273   2.760   4.527  0.6435 -0.5268  0.8785
    1PA     C19 8841   4.218   2.964   4.566  0.0761  0.1351 -0.0352
    1PA     H9R 8842   4.197   3.029   4.652 -2.8503  1.2642 -1.5419
    1PA     H9S 8843   4.313   3.005   4.531 -0.6758  0.5330 -1.6263
    1PA     C18 8844   4.107   2.987   4.461 -0.1260 -0.1851  1.1277
    1PA     H8R 8845   4.008   2.950   4.491 -0.7308 -1.3308 -2.0826
    1PA     H8S 8846   4.104   3.093   4.436  2.4279 -0.5468 -0.9526
    1PA     C17 8847   4.131   2.921   4.324  0.5612  0.0989  0.1466
    1PA     H7R 8848   4.230   2.938   4.279 -0.3611 -0.9130 -2.3728
    1PA     H7S 8849   4.111   2.815   4.340  0.3785 -0.2812 -2.3339
    1PA     C16 8850   4.044   2.963   4.205  1.1944  0.3806  0.3142
    1PA     H6R 8851   4.072   2.916   4.111  1.2992  1.0911 -0.0114
    1PA     H6S 8852   3.940   2.938   4.224  1.3548  0.2638  1.0516
    1PA     C15 8853   4.071   3.109   4.170  0.1691  0.3482 -0.0995
    1PA     H5R 8854   4.021   3.173   4.244 -0.7648 -0.7659  0.2455
    1PA     H5S 8855   4.172   3.149   4.175  0.3017  0.0624 -0.5112
    1PA     C14 8856   4.013   3.154   4.038 -0.3236 -0.6477  0.4566
    1PA     H4R 8857   3.907   3.127   4.031 -0.5197  0.2032  0.1442
    1PA     H4S 8858   4.024   3.262   4.035 -0.3481 -0.6641 -0.3773
    1PA     C13 8859   4.100   3.103   3.917  0.7048  0.0836 -0.3677
    1PA     H3R 8860   4.202   3.130   3.947  1.1111 -2.5727  0.7956
    1PA     H3S 8861   4.088   2.995   3.909 -3.2847  0.5524 -1.6107
    1PA     C12 8862   4.062   3.173   3.783  0.3372 -0.3239 -0.4670
    1PA     H2R 8863   3.958   3.147   3.759  0.4194 -0.4734 -0.6506
    1PA     H2S 8864   4.060   3.282   3.786  1.6391 -0.2833 -1.0028
    1PC     C11 8865   4.151   3.125   3.671 -0.1814  0.0069 -0.4016
    1PC     O12 8866   4.131   3.020   3.622  0.4533 -0.1569  0.0833
    1PC     O11 8867   4.241   3.213   3.627 -0.1455 -0.4121 -0.4713
    1PC      C1 8868   4.342   3.178   3.534  1.1440  0.6867 -0.3689
    1PC      HR 8869   4.367   3.075   3.560  4.1397  1.1327 -1.2448
    1PC      HS 8870   4.306   3.197   3.433  1.1870  2.0639 -0.1355
    1PC      C2 8871   4.484   3.243   3.559 -0.2758  0.4303  0.2453
    1PC      HX 8872   4.473   3.348   3.587 -0.5240  0.6872 -0.8061
    1PC      C3 8873   4.579   3.215   3.440 -0.0825 -0.1073  0.2529
    1PC      HA 8874   4.568   3.296   3.367 -2.7849  0.0426  0.7854
    1PC      HB 8875   4.683   3.199   3.471 -0.4244 -1.3733  0.7820
    1PC     O31 8876   4.530   3.084   3.383 -0.7301 -0.1771 -0.0944
    1PC     P31 8877   4.502   3.068   3.225  0.4414 -0.3007  0.2517
    1PC     O32 8878   4.650   3.044   3.171  0.1685 -0.1065  0.6728
    1PC     C31 8879   4.712   2.919   3.178  0.1250  0.2168 -0.0533
    1PC     H1A 8880   4.723   2.898   3.285 -0.3429 -0.1940 -0.0859
    1PC     H1B 8881   4.644   2.847   3.133  1.0318 -1.2182  0.8031
    1PC     C32 8882   4.855   2.916   3.116  0.4349 -0.3405  0.2928
    1PC     H2A 8883   4.893   2.818   3.142  0.3255  0.0006  1.8259
    1PC     H2B 8884   4.846   2.928   3.008 -0.1814  0.4890  0.4332
    1PC     N31 8885   4.950   3.016   3.168 -0.1351  0.0901 -0.1240
    1PC     C33 8886   5.089   2.974   3.128  0.5684  0.3188 -0.1145
    1PC     H3A 8887   5.156   3.053   3.163 -0.8675  1.4333  0.1339
    1PC     H3B 8888   5.109   2.873   3.164 -2.1941 -0.5872 -1.0392
    1PC     H3C 8889   5.092   2.979   3.019  0.8376 -0.5481 -0.1492
    1PC     C34 8890   4.915   3.153   3.117 -0.2026 -0.0430  0.0480
    1PC     H4A 8891   4.894   3.161   3.010  1.4050 -0.0433 -0.2717
    1PC     H4B 8892   4.831   3.192   3.175 -2.6852 -2.7655 -1.5157
    1PC     H4C 8893   5.002   3.214   3.138 -0.6551 -0.5183  3.6266
    1PC     C35 8894   4.944   3.034   3.319 -0.1984  0.8541  0.4241
    1PC     H5A 8895   4.843   3.060   3.351 -1.8855 -1.1883 -2.9519
    1PC     H5B 8896   5.020   3.109   3.342  2.1267 -1.2875  0.0211
    1PC     H5C 8897   4.976   2.933   3.345 -1.2280  0.8853  1.8716
    1PC     O33 8898   4.414   2.948   3.212 -0.3001 -0.1264  0.3794
    1PC     O34 8899   4.454   3.197   3.169  0.2124  0.1695  0.0174
    1PC     O21 8900   4.531   3.169   3.678 -0.5759 -0.7273 -0.0590
    1PC     C21 8901   4.591   3.241   3.772 -0.2682  0.1696 -0.0059
    1PC     O22 8902   4.656   3.338   3.745 -0.4329 -0.1538 -1.0974
    1OL     C12 8903   4.583   3.182   3.907 -0.0997  0.1566  0.2592
    1OL     H2R 8904   4.685   3.182   3.944 -0.0707 -1.2814  0.2176
    1OL     H2S 8905   4.562   3.075   3.916  0.0671  0.3081  2.7821
    1OL     C13 8906   4.502   3.273   4.001 -0.9063 -0.0537 -1.0935
    1OL     H3R 8907   4.396   3.268   3.972 -1.3572 -0.1634  0.4991
    1OL     H3S 8908   4.538   3.375   3.992 -1.5141  0.1776 -0.9266
    1OL     C14 8909   4.488   3.233   4.147  0.0739  0.8400 -0.1540
    1OL     H4R 8910   4.580   3.229   4.205 -1.1177 -2.7688  1.6541
    1OL     H4S 8911   4.448   3.131   4.150 -0.9026  1.1474 -1.7838
    1OL     C15 8912   4.395   3.325   4.227  0.0433  0.6828 -0.0724
    1OL     H5R 8913   4.297   3.331   4.181 -0.8003  2.0090  1.8271
    1OL     H5S 8914   4.443   3.423   4.221 -0.0776  0.9119  2.2217
    1OL     C16 8915   4.376   3.288   4.372 -0.4146  0.0517 -0.3619
    1OL     H6R 8916   4.476   3.274   4.415  0.1737  2.1072 -1.0203
    1OL     H6S 8917   4.319   3.195   4.386  2.0583 -1.5408 -0.5894
    1OL     C17 8918   4.322   3.398   4.457 -0.3260 -0.0215  0.0492
    1OL     H7R 8919   4.235   3.443   4.411 -0.5997 -0.1770  0.4106
    1OL     H7S 8920   4.397   3.477   4.461 -3.1322  2.7710 -0.7285
    1OL     C18 8921   4.310   3.367   4.610  0.5858  0.0616  0.2157
    1OL     H8R 8922   4.406   3.334   4.649  1.2693 -1.5625 -2.7230
    1OL     H8S 8923   4.244   3.280   4.608  0.4742  0.1297  0.8071
    1OL     C19 8924   4.256   3.482   4.689 -0.1328  0.2792  0.1165
    1OL     H9R 8925   4.177   3.537   4.640 -0.0286  2.6887  2.5641
    1OL    C110 8926   4.298   3.530   4.804 -0.1064 -0.3895  0.4547
    1OL    H10R 8927   4.242   3.614   4.844 -0.7570 -0.9199  0.6593
    1OL    C111 8928   4.420   3.489   4.882 -1.1663  0.3498 -1.0332
    1OL    H11R 8929   4.455   3.582   4.928 -1.2225 -0.7580  1.3317
    1OL    H11S 8930   4.503   3.443   4.828 -1.2930 -0.0126 -0.9229
    1OL    C112 8931   4.376   3.400   5.007 -0.2392 -0.4294  0.3958
    1OL    H12R 8932   4.331   3.308   4.970 -0.1251 -0.3500  0.0548
    1OL    H12S 8933   4.290   3.444   5.059  0.6270 -0.8648  2.2144
    1OL    C113 8934   4.494   3.377   5.109 -0.4828  0.6490 -0.3213
    1OL    H13R 8935   4.453   3.336   5.201 -1.0618  0.7491 -0.5317
    1OL    H13S 8936   4.542   3.473   5.128  1.3145 -0.6748  2.0240
    1OL    C114 8937   4.611   3.288   5.070  0.0910 -0.0257  0.9166
    1OL    H14R 8938   4.693   3.294   5.142  0.7378  1.0516  0.1026
    1OL    H14S 8939   4.651   3.329   4.977 -1.8389 -0.9742 -0.3562
    1OL    C115 8940   4.576   3.139   5.046 -0.0301 -0.0615  0.4607
    1OL    H15R 8941   4.663   3.098   4.995 -0.8144 -0.7944 -0.3198
    1OL    H15S 8942   4.493   3.137   4.975 -0.3013 -0.2856  0.7846
    1OL    C116 8943   4.563   3.052   5.174 -0.3291  0.6121 -0.5536
    1OL    H16R 8944   4.483   3.098   5.232 -1.3042  0.5996 -1.8565
    1OL    H16S 8945   4.657   3.050   5.229 -1.7566 -0.1888  1.9256
    1OL    C117 8946   4.525   2.907   5.141 -0.1106 -0.1129 -0.1610
    1OL    H17R 8947   4.431   2.917   5.086 -1.3563 -1.2267  1.7117
    1OL    H17S 8948   4.507   2.851   5.233  0.0663  1.1160  0.6189
    1OL    C118 8949   4.641   2.838   5.066 -0.8634 -0.2516  0.4594
    1OL    H18R 8950   4.737   2.857   5.115 -0.1435  1.5956 -1.6098
    1OL    H18S 8951   4.657   2.861   4.961  2.1719  0.3323  0.9863
    1OL    H18T 8952   4.628   2.729   5.067 -0.8466 -0.2502  0.8117
    1PA    C116 8953   2.563   4.810   4.803 -0.2727 -0.0747  1.1536
    1PA    H16R 8954   2.638   4.862   4.743 -0.7188  0.3418  0.9516
    1PA    H16S 8955   2.618   4.724   4.842  2.6190  0.5470 -1.4089
    1PA    H16T 8956   2.524   4.874   4.883 -0.2405 -0.8817  1.8288
    1PA    C115 8957   2.440   4.773   4.719 -0.6171 -0.1715 -0.2117
    1PA    H15R 8958   2.379   4.706   4.778  1.4764 -1.2161  0.8219
    1PA    H15S 8959   2.384   4.860   4.684 -2.9809 -1.0291  1.3363
    1PA    C114 8960   2.489   4.711   4.588 -0.7437 -0.3990 -0.3251
    1PA    H14R 8961   2.550   4.786   4.538  0.0938 -0.3277  0.7594
    1PA    H14S 8962   2.567   4.637   4.611 -0.7985 -0.5021 -0.4750
    1PA    C113 8963   2.383   4.652   4.498  0.5979 -0.1038  0.3950
    1PA    H13R 8964   2.434   4.610   4.411  3.4023  0.0174  1.9210
    1PA    H13S 8965   2.342   4.566   4.551 -1.0827 -0.5751 -1.6236
    1PA    C112 8966   2.265   4.745   4.463  0.5336 -0.3981  0.0206
    1PA    H12R 8967   2.200   4.758   4.550  0.2179 -1.6220 -0.0239
    1PA    H12S 8968   2.305   4.843   4.437 -0.2187  0.3603  1.6741
    1PA    C111 8969   2.184   4.692   4.345  1.2168  0.6093 -1.1256
    1PA    H11R 8970   2.248   4.665   4.260  0.4237  2.3161 -2.2865
    1PA    H11S 8971   2.140   4.598   4.378  1.3427  0.0614 -2.4757
    1PA    C110 8972   2.069   4.786   4.283  0.2945 -0.0805  0.3194
    1PA    H10R 8973   2.028   4.854   4.358  1.3779  0.6728  0.2380
    1PA    H10S 8974   2.113   4.856   4.212  0.8490 -0.2248  0.5147
    1PA     C19 8975   1.959   4.709   4.202  0.5362  0.1402 -0.1943
    1PA     H9R 8976   2.009   4.652   4.124  0.3516 -0.8837  0.4327
    1PA     H9S 8977   1.907   4.639   4.267 -0.0419  0.2228 -0.5562
    1PA     C18 8978   1.856   4.806   4.130  0.2298 -0.6890  0.1025
    1PA     H8R 8979   1.787   4.843   4.206 -0.6866  0.8718 -1.4698
    1PA     H8S 8980   1.900   4.894   4.083  0.7092 -0.8046  0.3316
    1PA     C17 8981   1.757   4.750   4.030 -0.2120  0.5439 -0.2698
    1PA     H7R 8982   1.707   4.833   3.980  0.4766  0.9822 -0.2393
    1PA     H7S 8983   1.685   4.685   4.079 -1.4283  1.2401 -1.1179
    1PA     C16 8984   1.822   4.666   3.913 -0.3370  0.2966  0.1711
    1PA     H6R 8985   1.850   4.572   3.959 -1.5334 -1.0782 -1.7950
    1PA     H6S 8986   1.749   4.641   3.835 -0.7292 -1.8100  1.1755
    1PA     C15 8987   1.948   4.734   3.853  0.1150 -0.1495 -1.1401
    1PA     H5R 8988   1.912   4.817   3.792 -1.6874  1.0515  1.4472
    1PA     H5S 8989   2.016   4.777   3.928  1.2863 -1.6454 -1.3063
    1PA     C14 8990   2.045   4.632   3.784 -0.0015 -0.4653  0.4853
    1PA     H4R 8991   2.119   4.683   3.722  0.8638 -0.2509  1.6731
    1PA     H4S 8992   2.099   4.578   3.863 -1.4007  1.0582  2.5447
    1PA     C13 8993   1.966   4.525   3.693  0.8738  0.0873 -0.1948
    1PA     H3R 8994   1.908   4.456   3.754 -0.3930  0.3499 -1.0813
    1PA     H3S 8995   1.900   4.575   3.621  2.2477  2.0337 -0.1262
    1PA     C12 8996   2.062   4.438   3.607 -0.2654 -0.1820 -0.4698
    1PA     H2R 8997   2.130   4.506   3.555 -0.3573  0.0386 -0.2998
    1PA     H2S 8998   2.111   4.365   3.671 -2.3630 -2.0811 -0.9687
    1PC     C11 8999   1.996   4.346   3.504  0.3924  0.2884 -0.2646
    1PC     O12 9000   1.953   4.390   3.399  0.5914 -0.2787 -0.0415
    1PC     O11 9001   1.982   4.221   3.539 -0.4307 -0.0490 -0.1011
    1PC      C1 9002   1.909   4.134   3.457  0.1479 -0.0134 -0.0858
    1PC      HR 9003   1.900   4.045   3.520 -1.3299  0.6164  0.6232
    1PC      HS 9004   1.805   4.162   3.442 -0.0350 -1.2935 -1.3032
    1PC      C2 9005   1.993   4.111   3.330  0.6755 -0.0062 -0.2189
    1PC      HX 9006   2.004   4.198   3.264 -0.0282 -1.0679 -1.7859
    1PC      C3 9007   1.926   3.998   3.251  1.4157 -0.3659  0.2234
    1PC      HA 9008   1.993   3.985   3.166 -0.2318  0.0574 -1.1711
    1PC      HB 9009   1.923   3.906   3.309 -0.0796 -0.5349 -0.1163
    1PC     O31 9010   1.786   4.025   3.214 -0.7976 -0.3353 -0.3339
    1PC     P31 9011   1.736   4.111   3.089 -0.0009 -0.2140  0.0354
    1PC     O32 9012   1.764   4.264   3.132 -0.2998  0.3970  0.3007
    1PC     C31 9013   1.667   4.338   3.210 -0.0639  0.5646  0.1608
    1PC     H1A 9014   1.569   4.330   3.160 -0.0733 -1.1106  0.4323
    1PC     H1B 9015   1.661   4.303   3.313  1.2602 -1.2049 -0.3308
    1PC     C32 9016   1.702   4.489   3.207  0.2269 -0.3987  0.6572
    1PC     H2A 9017   1.626   4.539   3.268 -0.7190 -0.9961 -0.0275
    1PC     H2B 9018   1.788   4.516   3.268  0.1917  0.3410  0.3904
    1PC     N31 9019   1.724   4.558   3.069  0.8188  0.0899 -0.0054
    1PC     C33 9020   1.758   4.700   3.100  0.0455  0.6942 -0.7583
    1PC     H3A 9021   1.788   4.760   3.014 -0.5793  0.4834 -1.1242
    1PC     H3B 9022   1.666   4.733   3.150  0.9716  0.4784  1.1275
    1PC     H3C 9023   1.834   4.687   3.176  0.5027 -2.3439 -1.7029
    1PC     C34 9024   1.844   4.503   2.997 -0.2170 -0.0598 -0.8961
    1PC     H4A 9025   1.853   4.559   2.904 -0.8666  2.3445  0.4372
    1PC     H4B 9026   1.925   4.519   3.069 -0.3874 -1.0356 -0.4879
    1PC     H4C 9027   1.834   4.397   2.976  2.7726 -0.5474 -0.1191
    1PC     C35 9028   1.610   4.548   2.975 -0.2578 -0.6034 -0.0063
    1PC     H5A 9029   1.630   4.631   2.906  0.1024 -0.2472  0.5158
    1PC     H5B 9030   1.519   4.564   3.033 -0.4267  2.2807 -0.9932
    1PC     H5C 9031   1.613   4.447   2.935 -0.2804  0.7465 -3.6259
    1PC     O33 9032   1.822   4.087   2.973 -0.5000  0.6514 -0.4722
    1PC     O34 9033   1.590   4.100   3.068 -0.2135  0.3611 -0.4669
    1PC     O21 9034   2.120   4.053   3.365 -0.1770 -0.1198 -0.6145
    1PC     C21 9035   2.225   4.136   3.363 -0.3130 -1.0613 -0.0711
    1PC     O22 9036   2.222   4.256   3.333  0.0069  0.2146 -0.1688
    1OL     C12 9037   2.342   4.072   3.429 -0.9562 -0.2761  0.1341
    1OL     H2R 9038   2.410   4.020   3.362 -0.2642 -0.1230  0.6975
    1OL     H2S 9039   2.302   3.986   3.483 -2.5045 -1.7912 -3.3057
    1OL     C13 9040   2.421   4.164   3.522  0.0295 -0.2668  0.0385
    1OL     H3R 9041   2.356   4.207   3.599 -0.1833 -3.3990  1.6925
    1OL     H3S 9042   2.464   4.242   3.459 -0.2851  0.3282  0.5551
    1OL     C14 9043   2.530   4.088   3.598  0.1613 -0.8290  0.4305
    1OL     H4R 9044   2.598   4.151   3.657  2.2479 -2.7693  0.1877
    1OL     H4S 9045   2.592   4.031   3.529  1.5903  2.1354 -0.8504
    1OL     C15 9046   2.486   3.986   3.699  0.4245 -0.5560  0.0983
    1OL     H5R 9047   2.575   3.949   3.750  0.2362 -0.4896  0.4737
    1OL     H5S 9048   2.449   3.897   3.647 -1.1785 -0.4747  1.0535
    1OL     C16 9049   2.377   4.024   3.804  0.1786 -0.0375 -0.1315
    1OL     H6R 9050   2.275   4.012   3.766 -0.3542 -1.0692  1.5645
    1OL     H6S 9051   2.383   4.125   3.845 -0.8294 -0.4506  1.0681
    1OL     C17 9052   2.377   3.916   3.911  0.2203  0.4279  0.1679
    1OL     H7R 9053   2.474   3.924   3.960  0.6717  0.9455 -0.7805
    1OL     H7S 9054   2.383   3.818   3.864 -1.8024  0.2407  0.2672
    1OL     C18 9055   2.266   3.923   4.012 -0.3917 -0.9228  0.5715
    1OL     H8R 9056   2.173   3.919   3.955  0.5947 -1.6802 -1.0413
    1OL     H8S 9057   2.266   4.015   4.069 -0.5808  0.5110 -1.6772
    1OL     C19 9058   2.275   3.805   4.100  0.1545  0.4854  0.3997
    1OL     H9R 9059   2.303   3.711   4.055 -1.0523  0.2692  0.0728
    1OL    C110 9060   2.241   3.812   4.229 -0.1024 -0.0119 -0.3330
    1OL    H10R 9061   2.241   3.723   4.292  0.2725  0.6267  0.5795
    1OL    C111 9062   2.194   3.936   4.301 -0.4537 -0.3890  0.0006
    1OL    H11R 9063   2.112   3.980   4.244  0.3214  1.2066  0.0705
    1OL    H11S 9064   2.278   4.006   4.302  0.3153 -1.3117  0.9167
    1OL    C112 9065   2.153   3.903   4.446  0.3882 -0.6333 -0.1133
    1OL    H12R 9066   2.118   3.989   4.505 -0.5910 -1.7870  1.0286
    1OL    H12S 9067   2.239   3.865   4.500 -0.5294  0.7886  2.4575
    1OL    C113 9068   2.039   3.797   4.453 -0.3131  0.2497  0.3286
    1OL    H13R 9069   2.083   3.701   4.429 -0.3183  0.7937 -1.9665
    1OL    H13S 9070   1.966   3.815   4.374  0.9571 -0.1527 -0.9492
    1OL    C114 9071   1.962   3.785   4.583  0.2998 -0.0828  0.1801
    1OL    H14R 9072   1.864   3.739   4.565  1.5168 -1.4609 -3.2345
    1OL    H14S 9073   1.937   3.887   4.613  0.0914 -0.5445  1.6182
    1OL    C115 9074   2.043   3.727   4.704  0.3411 -0.3053 -0.4856
    1OL    H15R 9075   2.143   3.769   4.696  0.7210 -1.2184 -0.6668
    1OL    H15S 9076   2.064   3.621   4.690  1.1113 -0.1328 -0.6512
    1OL    C116 9077   1.972   3.760   4.838 -0.0227  0.7715  0.3994
    1OL    H16R 9078   1.880   3.700   4.837 -0.3274  1.1546  2.2961
    1OL    H16S 9079   1.964   3.869   4.843  0.2890  0.7134  2.9677
    1OL    C117 9080   2.057   3.725   4.959 -0.0599 -0.3863  0.0126
    1OL    H17R 9081   2.135   3.801   4.967 -0.8640  0.2222  2.2725
    1OL    H17S 9082   2.099   3.625   4.945 -2.2028 -1.3253  0.0819
    1OL    C118 9083   1.969   3.730   5.085 -0.7139  0.1614 -0.3114
    1OL    H18R 9084   1.912   3.823   5.077  0.4918  0.7144 -3.0426
    1OL    H18S 9085   2.027   3.728   5.177  0.3996  0.0291 -1.0099
    1OL    H18T 9086   1.894   3.650   5.081  0.1114 -0.6670  0.6453
    1PA    C116 9087   1.611   0.158   4.492  0.9103 -0.9699 -1.1450
    1PA    H16R 9088   1.539   0.103   4.431  0.5402 -0.3592 -1.2634
    1PA    H16S 9089   1.708   0.108   4.494  3.2229  3.2995  0.2252
    1PA    H16T 9090   1.627   0.251   4.438 -0.1611 -0.4565 -0.6056
    1PA    C115 9091   1.546   0.177   4.633 -0.3657 -0.2846 -0.2299
    1PA    H15R 9092   1.450   0.225   4.614 -0.4058  0.0187  0.7674
    1PA    H15S 9093   1.529   0.083   4.686 -1.0468 -0.4866 -0.7881
    1PA    C114 9094   1.640   0.274   4.709 -0.0769  0.2420 -0.3636
    1PA    H14R 9095   1.668   0.358   4.645  1.8924 -1.4152 -1.7447
    1PA    H14S 9096   1.587   0.330   4.786 -0.5425 -0.6234 -0.0410
    1PA    C113 9097   1.766   0.212   4.775 -0.6823  0.0859  0.7606
    1PA    H13R 9098   1.742   0.125   4.836  0.0750  0.0592  1.0233
    1PA    H13S 9099   1.825   0.171   4.693  0.5782  0.7391  1.3265
    1PA    C112 9100   1.857   0.316   4.849  0.3725 -0.5779  0.6926
    1PA    H12R 9101   1.790   0.343   4.930  0.7113 -1.3315  1.2398
    1PA    H12S 9102   1.941   0.271   4.904 -0.0695 -1.8044  0.3747
    1PA    C111 9103   1.906   0.429   4.766 -0.4087 -0.3830  0.1598
    1PA    H11R 9104   1.824   0.495   4.737 -0.7962 -1.0877 -0.3807
    1PA    H11S 9105   1.974   0.489   4.826  0.5364 -1.1602 -0.1196
    1PA    C110 9106   1.980   0.378   4.644  0.4983  0.8014 -0.2677
    1PA    H10R 9107   2.073   0.329   4.673  0.1281  0.3130  0.0994
    1PA    H10S 9108   1.917   0.308   4.589 -0.4102 -0.4815  2.3173
    1PA     C19 9109   2.015   0.496   4.555  0.0682  0.6656 -0.7820
    1PA     H9R 9110   1.928   0.553   4.521  1.1289  2.0563 -1.2322
    1PA     H9S 9111   2.077   0.569   4.608  0.5715 -1.1897  1.2492
    1PA     C18 9112   2.107   0.446   4.438 -0.3601 -0.5771 -0.5728
    1PA     H8R 9113   2.170   0.527   4.400 -2.0929  0.5401 -1.1340
    1PA     H8S 9114   2.178   0.374   4.479  0.7929  0.1066 -1.3295
    1PA     C17 9115   2.032   0.379   4.319  0.3058  0.1208  0.1646
    1PA     H7R 9116   2.063   0.276   4.298  1.3707 -0.2501  3.2914
    1PA     H7S 9117   1.927   0.370   4.345  0.3194  2.8155  1.3518
    1PA     C16 9118   2.040   0.449   4.187  0.3792  0.3696  0.2651
    1PA     H6R 9119   1.999   0.551   4.194 -1.2057  0.0119 -2.8593
    1PA     H6S 9120   2.143   0.457   4.153 -0.1147 -1.6487 -1.8128
    1PA     C15 9121   1.954   0.374   4.086 -0.7356  0.0388  0.3196
    1PA     H5R 9122   1.998   0.278   4.056  1.5847  0.8515  1.0320
    1PA     H5S 9123   1.851   0.351   4.114 -0.5635 -0.6070  0.4329
    1PA     C14 9124   1.939   0.452   3.950 -0.6196 -0.2524 -0.0287
    1PA     H4R 9125   1.885   0.545   3.970  0.3107  0.4809 -0.8779
    1PA     H4S 9126   2.037   0.474   3.907 -0.3749 -0.2899  0.5096
    1PA     C13 9127   1.861   0.374   3.851  0.1508  0.2145  0.3560
    1PA     H3R 9128   1.902   0.276   3.827 -0.9422 -0.0609 -0.3874
    1PA     H3S 9129   1.761   0.355   3.890 -0.0434  2.9570  1.3228
    1PA     C12 9130   1.853   0.453   3.723  0.0570  0.0898 -0.5814
    1PA     H2R 9131   1.794   0.544   3.739 -1.1013 -1.0889  2.2752
    1PA     H2S 9132   1.955   0.478   3.693 -0.4088  0.7082 -1.6659
    1PC     C11 9133   1.783   0.372   3.615  0.6390 -0.2817  0.0823
    1PC     O12 9134   1.841   0.281   3.559  0.5227 -0.4498  0.4410
    1PC     O11 9135   1.662   0.420   3.586  0.0924  0.2202  0.6433
    1PC      C1 9136   1.588   0.336   3.487  0.3487  0.0251 -0.1539
    1PC      HR 9137   1.631   0.342   3.386  0.6935 -1.5263 -0.1059
    1PC      HS 9138   1.595   0.232   3.520 -2.5526 -0.2615 -0.3023
    1PC      C2 9139   1.437   0.375   3.475 -0.3013 -0.0626 -0.1982
    1PC      HX 9140   1.388   0.298   3.415  0.6117 -0.4530 -0.4670
    1PC      C3 9141   1.416   0.517   3.413  0.4557 -0.0108 -0.6147
    1PC      HA 9142   1.318   0.548   3.449  1.5160  1.8213  0.8165
    1PC      HB 9143   1.499   0.583   3.441 -0.2809  0.4796  0.4366
    1PC     O31 9144   1.402   0.511   3.270 -0.8938  0.0756  0.6533
    1PC     P31 9145   1.530   0.540   3.177 -0.3906  0.0438  0.8075
    1PC     O32 9146   1.506   0.682   3.114 -0.4631  0.2149 -0.0411
    1PC     C31 9147   1.484   0.793   3.199 -0.0773  0.2974 -0.5024
    1PC     H1A 9148   1.379   0.791   3.229 -0.6738 -0.2804 -2.5777
    1PC     H1B 9149   1.547   0.786   3.288 -1.2751  1.0126  0.4115
    1PC     C32 9150   1.531   0.919   3.122 -0.1836  0.8250  0.4056
    1PC     H2A 9151   1.498   0.907   3.019  0.8506 -0.1332  0.1740
    1PC     H2B 9152   1.480   1.006   3.162 -0.2731  0.8760  0.1801
    1PC     N31 9153   1.680   0.943   3.119  0.0131  0.2619 -0.5538
    1PC     C33 9154   1.734   0.978   3.256 -0.2352 -0.5987  0.0813
    1PC     H3A 9155   1.652   1.026   3.310 -0.9593 -0.0252 -1.4939
    1PC     H3B 9156   1.756   0.886   3.309  1.1739 -1.2650 -1.6093
    1PC     H3C 9157   1.823   1.039   3.238 -1.8458  1.3704 -1.4522
    1PC     C34 9158   1.759   0.831   3.069 -0.8971  0.0150 -0.1395
    1PC     H4A 9159   1.709   0.785   2.983 -2.1967  3.0031 -1.0342
    1PC     H4B 9160   1.855   0.874   3.040 -1.0849 -0.3197 -1.2933
    1PC     H4C 9161   1.764   0.755   3.147 -0.1280  1.7099  1.5164
    1PC     C35 9162   1.707   1.059   3.025 -0.9120 -0.5984  0.0333
    1PC     H5A 9163   1.811   1.075   2.997 -0.6237 -0.7595  0.9945
    1PC     H5B 9164   1.661   1.150   3.063  0.6517  0.1340  0.2241
    1PC     H5C 9165   1.661   1.024   2.933 -2.9710  1.2888  0.3112
    1PC     O33 9166   1.651   0.544   3.270 -0.2678 -0.3687 -0.1899
    1PC     O34 9167   1.524   0.438   3.069 -0.2367  0.8506 -0.7357
    1PC     O21 9168   1.379   0.364   3.607  0.6197  0.1409  0.0162
    1PC     C21 9169   1.244   0.352   3.610 -0.6563  1.3426 -0.1644
    1PC     O22 9170   1.170   0.357   3.508 -0.6309  0.0443  0.2757
    1OL     C12 9171   1.192   0.332   3.753  0.2301  0.1096  0.2892
    1OL     H2R 9172   1.244   0.405   3.816 -0.2136 -0.8453  1.7603
    1OL     H2S 9173   1.216   0.230   3.782  1.0735  0.3300  0.3940
    1OL     C13 9174   1.037   0.338   3.776  1.3304 -0.3948 -0.2872
    1OL     H3R 9175   1.025   0.298   3.877  0.6126  1.1130  0.2372
    1OL     H3S 9176   0.996   0.258   3.713  0.2131 -0.8795  1.0308
    1OL     C14 9177   0.967   0.472   3.744 -0.6862  0.3380  0.1025
    1OL     H4R 9178   0.859   0.456   3.750 -0.6259 -0.3526 -0.6935
    1OL     H4S 9179   0.984   0.491   3.638  0.9994 -3.9494 -0.4763
    1OL     C15 9180   1.011   0.590   3.825 -0.1943 -0.7498 -0.6722
    1OL     H5R 9181   1.120   0.597   3.822 -0.2030 -0.3375 -0.1024
    1OL     H5S 9182   0.987   0.567   3.930 -0.6823 -1.7032 -0.9798
    1OL     C16 9183   0.952   0.722   3.770 -0.1796  0.2271 -0.3054
    1OL     H6R 9184   0.901   0.767   3.855  0.0202 -1.3486  0.6684
    1OL     H6S 9185   0.874   0.702   3.696  0.8116 -1.1459 -0.9918
    1OL     C17 9186   1.060   0.810   3.703 -0.1654 -0.2703 -0.5612
    1OL     H7R 9187   1.116   0.864   3.780 -1.6890 -1.8184  1.6912
    1OL     H7S 9188   1.003   0.884   3.646 -2.8492 -0.5978  1.6017
    1OL     C18 9189   1.151   0.745   3.592 -0.6344  0.2432  0.6566
    1OL     H8R 9190   1.082   0.735   3.508  0.3885 -0.3895 -0.1265
    1OL     H8S 9191   1.169   0.638   3.609  0.0941 -0.3978 -3.6936
    1OL     C19 9192   1.279   0.823   3.560 -0.0739 -0.0961 -0.0828
    1OL     H9R 9193   1.273   0.898   3.482 -0.3980 -0.2773 -0.2334
    1OL    C110 9194   1.399   0.810   3.610  0.1279  0.1250  0.2005
    1OL    H10R 9195   1.482   0.874   3.582 -1.8397  2.7102  0.0278
    1OL    C111 9196   1.440   0.703   3.712 -0.0029 -0.8772 -0.0568
    1OL    H11R 9197   1.522   0.644   3.671  0.8207  0.5611 -0.5092
    1OL    H11S 9198   1.362   0.630   3.736  0.2403 -0.7805  1.0757
    1OL    C112 9199   1.490   0.785   3.837 -0.2978  0.2089 -0.4234
    1OL    H12R 9200   1.402   0.836   3.877 -1.6843 -0.9723 -1.8715
    1OL    H12S 9201   1.563   0.858   3.801 -1.1442  1.1014 -0.3590
    1OL    C113 9202   1.555   0.696   3.944 -0.1481  0.3885 -0.2865
    1OL    H13R 9203   1.641   0.637   3.912  0.5687  0.7916  0.8886
    1OL    H13S 9204   1.471   0.636   3.980 -0.3269 -0.6069 -2.2726
    1OL    C114 9205   1.604   0.779   4.061 -0.0146 -0.3882 -0.5851
    1OL    H14R 9206   1.517   0.816   4.116  0.7107  1.1916 -0.4833
    1OL    H14S 9207   1.650   0.867   4.016 -0.9406 -0.2949 -1.3595
    1OL    C115 9208   1.705   0.711   4.155  1.1005  0.7789 -0.0791
    1OL    H15R 9209   1.732   0.775   4.239 -0.2583 -0.3746  1.2895
    1OL    H15S 9210   1.795   0.701   4.095  0.7675  3.1728 -1.0493
    1OL    C116 9211   1.670   0.583   4.227 -0.1436  0.2917 -0.7218
    1OL    H16R 9212   1.759   0.555   4.282 -1.3880  1.1436  1.7931
    1OL    H16S 9213   1.648   0.501   4.158  0.8091 -1.1569  0.6791
    1OL    C117 9214   1.553   0.583   4.331  0.6959  0.0752  0.5923
    1OL    H17R 9215   1.565   0.490   4.386 -2.4599 -0.2727  0.7660
    1OL    H17S 9216   1.452   0.582   4.288 -0.6531 -0.0975  3.6212
    1OL    C118 9217   1.559   0.698   4.426  1.0344  0.3166 -0.4187
    1OL    H18R 9218   1.515   0.661   4.519 -0.9809  0.0731 -1.4431
    1OL    H18S 9219   1.495   0.778   4.390  0.6136  1.0391  1.8099
    1OL    H18T 9220   1.665   0.725   4.432  1.6920 -1.8986 -1.3883
    1PA    C116 9221   3.744   4.664   5.296  0.0181  0.9731 -0.3880
    1PA    H16R 9222   3.650   4.695   5.249 -0.7177 -0.6354 -0.0479
    1PA    H16S 9223   3.719   4.630   5.396  1.0841  0.5333 -0.2640
    1PA    H16T 9224   3.765   4.579   5.230 -0.7645 -0.5345  1.2738
    1PA    C115 9225   3.851   4.776   5.285  0.1175  0.1808  0.1044
    1PA    H15R 9226   3.840   4.856   5.357 -0.3151  0.0599  0.1780
    1PA    H15S 9227   3.954   4.742   5.296 -0.1443 -0.5520  0.3182
    1PA    C114 9228   3.853   4.831   5.135 -0.6392  0.0292 -0.1582
    1PA    H14R 9229   3.814   4.758   5.064 -1.6403  1.2915 -0.9327
    1PA    H14S 9230   3.791   4.921   5.140  0.0407  0.4567  0.6068
    1PA    C113 9231   3.991   4.863   5.083 -0.4583  0.0011  0.3496
    1PA    H13R 9232   4.039   4.932   5.153 -0.3272  0.6315 -0.3564
    1PA    H13S 9233   4.052   4.773   5.093  0.2771  0.3668 -0.6875
    1PA    C112 9234   3.978   4.931   4.943  0.3398 -0.2182  0.0862
    1PA    H12R 9235   3.913   5.018   4.946 -0.3282 -0.7089  0.0360
    1PA    H12S 9236   4.072   4.979   4.919 -1.0893  2.2438 -0.7196
    1PA    C111 9237   3.930   4.843   4.830  0.6936 -0.5439  0.3128
    1PA    H11R 9238   3.996   4.757   4.821 -0.2966 -0.9993 -3.6857
    1PA    H11S 9239   3.830   4.803   4.848 -0.8864  2.6550 -0.9657
    1PA    C110 9240   3.929   4.916   4.691  0.4048  0.6299 -0.0927
    1PA    H10R 9241   3.871   5.008   4.700 -1.8656 -0.8232  0.5716
    1PA    H10S 9242   4.034   4.936   4.673  0.3658 -0.5101 -1.6929
    1PA     C19 9243   3.880   4.830   4.570  0.1891 -0.0587 -0.3644
    1PA     H9R 9244   3.920   4.728   4.566  0.1649 -0.0493 -0.8379
    1PA     H9S 9245   3.773   4.815   4.586  0.2255  2.0187  2.1273
    1PA     C18 9246   3.909   4.911   4.441 -0.1733 -0.6274  0.1162
    1PA     H8R 9247   3.866   5.010   4.453 -0.5619 -0.8552  0.6251
    1PA     H8S 9248   4.017   4.924   4.431 -0.3218  0.1853 -0.5090
    1PA     C17 9249   3.845   4.843   4.316  0.0892 -0.0825  0.4402
    1PA     H7R 9250   3.862   4.736   4.315  3.0890  0.3545 -2.2017
    1PA     H7S 9251   3.739   4.867   4.311  0.3193  0.8951 -0.0261
    1PA     C16 9252   3.910   4.893   4.183 -0.4309 -0.3062 -1.4105
    1PA     H6R 9253   3.898   5.001   4.182  1.2049 -0.0964 -0.4517
    1PA     H6S 9254   4.015   4.863   4.183 -0.6969 -1.3956  1.6573
    1PA     C15 9255   3.834   4.856   4.059  0.0476  0.5526 -0.0735
    1PA     H5R 9256   3.730   4.889   4.062  0.0956  1.2562 -3.6167
    1PA     H5S 9257   3.887   4.888   3.969  0.0470 -0.0237 -0.2857
    1PA     C14 9258   3.849   4.702   4.042 -0.1931 -0.0643 -0.1914
    1PA     H4R 9259   3.952   4.666   4.039 -0.6214 -1.5511  1.8487
    1PA     H4S 9260   3.812   4.640   4.124  4.2085 -2.2264  0.3063
    1PA     C13 9261   3.780   4.647   3.916 -0.1198 -0.3097 -0.0650
    1PA     H3R 9262   3.673   4.647   3.940  0.2228  0.9090  1.5577
    1PA     H3S 9263   3.801   4.714   3.832  1.9048  0.4228  0.9917
    1PA     C12 9264   3.822   4.508   3.872  0.2952  0.0047  0.5038
    1PA     H2R 9265   3.931   4.498   3.868  0.4157  0.4139  2.3012
    1PA     H2S 9266   3.794   4.427   3.939  0.1095  0.6460  1.2013
    1PC     C11 9267   3.771   4.469   3.738 -0.8560  0.7902 -0.1701
    1PC     O12 9268   3.713   4.542   3.663  0.4354 -0.4153 -0.1942
    1PC     O11 9269   3.781   4.338   3.709  0.1127  0.2727  0.3354
    1PC      C1 9270   3.757   4.309   3.574 -0.0705 -0.3091 -0.0093
    1PC      HR 9271   3.728   4.205   3.560 -2.5247  0.1665  1.3181
    1PC      HS 9272   3.670   4.355   3.527 -0.8963 -1.9651 -0.1423
    1PC      C2 9273   3.877   4.344   3.479  0.4226  0.7149  0.5129
    1PC      HX 9274   3.906   4.449   3.482  1.8642  0.3515 -0.7080
    1PC      C3 9275   3.846   4.313   3.333  0.8885 -0.1709  0.5203
    1PC      HA 9276   3.800   4.216   3.315 -1.3570  0.7339  1.2688
    1PC      HB 9277   3.775   4.388   3.298 -1.8781 -1.9718  2.1026
    1PC     O31 9278   3.969   4.317   3.252  0.3106  0.1047  0.6794
    1PC     P31 9279   4.049   4.455   3.222  0.0509 -0.0265 -0.1340
    1PC     O32 9280   4.154   4.462   3.341 -0.0164 -0.6963 -0.4846
    1PC     C31 9281   4.279   4.391   3.334  0.3558  0.0204  0.6708
    1PC     H1A 9282   4.304   4.367   3.438 -1.0182 -1.4878  0.6669
    1PC     H1B 9283   4.254   4.305   3.272  1.0441 -0.4922  1.1008
    1PC     C32 9284   4.393   4.469   3.279 -1.0404  0.3321  0.2262
    1PC     H2A 9285   4.486   4.414   3.291 -0.9264  0.7533  1.3625
    1PC     H2B 9286   4.366   4.485   3.175 -1.0681 -2.5172 -0.2583
    1PC     N31 9287   4.419   4.604   3.341 -0.3940  0.2816 -0.3772
    1PC     C33 9288   4.435   4.596   3.481 -0.1345  0.3638  0.3365
    1PC     H3A 9289   4.341   4.560   3.524  1.5666 -1.0803  2.9487
    1PC     H3B 9290   4.516   4.529   3.507 -0.1959 -0.5649 -1.8067
    1PC     H3C 9291   4.469   4.692   3.521 -0.9412 -0.3368  2.7890
    1PC     C34 9292   4.555   4.667   3.286 -0.6616 -0.1888  0.0098
    1PC     H4A 9293   4.529   4.707   3.188  0.7982  0.1825 -0.2296
    1PC     H4B 9294   4.581   4.748   3.354  2.0054 -0.9631 -0.0365
    1PC     H4C 9295   4.629   4.587   3.279 -1.7864 -1.2207 -0.4145
    1PC     C35 9296   4.317   4.706   3.319  0.7011  0.7808  0.9882
    1PC     H5A 9297   4.224   4.683   3.370 -0.3360  0.0235 -1.1870
    1PC     H5B 9298   4.290   4.712   3.213 -2.5523  2.3298  1.8373
    1PC     H5C 9299   4.356   4.799   3.360 -1.7038  0.8721  3.2119
    1PC     O33 9300   4.122   4.450   3.097  0.1308 -0.2046 -0.0557
    1PC     O34 9301   3.961   4.570   3.253  0.7575 -0.8219 -0.7451
    1PC     O21 9302   3.995   4.270   3.515 -0.0209 -0.7114  0.1181
    1PC     C21 9303   4.072   4.306   3.618  0.2563 -0.3776 -0.7098
    1PC     O22 9304   4.058   4.403   3.695  0.4598  0.1614 -0.3488
    1OL     C12 9305   4.176   4.205   3.657  0.2416  0.4506  1.1652
    1OL     H2R 9306   4.267   4.258   3.687 -0.4660  1.8169  0.9149
    1OL     H2S 9307   4.207   4.154   3.565 -0.5286  1.5044  0.3127
    1OL     C13 9308   4.136   4.100   3.753  0.2002  1.2225 -0.7401
    1OL     H3R 9309   4.050   4.044   3.714  0.5091 -0.0086  0.3446
    1OL     H3S 9310   4.088   4.153   3.835 -2.1230  0.0380 -1.2910
    1OL     C14 9311   4.250   4.011   3.806 -0.3863 -0.4155  0.2364
    1OL     H4R 9312   4.306   3.969   3.722  0.1407  0.1329  0.3141
    1OL     H4S 9313   4.208   3.928   3.863 -0.5190 -1.2544 -1.0778
    1OL     C15 9314   4.354   4.088   3.897  0.9720  0.4450 -0.0911
    1OL     H5R 9315   4.407   4.171   3.851  2.8214 -0.6225  0.0855
    1OL     H5S 9316   4.436   4.019   3.916 -0.2411 -0.8563  0.6150
    1OL     C16 9317   4.303   4.144   4.034  0.1673 -0.6159 -0.1764
    1OL     H6R 9318   4.235   4.070   4.076  1.2830 -0.4657  2.0142
    1OL     H6S 9319   4.228   4.220   4.014  1.0219 -0.1949 -1.8903
    1OL     C17 9320   4.414   4.206   4.126  0.6675  0.1775  0.0056
    1OL     H7R 9321   4.478   4.271   4.067  1.3283 -1.9772 -1.7055
    1OL     H7S 9322   4.471   4.122   4.167 -1.2799 -0.2784  1.8913
    1OL     C18 9323   4.351   4.289   4.239 -0.0295  0.1925 -0.1737
    1OL     H8R 9324   4.437   4.317   4.300 -1.3243 -0.2572  1.9350
    1OL     H8S 9325   4.296   4.219   4.304 -0.3936  1.2269  0.6442
    1OL     C19 9326   4.278   4.414   4.186  0.4192 -0.0899  0.3457
    1OL     H9R 9327   4.336   4.477   4.120  0.3942 -0.5404 -0.1101
    1OL    C110 9328   4.156   4.456   4.217  0.9485  0.6144 -0.5174
    1OL    H10R 9329   4.123   4.554   4.183 -0.3263  0.3624 -0.0375
    1OL    C111 9330   4.062   4.389   4.310 -0.1615 -0.0348  0.4064
    1OL    H11R 9331   4.019   4.462   4.378  1.3817  2.6678 -1.4562
    1OL    H11S 9332   4.108   4.305   4.364 -1.9560 -0.1073  1.8939
    1OL    C112 9333   3.937   4.325   4.245 -0.7919 -0.2215  0.2979
    1OL    H12R 9334   3.896   4.415   4.199  1.7037  0.4027 -0.7510
    1OL    H12S 9335   3.872   4.286   4.324 -1.5169  0.2877 -0.0451
    1OL    C113 9336   3.950   4.235   4.127 -0.1873 -0.2442 -0.2246
    1OL    H13R 9337   4.025   4.159   4.152 -2.0155 -1.9483  0.1858
    1OL    H13S 9338   3.998   4.296   4.050 -0.9458  1.2543  0.4812
    1OL    C114 9339   3.821   4.175   4.084  0.0182 -0.2228  0.2652
    1OL    H14R 9340   3.746   4.252   4.065  0.1338 -0.1272  0.2024
    1OL    H14S 9341   3.784   4.117   4.169 -0.9649 -0.7897 -0.5435
    1OL    C115 9342   3.833   4.084   3.963  0.3276 -0.6694 -0.4038
    1OL    H15R 9343   3.904   4.005   3.990  0.1598 -0.5774  0.3246
    1OL    H15S 9344   3.875   4.126   3.872 -0.3314 -0.1476 -0.4654
    1OL    C116 9345   3.703   4.011   3.922  0.3544  0.8899  0.4891
    1OL    H16R 9346   3.639   4.092   3.887  1.8407  1.0430 -2.0201
    1OL    H16S 9347   3.643   3.973   4.005 -0.6810 -2.3193 -1.6156
    1OL    C117 9348   3.692   3.903   3.815  0.0547 -0.4128 -0.5244
    1OL    H17R 9349   3.586   3.883   3.799 -0.5063 -0.1703  2.7305
    1OL    H17S 9350   3.744   3.819   3.861 -0.1664 -0.5399 -0.5013
    1OL    C118 9351   3.744   3.924   3.679 -0.1575  0.0182 -0.5103
    1OL    H18R 9352   3.703   4.018   3.639 -2.7116  0.3552  2.7703
    1OL    H18S 9353   3.726   3.839   3.613 -0.7771 -1.2376  1.2537
    1OL    H18T 9354   3.852   3.938   3.687 -0.3025  1.4717 -0.8856
    1PA    C116 9355   0.279   2.594   4.202 -0.3947  0.1143 -0.9803
    1PA    H16R 9356   0.311   2.696   4.184 -1.4713  0.7798  0.7486
    1PA    H16S 9357   0.373   2.543   4.224  0.4943  1.2633 -2.0707
    1PA    H16T 9358   0.223   2.599   4.296 -0.7940 -1.8222 -1.0871
    1PA    C115 9359   0.205   2.520   4.085  0.3695  0.0681  0.6095
    1PA    H15R 9360   0.127   2.578   4.035 -1.1447 -1.6827  0.8952
    1PA    H15S 9361   0.270   2.501   3.999 -1.9873  0.3915 -1.2638
    1PA    C114 9362   0.134   2.390   4.135 -0.2997 -0.5406 -0.0982
    1PA    H14R 9363   0.062   2.421   4.210 -2.9078  2.4684 -3.6832
    1PA    H14S 9364   0.068   2.348   4.059  0.8076 -0.0203 -1.3784
    1PA    C113 9365   0.230   2.278   4.189 -0.5893 -0.0443  0.8136
    1PA    H13R 9366   0.315   2.260   4.123 -0.6761  1.4145  0.2832
    1PA    H13S 9367   0.263   2.311   4.287  2.0114  1.0513 -0.3929
    1PA    C112 9368   0.165   2.140   4.212 -0.5222 -0.6749 -0.6235
    1PA    H12R 9369   0.228   2.070   4.268  0.9681  0.5216 -0.7635
    1PA    H12S 9370   0.081   2.169   4.274 -0.5115 -2.0680  0.0590
    1PA    C111 9371   0.114   2.067   4.079 -0.3626  0.3760 -0.0402
    1PA    H11R 9372   0.069   2.134   4.005 -2.8883 -0.4242  0.7267
    1PA    H11S 9373   0.205   2.029   4.032 -1.6584  0.1164 -2.4066
    1PA    C110 9374   0.017   1.953   4.122  0.5090 -0.1541 -0.2738
    1PA    H10R 9375   0.071   1.880   4.182 -0.7729 -1.7618 -1.0396
    1PA    H10S 9376  -0.059   1.989   4.191  0.8413  2.1740 -1.0507
    1PA     C19 9377  -0.046   1.893   4.001 -0.1004 -0.3792 -0.5019
    1PA     H9R 9378   0.032   1.858   3.934  1.2469 -0.4402  1.0718
    1PA     H9S 9379  -0.089   1.798   4.032  0.0747 -0.1412  0.4758
    1PA     C18 9380  -0.142   1.994   3.917  0.0948 -0.3747  0.1789
    1PA     H8R 9381  -0.221   2.020   3.988 -1.7181 -0.4777 -1.7534
    1PA     H8S 9382  -0.093   2.088   3.892  0.5329 -0.6970 -0.1802
    1PA     C17 9383  -0.190   1.928   3.789  0.7646  0.0664 -0.5968
    1PA     H7R 9384  -0.244   2.005   3.735  1.8970  2.7751  1.9847
    1PA     H7S 9385  -0.104   1.889   3.734  0.6547  0.3074 -0.9408
    1PA     C16 9386  -0.277   1.804   3.813  0.7603  0.3319  0.3049
    1PA     H6R 9387  -0.217   1.724   3.858  0.3878  0.1800  0.5368
    1PA     H6S 9388  -0.357   1.833   3.882 -2.8967  0.7167 -3.8933
    1PA     C15 9389  -0.341   1.754   3.682 -0.1388 -0.6269 -0.6231
    1PA     H5R 9390  -0.398   1.831   3.630 -1.2318 -0.4790  0.7620
    1PA     H5S 9391  -0.254   1.742   3.617  0.4028 -0.9450  0.1590
    1PA     C14 9392  -0.412   1.619   3.693  0.1054 -0.1145 -0.0620
    1PA     H4R 9393  -0.422   1.582   3.591 -1.1329  0.6197 -0.2137
    1PA     H4S 9394  -0.346   1.550   3.744  1.1220  0.4772 -0.5554
    1PA     C13 9395  -0.549   1.612   3.764 -0.3608 -0.1243  0.4218
    1PA     H3R 9396  -0.573   1.508   3.786 -1.2490 -0.2496 -1.0711
    1PA     H3S 9397  -0.548   1.660   3.862 -2.7307 -1.2321  1.0222
    1PA     C12 9398  -0.662   1.675   3.685  0.3345 -0.3780 -0.6908
    1PA     H2R 9399  -0.759   1.673   3.735 -1.2908  0.5179 -3.7099
    1PA     H2S 9400  -0.637   1.774   3.644  0.6933 -0.2887 -0.2608
    1PC     C11 9401  -0.686   1.581   3.562 -1.2488 -0.2320 -0.2344
    1PC     O12 9402  -0.637   1.581   3.450  0.8140  0.4570 -0.4599
    1PC     O11 9403  -0.791   1.500   3.588  0.1455 -0.3472 -0.1168
    1PC      C1 9404  -0.825   1.405   3.484  0.1210 -0.6548 -0.2341
    1PC      HR 9405  -0.919   1.354   3.509 -0.8433  1.2852  0.2125
    1PC      HS 9406  -0.843   1.455   3.389 -0.8387 -0.3792  0.0798
    1PC      C2 9407  -0.719   1.290   3.472 -0.2513 -0.9177 -0.2098
    1PC      HX 9408  -0.635   1.331   3.416 -1.0538  2.0157  0.6328
    1PC      C3 9409  -0.777   1.170   3.400  0.3550  0.5491 -0.0525
    1PC      HA 9410  -0.711   1.083   3.399 -0.8776 -0.3967 -0.1572
    1PC      HB 9411  -0.869   1.134   3.446  1.2031  0.7200  1.8439
    1PC     O31 9412  -0.799   1.203   3.262  0.1116  0.2963 -0.0123
    1PC     P31 9413  -0.679   1.210   3.157  0.3395 -0.1892  0.3690
    1PC     O32 9414  -0.644   1.367   3.150 -0.2196 -0.4513 -0.8154
    1PC     C31 9415  -0.741   1.467   3.131 -0.2922 -0.1722 -0.2229
    1PC     H1A 9416  -0.834   1.416   3.103 -0.7084  0.0967  0.6515
    1PC     H1B 9417  -0.758   1.539   3.211 -0.9447 -0.1146 -0.4096
    1PC     C32 9418  -0.700   1.536   3.000 -0.0868  0.8298  0.4630
    1PC     H2A 9419  -0.664   1.454   2.938 -1.5166 -0.0563  0.7686
    1PC     H2B 9420  -0.784   1.589   2.955  0.6091 -0.1566 -2.0484
    1PC     N31 9421  -0.594   1.641   3.011  0.2207  0.4324  1.0690
    1PC     C33 9422  -0.629   1.754   3.101  0.9379  0.2556  0.0500
    1PC     H3A 9423  -0.734   1.769   3.076  0.9938  0.5037 -0.0381
    1PC     H3B 9424  -0.629   1.705   3.199 -1.6777  0.1599  0.0242
    1PC     H3C 9425  -0.568   1.845   3.100 -0.4034  1.1549 -0.0691
    1PC     C34 9426  -0.460   1.585   3.043 -0.5347 -0.1063 -0.1871
    1PC     H4A 9427  -0.459   1.569   3.151  0.2858 -0.9753 -0.3179
    1PC     H4B 9428  -0.433   1.489   2.997  3.8292  0.4512  0.9738
    1PC     H4C 9429  -0.388   1.665   3.023 -1.0878  1.1916  2.7074
    1PC     C35 9430  -0.589   1.711   2.876  0.2556  0.4612  0.1357
    1PC     H5A 9431  -0.526   1.799   2.888  2.0658 -1.0839  2.3693
    1PC     H5B 9432  -0.689   1.742   2.847  0.7132  1.9668  0.1188
    1PC     H5C 9433  -0.552   1.644   2.798  0.4718 -2.1526  2.3844
    1PC     O33 9434  -0.559   1.143   3.206  0.1968 -0.2625 -1.1053
    1PC     O34 9435  -0.723   1.167   3.020  0.3668  0.0621  0.0790
    1PC     O21 9436  -0.681   1.234   3.605  0.2340 -0.7176  0.2436
    1PC     C21 9437  -0.564   1.273   3.657  1.1761 -0.2419  0.1003
    1PC     O22 9438  -0.480   1.325   3.597 -0.0770 -0.2172 -0.8962
    1OL     C12 9439  -0.553   1.233   3.795  0.2405  0.6250 -0.1400
    1OL     H2R 9440  -0.589   1.132   3.815 -0.3624  1.2134  1.8596
    1OL     H2S 9441  -0.621   1.298   3.851  1.5684  0.1704  2.0406
    1OL     C13 9442  -0.410   1.248   3.854  0.2060  0.4031  1.6887
    1OL     H3R 9443  -0.383   1.353   3.857  3.0020 -0.2748  1.2894
    1OL     H3S 9444  -0.341   1.204   3.782  1.1963 -0.0140  2.8697
    1OL     C14 9445  -0.397   1.173   3.993  0.2585  0.2148  0.2086
    1OL     H4R 9446  -0.299   1.195   4.036  0.8570  1.3193 -1.6666
    1OL     H4S 9447  -0.410   1.065   3.977  0.6156  0.2664 -0.4380
    1OL     C15 9448  -0.505   1.207   4.093  0.4801  0.0551 -0.2250
    1OL     H5R 9449  -0.482   1.150   4.184 -2.4998  0.7775  1.0226
    1OL     H5S 9450  -0.602   1.172   4.057 -0.0002  1.3692 -0.2334
    1OL     C16 9451  -0.521   1.357   4.137 -1.1844 -0.2217  0.0927
    1OL     H6R 9452  -0.605   1.351   4.206 -1.2868 -2.2261 -0.1632
    1OL     H6S 9453  -0.532   1.425   4.052 -0.0533  0.8026  0.7566
    1OL     C17 9454  -0.401   1.396   4.225 -0.4438  0.0487  0.4471
    1OL     H7R 9455  -0.303   1.375   4.183 -0.7410  2.2941 -1.4421
    1OL     H7S 9456  -0.406   1.329   4.312  0.1597  0.9221  1.1600
    1OL     C18 9457  -0.418   1.547   4.256  0.1805  0.1548 -0.2992
    1OL     H8R 9458  -0.522   1.578   4.273 -0.2285 -2.4832  2.3684
    1OL     H8S 9459  -0.395   1.595   4.160  0.3849  1.8279  0.5627
    1OL     C19 9460  -0.329   1.601   4.363  0.0149  0.4733 -0.1984
    1OL     H9R 9461  -0.249   1.532   4.389 -3.4674 -3.2674  1.1869
    1OL    C110 9462  -0.340   1.719   4.424 -0.1442  0.1040  0.6549
    1OL    H10R 9463  -0.268   1.752   4.497  0.9026  0.5580 -0.5745
    1OL    C111 9464  -0.447   1.814   4.389 -0.3800  0.2823  0.3950
    1OL    H11R 9465  -0.478   1.880   4.470 -0.3652  2.5715 -1.4051
    1OL    H11S 9466  -0.532   1.747   4.374 -1.3177  1.3229  1.0314
    1OL    C112 9467  -0.417   1.896   4.269 -0.1796 -0.0907  0.3365
    1OL    H12R 9468  -0.373   1.827   4.198  0.8152  0.9027 -0.0290
    1OL    H12S 9469  -0.339   1.969   4.291 -0.6156 -0.7062  4.1853
    1OL    C113 9470  -0.543   1.962   4.214 -0.3017 -0.8368  0.9591
    1OL    H13R 9471  -0.587   2.021   4.295 -1.9868 -0.5188 -0.1563
    1OL    H13S 9472  -0.619   1.890   4.183 -0.8184  0.2364 -0.3336
    1OL    C114 9473  -0.525   2.059   4.093 -0.2050 -0.6552 -0.2382
    1OL    H14R 9474  -0.487   1.998   4.010  2.0819 -0.2470  0.4556
    1OL    H14S 9475  -0.451   2.138   4.103 -0.1561 -0.7270 -0.0239
    1OL    C115 9476  -0.667   2.110   4.059 -0.0250 -0.2161 -0.6942
    1OL    H15R 9477  -0.709   2.146   4.154 -0.3928  0.9812 -1.2893
    1OL    H15S 9478  -0.728   2.025   4.028  0.5264 -0.9038  0.0848
    1OL    C116 9479  -0.669   2.230   3.953 -0.0419 -0.0489  0.0339
    1OL    H16R 9480  -0.596   2.304   3.987 -0.4279 -1.1673  3.4376
    1OL    H16S 9481  -0.770   2.268   3.936  0.2626 -0.4328 -2.8290
    1OL    C117 9482  -0.634   2.175   3.809 -0.4135 -0.2169  0.8835
    1OL    H17R 9483  -0.709   2.096   3.798 -0.7856  0.2486  0.0902
    1OL    H17S 9484  -0.534   2.132   3.819 -1.2200 -3.2679 -3.0676
    1OL    C118 9485  -0.653   2.280   3.704 -0.8251  0.0540 -0.1445
    1OL    H18R 9486  -0.601   2.247   3.614  2.5552  1.9264  1.0308
    1OL    H18S 9487  -0.610   2.375   3.737 -1.1007  0.7382 -1.7137
    1OL    H18T 9488  -0.758   2.301   3.682 -0.3630  2.5818 -0.1441
    1PA    C116 9489   5.150   1.490   4.688 -0.3709 -0.1818 -0.1576
    1PA    H16R 9490   5.077   1.505   4.768  0.3834  0.0670  0.5004
    1PA    H16S 9491   5.155   1.579   4.626 -1.2742 -1.1848 -1.6986
    1PA    H16T 9492   5.251   1.476   4.728 -0.7258 -1.1193  0.4356
    1PA    C115 9493   5.097   1.378   4.597 -0.4868  0.1582 -0.2669
    1PA    H15R 9494   5.011   1.416   4.541  2.0630  1.8778 -3.1710
    1PA    H15S 9495   5.171   1.370   4.517 -1.1719  0.5035 -0.9510
    1PA    C114 9496   5.045   1.248   4.663 -0.2624 -0.1055 -0.0290
    1PA    H14R 9497   5.115   1.213   4.739 -0.6919  0.3201  0.5707
    1PA    H14S 9498   4.956   1.273   4.721 -1.4382 -0.2122 -1.7461
    1PA    C113 9499   4.999   1.135   4.563 -0.8010  0.0793 -0.2752
    1PA    H13R 9500   4.928   1.063   4.604  0.3091 -0.8595  0.0140
    1PA    H13S 9501   4.952   1.185   4.478  0.5526 -0.8813 -1.6192
    1PA    C112 9502   5.111   1.051   4.490 -0.2270  0.2770  0.9533
    1PA    H12R 9503   5.196   1.107   4.452  0.9582 -2.3449 -0.3806
    1PA    H12S 9504   5.154   0.982   4.563  0.3508  0.0290  0.3752
    1PA    C111 9505   5.069   0.966   4.368 -0.0981  0.3499  0.1422
    1PA    H11R 9506   5.021   1.040   4.304  0.2364 -0.2874 -0.8494
    1PA    H11S 9507   5.157   0.923   4.320 -0.3484 -0.1073  0.0928
    1PA    C110 9508   4.970   0.855   4.398  0.3732  0.1345 -0.0191
    1PA    H10R 9509   5.004   0.797   4.484 -3.4050  0.6350  1.9252
    1PA    H10S 9510   4.880   0.904   4.437  0.1013 -0.7595  0.4786
    1PA     C19 9511   4.923   0.777   4.275  0.6384  0.0271 -0.3108
    1PA     H9R 9512   4.891   0.847   4.197 -1.0031  0.8946  1.0893
    1PA     H9S 9513   5.004   0.719   4.231 -0.0940 -3.0976  2.2899
    1PA     C18 9514   4.810   0.678   4.324  1.0508  0.0670  0.0593
    1PA     H8R 9515   4.810   0.576   4.284 -1.1855  0.7354 -1.7375
    1PA     H8S 9516   4.816   0.662   4.432 -1.7218  0.4318  0.3077
    1PA     C17 9517   4.667   0.728   4.310 -0.1040  0.2966 -0.5414
    1PA     H7R 9518   4.600   0.654   4.354 -1.4020  1.8275  0.0864
    1PA     H7S 9519   4.653   0.815   4.374  2.9629 -0.0542  0.6726
    1PA     C16 9520   4.616   0.759   4.166 -0.5060  0.0888  0.1689
    1PA     H6R 9521   4.507   0.763   4.172 -0.4356 -0.7782  2.2982
    1PA     H6S 9522   4.635   0.859   4.128 -0.0608  0.3537  1.0879
    1PA     C15 9523   4.648   0.659   4.057  0.5208 -0.5642 -0.4850
    1PA     H5R 9524   4.755   0.642   4.048  0.3146 -1.2757 -1.6490
    1PA     H5S 9525   4.605   0.566   4.094  3.7046 -1.2420  1.7044
    1PA     C14 9526   4.595   0.690   3.914 -0.2180 -0.5037 -0.7128
    1PA     H4R 9527   4.626   0.611   3.845  2.2919 -0.2606  0.0718
    1PA     H4S 9528   4.486   0.693   3.914 -0.2684 -1.0140  1.5720
    1PA     C13 9529   4.646   0.821   3.845  0.3558  0.4346 -0.3368
    1PA     H3R 9530   4.648   0.897   3.923 -1.6667 -0.0556  0.2339
    1PA     H3S 9531   4.753   0.814   3.824  0.5168 -0.5939  0.8056
    1PA     C12 9532   4.564   0.862   3.720 -0.0385 -0.0569  0.7450
    1PA     H2R 9533   4.461   0.854   3.754 -0.6221  1.1990 -0.6407
    1PA     H2S 9534   4.586   0.967   3.696  0.4416  0.0420  1.5700
    1PC     C11 9535   4.575   0.775   3.587  0.2148  0.1862 -0.6228
    1PC     O12 9536   4.654   0.789   3.491 -0.1440  0.2317  0.8992
    1PC     O11 9537   4.471   0.684   3.577 -0.1007  0.2039  0.2591
    1PC      C1 9538   4.444   0.612   3.454  0.3073  0.0617  1.3700
    1PC      HR 9539   4.469   0.671   3.365  0.9951  0.4157  1.7973
    1PC      HS 9540   4.499   0.518   3.444 -2.7088 -1.4065 -3.4107
    1PC      C2 9541   4.294   0.581   3.439  0.2202  0.2007 -0.5257
    1PC      HX 9542   4.270   0.540   3.341  3.7602  0.4026 -1.5255
    1PC      C3 9543   4.212   0.714   3.449 -0.5728 -0.2960  0.2860
    1PC      HA 9544   4.152   0.709   3.540  0.5559 -0.4577  1.0366
    1PC      HB 9545   4.280   0.799   3.453 -2.2246  1.1080 -0.9986
    1PC     O31 9546   4.114   0.721   3.341 -0.3217  0.4040  0.2567
    1PC     P31 9547   4.150   0.784   3.200  0.0913  0.0596  0.3551
    1PC     O32 9548   4.184   0.940   3.217 -0.2546 -0.2569  0.2616
    1PC     C31 9549   4.263   1.027   3.129  0.0362 -0.3209 -0.7324
    1PC     H1A 9550   4.294   1.117   3.182 -0.4297 -1.0412  0.7985
    1PC     H1B 9551   4.350   0.966   3.100  1.2497  1.3462 -0.6590
    1PC     C32 9552   4.185   1.062   3.001  0.4084  0.0566 -0.0278
    1PC     H2A 9553   4.156   0.969   2.952 -0.1355  0.3545 -0.2834
    1PC     H2B 9554   4.087   1.106   3.023  0.0544 -0.2870 -0.8865
    1PC     N31 9555   4.244   1.150   2.894 -0.0134  0.1203  0.0644
    1PC     C33 9556   4.134   1.169   2.792  0.2639 -0.3724  0.2247
    1PC     H3A 9557   4.173   1.208   2.699 -0.3287 -0.5421 -0.0989
    1PC     H3B 9558   4.089   1.070   2.784  0.4010 -0.3050 -1.5031
    1PC     H3C 9559   4.071   1.248   2.836  1.3714  0.8369 -0.3313
    1PC     C34 9560   4.285   1.280   2.951  0.2170 -0.1265  0.1080
    1PC     H4A 9561   4.358   1.269   3.032 -1.3098 -0.1348  1.5196
    1PC     H4B 9562   4.323   1.344   2.871  0.7509 -0.4251  0.1204
    1PC     H4C 9563   4.197   1.324   2.999  1.3115  0.9940  1.1433
    1PC     C35 9564   4.339   1.082   2.812  0.3636 -0.2269 -0.5231
    1PC     H5A 9565   4.414   1.033   2.873  1.0538  0.8889 -0.4657
    1PC     H5B 9566   4.398   1.155   2.755  0.8503 -0.0323  0.2342
    1PC     H5C 9567   4.285   1.013   2.747 -1.9536 -0.2348  1.3713
    1PC     O33 9568   4.274   0.721   3.150  0.3333 -0.1652  0.0774
    1PC     O34 9569   4.036   0.785   3.108  0.3064  0.2473 -0.6583
    1PC     O21 9570   4.255   0.499   3.555  0.5484 -0.2608  0.0221
    1PC     C21 9571   4.298   0.375   3.553 -0.2954 -0.1383 -0.1833
    1PC     O22 9572   4.359   0.320   3.465  0.5866 -0.1145  0.4654
    1OL     C12 9573   4.282   0.326   3.695  0.1830  0.1048  0.3689
    1OL     H2R 9574   4.265   0.218   3.700 -3.0201  0.5184 -0.5657
    1OL     H2S 9575   4.184   0.358   3.732 -0.8297 -1.3361 -1.0283
    1OL     C13 9576   4.378   0.389   3.802 -0.0213 -0.0174  0.2781
    1OL     H3R 9577   4.355   0.492   3.829  2.4689 -0.2458  3.5788
    1OL     H3S 9578   4.479   0.386   3.762  0.4883  4.3949  0.9824
    1OL     C14 9579   4.369   0.291   3.926 -0.3776 -0.1749  0.7941
    1OL     H4R 9580   4.440   0.314   4.006 -0.4708  1.2006  0.4872
    1OL     H4S 9581   4.394   0.192   3.887 -1.1435  0.2120 -0.6851
    1OL     C15 9582   4.235   0.285   3.993 -0.5495  1.0820 -0.2232
    1OL     H5R 9583   4.212   0.192   4.045  0.6212  1.8409  1.6889
    1OL     H5S 9584   4.151   0.296   3.924 -1.9990 -0.4691  1.2489
    1OL     C16 9585   4.224   0.409   4.084  0.0566  0.1451 -0.0121
    1OL     H6R 9586   4.205   0.503   4.032  0.2496 -1.5494 -3.2262
    1OL     H6S 9587   4.310   0.439   4.144 -0.8688 -0.2812  1.5932
    1OL     C17 9588   4.096   0.392   4.168  0.4000  0.7445  0.8580
    1OL     H7R 9589   4.121   0.299   4.221 -1.0693 -0.1548  0.0216
    1OL     H7S 9590   4.008   0.368   4.107  2.5003 -0.6908 -1.7004
    1OL     C18 9591   4.078   0.516   4.267 -0.4771 -0.0334  0.4116
    1OL     H8R 9592   3.983   0.516   4.320  0.3737 -1.0700  1.9776
    1OL     H8S 9593   4.090   0.599   4.198 -0.4826  1.0606  1.7049
    1OL     C19 9594   4.190   0.540   4.361 -0.7564  0.3617 -0.0299
    1OL     H9R 9595   4.290   0.541   4.317 -0.4474  1.7297  0.6698
    1OL    C110 9596   4.178   0.566   4.492 -0.5729 -1.2672  0.5229
    1OL    H10R 9597   4.259   0.573   4.564  1.1380  1.4681 -1.5500
    1OL    C111 9598   4.051   0.587   4.564 -0.2074 -0.0475 -0.5238
    1OL    H11R 9599   4.005   0.489   4.570 -0.5799  0.1975  0.7318
    1OL    H11S 9600   3.987   0.653   4.505 -0.0136  1.1931  0.6137
    1OL    C112 9601   4.062   0.632   4.709  0.4084  0.6055  0.8938
    1OL    H12R 9602   3.960   0.634   4.746  1.6018 -1.3408  4.5897
    1OL    H12S 9603   4.101   0.734   4.712 -0.2517  0.9267 -0.9450
    1OL    C113 9604   4.140   0.539   4.801  0.3171 -0.0035  0.5541
    1OL    H13R 9605   4.246   0.552   4.777 -0.0968 -0.5535 -1.7055
    1OL    H13S 9606   4.111   0.437   4.775  1.0761  0.3528 -1.7838
    1OL    C114 9607   4.096   0.558   4.950  0.0051 -0.0760  0.3480
    1OL    H14R 9608   3.989   0.540   4.962  0.1235 -0.0839  1.4127
    1OL    H14S 9609   4.105   0.662   4.983 -1.0591 -0.2803  1.3242
    1OL    C115 9610   4.182   0.477   5.053  0.1199  0.3550 -0.2056
    1OL    H15R 9611   4.285   0.498   5.026 -0.0624  2.0395  0.2962
    1OL    H15S 9612   4.153   0.377   5.021  0.0186  0.0977  0.6740
    1OL    C116 9613   4.145   0.492   5.199  0.3783 -0.3110  0.8894
    1OL    H16R 9614   4.168   0.594   5.230  0.1373 -0.0490  0.2146
    1OL    H16S 9615   4.202   0.417   5.255  0.9903  1.1105  2.2025
    1OL    C117 9616   3.995   0.462   5.219 -0.5553 -0.0658 -0.1114
    1OL    H17R 9617   3.987   0.355   5.196 -0.5383 -0.5614  2.0473
    1OL    H17S 9618   3.926   0.507   5.148 -2.4795 -0.7078  1.2972
    1OL    C118 9619   3.944   0.498   5.357 -0.3623  0.3486  0.0100
    1OL    H18R 9620   3.839   0.467   5.356 -0.2752  0.0196  0.8027
    1OL    H18S 9621   3.945   0.607   5.364 -1.2873  0.3085  0.8641
    1OL    H18T 9622   4.007   0.459   5.437 -0.1850 -2.2864 -1.3797
    1PA    C116 9623   1.498   3.004   5.027 -0.1493  0.3133 -0.1901
    1PA    H16R 9624   1.580   3.064   4.987 -0.3991  0.6656 -0.1883
    1PA    H16S 9625   1.504   2.902   4.990  1.3101  0.8361 -1.4065
    1PA    H16T 9626   1.494   2.999   5.136 -1.0391  2.2426 -0.0981
    1PA    C115 9627   1.367   3.056   4.984 -0.4294 -0.4949  0.5452
    1PA    H15R 9628   1.291   2.994   5.031 -0.9589 -0.2201  0.0435
    1PA    H15S 9629   1.354   3.162   5.005  0.5859  0.0164 -1.2995
    1PA    C114 9630   1.343   3.040   4.830  0.3703  0.1283 -0.0439
    1PA    H14R 9631   1.370   2.938   4.803 -1.0863 -0.6285  1.2828
    1PA    H14S 9632   1.239   3.059   4.802  0.4802  3.3323  1.4745
    1PA    C113 9633   1.441   3.121   4.746 -0.2845 -1.0312  0.2368
    1PA    H13R 9634   1.449   3.209   4.811  0.2721 -0.4234 -0.6265
    1PA    H13S 9635   1.543   3.081   4.740  0.2036  0.3858 -1.4111
    1PA    C112 9636   1.390   3.169   4.606  0.3625  0.3029  0.5230
    1PA    H12R 9637   1.386   3.081   4.542 -1.8135  0.1299  0.8540
    1PA    H12S 9638   1.292   3.216   4.620 -0.4683 -1.7100  1.7478
    1PA    C111 9639   1.482   3.275   4.539  0.2928  0.0684 -0.3667
    1PA    H11R 9640   1.519   3.345   4.614  2.8260 -2.4565  0.8433
    1PA    H11S 9641   1.564   3.215   4.499  0.4253  0.8228 -1.2455
    1PA    C110 9642   1.407   3.367   4.428 -0.1965  0.1418 -0.0041
    1PA    H10R 9643   1.482   3.419   4.369 -3.0049  2.4826 -1.6904
    1PA    H10S 9644   1.363   3.296   4.358  0.3048 -0.3840  0.2103
    1PA     C19 9645   1.296   3.469   4.471  0.0388  0.4531  0.0739
    1PA     H9R 9646   1.216   3.421   4.526 -0.2437  0.0017 -0.7201
    1PA     H9S 9647   1.327   3.547   4.541 -2.9896  0.2626  1.7059
    1PA     C18 9648   1.230   3.542   4.355 -0.7078  0.1843 -0.4787
    1PA     H8R 9649   1.302   3.565   4.277 -1.5448 -1.3692 -1.7329
    1PA     H8S 9650   1.173   3.473   4.293  0.6216  0.7614 -2.3816
    1PA     C17 9651   1.140   3.657   4.400  0.0816 -0.1017  0.7239
    1PA     H7R 9652   1.073   3.610   4.472 -0.4111  0.5851  0.7130
    1PA     H7S 9653   1.196   3.736   4.450 -0.3581  1.7369 -1.5612
    1PA     C16 9654   1.071   3.730   4.287  0.0553  0.3027  0.3608
    1PA     H6R 9655   0.992   3.779   4.345  0.6542  1.6773  0.0232
    1PA     H6S 9656   1.136   3.807   4.246  2.1100 -0.5360  1.9814
    1PA     C15 9657   1.000   3.645   4.179  0.8142 -0.4857  0.8383
    1PA     H5R 9658   1.072   3.583   4.126  2.5438 -0.3789  2.9680
    1PA     H5S 9659   0.935   3.576   4.233 -1.4275 -1.4095 -2.8375
    1PA     C14 9660   0.926   3.726   4.061  0.4515  0.2220  0.0834
    1PA     H4R 9661   0.842   3.772   4.112 -0.4655  2.3692 -3.1969
    1PA     H4S 9662   0.985   3.804   4.014  0.4283 -0.2762 -0.7941
    1PA     C13 9663   0.882   3.644   3.941 -0.0126  0.5797 -0.0818
    1PA     H3R 9664   0.832   3.713   3.873 -1.0537  0.8355  0.9215
    1PA     H3S 9665   0.973   3.601   3.899  1.3826  1.8180  1.5848
    1PA     C12 9666   0.785   3.529   3.974 -0.3106 -0.1273  0.3397
    1PA     H2R 9667   0.835   3.452   4.034 -0.0257 -0.6745 -0.5916
    1PA     H2S 9668   0.709   3.570   4.042 -0.1068  1.7726 -0.5493
    1PC     C11 9669   0.715   3.460   3.862 -0.1552  0.2536  0.2637
    1PC     O12 9670   0.618   3.387   3.871 -0.4686 -0.0617 -0.3065
    1PC     O11 9671   0.770   3.489   3.743 -0.0485  0.6494 -0.0323
    1PC      C1 9672   0.686   3.462   3.633 -0.6715  0.1845 -0.0825
    1PC      HR 9673   0.687   3.355   3.613  1.7746  0.0314  0.7018
    1PC      HS 9674   0.579   3.481   3.647 -0.7770 -0.5682  0.1540
    1PC      C2 9675   0.735   3.534   3.503  0.0119  0.3272  0.1482
    1PC      HX 9676   0.664   3.518   3.421 -1.6223  0.5253  1.4944
    1PC      C3 9677   0.880   3.488   3.458 -0.0279  0.4001  0.0439
    1PC      HA 9678   0.940   3.493   3.549  1.7528 -1.5620 -0.9763
    1PC      HB 9679   0.874   3.383   3.430  0.7158  0.4099 -0.1596
    1PC     O31 9680   0.933   3.566   3.347  0.5156 -0.3428 -0.4340
    1PC     P31 9681   0.872   3.569   3.207 -0.1988 -0.1403  0.3961
    1PC     O32 9682   0.752   3.684   3.224 -0.1993 -0.2124 -0.3106
    1PC     C31 9683   0.795   3.821   3.238 -0.1766 -0.1544  0.5029
    1PC     H1A 9684   0.825   3.820   3.343 -1.9793 -1.7452  1.0270
    1PC     H1B 9685   0.866   3.845   3.158 -2.7466  1.4600 -1.3844
    1PC     C32 9686   0.669   3.908   3.215 -0.1704 -0.8910  0.0173
    1PC     H2A 9687   0.587   3.863   3.271 -0.1578 -0.0908  0.6794
    1PC     H2B 9688   0.690   4.011   3.244 -0.1474 -2.1868  5.0971
    1PC     N31 9689   0.609   3.897   3.075 -0.3893 -1.1929 -0.3350
    1PC     C33 9690   0.505   3.785   3.072  0.6009 -0.9642  0.9408
    1PC     H3A 9691   0.543   3.710   3.142 -0.7765 -3.2464 -0.7043
    1PC     H3B 9692   0.416   3.827   3.120  1.1943  0.5819  0.7312
    1PC     H3C 9693   0.493   3.769   2.965  2.7475  1.2476  0.2994
    1PC     C34 9694   0.537   4.026   3.052  0.0897  0.2068  0.3925
    1PC     H4A 9695   0.499   4.041   2.950  1.9842 -0.0201 -0.3677
    1PC     H4B 9696   0.468   4.022   3.136 -2.2827  0.0458 -1.4733
    1PC     H4C 9697   0.613   4.102   3.068  1.9593 -1.8372  1.4433
    1PC     C35 9698   0.712   3.883   2.965  0.2750 -0.4854  0.1386
    1PC     H5A 9699   0.761   3.980   2.956  0.3070 -0.6483 -1.6892
    1PC     H5B 9700   0.657   3.872   2.872 -0.4870 -0.4141  0.5819
    1PC     H5C 9701   0.774   3.796   2.987  1.0043  0.1993  0.8022
    1PC     O33 9702   0.975   3.626   3.117  0.4061  0.9251  0.5747
    1PC     O34 9703   0.809   3.435   3.185 -0.2606 -0.5694  0.3051
    1PC     O21 9704   0.737   3.675   3.535  0.6909  0.5387 -0.3107
    1PC     C21 9705   0.618   3.740   3.540  0.1961  0.1323 -0.1436
    1PC     O22 9706   0.511   3.700   3.503  0.0233 -0.3431  0.5483
    1OL     C12 9707   0.642   3.874   3.608 -0.5456  0.3052 -0.1433
    1OL     H2R 9708   0.651   3.934   3.517  0.7652 -0.0188 -0.2413
    1OL     H2S 9709   0.742   3.880   3.652 -0.8915 -1.8010  0.9896
    1OL     C13 9710   0.530   3.927   3.699  0.0979  0.0114 -0.2708
    1OL     H3R 9711   0.433   3.911   3.651  0.1844  1.6347 -1.0183
    1OL     H3S 9712   0.552   4.031   3.725 -1.7409 -0.2676  2.6121
    1OL     C14 9713   0.525   3.855   3.840  0.0725  0.7336  0.7618
    1OL     H4R 9714   0.617   3.884   3.891 -0.2643  0.2067  1.6738
    1OL     H4S 9715   0.527   3.747   3.823  0.9449  0.9148 -0.3321
    1OL     C15 9716   0.396   3.877   3.921  0.4398 -0.2518  0.4601
    1OL     H5R 9717   0.395   3.795   3.994 -0.1860 -0.4615  0.2162
    1OL     H5S 9718   0.310   3.865   3.856  1.3132  2.9283 -1.3530
    1OL     C16 9719   0.405   4.010   4.001  0.0742  0.7871 -0.8244
    1OL     H6R 9720   0.336   4.000   4.086 -0.7034  0.9121 -1.4331
    1OL     H6S 9721   0.364   4.079   3.927 -0.9126 -0.0823 -1.0940
    1OL     C17 9722   0.540   4.059   4.061  0.4878  0.2547  0.1785
    1OL     H7R 9723   0.539   4.159   4.105  0.9578 -1.3856  4.1306
    1OL     H7S 9724   0.625   4.055   3.992 -0.4075  0.4171 -0.9523
    1OL     C18 9725   0.576   3.960   4.170  0.2254 -0.1406  0.9499
    1OL     H8R 9726   0.570   3.853   4.147 -1.2210  0.7873 -3.4925
    1OL     H8S 9727   0.508   3.971   4.254 -1.3406  0.4844 -0.3654
    1OL     C19 9728   0.715   3.994   4.223  0.2454  0.3039  0.3837
    1OL     H9R 9729   0.778   4.042   4.149  1.2051 -0.3474  0.7602
    1OL    C110 9730   0.747   3.994   4.350 -0.3597 -0.4078  0.3383
    1OL    H10R 9731   0.844   4.037   4.375  0.8355 -1.8449 -1.6535
    1OL    C111 9732   0.656   3.939   4.459 -0.0598 -0.0135  0.0689
    1OL    H11R 9733   0.589   3.866   4.414 -1.7752  2.5629 -1.7075
    1OL    H11S 9734   0.599   4.027   4.491  1.0677  0.3390  1.1614
    1OL    C112 9735   0.732   3.857   4.569  1.1624  0.3410  0.3116
    1OL    H12R 9736   0.776   3.775   4.513 -1.7085  1.0081 -3.0836
    1OL    H12S 9737   0.660   3.816   4.641  1.0415 -0.8325 -0.4568
    1OL    C113 9738   0.841   3.934   4.641 -0.3747 -1.0345  0.2980
    1OL    H13R 9739   0.805   4.036   4.655  2.1972 -0.1098  0.2801
    1OL    H13S 9740   0.927   3.935   4.575 -0.7284 -2.4201 -0.1936
    1OL    C114 9741   0.886   3.867   4.778  0.0399  0.0316  0.7525
    1OL    H14R 9742   0.802   3.846   4.844  0.6979 -0.2258  1.5174
    1OL    H14S 9743   0.946   3.943   4.830 -0.0148  0.4029  0.2750
    1OL    C115 9744   0.960   3.728   4.756 -0.0710  0.2403  0.4918
    1OL    H15R 9745   1.037   3.735   4.679 -0.6630 -0.6597 -0.1886
    1OL    H15S 9746   0.899   3.642   4.729 -0.7409  0.4927  1.1898
    1OL    C116 9747   1.051   3.703   4.878  0.0397  0.4906 -0.4032
    1OL    H16R 9748   1.115   3.791   4.888  0.8107 -0.2297  1.0735
    1OL    H16S 9749   1.118   3.621   4.853  2.3998  2.0676  0.6144
    1OL    C117 9750   0.977   3.678   5.006  0.6201  0.2783  0.2067
    1OL    H17R 9751   0.911   3.593   4.985  0.0262  1.1682 -1.5776
    1OL    H17S 9752   0.917   3.765   5.032 -0.8059 -0.3475 -0.9665
    1OL    C118 9753   1.079   3.654   5.125  0.1385 -0.0335 -0.1960
    1OL    H18R 9754   1.129   3.745   5.158  1.2176 -1.4630  2.2297
    1OL    H18S 9755   1.150   3.576   5.098 -0.3564 -0.4374 -0.3421
    1OL    H18T 9756   1.031   3.621   5.217  0.2141 -0.2598 -0.2380
    1PA    C116 9757   0.513   0.580   4.832  0.4669 -0.1973 -0.6508
    1PA    H16R 9758   0.553   0.560   4.733  0.4601 -1.3233 -0.4327
    1PA    H16S 9759   0.412   0.619   4.822  1.0789  2.0103  1.2354
    1PA    H16T 9760   0.515   0.497   4.903  0.8253  1.0493  0.8410
    1PA    C115 9761   0.599   0.695   4.888  0.6048 -0.2165 -0.1558
    1PA    H15R 9762   0.557   0.727   4.984  0.5175  1.8849 -0.8513
    1PA    H15S 9763   0.702   0.661   4.899  0.3598 -0.6183  1.0448
    1PA    C114 9764   0.582   0.824   4.806  0.3396  0.3549  0.1903
    1PA    H14R 9765   0.485   0.868   4.831 -1.1469 -2.8412  0.2868
    1PA    H14S 9766   0.663   0.890   4.837  1.5707  0.0695 -2.2956
    1PA    C113 9767   0.576   0.815   4.653 -0.0320  0.4917 -0.0848
    1PA    H13R 9768   0.666   0.762   4.620 -0.7461 -0.6284 -0.2541
    1PA    H13S 9769   0.490   0.755   4.623  0.1328  0.2831 -0.1458
    1PA    C112 9770   0.574   0.954   4.591 -0.2983 -0.3684 -0.5880
    1PA    H12R 9771   0.478   1.004   4.604  0.5478  0.8242  1.2287
    1PA    H12S 9772   0.637   1.023   4.647 -1.7586  1.3716 -1.0497
    1PA    C111 9773   0.622   0.962   4.443 -0.0421  0.1662 -0.0468
    1PA    H11R 9774   0.718   0.914   4.427 -0.2528 -0.0653 -0.6091
    1PA    H11S 9775   0.550   0.904   4.384 -0.5932  0.7976 -0.0069
    1PA    C110 9776   0.628   1.105   4.391 -0.3092  0.1140 -0.3679
    1PA    H10R 9777   0.539   1.161   4.419  0.1693  0.0601  1.2680
    1PA    H10S 9778   0.722   1.152   4.422 -1.1898  1.7554 -0.1043
    1PA     C19 9779   0.624   1.103   4.235 -0.0243  0.4631  0.0913
    1PA     H9R 9780   0.714   1.048   4.207  1.6841  2.2715  1.8596
    1PA     H9S 9781   0.533   1.061   4.191  0.5403  0.1274 -0.7761
    1PA     C18 9782   0.632   1.242   4.169  0.3212  0.8071  0.2243
    1PA     H8R 9783   0.717   1.295   4.212 -0.9056  0.3037  3.4462
    1PA     H8S 9784   0.657   1.237   4.063  1.1930 -0.2987  0.4798
    1PA     C17 9785   0.499   1.314   4.182  0.1767  0.2146  0.0402
    1PA     H7R 9786   0.423   1.294   4.107  0.4604 -2.2277  0.3614
    1PA     H7S 9787   0.447   1.282   4.273 -0.9243 -0.4780 -0.8307
    1PA     C16 9788   0.503   1.462   4.204  0.7917  0.7916  0.9242
    1PA     H6R 9789   0.415   1.496   4.260  1.7607  1.2256  2.1959
    1PA     H6S 9790   0.591   1.494   4.259  1.5293 -1.7320  1.2757
    1PA     C15 9791   0.499   1.545   4.079 -0.2758  0.3865 -0.2058
    1PA     H5R 9792   0.602   1.549   4.043 -0.0133  2.9516  0.7301
    1PA     H5S 9793   0.428   1.493   4.015 -0.5371 -0.3462  0.6714
    1PA     C14 9794   0.450   1.691   4.082 -1.2506 -0.7185 -0.2991
    1PA     H4R 9795   0.346   1.686   4.114 -1.2968 -0.4644 -0.4097
    1PA     H4S 9796   0.506   1.759   4.148 -0.6227 -0.9209 -0.6233
    1PA     C13 9797   0.469   1.770   3.950  0.4174  0.3459  0.6487
    1PA     H3R 9798   0.422   1.867   3.962  1.3766  0.8227  0.6112
    1PA     H3S 9799   0.574   1.786   3.924  0.9521 -0.4777  2.2742
    1PA     C12 9800   0.393   1.705   3.832 -0.9547 -0.3763  0.4823
    1PA     H2R 9801   0.406   1.597   3.826 -0.5982 -0.3135  0.1021
    1PA     H2S 9802   0.291   1.731   3.862 -0.9317  5.3972 -3.6353
    1PC     C11 9803   0.442   1.762   3.699  0.5448 -0.0029  0.1844
    1PC     O12 9804   0.385   1.853   3.642  0.0990 -0.4143 -0.5457
    1PC     O11 9805   0.559   1.708   3.667 -0.1939  0.0000 -0.2178
    1PC      C1 9806   0.635   1.754   3.553  0.3326  0.1002 -0.1894
    1PC      HR 9807   0.572   1.776   3.467 -0.5413  1.6494  0.8220
    1PC      HS 9808   0.681   1.851   3.574 -1.2382  1.0138 -0.8648
    1PC      C2 9809   0.742   1.645   3.511  0.1238 -0.0971  0.9192
    1PC      HX 9810   0.818   1.689   3.446  0.7030 -1.9664  0.3152
    1PC      C3 9811   0.674   1.525   3.439  0.0285  0.4922 -0.2554
    1PC      HA 9812   0.747   1.443   3.431  1.6503  1.7992  0.9591
    1PC      HB 9813   0.581   1.495   3.488  0.2307  2.1313  1.1386
    1PC     O31 9814   0.643   1.570   3.306  0.6631  0.0528 -0.3973
    1PC     P31 9815   0.748   1.557   3.187  0.0236  0.4751  0.6829
    1PC     O32 9816   0.714   1.412   3.140 -0.3828 -0.1956 -0.0545
    1PC     C31 9817   0.587   1.384   3.077 -0.7846 -0.1483 -0.0883
    1PC     H1A 9818   0.535   1.297   3.118  0.1326 -1.0183 -0.7589
    1PC     H1B 9819   0.520   1.471   3.087  0.3843  0.8268 -0.6303
    1PC     C32 9820   0.615   1.355   2.928 -0.1406 -0.2267  0.3505
    1PC     H2A 9821   0.666   1.443   2.890  0.7359 -0.3749  1.1527
    1PC     H2B 9822   0.688   1.275   2.915 -2.8950 -2.5334 -1.4203
    1PC     N31 9823   0.506   1.301   2.843 -0.6399 -0.2412  0.2440
    1PC     C33 9824   0.474   1.161   2.878 -0.2840  1.0379 -0.4987
    1PC     H3A 9825   0.562   1.097   2.867  0.6320  2.3091 -0.7286
    1PC     H3B 9826   0.437   1.153   2.980 -2.4375 -0.3564 -1.3589
    1PC     H3C 9827   0.393   1.116   2.820  0.8417 -1.6522 -0.0472
    1PC     C34 9828   0.378   1.375   2.847  0.5731 -0.0347  0.4413
    1PC     H4A 9829   0.346   1.362   2.950  1.7243  0.6783  0.8907
    1PC     H4B 9830   0.412   1.477   2.829 -0.9670  0.3396 -0.5398
    1PC     H4C 9831   0.310   1.343   2.767  0.0705  1.5308  0.2271
    1PC     C35 9832   0.544   1.302   2.698  0.1844 -0.2647 -0.8425
    1PC     H5A 9833   0.648   1.275   2.685  0.2709 -0.1627 -0.3666
    1PC     H5B 9834   0.533   1.407   2.669 -1.1921  0.0817  0.8098
    1PC     H5C 9835   0.475   1.234   2.647 -0.3669  0.0747 -0.5559
    1PC     O33 9836   0.716   1.646   3.066 -0.1367 -0.0791  0.0826
    1PC     O34 9837   0.886   1.556   3.243  0.2522 -0.0614 -0.2676
    1PC     O21 9838   0.815   1.582   3.623  0.4769 -0.0359  0.2272
    1PC     C21 9839   0.905   1.651   3.685  0.3949 -0.2849  0.0995
    1PC     O22 9840   0.945   1.755   3.649  0.1571 -0.1151  0.7620
    1OL     C12 9841   0.955   1.587   3.814  0.6183  0.1853 -0.4412
    1OL     H2R 9842   1.039   1.650   3.843  0.4571  0.2252 -0.0605
    1OL     H2S 9843   0.976   1.481   3.796 -0.7170  0.2358 -2.4523
    1OL     C13 9844   0.848   1.598   3.916 -0.1500 -0.5024 -0.4011
    1OL     H3R 9845   0.763   1.545   3.873 -0.6455  1.7743 -2.3792
    1OL     H3S 9846   0.819   1.699   3.946 -2.9038 -1.2728 -0.3325
    1OL     C14 9847   0.892   1.524   4.046  0.2885  0.5309  0.4706
    1OL     H4R 9848   0.895   1.417   4.024 -3.1089  0.1790  1.4686
    1OL     H4S 9849   0.812   1.536   4.120  1.4155  1.2033  1.6076
    1OL     C15 9850   1.018   1.581   4.114  0.7016 -0.1025 -0.4716
    1OL     H5R 9851   1.106   1.554   4.055  0.9578 -2.0997  0.7679
    1OL     H5S 9852   1.044   1.516   4.197  0.6356  2.0134  1.2448
    1OL     C16 9853   1.017   1.733   4.153  0.1002 -0.1364 -0.3338
    1OL     H6R 9854   0.991   1.785   4.061  1.2345  1.5726  0.2796
    1OL     H6S 9855   1.109   1.771   4.197  0.8009  0.0429 -1.9343
    1OL     C17 9856   0.898   1.767   4.252  0.2360  0.2043  0.0432
    1OL     H7R 9857   0.806   1.739   4.199  2.3439 -3.7042 -1.7703
    1OL     H7S 9858   0.898   1.873   4.277 -0.5745 -0.0827  1.2943
    1OL     C18 9859   0.915   1.689   4.383 -0.7326  0.1411  0.4285
    1OL     H8R 9860   0.898   1.582   4.365 -2.3784  0.3125  0.8462
    1OL     H8S 9861   0.833   1.715   4.451 -0.1309 -0.1721  1.2711
    1OL     C19 9862   1.046   1.716   4.451 -0.3164 -0.1882 -0.0374
    1OL     H9R 9863   1.133   1.682   4.395 -0.2069  0.2062 -0.1075
    1OL    C110 9864   1.071   1.795   4.550 -0.1747  0.4859  0.1188
    1OL    H10R 9865   1.174   1.808   4.581  0.1490  0.6898 -1.0329
    1OL    C111 9866   0.965   1.872   4.627  0.7576 -0.9353  0.4726
    1OL    H11R 9867   0.874   1.899   4.575  0.0249 -2.0098  1.1634
    1OL    H11S 9868   1.020   1.963   4.652  0.4064 -0.6083  0.0612
    1OL    C112 9869   0.919   1.800   4.755 -0.7642 -0.3714  0.1828
    1OL    H12R 9870   1.003   1.802   4.825 -0.5095  0.0749 -0.1355
    1OL    H12S 9871   0.900   1.695   4.733  1.1252 -0.8772  0.8922
    1OL    C113 9872   0.792   1.850   4.824  0.1443  0.2564  0.5245
    1OL    H13R 9873   0.780   1.785   4.911  4.0325  1.3561  1.9907
    1OL    H13S 9874   0.702   1.849   4.763  1.2619 -0.6987 -1.1561
    1OL    C114 9875   0.812   1.990   4.885  0.9682  0.0363 -0.0171
    1OL    H14R 9876   0.822   2.059   4.800  3.0585  1.3662  1.2548
    1OL    H14S 9877   0.907   1.988   4.939  0.9170 -1.2924  0.0269
    1OL    C115 9878   0.700   2.041   4.980  0.4684  0.5315 -0.4344
    1OL    H15R 9879   0.607   2.044   4.922  0.0973 -0.0976  0.1251
    1OL    H15S 9880   0.724   2.146   4.994 -0.6809  1.0441 -2.1145
    1OL    C116 9881   0.678   1.965   5.113  0.1584 -0.0571  0.3722
    1OL    H16R 9882   0.765   1.982   5.176 -1.2578  1.4866  1.9344
    1OL    H16S 9883   0.659   1.858   5.098 -1.4939  0.3135 -0.3551
    1OL    C117 9884   0.561   2.021   5.192  0.0219  0.3402  0.2789
    1OL    H17R 9885   0.473   1.980   5.141  0.4425 -1.6147  1.0786
    1OL    H17S 9886   0.561   2.130   5.181  0.3123  0.3781  0.6645
    1OL    C118 9887   0.561   1.989   5.333  0.3685  0.2464  0.1055
    1OL    H18R 9888   0.490   2.062   5.374 -0.4967  0.1154 -1.1284
    1OL    H18S 9889   0.657   2.009   5.381  0.3936  1.5035 -0.4381
    1OL    H18T 9890   0.524   1.887   5.347 -0.9959  0.7024 -0.0452
    1PA    C116 9891   0.211   2.113   5.192 -0.1049  0.1150 -0.1936
    1PA    H16R 9892   0.178   2.161   5.284 -0.4666 -1.2684  0.4142
    1PA    H16S 9893   0.283   2.043   5.234  0.0241  0.1704 -0.3195
    1PA    H16T 9894   0.127   2.063   5.143 -0.0830 -1.6025  1.4622
    1PA    C115 9895   0.284   2.219   5.101 -0.1445  0.6650 -0.5965
    1PA    H15R 9896   0.224   2.309   5.087 -0.9658  0.2710  0.3466
    1PA    H15S 9897   0.381   2.251   5.138 -0.0393  0.3495 -0.6033
    1PA    C114 9898   0.298   2.153   4.963 -0.1773 -0.7685 -0.3329
    1PA    H14R 9899   0.355   2.063   4.983  2.4248  0.8514 -0.2187
    1PA    H14S 9900   0.196   2.121   4.941 -0.7460  1.2057 -0.6994
    1PA    C113 9901   0.356   2.246   4.852 -0.4530  0.2097 -1.0594
    1PA    H13R 9902   0.400   2.177   4.781  0.5660 -0.8212  0.5338
    1PA    H13S 9903   0.273   2.306   4.816 -1.1849  0.9616  1.7055
    1PA    C112 9904   0.462   2.339   4.914 -0.3545  0.3070  0.0405
    1PA    H12R 9905   0.428   2.419   4.980 -1.9626  0.8843 -1.4756
    1PA    H12S 9906   0.528   2.276   4.974 -1.5941  0.3319  1.4665
    1PA    C111 9907   0.551   2.396   4.798  0.1323  0.0704  0.4869
    1PA    H11R 9908   0.633   2.443   4.851 -0.2296 -1.2461  2.2551
    1PA    H11S 9909   0.587   2.321   4.727 -0.3759 -0.5675  0.8913
    1PA    C110 9910   0.473   2.502   4.717 -0.2457 -0.4130 -0.3975
    1PA    H10R 9911   0.394   2.452   4.659 -0.6375  0.4180 -0.5991
    1PA    H10S 9912   0.416   2.566   4.785  1.0516 -1.2309  1.4908
    1PA     C19 9913   0.563   2.579   4.622  0.2359  0.2583 -0.0894
    1PA     H9R 9914   0.519   2.678   4.609  1.6088  0.6351 -1.9918
    1PA     H9S 9915   0.656   2.594   4.678 -0.3613 -1.9513  1.5754
    1PA     C18 9916   0.587   2.511   4.488  0.0950 -0.0398 -0.2699
    1PA     H8R 9917   0.655   2.426   4.502  1.1354  0.4494 -2.2003
    1PA     H8S 9918   0.495   2.482   4.436  0.0969 -0.6470  0.0538
    1PA     C17 9919   0.656   2.611   4.388  0.3423  0.5605  0.1662
    1PA     H7R 9920   0.577   2.685   4.380  1.2401  1.6633  1.3149
    1PA     H7S 9921   0.751   2.647   4.427  1.0694 -0.1213 -0.9157
    1PA     C16 9922   0.685   2.523   4.259 -0.2456  0.0571  0.0572
    1PA     H6R 9923   0.736   2.429   4.284  1.5165  0.5320 -1.6442
    1PA     H6S 9924   0.593   2.487   4.214  0.1866 -0.3253 -0.5289
    1PA     C15 9925   0.757   2.588   4.138  0.7833  0.0217  0.1798
    1PA     H5R 9926   0.696   2.670   4.099  0.6490 -0.3273 -0.3442
    1PA     H5S 9927   0.852   2.632   4.170  1.8879 -0.0034 -2.9507
    1PA     C14 9928   0.774   2.495   4.013  0.1232 -0.1862 -0.3975
    1PA     H4R 9929   0.840   2.408   4.020 -1.0176 -0.8836  1.9892
    1PA     H4S 9930   0.682   2.436   4.007  0.8165 -1.0553 -3.4196
    1PA     C13 9931   0.803   2.571   3.885 -0.2057  0.0142 -0.2207
    1PA     H3R 9932   0.891   2.635   3.897 -0.3586 -0.0625  1.5053
    1PA     H3S 9933   0.833   2.500   3.807 -2.1919 -2.6585  1.3303
    1PA     C12 9934   0.689   2.665   3.842 -0.5458  0.4675 -0.2578
    1PA     H2R 9935   0.600   2.603   3.831 -1.2670  0.8290  3.0917
    1PA     H2S 9936   0.672   2.740   3.919 -1.2080 -3.0981  3.2412
    1PC     C11 9937   0.716   2.734   3.715  0.4472 -0.2927 -0.7840
    1PC     O12 9938   0.719   2.675   3.605  0.0069  0.0539 -0.0974
    1PC     O11 9939   0.738   2.867   3.724  0.7247  0.3845  0.2519
    1PC      C1 9940   0.746   2.945   3.602  0.3704 -0.6053  0.4398
    1PC      HR 9941   0.794   3.043   3.617  3.8470 -2.2185  0.2874
    1PC      HS 9942   0.808   2.888   3.532 -0.2096  1.1237 -1.5450
    1PC      C2 9943   0.608   2.970   3.537 -0.5597 -0.2256  0.3415
    1PC      HX 9944   0.563   2.881   3.493  0.8537 -0.1677 -1.2699
    1PC      C3 9945   0.632   3.059   3.410  0.0127 -0.2641 -0.0215
    1PC      HA 9946   0.649   3.164   3.435  1.3747 -0.8419  1.5130
    1PC      HB 9947   0.719   3.026   3.353 -0.9853 -0.8067 -1.2617
    1PC     O31 9948   0.517   3.060   3.315 -0.3444  0.2364 -0.5256
    1PC     P31 9949   0.500   2.940   3.220 -0.3410 -0.3516  0.4354
    1PC     O32 9950   0.572   2.998   3.089  0.2923 -0.4520  0.4304
    1PC     C31 9951   0.495   3.067   2.991 -0.7829 -0.1847 -0.1098
    1PC     H1A 9952   0.414   3.002   2.957 -0.0428 -0.6747 -0.9534
    1PC     H1B 9953   0.444   3.146   3.048  1.5827 -0.2995  2.2838
    1PC     C32 9954   0.588   3.114   2.875 -0.2130  0.5408 -0.4099
    1PC     H2A 9955   0.547   3.187   2.805 -1.4425 -0.5184 -0.7993
    1PC     H2B 9956   0.675   3.161   2.922 -0.9586  1.6917 -0.1468
    1PC     N31 9957   0.653   3.005   2.787 -0.1556  0.0835  0.1183
    1PC     C33 9958   0.541   2.927   2.727  0.2146  0.5802  0.0981
    1PC     H3A 9959   0.484   2.881   2.808 -1.0235  2.5356  0.3603
    1PC     H3B 9960   0.481   2.994   2.665  0.7119  1.3121  0.3951
    1PC     H3C 9961   0.589   2.852   2.663  3.3479  1.4220  1.3750
    1PC     C34 9962   0.730   3.072   2.672 -0.1381 -0.9182  0.5213
    1PC     H4A 9963   0.656   3.128   2.614  1.9649  2.1327  0.6696
    1PC     H4B 9964   0.807   3.140   2.709  1.6125 -2.0783 -0.8933
    1PC     H4C 9965   0.785   2.999   2.613 -2.3630 -0.4925 -2.2465
    1PC     C35 9966   0.752   2.919   2.862 -0.9401  0.6127 -0.0098
    1PC     H5A 9967   0.843   2.980   2.869 -1.0333  0.7599 -0.0694
    1PC     H5B 9968   0.764   2.829   2.803 -0.1563  2.2463 -2.4251
    1PC     H5C 9969   0.715   2.907   2.964  0.0279 -1.4629  0.1195
    1PC     O33 9970   0.581   2.826   3.266 -0.6624 -0.1732 -0.2079
    1PC     O34 9971   0.361   2.926   3.199 -0.7009  0.2504  0.0018
    1PC     O21 9972   0.512   3.039   3.612 -0.6036 -0.3783  0.6828
    1PC     C21 9973   0.432   2.957   3.690  0.5461  0.2527  0.4295
    1PC     O22 9974   0.436   2.834   3.686 -0.0629  0.0624  0.2688
    1OL     C12 9975   0.345   3.033   3.789 -0.7054  0.2747 -0.0107
    1OL     H2R 9976   0.401   3.123   3.815 -1.2353  0.3439  0.9002
    1OL     H2S 9977   0.342   2.969   3.877  2.6021 -0.3642 -0.2942
    1OL     C13 9978   0.203   3.082   3.743  0.4356  0.0582 -0.6097
    1OL     H3R 9979   0.222   3.122   3.644  0.8670  1.7221  0.1215
    1OL     H3S 9980   0.176   3.164   3.810 -1.4686  0.2645 -1.6186
    1OL     C14 9981   0.091   2.970   3.743  0.1472  0.3525 -0.7101
    1OL     H4R 9982   0.096   2.917   3.647 -0.3621  1.1499 -1.1719
    1OL     H4S 9983  -0.009   3.012   3.741 -0.0502 -0.1433 -1.8427
    1OL     C15 9984   0.099   2.863   3.860 -0.5450 -0.5640  0.1946
    1OL     H5R 9985   0.193   2.809   3.853  1.3367  2.6181 -0.1119
    1OL     H5S 9986   0.019   2.789   3.854 -1.5547  0.5092  0.0854
    1OL     C16 9987   0.082   2.927   4.004 -0.3290 -0.2795 -0.0861
    1OL     H6R 9988   0.145   3.015   4.017 -0.2897 -0.1617 -1.0451
    1OL     H6S 9989   0.119   2.852   4.074  2.6671 -1.1307 -2.4954
    1OL     C17 9990  -0.061   2.961   4.053  0.0040 -0.2220 -0.2649
    1OL     H7R 9991  -0.128   2.881   4.022  0.8418 -0.9123 -0.3069
    1OL     H7S 9992  -0.095   3.059   4.018  2.2710  0.7242  0.0498
    1OL     C18 9993  -0.057   2.975   4.202 -0.2799 -0.1947  0.5417
    1OL     H8R 9994   0.012   3.053   4.235 -0.7745  1.0299 -1.2488
    1OL     H8S 9995  -0.019   2.881   4.243 -1.6072 -0.9410  0.1088
    1OL     C19 9996  -0.189   2.998   4.269 -0.3216 -0.2623  0.3457
    1OL     H9R 9997  -0.277   3.003   4.205  0.3170  1.5470 -0.4289
    1OL    C110 9998  -0.213   3.011   4.399 -0.3698 -0.6285  0.2629
    1OL    H10R 9999  -0.313   3.036   4.431 -1.4474 -2.6801 -1.3701
    1OL    C11110000  -0.108   3.019   4.511  0.4552 -0.4043  0.1214
    1OL    H11R10001  -0.141   3.110   4.561  3.5076  1.2646 -0.7214
    1OL    H11S10002  -0.003   3.031   4.482 -0.2536 -0.4417 -2.6778
    1OL    C11210003  -0.096   2.908   4.609 -0.0438  0.5985  0.2867
    1OL    H12R10004  -0.187   2.915   4.668 -0.9525 -0.9439 -0.8799
    1OL    H12S10005  -0.005   2.939   4.661  0.2537  0.2138 -0.0040
    1OL    C11310006  -0.072   2.766   4.559  0.1999  0.7656 -0.0303
    1OL    H13R10007  -0.005   2.760   4.472  1.1187 -0.6757  0.7604
    1OL    H13S10008  -0.162   2.714   4.526 -0.0809  1.6607 -0.6788
    1OL    C11410009  -0.026   2.679   4.676  0.5284  0.1532 -0.1496
    1OL    H14R10010  -0.109   2.664   4.746 -0.2004 -2.1370 -1.4631
    1OL    H14S10011   0.056   2.730   4.727  0.6096 -1.8713  1.8532
    1OL    C11510012   0.023   2.543   4.640 -0.1602  0.1534  0.1963
    1OL    H15R10013   0.034   2.495   4.738 -1.6186  0.0470  0.3126
    1OL    H15S10014   0.124   2.558   4.600 -0.6675  1.4386 -0.6318
    1OL    C11610015  -0.066   2.461   4.550  0.0466 -0.1543  0.3528
    1OL    H16R10016  -0.068   2.505   4.450  1.5891 -2.5144 -0.7566
    1OL    H16S10017  -0.160   2.453   4.604 -0.1718  0.6342  0.1070
    1OL    C11710018  -0.014   2.318   4.521  0.0607 -0.3327  0.2372
    1OL    H17R10019   0.027   2.273   4.612 -0.2609 -0.2059  0.4490
    1OL    H17S10020   0.082   2.325   4.470  2.1386 -0.2282  3.9486
    1OL    C11810021  -0.111   2.221   4.447  0.1082  0.1542 -0.5698
    1OL    H18R10022  -0.195   2.203   4.515  0.5536 -0.3026 -0.1399
    1OL    H18S10023  -0.065   2.122   4.443  0.2791  0.2378 -0.6939
    1OL    H18T10024  -0.133   2.240   4.342  1.7976  2.0712 -0.6078
    1PA    C11610025   1.829   4.259   4.718  0.1844  0.4494 -0.6603
    1PA    H16R10026   1.880   4.351   4.747 -0.6346  0.8097 -0.3618
    1PA    H16S10027   1.888   4.166   4.718  1.1511  1.0411 -2.3266
    1PA    H16T10028   1.756   4.253   4.799 -0.3540  0.2582 -1.1561
    1PA    C11510029   1.755   4.287   4.586  0.0111  0.0360 -0.0153
    1PA    H15R10030   1.665   4.225   4.582 -2.4685  3.4081  0.9721
    1PA    H15S10031   1.715   4.388   4.594 -1.5921 -0.5871  0.0167
    1PA    C11410032   1.846   4.281   4.457  0.1460  0.2231 -0.0828
    1PA    H14R10033   1.926   4.352   4.477  0.6348 -0.2663 -0.3003
    1PA    H14S10034   1.880   4.179   4.438 -0.6839  0.2929 -2.0777
    1PA    C11310035   1.768   4.328   4.337  0.4022 -0.1507  0.4786
    1PA    H13R10036   1.691   4.251   4.325  1.0991 -0.6047 -1.2014
    1PA    H13S10037   1.722   4.426   4.350  2.4866  1.1382 -1.6376
    1PA    C11210038   1.858   4.338   4.209 -0.5991  0.1040  0.5174
    1PA    H12R10039   1.803   4.369   4.120 -1.3867  0.4503  1.1164
    1PA    H12S10040   1.925   4.422   4.230  2.3699 -2.1454  0.3753
    1PA    C11110041   1.940   4.210   4.171 -0.2754  0.3357  0.2928
    1PA    H11R10042   1.999   4.223   4.080 -2.4267  0.5268 -1.0990
    1PA    H11S10043   2.005   4.178   4.253 -0.9381  0.2395  0.7862
    1PA    C11010044   1.850   4.091   4.151 -0.3301  0.1080 -0.1380
    1PA    H10R10045   1.851   4.030   4.241 -1.0154 -1.2543 -1.0466
    1PA    H10S10046   1.747   4.121   4.130 -0.1955  0.1956 -0.6904
    1PA     C1910047   1.891   3.995   4.035  0.2001 -0.4283 -0.9437
    1PA     H9R10048   1.977   3.937   4.069  2.0602  1.6758 -1.9362
    1PA     H9S10049   1.813   3.920   4.014  1.4714 -2.5340  1.6057
    1PA     C1810050   1.927   4.062   3.899 -0.2464 -0.3367 -0.1276
    1PA     H8R10051   2.030   4.095   3.888 -0.9450  1.2833 -2.1535
    1PA     H8S10052   1.924   3.993   3.815  1.0308  1.8271 -2.0134
    1PA     C1710053   1.820   4.169   3.854  0.2784  0.0303 -0.4067
    1PA     H7R10054   1.801   4.248   3.928  1.7848  0.3791 -0.3822
    1PA     H7S10055   1.863   4.224   3.771 -1.1049  1.7900  0.0149
    1PA     C1610056   1.689   4.100   3.806  0.4340  0.1815 -0.8204
    1PA     H6R10057   1.721   4.041   3.720  0.8147 -0.8203 -0.0040
    1PA     H6S10058   1.652   4.040   3.889 -0.0049  2.0170  0.3394
    1PA     C1510059   1.579   4.199   3.761 -0.0297 -0.1909  0.0546
    1PA     H5R10060   1.481   4.156   3.736  0.7046 -1.4039 -0.7817
    1PA     H5S10061   1.565   4.268   3.845  2.0627  1.3445 -0.8273
    1PA     C1410062   1.621   4.296   3.644 -0.2526  0.4864 -0.1461
    1PA     H4R10063   1.725   4.330   3.639 -0.0444 -0.1421 -0.1438
    1PA     H4S10064   1.612   4.246   3.547 -1.9754 -0.4485  0.4825
    1PA     C1310065   1.543   4.430   3.635 -0.4767  0.4909 -0.2499
    1PA     H3R10066   1.550   4.464   3.738  0.3651 -2.1067  0.6057
    1PA     H3S10067   1.590   4.499   3.565  0.2016  0.3602  0.0654
    1PA     C1210068   1.397   4.419   3.600  0.2616  0.5508  0.4511
    1PA     H2R10069   1.333   4.365   3.670 -0.0347 -1.0991 -1.0520
    1PA     H2S10070   1.363   4.521   3.580 -1.2423 -0.2410 -1.1483
    1PC     C1110071   1.375   4.352   3.467  0.7771  0.4995  0.0647
    1PC     O1210072   1.415   4.396   3.361 -0.4879  0.5612  0.4936
    1PC     O1110073   1.299   4.239   3.480 -0.4147 -0.4981  0.1020
    1PC      C110074   1.247   4.184   3.357  0.4002  0.8719 -0.1202
    1PC      HR10075   1.211   4.267   3.295 -0.3380  0.2186 -0.5710
    1PC      HS10076   1.320   4.126   3.299 -0.1006 -0.5354  0.6391
    1PC      C210077   1.131   4.089   3.378  0.9062 -0.0888 -0.1538
    1PC      HX10078   1.156   4.007   3.447 -1.7067 -1.0003 -0.2239
    1PC      C310079   1.082   4.019   3.246  0.7025 -0.1314  0.1890
    1PC      HA10080   1.142   3.931   3.224 -0.5114 -0.3737 -2.2404
    1PC      HB10081   0.975   4.003   3.264  0.5611 -2.9293 -2.7714
    1PC     O3110082   1.090   4.117   3.138  0.1003 -0.0023 -0.2416
    1PC     P3110083   0.977   4.200   3.069  0.3415  0.1616 -0.4032
    1PC     O3210084   0.997   4.344   3.130  0.7287 -0.3436 -0.0704
    1PC     C3110085   0.951   4.462   3.065  0.4005 -0.0102 -0.0713
    1PC     H1A10086   1.001   4.452   2.968 -0.1645  0.0035 -0.3660
    1PC     H1B10087   0.843   4.450   3.054 -0.0509  0.6220  3.0735
    1PC     C3210088   0.997   4.592   3.140  0.1439 -0.4408 -0.0621
    1PC     H2A10089   0.968   4.577   3.244  0.3422  1.2320  0.2530
    1PC     H2B10090   1.106   4.588   3.138  0.3695  2.1061  2.8686
    1PC     N3110091   0.951   4.728   3.090  0.3521 -0.7115  0.5287
    1PC     C3310092   0.969   4.748   2.941 -0.6774 -0.4623 -0.4817
    1PC     H3A10093   0.900   4.677   2.895 -2.3508 -0.6712  2.2435
    1PC     H3B10094   0.956   4.853   2.914 -3.1007 -1.2548 -2.6831
    1PC     H3C10095   1.066   4.722   2.900  1.1996  1.5206  2.5183
    1PC     C3410096   0.808   4.755   3.123  0.7824  0.0712  0.9122
    1PC     H4A10097   0.749   4.678   3.074  0.1753  0.8078  0.4930
    1PC     H4B10098   0.785   4.735   3.228 -0.6968 -1.8367  0.2510
    1PC     H4C10099   0.776   4.855   3.094 -2.9877 -1.4239 -0.3308
    1PC     C3510100   1.026   4.842   3.148  0.1062 -0.1134  0.1947
    1PC     H5A10101   1.130   4.823   3.121 -0.1437 -0.2407 -0.6674
    1PC     H5B10102   1.019   4.836   3.257 -3.9242  1.0247  0.0809
    1PC     H5C10103   0.994   4.940   3.112  0.9921  0.1600  0.1214
    1PC     O3310104   1.006   4.206   2.921  0.4450  0.5312  0.2984
    1PC     O3410105   0.843   4.155   3.109  0.1454  0.4384 -0.1554
    1PC     O2110106   1.020   4.167   3.432  0.0242  0.0495 -0.1994
    1PC     C2110107   0.936   4.105   3.516 -0.4488 -0.5110 -0.5004
    1PC     O2210108   0.929   3.985   3.533 -0.1644  0.2740 -0.1662
    1OL     C1210109   0.862   4.205   3.602  0.0675 -0.3604 -0.1892
    1OL     H2R10110   0.760   4.201   3.564  0.3739 -0.0649 -1.0565
    1OL     H2S10111   0.905   4.305   3.597 -1.7207  0.3744 -1.5517
    1OL     C1310112   0.859   4.168   3.754 -0.2335 -0.7920  0.2239
    1OL     H3R10113   0.850   4.060   3.767  1.4370 -0.9139  0.4110
    1OL     H3S10114   0.768   4.209   3.799  1.1041  0.5225  1.8105
    1OL     C1410115   0.982   4.223   3.822  0.3217  0.3595 -0.3379
    1OL     H4R10116   0.979   4.332   3.814 -0.9612  0.3660  0.1446
    1OL     H4S10117   1.065   4.179   3.766  1.0608  0.1985  0.8813
    1OL     C1510118   1.001   4.180   3.971  0.1553 -0.8449  0.4601
    1OL     H5R10119   1.031   4.075   3.975 -0.5369 -1.0124  1.3368
    1OL     H5S10120   0.904   4.196   4.018 -0.1192  0.7270 -0.6015
    1OL     C1610121   1.111   4.262   4.039 -0.4605  0.2499 -0.3922
    1OL     H6R10122   1.084   4.366   4.057  0.5464  0.6068 -0.9571
    1OL     H6S10123   1.201   4.262   3.978  0.7877  0.3194  1.4117
    1OL     C1710124   1.147   4.202   4.181 -0.2948  0.1847  0.1337
    1OL     H7R10125   1.212   4.279   4.224 -2.5411  3.2179 -1.6877
    1OL     H7S10126   1.203   4.108   4.176  0.8096  0.8105  0.4880
    1OL     C1810127   1.027   4.170   4.268  0.2472  0.5171  0.3201
    1OL     H8R10128   0.989   4.074   4.231  2.2926  0.2527 -1.1601
    1OL     H8S10129   0.956   4.253   4.265 -0.3101  0.0078 -1.6619
    1OL     C1910130   1.086   4.152   4.407 -0.3714 -0.2403  0.4898
    1OL     H9R10131   1.171   4.085   4.409  0.4384  0.7567 -0.1117
    1OL    C11010132   1.047   4.218   4.516 -0.3001 -0.1390  0.3790
    1OL    H10R10133   1.094   4.189   4.610  3.6487 -1.7835 -1.9874
    1OL    C11110134   0.935   4.321   4.518  0.5891 -0.0803  0.1818
    1OL    H11R10135   0.846   4.262   4.498 -0.9522  2.3371 -0.2489
    1OL    H11S10136   0.932   4.390   4.433  1.6909  1.1722  1.1441
    1OL    C11210137   0.933   4.406   4.638 -0.0069  0.9319 -0.2739
    1OL    H12R10138   0.885   4.503   4.621 -0.3981  1.0850  1.6457
    1OL    H12S10139   1.034   4.434   4.667 -0.2607  2.0394 -0.4087
    1OL    C11310140   0.881   4.342   4.755  0.3877 -0.2911 -0.6761
    1OL    H13R10141   0.945   4.257   4.783  0.4093 -0.1709 -0.3474
    1OL    H13S10142   0.782   4.299   4.745  0.3675 -0.6476  0.8604
    1OL    C11410143   0.892   4.432   4.881  0.7649  0.9523 -0.0483
    1OL    H14R10144   0.804   4.497   4.879 -0.5532 -0.8169 -3.6755
    1OL    H14S10145   0.973   4.502   4.859  1.0951  0.8722  0.8548
    1OL    C11510146   0.906   4.361   5.014 -0.3630 -0.0860  0.0063
    1OL    H15R10147   0.915   4.436   5.093  0.3293 -0.9813  0.7834
    1OL    H15S10148   0.994   4.296   5.014  0.3497  0.8535 -1.0648
    1OL    C11610149   0.781   4.275   5.039  0.6097 -0.2153  0.0437
    1OL    H16R10150   0.696   4.308   4.980 -0.0048  1.2873  1.7135
    1OL    H16S10151   0.751   4.289   5.143 -0.0350 -0.1596 -0.1502
    1OL    C11710152   0.811   4.124   5.018  0.6629 -0.3281  0.2370
    1OL    H17R10153   0.880   4.102   5.100  0.7306 -2.5887 -0.4107
    1OL    H17S10154   0.854   4.119   4.918 -1.4568  1.1144 -0.7777
    1OL    C11810155   0.685   4.043   5.047 -0.3546  0.6137  0.4337
    1OL    H18R10156   0.710   3.937   5.044  2.2367  1.1576  1.4051
    1OL    H18S10157   0.613   4.065   4.968 -0.1228  0.6437  0.2312
    1OL    H18T10158   0.653   4.071   5.147 -0.3710 -1.5293  1.0509
    1PA    C11610159   5.148   4.296   4.910  0.5792  0.3005  0.4054
    1PA    H16R10160   5.054   4.330   4.954  1.1236 -0.3654  2.0936
    1PA    H16S10161   5.159   4.381   4.841 -0.9111 -0.0173 -0.2493
    1PA    H16T10162   5.233   4.300   4.979  1.6131  2.4545 -0.9268
    1PA    C11510163   5.138   4.158   4.840  0.0396  0.4295  0.4153
    1PA    H15R10164   5.225   4.145   4.775  0.8644 -0.1864  1.6274
    1PA    H15S10165   5.127   4.084   4.919 -1.0523  2.8163  2.5661
    1PA    C11410166   5.021   4.130   4.739  0.1170  0.8712 -0.3224
    1PA    H14R10167   5.045   4.037   4.687 -0.0174  0.8106 -0.2759
    1PA    H14S10168   4.937   4.109   4.807 -1.1610  0.3636 -2.0086
    1PA    C11310169   4.992   4.248   4.640  0.1246  0.1535  0.3604
    1PA    H13R10170   4.917   4.214   4.567 -0.2276 -1.8540  1.6220
    1PA    H13S10171   4.952   4.333   4.695  0.4629 -0.5713  1.7314
    1PA    C11210172   5.125   4.279   4.558 -1.4254 -0.5133  0.0560
    1PA    H12R10173   5.196   4.320   4.630 -2.7927 -0.5653  1.4390
    1PA    H12S10174   5.163   4.183   4.522 -0.2963 -0.4858  1.1108
    1PA    C11110175   5.106   4.381   4.449 -0.0341 -0.7517 -0.1926
    1PA    H11R10176   5.061   4.332   4.361 -0.4110  0.6007 -0.7590
    1PA    H11S10177   5.037   4.455   4.491  0.8478  0.4537 -0.8610
    1PA    C11010178   5.237   4.436   4.403  0.0662 -0.0921  0.4478
    1PA    H10R10179   5.207   4.505   4.325  0.5944  1.7740  1.8718
    1PA    H10S10180   5.297   4.487   4.480  1.4357 -3.8379  2.0046
    1PA     C1910181   5.336   4.336   4.353 -0.4477 -0.1498 -0.7529
    1PA     H9R10182   5.404   4.391   4.289 -1.0154  2.7416  1.0044
    1PA     H9S10183   5.392   4.300   4.440 -0.2652  1.3281 -0.2374
    1PA     C1810184   5.284   4.224   4.262  0.0693 -0.4195  0.3803
    1PA     H8R10185   5.253   4.136   4.319  1.0837 -1.5781 -0.7981
    1PA     H8S10186   5.198   4.262   4.205 -0.1156  1.1015  1.6401
    1PA     C1710187   5.403   4.184   4.166  0.1532 -0.5538 -1.1219
    1PA     H7R10188   5.420   4.274   4.105 -0.0800 -0.4230 -0.9976
    1PA     H7S10189   5.490   4.148   4.221 -1.1052 -0.3105  1.1098
    1PA     C1610190   5.364   4.073   4.064  0.1660  0.3952  0.1219
    1PA     H6R10191   5.279   4.113   4.008 -1.0814 -1.1159  0.8956
    1PA     H6S10192   5.444   4.066   3.989  0.6236  0.2690  0.6166
    1PA     C1510193   5.343   3.932   4.120  0.1448 -0.9846 -0.6590
    1PA     H5R10194   5.429   3.896   4.177  0.2993 -0.3296 -0.4823
    1PA     H5S10195   5.265   3.927   4.197  0.0465  0.2414 -0.6700
    1PA     C1410196   5.325   3.817   4.023 -0.5563 -0.2466 -0.4280
    1PA     H4R10197   5.384   3.833   3.933 -2.2845  0.6580 -1.4299
    1PA     H4S10198   5.361   3.728   4.076 -1.2021 -0.0422  0.3764
    1PA     C1310199   5.181   3.791   3.972 -0.2041  0.0250  0.0723
    1PA     H3R10200   5.130   3.742   4.055 -2.2609 -2.1977 -2.4586
    1PA     H3S10201   5.136   3.889   3.954 -3.1584 -0.9600  1.7962
    1PA     C1210202   5.185   3.708   3.843 -0.0765 -0.1360 -0.7998
    1PA     H2R10203   5.277   3.731   3.790  1.5025 -0.6585  1.6214
    1PA     H2S10204   5.192   3.602   3.867  3.1612  0.7492  2.7022
    1PC     C1110205   5.058   3.735   3.772 -0.0941  0.4187 -0.5854
    1PC     O1210206   4.950   3.758   3.826 -0.3429 -0.9136  0.0690
    1PC     O1110207   5.072   3.736   3.630 -0.2091  0.4008 -0.5099
    1PC      C110208   4.955   3.765   3.544 -0.2985  0.0422  0.2611
    1PC      HR10209   4.959   3.716   3.447 -1.2328  0.6096 -0.0740
    1PC      HS10210   4.862   3.741   3.596 -0.0712  0.0193  0.6568
    1PC      C210211   4.954   3.919   3.509 -0.2612  0.3988 -0.7527
    1PC      HX10212   4.856   3.946   3.471 -0.2459  4.1499  1.5749
    1PC      C310213   5.066   3.948   3.399 -0.1888 -0.4594  0.9941
    1PC      HA10214   5.099   3.850   3.367  1.5374  0.2527  0.5540
    1PC      HB10215   5.013   3.998   3.317 -0.2940 -0.0604  1.2964
    1PC     O3110216   5.184   4.025   3.437  0.5305  0.3259 -0.1363
    1PC     P3110217   5.318   4.017   3.346 -0.6886 -0.5659 -0.0505
    1PC     O3210218   5.318   4.162   3.284 -0.0325  0.2511  1.0473
    1PC     C3110219   5.339   4.286   3.365  0.3226  0.3864 -0.5429
    1PC     H1A10220   5.410   4.274   3.447 -0.4235  2.1843  0.4127
    1PC     H1B10221   5.384   4.357   3.295  0.4502  0.9153  0.0721
    1PC     C3210222   5.201   4.338   3.412  0.0635  1.0899 -0.1883
    1PC     H2A10223   5.151   4.260   3.468 -0.2732 -0.3849 -2.4553
    1PC     H2B10224   5.220   4.423   3.477  0.5822  0.1882  0.8636
    1PC     N3110225   5.101   4.381   3.306 -0.4602 -0.2375  0.3262
    1PC     C3310226   5.167   4.494   3.232 -0.0031  0.2889 -0.4262
    1PC     H3A10227   5.212   4.570   3.297 -2.3085  2.3338 -1.1456
    1PC     H3B10228   5.243   4.455   3.165  0.6547  0.3533  0.2719
    1PC     H3C10229   5.086   4.542   3.177  1.5315  0.5227 -2.5619
    1PC     C3410230   5.055   4.278   3.216  0.2477 -0.2063 -0.0366
    1PC     H4A10231   5.134   4.219   3.171 -0.3254  0.3086 -1.7748
    1PC     H4B10232   4.981   4.218   3.269 -0.6518 -0.4068 -1.4949
    1PC     H4C10233   5.014   4.326   3.127  1.4160 -1.9318 -1.5386
    1PC     C3510234   4.986   4.455   3.374  0.9168  0.0282  0.3690
    1PC     H5A10235   4.911   4.487   3.301  1.8329 -1.5080 -1.2907
    1PC     H5B10236   5.024   4.534   3.438  1.3355 -0.3236  0.5543
    1PC     H5C10237   4.937   4.381   3.437 -0.1436  0.1569 -0.2828
    1PC     O3310238   5.436   4.006   3.427 -0.1339 -0.4248  0.3417
    1PC     O3410239   5.301   3.921   3.231 -0.0837 -0.5502 -0.3882
    1PC     O2110240   4.981   3.997   3.631  0.8965  0.0528  0.4778
    1PC     C2110241   4.944   4.129   3.624 -0.5980 -0.5371  0.1410
    1PC     O2210242   4.902   4.189   3.526  0.1956 -0.5728  0.0737
    1OL     C1210243   4.976   4.195   3.760  0.0862  0.3204 -0.5076
    1OL     H2R10244   4.942   4.298   3.753 -0.2034  0.1272 -2.1268
    1OL     H2S10245   5.083   4.205   3.778 -0.1697  0.0143  1.3141
    1OL     C1310246   4.895   4.136   3.869 -0.4928 -0.1918 -1.0000
    1OL     H3R10247   4.950   4.045   3.895 -0.1788 -0.1204 -1.4147
    1OL     H3S10248   4.795   4.110   3.833 -1.5798  1.3660  0.8004
    1OL     C1410249   4.887   4.216   4.001 -0.1251  0.3763 -0.2361
    1OL     H4R10250   4.842   4.311   3.973  2.7402  2.0880  0.7898
    1OL     H4S10251   4.986   4.240   4.040  0.6621  0.4691 -2.2750
    1OL     C1510252   4.788   4.152   4.102  0.2515 -0.3222  0.4610
    1OL     H5R10253   4.690   4.136   4.056 -0.9163 -0.7584  2.9659
    1OL     H5S10254   4.776   4.228   4.180  3.5149  0.3144  0.4185
    1OL     C1610255   4.827   4.021   4.173 -0.8484  0.8500 -0.5987
    1OL     H6R10256   4.838   3.934   4.108 -0.3140  0.2496  0.2997
    1OL     H6S10257   4.744   3.997   4.240  0.8534  0.6027  1.4714
    1OL     C1710258   4.948   4.043   4.268 -0.3010 -0.2087  0.3108
    1OL     H7R10259   4.921   4.125   4.336 -0.6615  0.2303 -0.3498
    1OL     H7S10260   5.041   4.056   4.211 -1.2270  0.1410 -1.1655
    1OL     C1810261   4.955   3.923   4.367 -0.0462 -0.5871 -0.3685
    1OL     H8R10262   4.870   3.929   4.435  0.2577  0.1599 -0.0423
    1OL     H8S10263   5.038   3.938   4.437 -0.7477 -0.6515  0.4809
    1OL     C1910264   4.965   3.782   4.314 -0.2017  0.3078 -0.3797
    1OL     H9R10265   4.891   3.760   4.237 -1.1398  1.6990  0.1045
    1OL    C11010266   5.042   3.687   4.356  0.6790  0.2129  0.2172
    1OL    H10R10267   5.039   3.587   4.313 -0.2657  1.6797 -3.2842
    1OL    C11110268   5.145   3.711   4.466 -1.4508  0.4345 -0.2091
    1OL    H11R10269   5.115   3.773   4.550 -1.3340  0.1926  0.0127
    1OL    H11S10270   5.230   3.763   4.420 -0.4045  0.7430  2.0050
    1OL    C11210271   5.192   3.571   4.507 -1.3599  0.1103  0.7246
    1OL    H12R10272   5.233   3.515   4.424  0.6233  0.7818  1.2273
    1OL    H12S10273   5.114   3.517   4.562 -0.1686  0.5871  2.9461
    1OL    C11310274   5.303   3.570   4.612 -0.1221  0.7803  0.1573
    1OL    H13R10275   5.394   3.613   4.570  1.7706 -1.5867  1.7120
    1OL    H13S10276   5.323   3.464   4.629 -2.3472  0.0202 -1.5838
    1OL    C11410277   5.270   3.646   4.739 -0.8169  0.3982  0.2720
    1OL    H14R10278   5.181   3.606   4.789 -0.4411 -0.0766  0.5708
    1OL    H14S10279   5.253   3.752   4.719  0.6676  0.2178 -2.0432
    1OL    C11510280   5.375   3.640   4.847  0.2303 -0.5813 -0.1055
    1OL    H15R10281   5.473   3.671   4.809  0.4755 -2.8479 -1.4043
    1OL    H15S10282   5.390   3.540   4.887  1.2037 -1.1782 -1.8860
    1OL    C11610283   5.346   3.729   4.965 -0.3902 -0.0552 -0.2170
    1OL    H16R10284   5.252   3.707   5.015 -0.4417 -1.7910 -1.0647
    1OL    H16S10285   5.337   3.827   4.917 -3.4496 -0.3490 -0.3494
    1OL    C11710286   5.466   3.727   5.052  0.1565 -0.3672  0.5802
    1OL    H17R10287   5.554   3.751   4.993  0.1307  0.0306  0.7044
    1OL    H17S10288   5.486   3.622   5.077 -0.2606  0.0361  2.7153
    1OL    C11810289   5.467   3.816   5.168  0.5312  0.4853 -0.0093
    1OL    H18R10290   5.565   3.840   5.210  1.6050  0.5350 -2.4463
    1OL    H18S10291   5.403   3.771   5.245 -0.0310 -0.8391 -1.2223
    1OL    H18T10292   5.419   3.910   5.141 -3.2147 -1.2314  0.2809
    1PA    C11610293   2.241   4.342   3.970  1.2100  1.0723  0.1098
    1PA    H16R10294   2.135   4.369   3.961  0.9277 -0.1709 -0.3325
    1PA    H16S10295   2.240   4.240   4.009 -3.7246  1.2189  0.7181
    1PA    H16T10296   2.296   4.334   3.876  4.7664 -1.0538  2.2607
    1PA    C11510297   2.311   4.451   4.054 -0.5784  0.6857 -0.3810
    1PA    H15R10298   2.282   4.551   4.021 -2.1544  0.9530  1.6943
    1PA    H15S10299   2.274   4.442   4.157 -0.1717 -0.5987 -0.3435
    1PA    C11410300   2.467   4.446   4.067  0.6174  0.1204 -0.0173
    1PA    H14R10301   2.521   4.484   3.980  1.4329  1.7643  1.1915
    1PA    H14S10302   2.491   4.506   4.155  0.3016  2.9351 -1.7963
    1PA    C11310303   2.515   4.302   4.098 -0.1058  0.1637 -0.1667
    1PA    H13R10304   2.475   4.277   4.197 -1.1102  0.7567 -0.4238
    1PA    H13S10305   2.476   4.230   4.026  0.6270 -2.1034  1.6182
    1PA    C11210306   2.668   4.294   4.117  0.5630  0.3418 -0.4908
    1PA    H12R10307   2.701   4.361   4.196 -1.5872 -0.3204  1.0444
    1PA    H12S10308   2.693   4.190   4.136 -1.7432 -0.1805 -0.0936
    1PA    C11110309   2.734   4.330   3.985 -0.1581 -0.2911 -0.9120
    1PA    H11R10310   2.690   4.263   3.911  1.0546 -2.6981  0.5076
    1PA    H11S10311   2.708   4.434   3.964  3.4808  0.7504 -0.5774
    1PA    C11010312   2.892   4.314   3.988 -0.7693  0.1939 -0.8689
    1PA    H10R10313   2.938   4.376   4.065  0.0839 -0.8461 -0.5347
    1PA    H10S10314   2.909   4.211   4.020  1.9624  1.3836  1.7995
    1PA     C1910315   2.961   4.344   3.852 -0.4784  0.4786  0.2557
    1PA     H9R10316   3.068   4.319   3.853 -0.4635  0.5239 -0.2439
    1PA     H9S10317   2.927   4.279   3.771  2.3643  0.9100 -1.3532
    1PA     C1810318   2.932   4.490   3.806  0.0885 -0.7805 -0.1073
    1PA     H8R10319   2.969   4.513   3.706 -2.1734 -0.4853 -0.9047
    1PA     H8S10320   2.825   4.508   3.800 -0.0478 -1.5226  0.0245
    1PA     C1710321   2.995   4.591   3.907 -1.0958 -0.3087 -0.0426
    1PA     H7R10322   2.934   4.588   3.997 -1.1202  0.5210 -0.0299
    1PA     H7S10323   3.090   4.553   3.943 -1.2450 -0.7027 -0.0564
    1PA     C1610324   3.012   4.737   3.856 -0.4062  0.7947 -0.3546
    1PA     H6R10325   3.048   4.791   3.944 -0.2224 -1.2691  0.8948
    1PA     H6S10326   3.095   4.750   3.787 -0.9291  2.3170 -0.7011
    1PA     C1510327   2.884   4.787   3.798  0.2755  0.1497 -0.4466
    1PA     H5R10328   2.852   4.731   3.710 -3.0999  1.0332  0.1626
    1PA     H5S10329   2.808   4.762   3.872 -0.3613  0.0823 -1.1229
    1PA     C1410330   2.868   4.940   3.782 -0.0709 -0.3364 -1.2812
    1PA     H4R10331   2.766   4.973   3.764  0.4396  3.1660  1.5634
    1PA     H4S10332   2.879   4.988   3.880 -4.3798 -1.3899 -0.1908
    1PA     C1310333   2.972   5.012   3.682 -0.0654  0.5602  0.2302
    1PA     H3R10334   2.970   5.117   3.712  0.7836  0.2566  1.3770
    1PA     H3S10335   3.071   4.971   3.703 -0.1874  0.1181 -0.0483
    1PA     C1210336   2.931   5.003   3.533 -0.2260 -0.9004  0.2741
    1PA     H2R10337   2.832   5.047   3.517  1.0633  0.8607 -3.2155
    1PA     H2S10338   2.999   5.055   3.466 -3.9125  2.3808 -1.1565
    1PC     C1110339   2.937   4.856   3.488  0.1666 -0.1532  0.6984
    1PC     O1210340   3.039   4.786   3.495  1.3511  0.5362 -0.0244
    1PC     O1110341   2.829   4.817   3.421  0.6054  0.0700 -0.5915
    1PC      C110342   2.834   4.679   3.382  0.4553 -1.1289  0.3507
    1PC      HR10343   2.908   4.665   3.304  0.8975  0.1411  0.5278
    1PC      HS10344   2.857   4.614   3.467  0.5195 -0.9349  0.4848
    1PC      C210345   2.692   4.633   3.334  0.8363  0.6639 -0.3924
    1PC      HX10346   2.694   4.525   3.321 -3.5130  0.2160  1.7930
    1PC      C310347   2.633   4.699   3.205 -0.6935 -0.1056  0.0826
    1PC      HA10348   2.667   4.650   3.113 -0.6020  0.3383 -0.1213
    1PC      HB10349   2.525   4.690   3.213 -0.8634  1.9044  0.1691
    1PC     O3110350   2.680   4.834   3.192  0.1953 -0.3496  0.5014
    1PC     P3110351   2.717   4.904   3.058  0.2640 -0.1408  0.3722
    1PC     O3210352   2.578   4.939   2.988  0.2253  0.4725  0.2748
    1PC     C3110353   2.504   5.057   3.030 -0.2202  1.1034 -0.3069
    1PC     H1A10354   2.414   5.015   3.077 -0.6027  1.1883 -0.9413
    1PC     H1B10355   2.559   5.106   3.110  1.3049 -0.9007 -0.0892
    1PC     C3210356   2.472   5.151   2.917 -0.0910  0.0946  0.8325
    1PC     H2A10357   2.415   5.235   2.957 -1.1240 -0.5019  0.6374
    1PC     H2B10358   2.566   5.178   2.869  0.2286  1.7820  2.3685
    1PC     N3110359   2.395   5.093   2.798 -0.1275  0.3654  0.0372
    1PC     C3310360   2.482   5.005   2.719  0.8382  0.4549  0.5567
    1PC     H3A10361   2.580   5.046   2.693  0.2846  0.8508 -0.9587
    1PC     H3B10362   2.506   4.912   2.771  0.8893 -0.4794 -1.0805
    1PC     H3C10363   2.437   4.980   2.622  1.0962  0.1470  0.5139
    1PC     C3410364   2.273   5.021   2.826  0.1996  0.1357  0.5325
    1PC     H4A10365   2.215   5.023   2.734  0.4346  0.2465  0.3855
    1PC     H4B10366   2.314   4.924   2.854  1.4869  0.0854 -1.4098
    1PC     H4C10367   2.231   5.058   2.920 -0.8676 -3.8908  1.7256
    1PC     C3510368   2.367   5.202   2.706  0.0353 -0.2462  0.0421
    1PC     H5A10369   2.342   5.144   2.617  1.5915 -0.1199 -0.4808
    1PC     H5B10370   2.454   5.266   2.694  0.9722 -1.7538 -1.4136
    1PC     H5C10371   2.286   5.260   2.751  1.5009  0.4153  1.8976
    1PC     O3310372   2.782   5.033   3.097  0.0434 -0.5889  0.3491
    1PC     O3410373   2.797   4.810   2.973 -0.6147 -0.4908  0.1712
    1PC     O2110374   2.593   4.659   3.440  0.3113  0.0080  0.0924
    1PC     C2110375   2.588   4.560   3.540 -0.1269  0.2074  0.0202
    1PC     O2210376   2.665   4.463   3.548  0.6336 -0.5671  0.0613
    1OL     C1210377   2.489   4.590   3.648 -0.0652  0.4598 -0.4783
    1OL     H2R10378   2.466   4.500   3.706  0.5120  0.1841 -0.6699
    1OL     H2S10379   2.396   4.627   3.605  0.5138 -0.1975 -2.3707
    1OL     C1310380   2.550   4.690   3.752 -0.1940  0.0065  0.1141
    1OL     H3R10381   2.615   4.771   3.719  1.9919 -2.2444 -1.2292
    1OL     H3S10382   2.613   4.631   3.818 -0.8520  0.8344  1.5133
    1OL     C1410383   2.448   4.752   3.843  0.7789 -0.1461 -0.7712
    1OL     H4R10384   2.382   4.671   3.877  0.9610  0.1851  0.3748
    1OL     H4S10385   2.391   4.821   3.780  2.0837  0.4550 -1.2994
    1OL     C1510386   2.508   4.824   3.965 -0.3900 -0.3256  0.6739
    1OL     H5R10387   2.574   4.893   3.913 -1.3922  1.5193  1.8067
    1OL     H5S10388   2.558   4.746   4.023  0.1172 -0.7233 -0.2824
    1OL     C1610389   2.400   4.907   4.043 -0.2170 -0.5501  0.2214
    1OL     H6R10390   2.314   4.852   4.081  0.8982 -2.2372  0.3697
    1OL     H6S10391   2.357   4.976   3.970  1.1350  0.3569  0.2763
    1OL     C1710392   2.465   4.992   4.152 -0.0336 -0.5550 -0.2974
    1OL     H7R10393   2.385   5.050   4.199 -1.2003 -3.0956  0.9123
    1OL     H7S10394   2.518   5.076   4.106  1.2061 -0.3305  1.4977
    1OL     C1810395   2.555   4.913   4.246 -0.6129 -0.3033 -0.2287
    1OL     H8R10396   2.539   4.805   4.245  1.4283 -0.6388  1.2311
    1OL     H8S10397   2.528   4.956   4.342  0.1493 -0.7809  0.2066
    1OL     C1910398   2.708   4.938   4.228  0.3358  0.3447 -0.3464
    1OL     H9R10399   2.740   5.041   4.218 -0.9369  0.7423 -0.4772
    1OL    C11010400   2.808   4.850   4.227 -0.3434  0.3612  0.1029
    1OL    H10R10401   2.908   4.891   4.216 -0.7853  1.0889 -1.3973
    1OL    C11110402   2.804   4.700   4.248  0.3083  0.0881  0.3886
    1OL    H11R10403   2.872   4.665   4.170 -1.7722 -1.4608 -0.7761
    1OL    H11S10404   2.701   4.670   4.226  0.3427 -0.4689  0.9792
    1OL    C11210405   2.845   4.652   4.379 -0.7175 -0.4368 -0.2871
    1OL    H12R10406   2.818   4.547   4.392 -2.2528  0.2212  2.1169
    1OL    H12S10407   2.798   4.708   4.460 -2.0785  0.4211 -1.6531
    1OL    C11310408   3.003   4.671   4.388  0.0460 -0.0597 -0.0177
    1OL    H13R10409   3.023   4.777   4.403 -1.8932 -0.1758  4.1816
    1OL    H13S10410   3.048   4.627   4.299 -0.0115 -1.7218  0.7541
    1OL    C11410411   3.060   4.612   4.521  0.2555  0.0138 -0.0951
    1OL    H14R10412   3.168   4.621   4.535  0.3632 -2.7601  1.0811
    1OL    H14S10413   3.045   4.505   4.513 -1.6870  0.2558  0.0916
    1OL    C11510414   3.002   4.670   4.651  0.0400  0.8427  0.0740
    1OL    H15R10415   3.044   4.624   4.740 -0.8165 -1.2307 -0.5666
    1OL    H15S10416   2.897   4.641   4.646 -0.3336  2.3138 -1.0763
    1OL    C11610417   3.004   4.823   4.659 -0.3468  0.5315 -0.6240
    1OL    H16R10418   2.929   4.874   4.598 -0.1304  1.3910 -0.1753
    1OL    H16S10419   3.106   4.853   4.634 -0.6371  0.9251 -1.3456
    1OL    C11710420   2.984   4.876   4.804  0.3504 -0.3913 -0.0947
    1OL    H17R10421   2.883   4.846   4.831  1.1403 -2.2573  0.8671
    1OL    H17S10422   2.991   4.985   4.799 -2.1846 -0.2135 -0.4077
    1OL    C11810423   3.087   4.830   4.905 -0.7138 -0.8308  0.1732
    1OL    H18R10424   3.191   4.856   4.885  0.1248 -2.6318  1.9918
    1OL    H18S10425   3.087   4.721   4.915 -0.0690 -0.8024  0.5162
    1OL    H18T10426   3.047   4.856   5.003 -0.1736  0.0720  0.1531
    1PA    C11610427   3.759   5.294   5.251  0.5063 -0.1965  0.0663
    1PA    H16R10428   3.779   5.226   5.334  0.3636  0.1054  0.3470
    1PA    H16S10429   3.659   5.277   5.210  0.4977 -0.0662  0.0330
    1PA    H16T10430   3.761   5.398   5.284 -2.0037  0.5500 -1.9441
    1PA    C11510431   3.868   5.263   5.143 -0.2065 -0.3413  0.2420
    1PA    H15R10432   3.972   5.277   5.169  0.0394 -0.0668 -0.8388
    1PA    H15S10433   3.866   5.157   5.114 -1.9200 -0.0185 -0.9413
    1PA    C11410434   3.837   5.347   5.013  0.5586  0.0328  0.1465
    1PA    H14R10435   3.744   5.313   4.968  0.0398 -0.8081  1.8143
    1PA    H14S10436   3.823   5.452   5.040  1.5366  0.5388 -1.2664
    1PA    C11310437   3.955   5.335   4.914 -0.2680 -0.3116 -0.2485
    1PA    H13R10438   4.054   5.348   4.959  0.1946  0.4981 -1.4868
    1PA    H13S10439   3.957   5.233   4.877  0.2069 -0.3031 -0.2421
    1PA    C11210440   3.930   5.415   4.783  0.2722 -0.3665 -0.8754
    1PA    H12R10441   3.829   5.394   4.746 -1.0925  2.2358  1.1963
    1PA    H12S10442   3.937   5.522   4.805  0.2666 -0.7811  1.2318
    1PA    C11110443   4.034   5.369   4.679  0.2990 -0.9578  0.1377
    1PA    H11R10444   4.132   5.373   4.726  1.1955  1.5620 -1.8361
    1PA    H11S10445   4.021   5.265   4.648  3.1188 -1.0887 -0.7121
    1PA    C11010446   4.041   5.459   4.558 -0.0084  0.0808 -0.4477
    1PA    H10R10447   3.948   5.463   4.500 -2.3946 -2.0365  3.0312
    1PA    H10S10448   4.062   5.554   4.606 -1.1085 -1.3519  3.0466
    1PA     C1910449   4.156   5.416   4.469  0.1455  0.2848  0.0049
    1PA     H9R10450   4.187   5.502   4.409 -1.4080  2.2817  2.0138
    1PA     H9S10451   4.236   5.383   4.535  0.4951 -0.1352 -0.6212
    1PA     C1810452   4.122   5.307   4.371 -0.7444 -1.3223  0.0679
    1PA     H8R10453   4.091   5.209   4.409  0.8540 -1.8332  0.1102
    1PA     H8S10454   4.038   5.339   4.310 -0.5204  0.0001  0.4505
    1PA     C1710455   4.231   5.265   4.273  0.6110 -0.3699  0.0002
    1PA     H7R10456   4.274   5.351   4.220 -2.5869  0.8266 -0.7517
    1PA     H7S10457   4.302   5.218   4.342 -0.5036  1.1749  2.2585
    1PA     C1610458   4.183   5.160   4.164 -0.0525 -0.6118 -0.7268
    1PA     H6R10459   4.183   5.060   4.208  0.5643 -1.2474 -2.1697
    1PA     H6S10460   4.076   5.176   4.149 -0.3114 -1.2844  0.3891
    1PA     C1510461   4.253   5.144   4.033 -0.3078 -0.9054  0.2722
    1PA     H5R10462   4.248   5.235   3.973  0.3475 -0.5125  0.8205
    1PA     H5S10463   4.360   5.127   4.049 -0.4513 -0.2376  2.0481
    1PA     C1410464   4.190   5.030   3.949  0.4346  0.0513 -0.1762
    1PA     H4R10465   4.253   5.015   3.861 -1.3404  0.7994 -1.6058
    1PA     H4S10466   4.183   4.935   4.003 -1.1369  2.2798  3.7582
    1PA     C1310467   4.057   5.085   3.895  0.4045 -0.2887 -0.5334
    1PA     H3R10468   3.982   5.080   3.974  0.3901 -2.2164 -0.6574
    1PA     H3S10469   4.086   5.188   3.875 -1.6985  0.4563  0.1333
    1PA     C1210470   4.016   5.020   3.762 -0.3184 -0.1798 -0.3253
    1PA     H2R10471   4.102   5.027   3.695  0.0694 -0.6638  0.1167
    1PA     H2S10472   4.001   4.912   3.767 -0.0988 -0.2616 -1.4617
    1PC     C1110473   3.899   5.081   3.696 -0.3213  0.5263 -0.2897
    1PC     O1210474   3.811   5.131   3.761  0.6053 -0.4942 -0.4144
    1PC     O1110475   3.888   5.033   3.571  0.0858  0.0230  0.5370
    1PC      C110476   3.759   5.069   3.501  0.1152 -0.4600  0.0284
    1PC      HR10477   3.736   4.994   3.425  0.1075  0.8580 -1.2894
    1PC      HS10478   3.669   5.073   3.563  0.6897 -0.8523  0.9109
    1PC      C210479   3.770   5.208   3.424 -0.5348 -0.0090 -0.2879
    1PC      HX10480   3.680   5.228   3.367  0.1035  1.8595 -0.6777
    1PC      C310481   3.895   5.208   3.325  0.4063 -1.0469 -0.1149
    1PC      HA10482   3.993   5.193   3.370  1.2164  2.0887 -0.7449
    1PC      HB10483   3.862   5.132   3.254  2.1568 -2.5263  0.6323
    1PC     O3110484   3.906   5.341   3.262 -0.2245 -0.1906 -0.1263
    1PC     P3110485   3.912   5.359   3.102 -0.2208 -0.1878 -0.3953
    1PC     O3210486   4.064   5.397   3.068  0.3500 -0.1802  0.0273
    1PC     C3110487   4.136   5.481   3.153 -0.4843  0.1423 -0.5499
    1PC     H1A10488   4.084   5.513   3.244  2.5346 -0.4034  1.4198
    1PC     H1B10489   4.213   5.414   3.191 -1.0205  0.5989  1.4316
    1PC     C3210490   4.203   5.591   3.067  0.3854 -0.3915  0.5975
    1PC     H2A10491   4.265   5.644   3.139  0.5099  2.9978 -1.8666
    1PC     H2B10492   4.275   5.544   2.999 -0.7218  0.8764 -1.5016
    1PC     N3110493   4.116   5.691   2.989  0.4955  0.3046 -0.0475
    1PC     C3310494   4.024   5.752   3.077  0.3656 -0.9900  0.1676
    1PC     H3A10495   4.081   5.819   3.142 -0.6079  2.3323 -2.2716
    1PC     H3B10496   3.964   5.815   3.011  1.1915  0.8105  1.1315
    1PC     H3C10497   3.953   5.687   3.129  1.0771  0.2035  2.6577
    1PC     C3410498   4.202   5.803   2.948  0.3744  0.1959 -0.3053
    1PC     H4A10499   4.228   5.849   3.044  1.3245 -0.2174 -0.3611
    1PC     H4B10500   4.291   5.762   2.901  1.4296  1.0790  0.8984
    1PC     H4C10501   4.147   5.864   2.876 -0.3342 -0.2315 -0.1321
    1PC     C3510502   4.038   5.636   2.871 -1.1423 -0.2169 -0.0833
    1PC     H5A10503   4.101   5.568   2.814 -1.1010  1.7973 -2.5172
    1PC     H5B10504   3.996   5.717   2.811 -1.5634  1.3869  2.3028
    1PC     H5C10505   3.960   5.579   2.921 -2.3286  0.4476 -1.1236
    1PC     O3310506   3.895   5.231   3.030 -0.6689  0.5815 -0.0239
    1PC     O3410507   3.833   5.477   3.062  0.0850  0.0929  0.2438
    1PC     O2110508   3.800   5.309   3.525  0.3435  0.2889 -0.2867
    1PC     C2110509   3.691   5.373   3.575 -0.3588 -0.1924  0.0060
    1PC     O2210510   3.579   5.347   3.542  0.7337  0.0613 -0.5813
    1OL     C1210511   3.717   5.476   3.680 -0.2923  0.6688  0.3897
    1OL     H2R10512   3.812   5.526   3.661 -1.2805  1.8539 -1.6495
    1OL     H2S10513   3.719   5.415   3.770 -2.1727 -1.8757 -1.2244
    1OL     C1310514   3.603   5.577   3.690  0.0338 -0.2344  0.1307
    1OL     H3R10515   3.521   5.549   3.623 -0.0773  1.5699 -0.5148
    1OL     H3S10516   3.632   5.674   3.650 -1.1338 -0.4163 -1.1846
    1OL     C1410517   3.548   5.586   3.830  0.2961  0.3074 -0.1151
    1OL     H4R10518   3.495   5.495   3.858  0.4587  0.4237  0.5654
    1OL     H4S10519   3.482   5.671   3.812  0.1509  0.5425  1.4754
    1OL     C1510520   3.647   5.633   3.933  0.0579  0.1111 -0.3126
    1OL     H5R10521   3.701   5.722   3.899 -1.8890  0.7735 -1.7040
    1OL     H5S10522   3.718   5.555   3.964 -0.1163 -0.7020 -1.9183
    1OL     C1610523   3.580   5.663   4.063  0.7740  0.1725  0.2309
    1OL     H6R10524   3.510   5.585   4.093  0.0243  0.3351 -1.0695
    1OL     H6S10525   3.519   5.752   4.047  2.1381  0.8180 -1.5633
    1OL     C1710526   3.674   5.696   4.175 -0.3195  0.4657 -0.2161
    1OL     H7R10527   3.721   5.789   4.140  0.3833  1.2450  2.6729
    1OL     H7S10528   3.748   5.615   4.176 -0.5548  0.2599  1.3246
    1OL     C1810529   3.610   5.728   4.307  0.4116  0.1632 -0.2203
    1OL     H8R10530   3.534   5.651   4.322 -1.2663  1.4377 -1.9609
    1OL     H8S10531   3.554   5.822   4.306  0.7818  0.4288  1.4482
    1OL     C1910532   3.718   5.730   4.414  0.1740  0.5032  0.4451
    1OL     H9R10533   3.822   5.721   4.382  0.0071 -0.7865  0.2234
    1OL    C11010534   3.696   5.745   4.543  0.4474 -0.4739 -0.0692
    1OL    H10R10535   3.781   5.750   4.611  0.4085  0.1470 -0.0615
    1OL    C11110536   3.557   5.769   4.601  0.0123 -0.0698  0.4363
    1OL    H11R10537   3.482   5.759   4.522 -0.3068 -0.2792  0.7698
    1OL    H11S10538   3.544   5.871   4.638  0.9496 -0.1299  0.9676
    1OL    C11210539   3.532   5.666   4.714  0.2391 -0.4426  0.0938
    1OL    H12R10540   3.518   5.562   4.683  0.3411 -0.5570  0.4365
    1OL    H12S10541   3.430   5.689   4.748 -0.2892 -1.6923 -0.6029
    1OL    C11310542   3.626   5.665   4.836 -0.0707  0.1248  0.4911
    1OL    H13R10543   3.722   5.621   4.808 -1.0116 -1.1098 -0.8543
    1OL    H13S10544   3.593   5.592   4.911 -2.5398 -0.7060 -1.3457
    1OL    C11410545   3.666   5.798   4.901  0.3652  0.1096  0.2990
    1OL    H14R10546   3.730   5.850   4.829 -0.9951 -2.8241 -3.1984
    1OL    H14S10547   3.720   5.767   4.990 -1.1122 -3.8564 -0.0838
    1OL    C11510548   3.546   5.890   4.940  0.0512 -0.3825  0.8592
    1OL    H15R10549   3.503   5.919   4.843  3.6777  0.9859 -0.4138
    1OL    H15S10550   3.589   5.982   4.980  1.2570 -0.5494 -0.0504
    1OL    C11610551   3.436   5.831   5.038 -0.1410  0.0583 -0.3791
    1OL    H16R10552   3.493   5.827   5.131 -3.0041  1.5910  1.5420
    1OL    H16S10553   3.399   5.735   5.004 -1.8572  0.6997 -0.4000
    1OL    C11710554   3.322   5.935   5.046  0.1243 -0.8327  0.0669
    1OL    H17R10555   3.271   5.931   4.949  0.7932 -1.3690 -0.2750
    1OL    H17S10556   3.368   6.033   5.059 -1.4527 -0.2044  0.9473
    1OL    C11810557   3.217   5.920   5.157 -0.0650 -0.0192 -0.2524
    1OL    H18R10558   3.144   5.843   5.130  0.0396  0.4539 -1.9548
    1OL    H18S10559   3.161   6.012   5.172 -1.8833 -1.1132 -0.2242
    1OL    H18T10560   3.284   5.901   5.241  2.4380  0.2082 -2.1059
    1PA    C11610561   4.201   2.114   4.554  0.2298  0.1230 -0.6751
    1PA    H16R10562   4.244   2.016   4.535 -1.1217 -0.1631 -2.3680
    1PA    H16S10563   4.099   2.097   4.589  0.5000  0.4573  0.2851
    1PA    H16T10564   4.249   2.147   4.646  0.8342 -0.1040 -0.9039
    1PA    C11510565   4.217   2.208   4.437 -0.2168  0.5675 -0.0492
    1PA    H15R10566   4.187   2.163   4.342  0.8051 -1.5599  0.6186
    1PA    H15S10567   4.157   2.298   4.454 -0.9047  0.1129 -0.0648
    1PA    C11410568   4.366   2.249   4.413  0.0116  0.8853 -0.1911
    1PA    H14R10569   4.408   2.283   4.508 -2.6128 -1.0837  1.7793
    1PA    H14S10570   4.417   2.156   4.388 -0.4753  0.0211  1.9257
    1PA    C11310571   4.373   2.348   4.295  0.2819 -1.6084  0.0309
    1PA    H13R10572   4.348   2.291   4.205 -0.9435  1.0890 -1.3886
    1PA    H13S10573   4.297   2.423   4.319  1.0880 -0.0030 -2.2430
    1PA    C11210574   4.517   2.413   4.278  0.4483  0.1138  0.4340
    1PA    H12R10575   4.545   2.452   4.377 -1.3373 -0.5241  1.2094
    1PA    H12S10576   4.593   2.335   4.267 -0.5949 -1.1935  2.1653
    1PA    C11110577   4.535   2.515   4.164 -0.0565  0.0728 -0.6333
    1PA    H11R10578   4.636   2.555   4.172  0.2952 -1.0267  0.6069
    1PA    H11S10579   4.527   2.461   4.069 -0.8417  0.3570 -0.7320
    1PA    C11010580   4.438   2.637   4.168 -0.5274  0.1877  0.2704
    1PA    H10R10581   4.370   2.641   4.254 -1.3422  2.0780 -0.4369
    1PA    H10S10582   4.489   2.733   4.174  1.9123 -0.8032 -3.3833
    1PA     C1910583   4.337   2.636   4.056  0.1069  0.4797 -0.2107
    1PA     H9R10584   4.274   2.556   4.095 -0.9955  1.2453 -0.4144
    1PA     H9S10585   4.281   2.729   4.062  0.8068  0.8386  0.8990
    1PA     C1810586   4.390   2.629   3.912  0.2216  0.0923  0.5257
    1PA     H8R10587   4.412   2.525   3.885  0.7776 -0.0366  1.4399
    1PA     H8S10588   4.308   2.649   3.843 -0.5755 -0.6532  1.2490
    1PA     C1710589   4.509   2.720   3.896  0.0003 -0.0904  0.0565
    1PA     H7R10590   4.488   2.821   3.932  1.5250 -0.6831  2.7718
    1PA     H7S10591   4.585   2.675   3.960 -0.2140  2.3102  2.0981
    1PA     C1610592   4.562   2.724   3.748 -0.0476  0.3090  0.1900
    1PA     H6R10593   4.593   2.624   3.717  0.3322  0.5244 -0.1180
    1PA     H6S10594   4.481   2.740   3.676  0.6414 -1.7958 -1.0838
    1PA     C1510595   4.682   2.823   3.728 -0.2810  0.2125  0.3719
    1PA     H5R10596   4.693   2.826   3.619 -3.4378 -0.7933 -0.0258
    1PA     H5S10597   4.665   2.921   3.771  0.1120  0.0807  0.8402
    1PA     C1410598   4.810   2.761   3.793 -0.1135 -0.0700  0.2382
    1PA     H4R10599   4.782   2.738   3.896  2.0702  0.7115  1.0300
    1PA     H4S10600   4.839   2.665   3.750  0.9501 -1.2138  3.3732
    1PA     C1310601   4.929   2.854   3.802  0.4391 -0.1337 -0.3809
    1PA     H3R10602   4.900   2.950   3.847  0.7148 -0.4223  0.4130
    1PA     H3S10603   4.990   2.816   3.884  0.0300  1.4553  0.6911
    1PA     C1210604   5.000   2.884   3.670  0.1357  0.3875 -0.1834
    1PA     H2R10605   4.926   2.932   3.606 -2.1344 -2.2026  0.4105
    1PA     H2S10606   5.080   2.956   3.692 -0.1089  1.1335 -1.6025
    1PC     C1110607   5.061   2.759   3.621 -0.0261  0.1268  0.7942
    1PC     O1210608   5.151   2.693   3.668 -0.2354  0.0935 -0.2099
    1PC     O1110609   5.006   2.737   3.502 -0.1336  0.4668  0.1857
    1PC      C110610   5.037   2.615   3.431 -0.8205 -0.1784 -0.4764
    1PC      HR10611   5.044   2.634   3.323 -0.5746 -1.2730 -0.6581
    1PC      HS10612   5.138   2.585   3.460 -0.8209 -1.0678 -1.3506
    1PC      C210613   4.922   2.515   3.445 -0.3554 -0.3240  0.4306
    1PC      HX10614   4.937   2.423   3.388 -0.1836  0.4942 -0.8811
    1PC      C310615   4.784   2.577   3.408  0.4396  0.4661 -0.0318
    1PC      HA10616   4.698   2.514   3.429 -0.0962  0.6893 -1.4676
    1PC      HB10617   4.770   2.663   3.474 -0.3160  0.8082 -0.6271
    1PC     O3110618   4.785   2.630   3.270  0.3607  1.0346  0.0640
    1PC     P3110619   4.749   2.545   3.137 -0.0246  0.4353 -0.0367
    1PC     O3210620   4.872   2.568   3.038 -0.7612  0.3549 -0.0508
    1PC     C3110621   4.996   2.493   3.037 -0.3245  0.4396 -0.0232
    1PC     H1A10622   5.070   2.536   3.105 -1.5085  3.2481 -0.4386
    1PC     H1B10623   4.978   2.386   3.046 -1.2874  0.4909 -1.1810
    1PC     C3210624   5.058   2.517   2.900 -0.6350 -0.0701 -0.0048
    1PC     H2A10625   5.073   2.624   2.890  2.1834 -0.6144 -2.1557
    1PC     H2B10626   5.161   2.481   2.906 -0.1597  1.4408  1.6759
    1PC     N3110627   4.990   2.493   2.768  0.1423 -0.4208  0.1378
    1PC     C3310628   4.971   2.350   2.738 -0.2355  1.0150 -0.1626
    1PC     H3A10629   5.066   2.302   2.762 -1.1485 -0.1925  1.1645
    1PC     H3B10630   4.889   2.313   2.801 -1.1164 -0.1459 -1.9495
    1PC     H3C10631   4.941   2.340   2.634  0.8701  0.3696 -0.4303
    1PC     C3410632   4.852   2.557   2.748  0.5725 -0.2302 -0.1437
    1PC     H4A10633   4.807   2.516   2.658 -4.6037 -1.2852  2.7064
    1PC     H4B10634   4.791   2.530   2.834 -1.6402 -1.6838 -2.1075
    1PC     H4C10635   4.863   2.665   2.749 -1.6984  0.0331  2.4499
    1PC     C3510636   5.082   2.537   2.658  0.0875  0.1106  0.2565
    1PC     H5A10637   5.022   2.533   2.567 -2.5908 -0.5402  1.9813
    1PC     H5B10638   5.151   2.453   2.647  1.2261  0.7160  2.3991
    1PC     H5C10639   5.133   2.633   2.674 -0.1080  0.1749  0.4920
    1PC     O3310640   4.739   2.405   3.180 -0.2095  0.5048  0.6539
    1PC     O3410641   4.636   2.609   3.071 -0.4856 -0.7689  0.1660
    1PC     O2110642   4.916   2.476   3.586 -0.3337  0.0738  0.6723
    1PC     C2110643   5.003   2.385   3.629  0.2330 -0.7955  0.4853
    1PC     O2210644   5.093   2.338   3.560  0.4878 -0.4960  0.4745
    1OL     C1210645   4.988   2.364   3.776 -0.0941  0.5600  0.2603
    1OL     H2R10646   4.963   2.259   3.793 -0.5442  0.2995 -1.8777
    1OL     H2S10647   4.894   2.412   3.804  0.5888  3.0663 -1.5801
    1OL     C1310648   5.102   2.402   3.865  1.0129 -0.0115  0.3752
    1OL     H3R10649   5.154   2.491   3.830  0.3980  0.0302 -0.4432
    1OL     H3S10650   5.178   2.325   3.848  0.7019 -0.1778 -0.3003
    1OL     C1410651   5.076   2.411   4.007  0.6340  0.5205 -0.0066
    1OL     H4R10652   5.167   2.431   4.065  1.1422  3.2232 -1.6760
    1OL     H4S10653   5.029   2.319   4.040 -0.6021  0.4382 -1.9798
    1OL     C1510654   4.979   2.525   4.036  0.1028 -0.6251  0.0044
    1OL     H5R10655   4.900   2.523   3.961 -1.3987 -2.1475  1.6055
    1OL     H5S10656   5.038   2.614   4.009 -1.4840  0.6686  0.7480
    1OL     C1610657   4.921   2.543   4.179 -0.0912  0.5720 -0.8063
    1OL     H6R10658   4.998   2.506   4.247  1.2173  3.0433 -0.9103
    1OL     H6S10659   4.841   2.470   4.192  1.2453 -0.8192 -0.3001
    1OL     C1710660   4.884   2.684   4.202  0.0016  0.3617 -0.3672
    1OL     H7R10661   4.798   2.701   4.138 -0.8216 -1.1967  0.3090
    1OL     H7S10662   4.964   2.752   4.173  1.6778 -0.4104  2.2449
    1OL     C1810663   4.841   2.712   4.350 -0.5775 -0.2194 -0.0320
    1OL     H8R10664   4.906   2.667   4.424 -1.2174  1.2786  1.4653
    1OL     H8S10665   4.751   2.651   4.359 -0.8131  0.0200 -0.6900
    1OL     C1910666   4.812   2.860   4.368 -0.3575  0.6204 -0.4548
    1OL     H9R10667   4.874   2.924   4.306 -0.2394  0.4095 -0.5532
    1OL    C11010668   4.717   2.908   4.442 -0.3180  0.0882 -0.2016
    1OL    H10R10669   4.705   3.016   4.442  0.2304  0.1509 -0.0531
    1OL    C11110670   4.616   2.827   4.529  0.4974  1.0759  0.4364
    1OL    H11R10671   4.592   2.728   4.490  1.0385  1.5135 -1.0564
    1OL    H11S10672   4.521   2.881   4.533 -0.2935 -0.0042 -2.6922
    1OL    C11210673   4.667   2.813   4.672 -0.9705  0.0427  0.0216
    1OL    H12R10674   4.582   2.765   4.721 -2.1263 -0.5693 -2.4937
    1OL    H12S10675   4.694   2.909   4.716  0.8492  0.4715 -1.9476
    1OL    C11310676   4.782   2.711   4.682  0.1650  0.3939  0.4174
    1OL    H13R10677   4.832   2.719   4.779  0.2716 -1.2330  0.5042
    1OL    H13S10678   4.850   2.745   4.603  1.0700 -0.6796  0.7261
    1OL    C11410679   4.748   2.560   4.656  0.5969  0.0410 -0.4211
    1OL    H14R10680   4.699   2.545   4.559  0.7473  0.0567 -0.4988
    1OL    H14S10681   4.683   2.529   4.738  1.1567 -0.5480 -0.1951
    1OL    C11510682   4.880   2.474   4.670 -0.0232  0.1926 -0.0655
    1OL    H15R10683   4.938   2.512   4.755 -1.1257  1.6771  0.0412
    1OL    H15S10684   4.949   2.487   4.586 -0.2689  1.3261 -0.1055
    1OL    C11610685   4.853   2.320   4.686 -0.3703 -0.1003 -0.1175
    1OL    H16R10686   4.797   2.308   4.779  2.9929  2.5313  2.3985
    1OL    H16S10687   4.949   2.273   4.708 -0.2685 -0.7902 -1.9731
    1OL    C11710688   4.787   2.256   4.566 -0.3459  0.0644  0.2816
    1OL    H17R10689   4.849   2.261   4.476 -1.6163  1.5117 -0.5282
    1OL    H17S10690   4.697   2.306   4.530  0.3636  2.1482  1.2755
    1OL    C11810691   4.757   2.118   4.615  0.3485  0.7482 -0.2670
    1OL    H18R10692   4.851   2.062   4.613  1.6881  2.8826  1.0535
    1OL    H18S10693   4.681   2.083   4.546  1.2337 -0.1184 -0.8323
    1OL    H18T10694   4.722   2.124   4.718 -0.1090  0.1687 -0.3851
    1PA    C11610695   1.188   1.480   4.783  0.7972  0.1798 -0.2621
    1PA    H16R10696   1.141   1.398   4.837  0.3193  1.4888  1.3306
    1PA    H16S10697   1.128   1.570   4.793  1.6461  0.5582  1.6441
    1PA    H16T10698   1.272   1.509   4.847 -0.0882 -0.6586  1.3079
    1PA    C11510699   1.230   1.441   4.639 -0.7445 -0.5608 -0.2174
    1PA    H15R10700   1.254   1.534   4.586 -0.2823  0.5122  1.7954
    1PA    H15S10701   1.325   1.387   4.640 -0.3084  0.1726 -0.7807
    1PA    C11410702   1.133   1.358   4.556 -0.4705  0.1622  0.2228
    1PA    H14R10703   1.117   1.272   4.621  0.7791  1.1990  1.9379
    1PA    H14S10704   1.041   1.417   4.556  0.0843  1.0445  0.3207
    1PA    C11310705   1.167   1.316   4.413 -0.6298  1.0965  0.1373
    1PA    H13R10706   1.187   1.408   4.358  0.7544  0.4785 -0.4343
    1PA    H13S10707   1.263   1.264   4.406 -0.4459  1.4930 -0.3086
    1PA    C11210708   1.062   1.240   4.328  0.1185  0.6332 -0.3849
    1PA    H12R10709   1.040   1.152   4.388  3.4086 -0.4413 -0.6324
    1PA    H12S10710   0.975   1.302   4.306 -0.3773 -0.8224 -2.6723
    1PA    C11110711   1.114   1.202   4.189 -0.4611  0.7922  0.2317
    1PA    H11R10712   1.112   1.291   4.126 -2.3639  1.6502  1.4464
    1PA    H11S10713   1.215   1.162   4.197 -1.2109 -1.2782 -0.4428
    1PA    C11010714   0.998   1.117   4.123 -0.6008  0.7098 -0.3957
    1PA    H10R10715   0.973   1.034   4.190 -0.0392 -1.1396 -2.4285
    1PA    H10S10716   0.907   1.177   4.117 -2.1498 -1.6386 -0.7430
    1PA     C1910717   1.027   1.059   3.983  0.2230 -0.2066 -0.0401
    1PA     H9R10718   1.132   1.034   3.971 -0.0236 -0.9787 -0.6109
    1PA     H9S10719   0.978   0.961   3.985 -1.1066  0.4437  3.1154
    1PA     C1810720   0.982   1.168   3.879  0.0027 -0.2181  0.0548
    1PA     H8R10721   1.020   1.263   3.918  0.5314  0.3507 -1.7965
    1PA     H8S10722   1.032   1.151   3.783  0.8168  1.2130  0.2075
    1PA     C1710723   0.834   1.180   3.842 -0.1835  0.5833 -0.0350
    1PA     H7R10724   0.798   1.076   3.846 -0.9606  0.8144 -0.7380
    1PA     H7S10725   0.793   1.225   3.933  2.9858  0.0778  1.7180
    1PA     C1610726   0.799   1.248   3.708  0.8348  0.3379  0.3385
    1PA     H6R10727   0.810   1.356   3.711 -2.7089  0.7502  0.4666
    1PA     H6S10728   0.872   1.217   3.633  1.1481 -0.8404  1.1068
    1PA     C1510729   0.648   1.225   3.680  0.7551  0.5239  0.1102
    1PA     H5R10730   0.644   1.260   3.577 -1.4208 -0.1475 -0.0644
    1PA     H5S10731   0.624   1.118   3.678 -1.8994  1.1037 -0.5377
    1PA     C1410732   0.547   1.294   3.772  0.7879 -0.2936  0.2959
    1PA     H4R10733   0.551   1.255   3.874 -1.5678  2.7380  1.6427
    1PA     H4S10734   0.575   1.399   3.764 -0.6681  0.0589 -0.2941
    1PA     C1310735   0.399   1.295   3.721 -0.2537 -0.1432 -0.5247
    1PA     H3R10736   0.335   1.324   3.804 -0.9019  0.6795 -1.2992
    1PA     H3S10737   0.378   1.379   3.654  1.2907 -1.1191 -2.2962
    1PA     C1210738   0.355   1.160   3.655  0.4315 -0.5381  0.2603
    1PA     H2R10739   0.421   1.160   3.568 -0.7647  2.3331 -0.6941
    1PA     H2S10740   0.389   1.075   3.715  2.2767  1.3503  1.9618
    1PC     C1110741   0.215   1.172   3.598 -0.3769  0.2069  0.1004
    1PC     O1210742   0.116   1.180   3.665 -0.2638 -0.3395 -0.3520
    1PC     O1110743   0.215   1.172   3.468  0.1334  0.4798  0.5202
    1PC      C110744   0.123   1.252   3.393  0.4521 -0.1692  0.5518
    1PC      HR10745   0.109   1.218   3.290 -1.2125 -0.3921  0.8408
    1PC      HS10746   0.024   1.246   3.440 -0.0681 -1.6852 -0.6749
    1PC      C210747   0.169   1.400   3.380  0.7247 -0.3543  0.3997
    1PC      HX10748   0.093   1.453   3.322  2.6141  1.7806 -0.1451
    1PC      C310749   0.309   1.404   3.308 -0.8467 -0.5710  0.1641
    1PC      HA10750   0.384   1.388   3.386 -0.8800  0.0371  0.3213
    1PC      HB10751   0.322   1.325   3.234 -0.3062 -0.4185  0.0962
    1PC     O3110752   0.340   1.537   3.249  0.2151 -0.0257 -0.2763
    1PC     P3110753   0.240   1.617   3.146  0.0697  0.7458 -0.1077
    1PC     O3210754   0.133   1.680   3.243  0.0579  0.1386  0.0930
    1PC     C3110755   0.164   1.783   3.337  0.1046  0.2901  0.9323
    1PC     H1A10756   0.094   1.768   3.419 -0.3815  1.5023  0.7477
    1PC     H1B10757   0.262   1.768   3.384  0.1226 -2.1483  0.1878
    1PC     C3210758   0.138   1.913   3.272  0.2529  0.7426  0.5143
    1PC     H2A10759   0.150   1.993   3.345  0.1700  1.7728 -0.6015
    1PC     H2B10760   0.206   1.915   3.187  1.3255  0.7252  1.3546
    1PC     N3110761  -0.007   1.946   3.238 -0.2171 -0.3767 -1.4227
    1PC     C3310762  -0.096   1.967   3.358  1.0179  0.2939 -1.1972
    1PC     H3A10763  -0.153   1.875   3.369  1.3100  0.2329 -0.1631
    1PC     H3B10764  -0.034   1.990   3.445 -0.3354 -1.7117  0.3455
    1PC     H3C10765  -0.170   2.043   3.330 -1.8152 -1.2166  1.7873
    1PC     C3410766   0.002   2.073   3.164  1.1833  0.4664 -0.1878
    1PC     H4A10767   0.079   2.131   3.215  0.1892  1.2999  0.3782
    1PC     H4B10768   0.036   2.050   3.063  0.1764  0.5850 -0.5532
    1PC     H4C10769  -0.097   2.119   3.160  1.1912  0.4952 -0.0411
    1PC     C3510770  -0.075   1.854   3.147 -0.0999  0.0177  0.6024
    1PC     H5A10771  -0.158   1.909   3.102 -1.2345 -2.6921 -0.7839
    1PC     H5B10772  -0.114   1.763   3.193 -1.1706 -0.3149 -0.9201
    1PC     H5C10773  -0.001   1.821   3.074 -0.2828 -1.7897  1.1981
    1PC     O3310774   0.311   1.726   3.077  0.4506 -0.0062  0.0752
    1PC     O3410775   0.175   1.515   3.058 -0.1510 -0.3246  0.0929
    1PC     O2110776   0.185   1.472   3.511  0.5186 -0.0810 -0.0233
    1PC     C2110777   0.069   1.494   3.580  0.0057  0.4763  0.6193
    1PC     O2210778  -0.040   1.472   3.538 -0.5388  0.5420 -0.1981
    1OL     C1210779   0.097   1.546   3.721  0.2364  0.4735 -0.2627
    1OL     H2R10780   0.099   1.655   3.730  0.8296  0.5603 -1.3913
    1OL     H2S10781   0.196   1.516   3.755 -0.1888 -0.3519  0.2740
    1OL     C1310782   0.003   1.482   3.830 -0.2721 -0.4107  0.1037
    1OL     H3R10783  -0.045   1.388   3.803 -1.0022  0.3369 -1.2549
    1OL     H3S10784  -0.085   1.545   3.844  0.4725  0.1777  2.4289
    1OL     C1410785   0.065   1.464   3.974  0.1216 -0.7008  1.3181
    1OL     H4R10786   0.134   1.547   3.992 -1.9727  0.6939  3.1921
    1OL     H4S10787   0.109   1.365   3.986 -1.2574 -1.6836 -1.4595
    1OL     C1510788  -0.047   1.481   4.081  0.4808  0.4664 -0.0027
    1OL     H5R10789  -0.117   1.397   4.081 -0.0872  0.9234 -1.3149
    1OL     H5S10790  -0.111   1.565   4.054  0.6020  0.6244  0.2062
    1OL     C1610791   0.004   1.505   4.227 -1.0902  0.3424 -0.9582
    1OL     H6R10792  -0.083   1.528   4.288 -0.1810  1.0917  0.0832
    1OL     H6S10793   0.064   1.596   4.227  0.2645 -0.5382 -3.0993
    1OL     C1710794   0.085   1.389   4.290  0.4108 -1.0000 -0.2318
    1OL     H7R10795   0.162   1.356   4.220  0.9796 -3.1849  1.3663
    1OL     H7S10796   0.021   1.303   4.309  0.7280 -1.1258  0.2793
    1OL     C1810797   0.159   1.423   4.424 -0.1444  0.5426  0.2067
    1OL     H8R10798   0.087   1.445   4.503 -0.9916 -1.2654 -0.0523
    1OL     H8S10799   0.229   1.506   4.410  0.8337 -0.0230  1.6212
    1OL     C1910800   0.230   1.302   4.487  0.2694 -0.3331 -0.8319
    1OL     H9R10801   0.174   1.210   4.476  0.5213 -1.1389  3.7287
    1OL    C11010802   0.347   1.305   4.555 -0.1826 -0.5416 -0.0709
    1OL    H10R10803   0.404   1.220   4.591 -1.1125 -0.8955  0.5849
    1OL    C11110804   0.429   1.433   4.576  1.0037  0.2749 -0.3082
    1OL    H11R10805   0.394   1.471   4.672  1.0813  1.2880 -0.6726
    1OL    H11S10806   0.413   1.509   4.500  0.2055  0.8467  0.4151
    1OL    C11210807   0.584   1.423   4.584 -0.2412 -0.1373  0.1304
    1OL    H12R10808   0.616   1.526   4.598  0.3606 -0.2832 -0.1123
    1OL    H12S10809   0.618   1.398   4.483  0.2288  0.0868  0.2315
    1OL    C11310810   0.630   1.323   4.692 -0.1379 -0.0514 -0.2514
    1OL    H13R10811   0.609   1.225   4.649 -0.7238 -0.1723  0.3025
    1OL    H13S10812   0.569   1.347   4.779  0.5598  0.5637  0.0667
    1OL    C11410813   0.779   1.343   4.720 -0.3859  0.3355  0.5097
    1OL    H14R10814   0.801   1.443   4.757 -0.1065  0.7050 -0.6517
    1OL    H14S10815   0.826   1.343   4.621 -1.5865  0.4224 -0.0751
    1OL    C11510816   0.856   1.234   4.801 -0.4810  0.9015  0.1051
    1OL    H15R10817   0.964   1.241   4.787 -0.7945 -0.7369 -4.0769
    1OL    H15S10818   0.838   1.142   4.745  0.6630  0.0544  1.1118
    1OL    C11610819   0.833   1.208   4.953 -0.2262 -0.6039 -0.4398
    1OL    H16R10820   0.877   1.113   4.983 -0.6853 -0.7744 -0.2920
    1OL    H16S10821   0.725   1.218   4.969 -0.0780  0.9160 -0.3116
    1OL    C11710822   0.887   1.313   5.058 -0.1295 -0.8999  0.1302
    1OL    H17R10823   0.996   1.318   5.046 -0.2564 -0.0883 -0.7514
    1OL    H17S10824   0.867   1.263   5.153 -0.1382  1.0928  1.2048
    1OL    C11810825   0.822   1.450   5.051  0.6056 -0.4802 -0.7127
    1OL    H18R10826   0.863   1.521   5.122  0.9238 -0.6032 -0.7765
    1OL    H18S10827   0.713   1.446   5.065  0.8640 -0.7227  1.3616
    1OL    H18T10828   0.854   1.494   4.957  0.8778 -0.3232 -0.5445
    1PA    C11610829   5.129   4.989   5.222 -0.1855 -0.2961 -0.5779
    1PA    H16R10830   5.049   4.918   5.244  0.4371 -1.1964 -1.1720
    1PA    H16S10831   5.163   5.024   5.319 -0.5591 -0.7790 -0.2720
    1PA    H16T10832   5.219   4.949   5.176  0.6503  0.8490  0.0475
    1PA    C11510833   5.082   5.097   5.131  0.5122 -0.0784  0.6811
    1PA    H15R10834   5.009   5.164   5.175 -0.2621 -1.0473  0.8923
    1PA    H15S10835   5.180   5.146   5.126 -1.0186  2.9270 -0.7233
    1PA    C11410836   5.026   5.050   4.993  0.5459 -0.3437  0.4411
    1PA    H14R10837   5.095   4.981   4.944 -1.0957 -2.2079  0.6670
    1PA    H14S10838   4.933   4.996   5.013  0.1850  0.1550  0.1067
    1PA    C11310839   4.979   5.164   4.895  0.4160 -0.3005 -0.8619
    1PA    H13R10840   4.905   5.131   4.822 -0.5738  1.7912 -0.8395
    1PA    H13S10841   4.922   5.237   4.953 -2.4380 -2.5968 -0.6560
    1PA    C11210842   5.101   5.223   4.814  0.0184  0.4115 -0.3301
    1PA    H12R10843   5.140   5.289   4.893  1.9431 -0.8521 -0.1883
    1PA    H12S10844   5.177   5.146   4.801 -0.2145 -0.0538  0.9914
    1PA    C11110845   5.074   5.304   4.679 -0.1001 -0.1447  0.1516
    1PA    H11R10846   5.015   5.236   4.617 -0.7750  0.7303 -0.1609
    1PA    H11S10847   5.025   5.398   4.703  1.1305  0.5474  0.0138
    1PA    C11010848   5.206   5.345   4.610 -0.5000  0.6288 -0.4513
    1PA    H10R10849   5.266   5.406   4.678 -0.3140 -0.1566  0.0953
    1PA    H10S10850   5.253   5.252   4.578 -0.7324  0.7961 -1.2879
    1PA     C1910851   5.172   5.410   4.477  0.2138  0.1341 -0.1163
    1PA     H9R10852   5.265   5.435   4.425  0.2872  2.8163  1.2201
    1PA     H9S10853   5.112   5.343   4.416  0.4732 -0.7573  0.5960
    1PA     C1810854   5.108   5.549   4.479  0.2960 -0.7074  0.1899
    1PA     H8R10855   5.002   5.549   4.506  0.7011 -3.5401  1.9841
    1PA     H8S10856   5.155   5.613   4.553  1.1888 -1.1855  0.0457
    1PA     C1710857   5.096   5.621   4.346 -0.3344  0.3501 -0.1345
    1PA     H7R10858   5.056   5.720   4.368 -0.4949  0.2546 -0.0030
    1PA     H7S10859   5.195   5.653   4.313 -0.9957  2.1409 -0.4545
    1PA     C1610860   5.011   5.566   4.238 -0.5273  0.1671 -0.7468
    1PA     H6R10861   5.047   5.468   4.207 -0.8674 -0.2246  0.0840
    1PA     H6S10862   4.911   5.541   4.275 -0.1105 -1.3534 -0.5910
    1PA     C1510863   4.992   5.648   4.118 -0.6866  0.0235  0.0871
    1PA     H5R10864   4.955   5.746   4.150 -0.5976 -0.2961  1.1883
    1PA     H5S10865   5.083   5.664   4.060 -0.2600  0.8965  0.9722
    1PA     C1410866   4.873   5.614   4.026  0.3354  0.0151  0.5713
    1PA     H4R10867   4.781   5.605   4.084  1.6798 -2.2317  2.4596
    1PA     H4S10868   4.862   5.695   3.954  0.3320 -1.7413 -1.4296
    1PA     C1310869   4.890   5.490   3.945 -0.2928 -0.0961  0.6575
    1PA     H3R10870   4.972   5.512   3.877 -1.3375  1.7956 -0.0297
    1PA     H3S10871   4.924   5.413   4.015 -2.2133 -1.9869 -0.4019
    1PA     C1210872   4.773   5.445   3.858  0.1439 -1.0221  0.0223
    1PA     H2R10873   4.787   5.339   3.838  0.8020 -0.8085 -0.6414
    1PA     H2S10874   4.680   5.462   3.914  1.3884  1.5839  1.3825
    1PC     C1110875   4.747   5.516   3.728  0.2993 -0.1515  0.4323
    1PC     O1210876   4.738   5.634   3.727 -0.0696 -0.1027 -0.0181
    1PC     O1110877   4.746   5.440   3.617 -0.2796 -0.4623 -0.2276
    1PC      C110878   4.738   5.498   3.483 -0.4206 -0.2392 -0.3391
    1PC      HR10879   4.685   5.428   3.418 -1.9538 -1.7262  2.4203
    1PC      HS10880   4.680   5.591   3.480  0.2886  0.2401  0.5821
    1PC      C210881   4.878   5.529   3.428 -0.5647 -0.5719 -0.1366
    1PC      HX10882   4.853   5.596   3.346  2.1119 -2.2239 -2.3915
    1PC      C310883   4.946   5.403   3.387 -0.6440  0.3538 -0.4470
    1PC      HA10884   4.959   5.334   3.470 -0.5364 -0.4923 -1.1520
    1PC      HB10885   4.881   5.348   3.318  0.9392 -0.3982 -1.3734
    1PC     O3110886   5.072   5.439   3.332 -0.0202  0.2983 -0.0644
    1PC     P3110887   5.080   5.499   3.177 -0.2316  0.0680 -0.3656
    1PC     O3210888   5.084   5.658   3.196 -0.1288  0.3783  0.3738
    1PC     C3110889   5.196   5.723   3.247 -0.5417  0.2234 -0.0043
    1PC     H1A10890   5.174   5.807   3.313  2.2681  2.7092 -2.1444
    1PC     H1B10891   5.252   5.651   3.307  1.3676 -0.4178 -2.4667
    1PC     C3210892   5.282   5.759   3.123  0.0829 -0.0954 -0.2876
    1PC     H2A10893   5.385   5.774   3.153  1.7242 -2.0538 -4.4941
    1PC     H2B10894   5.271   5.683   3.045  2.5576  1.0277 -1.7738
    1PC     N3110895   5.244   5.891   3.058  0.0581 -0.6619  0.4482
    1PC     C3310896   5.367   5.930   2.972  0.2727  0.3069  0.6583
    1PC     H3A10897   5.452   5.950   3.036 -0.2279  0.1565  1.3711
    1PC     H3B10898   5.375   5.834   2.921 -1.0759  1.0569 -1.0672
    1PC     H3C10899   5.337   6.013   2.907  3.1978  2.0339  1.4052
    1PC     C3410900   5.130   5.871   2.961 -0.0545  0.4259  0.2665
    1PC     H4A10901   5.109   5.967   2.914  1.8849 -0.1412 -1.8207
    1PC     H4B10902   5.161   5.800   2.885 -1.9375 -2.0232  1.7133
    1PC     H4C10903   5.043   5.835   3.016 -0.2214  1.1041  0.4557
    1PC     C3510904   5.218   6.000   3.153  0.3361  0.6545  0.0395
    1PC     H5A10905   5.218   6.089   3.089 -0.4580  0.5627 -0.0968
    1PC     H5B10906   5.298   6.002   3.226  2.0303  0.7043 -1.7598
    1PC     H5C10907   5.122   5.983   3.203  1.3762  1.1582  2.2606
    1PC     O3310908   5.206   5.463   3.116  0.3059  0.2243  0.3018
    1PC     O3410909   4.962   5.468   3.096 -0.7693 -0.7810 -0.1661
    1PC     O2110910   4.959   5.596   3.532  0.1593 -0.1428  1.1476
    1PC     C2110911   4.945   5.731   3.543 -0.2602 -0.0491  0.6406
    1PC     O2210912   4.887   5.800   3.462  0.4635 -0.1258 -0.7341
    1OL     C1210913   4.997   5.778   3.675 -0.6588 -0.0606  0.5135
    1OL     H2R10914   5.102   5.797   3.653 -0.8629 -0.5920 -0.9539
    1OL     H2S10915   5.004   5.696   3.746  0.4416 -1.4594 -1.1671
    1OL     C1310916   4.935   5.908   3.735 -0.3102  0.3067  0.2387
    1OL     H3R10917   4.829   5.888   3.751 -0.4017 -0.1138 -0.8934
    1OL     H3S10918   4.946   5.990   3.663 -0.2997  1.5898  1.6566
    1OL     C1410919   5.004   5.950   3.869 -0.5185  0.5415  0.0829
    1OL     H4R10920   4.987   5.865   3.935 -2.0518  0.6820 -0.1173
    1OL     H4S10921   4.950   6.031   3.919 -0.9559  1.2689 -1.5284
    1OL     C1510922   5.155   5.985   3.845  0.0762  0.8273 -0.5975
    1OL     H5R10923   5.165   6.078   3.789 -2.1720  1.2687 -0.3518
    1OL     H5S10924   5.208   5.906   3.792 -0.4966  0.0847 -0.0798
    1OL     C1610925   5.223   5.994   3.979  0.2873  0.1916  0.3175
    1OL     H6R10926   5.217   5.900   4.035  1.7360 -0.4583 -0.5950
    1OL     H6S10927   5.165   6.066   4.037  0.4871  1.3613 -0.9059
    1OL     C1710928   5.363   6.047   3.973 -0.2498 -0.5835 -0.8439
    1OL     H7R10929   5.427   5.966   3.938 -1.5279 -1.6291 -0.7511
    1OL     H7S10930   5.385   6.064   4.078 -2.4083 -0.9411 -0.3191
    1OL     C1810931   5.399   6.168   3.881  0.3845  0.2393 -0.0274
    1OL     H8R10932   5.344   6.258   3.910 -0.3980  0.4102 -2.0145
    1OL     H8S10933   5.365   6.147   3.780 -0.8186 -1.0722  0.6391
    1OL     C1910934   5.542   6.199   3.906 -0.2644 -0.0707  0.0297
    1OL     H9R10935   5.613   6.145   3.844 -1.4672  0.1088 -1.5535
    1OL    C11010936   5.586   6.279   3.999 -0.3288 -0.0250 -0.2699
    1OL    H10R10937   5.693   6.294   4.002 -0.2512 -0.5249 -0.4340
    1OL    C11110938   5.502   6.369   4.096 -0.4307  0.8539 -0.0146
    1OL    H11R10939   5.415   6.402   4.039  1.6455  0.4709 -3.5334
    1OL    H11S10940   5.557   6.459   4.127  0.8611 -0.1384  0.6425
    1OL    C11210941   5.466   6.300   4.226  0.3707 -0.8957 -0.5115
    1OL    H12R10942   5.400   6.214   4.218 -0.4035 -0.3022 -0.5883
    1OL    H12S10943   5.403   6.376   4.274  0.4062 -0.5523 -1.0090
    1OL    C11310944   5.576   6.263   4.327 -0.1276 -0.4352  0.3380
    1OL    H13R10945   5.641   6.348   4.348  1.7840 -1.7834  0.0304
    1OL    H13S10946   5.647   6.195   4.280  1.8968  1.8186  0.0665
    1OL    C11410947   5.528   6.198   4.460 -0.4098  0.2970 -0.7087
    1OL    H14R10948   5.455   6.265   4.507 -1.3163  0.3017 -2.0825
    1OL    H14S10949   5.613   6.190   4.528  0.5710 -1.4641 -2.1056
    1OL    C11510950   5.448   6.059   4.434  0.2663 -0.3881 -0.1348
    1OL    H15R10951   5.492   6.006   4.350  1.1530 -0.1548  0.1789
    1OL    H15S10952   5.343   6.082   4.412 -0.0274 -0.9522  0.6266
    1OL    C11610953   5.456   5.968   4.562 -0.0625  0.6029  0.8241
    1OL    H16R10954   5.436   6.021   4.655  0.7674 -0.8226  1.8260
    1OL    H16S10955   5.559   5.933   4.565 -0.9367 -2.2102 -0.1739
    1OL    C11710956   5.365   5.848   4.570  0.2746 -0.2307 -0.5619
    1OL    H17R10957   5.381   5.786   4.658 -0.8651 -2.0370 -1.5888
    1OL    H17S10958   5.364   5.778   4.487  1.8797  0.6693 -1.3667
    1OL    C11810959   5.224   5.908   4.574  0.9766  0.0444  0.3790
    1OL    H18R10960   5.156   5.829   4.606 -1.3422  1.8970  0.1613
    1OL    H18S10961   5.193   5.951   4.478  1.1062  2.0187  1.2049
    1OL    H18T10962   5.220   5.985   4.651 -0.0190 -1.5201  1.9163
    1PA    C11610963   2.781   5.081   4.549 -0.1483 -0.3250 -0.0670
    1PA    H16R10964   2.733   5.017   4.623 -1.7794  1.6422  0.6417
    1PA    H16S10965   2.889   5.087   4.565 -0.2961  1.4103  0.4220
    1PA    H16T10966   2.764   5.034   4.452 -1.1963 -0.7480  0.3198
    1PA    C11510967   2.725   5.222   4.563  0.5702 -0.4388  0.6187
    1PA    H15R10968   2.721   5.261   4.665 -2.8251  0.2979  0.2960
    1PA    H15S10969   2.804   5.266   4.501  0.2519  1.4804  1.5214
    1PA    C11410970   2.583   5.242   4.491 -0.1999  0.7387 -0.0572
    1PA    H14R10971   2.555   5.347   4.479 -2.3698  0.3325  1.1587
    1PA    H14S10972   2.615   5.210   4.392  0.0987 -1.2559  0.6504
    1PA    C11310973   2.464   5.157   4.549  0.1489 -0.4010 -0.4809
    1PA    H13R10974   2.477   5.050   4.527  0.5642 -0.7483  1.3320
    1PA    H13S10975   2.460   5.158   4.658 -1.8499 -4.1447 -0.4085
    1PA    C11210976   2.331   5.210   4.490  0.5131  0.7972 -0.4991
    1PA    H12R10977   2.318   5.318   4.503 -3.4683  0.3420 -0.0010
    1PA    H12S10978   2.330   5.189   4.383 -0.7879 -2.6420  0.1162
    1PA    C11110979   2.210   5.140   4.554  0.3363  0.5468 -0.6388
    1PA    H11R10980   2.229   5.036   4.582  1.5511  1.4356  1.9998
    1PA    H11S10981   2.196   5.200   4.644 -0.5940  0.0323 -0.4294
    1PA    C11010982   2.084   5.140   4.464  0.4118  0.3286  0.0136
    1PA    H10R10983   2.096   5.083   4.372  1.4377 -1.4828  1.2250
    1PA    H10S10984   1.998   5.099   4.517  1.1285 -3.3822 -1.5447
    1PA     C1910985   2.028   5.288   4.444 -0.8199  0.2407 -0.3548
    1PA     H9R10986   2.011   5.343   4.537 -2.8319  1.3085 -1.3135
    1PA     H9S10987   2.106   5.345   4.394  0.4387 -2.5020 -1.5815
    1PA     C1810988   1.898   5.291   4.359  0.6735 -0.6292  0.4227
    1PA     H8R10989   1.819   5.255   4.426 -1.4612  1.2693 -0.9898
    1PA     H8S10990   1.874   5.394   4.330 -1.1278 -0.3446  2.7324
    1PA     C1710991   1.900   5.206   4.229  0.3435  0.5695  0.4269
    1PA     H7R10992   1.924   5.102   4.256 -1.6286  0.4472  1.7957
    1PA     H7S10993   1.800   5.203   4.186  0.0051  1.9910  1.0899
    1PA     C1610994   2.007   5.262   4.136 -0.8878  0.2153  0.1812
    1PA     H6R10995   2.003   5.371   4.129 -1.8740  0.2778  1.6044
    1PA     H6S10996   2.107   5.241   4.174 -0.6110  0.7613 -0.2342
    1PA     C1510997   2.000   5.193   4.000 -0.6236  0.5121  0.8742
    1PA     H5R10998   2.024   5.087   4.013  2.0025  1.2873  2.9286
    1PA     H5S10999   1.899   5.204   3.960  0.3229  0.7254 -1.5331
    1PA     C1411000   2.106   5.251   3.908 -0.7118 -0.3023 -0.7042
    1PA     H4R11001   2.074   5.353   3.884  0.5356  0.4878  0.8982
    1PA     H4S11002   2.198   5.252   3.967 -0.2156 -1.7842 -1.4352
    1PA     C1311003   2.110   5.181   3.768  0.4581 -0.5453  0.0306
    1PA     H3R11004   2.015   5.181   3.713 -0.3601  0.1004  1.4111
    1PA     H3S11005   2.182   5.224   3.698 -0.4452 -1.4928 -1.5161
    1PA     C1211006   2.138   5.030   3.771  0.6589  0.2750 -0.5501
    1PA     H2R11007   2.239   5.024   3.813 -0.4966 -0.6849  2.2157
    1PA     H2S11008   2.061   4.985   3.834  0.0795  3.4850  1.1394
    1PC     C1111009   2.145   4.967   3.634 -0.1970  0.0101 -1.1569
    1PC     O1211010   2.242   4.975   3.561 -0.1791 -0.0466  0.1066
    1PC     O1111011   2.029   4.909   3.597 -0.7602 -0.0463  0.5268
    1PC      C111012   2.010   4.844   3.472 -0.1408  0.1488  0.0195
    1PC      HR11013   2.100   4.857   3.411 -0.5567 -2.0985 -1.1151
    1PC      HS11014   1.982   4.741   3.492  1.1849 -0.1898  0.1980
    1PC      C211015   1.899   4.920   3.403  0.1749 -0.4154  0.4127
    1PC      HX11016   1.877   4.880   3.304 -1.2547  2.3455 -0.4324
    1PC      C311017   1.933   5.067   3.371 -0.0221  1.0452  0.1472
    1PC      HA11018   1.919   5.130   3.459 -0.7181  0.8957  0.1552
    1PC      HB11019   2.034   5.077   3.332 -0.6887  0.9642 -1.6966
    1PC     O3111020   1.836   5.116   3.276 -0.4089  0.4875 -0.2947
    1PC     P3111021   1.874   5.206   3.144 -0.1544  0.5255  0.1171
    1PC     O3211022   1.899   5.358   3.204  0.4550  0.2457  0.0779
    1PC     C3111023   1.793   5.450   3.230  0.2838  0.0804 -0.1462
    1PC     H1A11024   1.698   5.402   3.205 -0.4252  2.0562 -1.4319
    1PC     H1B11025   1.788   5.491   3.331 -1.3057 -1.1101  0.2856
    1PC     C3211026   1.809   5.577   3.132  0.7550 -0.3628  0.6866
    1PC     H2A11027   1.787   5.543   3.031  0.2342  0.6702  0.4499
    1PC     H2B11028   1.740   5.654   3.167 -0.5216 -1.2902  0.2515
    1PC     N3111029   1.943   5.646   3.137  0.4383  0.1697 -0.6077
    1PC     C3311030   2.060   5.573   3.074 -0.5968 -0.4210  0.2244
    1PC     H3A11031   2.068   5.473   3.119 -0.0013 -1.1477 -1.4655
    1PC     H3B11032   2.039   5.569   2.967 -2.9865  0.7587  0.6167
    1PC     H3C11033   2.152   5.631   3.087  0.9921 -2.2745 -2.2945
    1PC     C3411034   1.929   5.762   3.044  0.5647  0.3629  0.2433
    1PC     H4A11035   1.889   5.735   2.946 -0.4283  0.1103  0.7059
    1PC     H4B11036   1.857   5.828   3.092  1.7368  1.9471 -0.1462
    1PC     H4C11037   2.030   5.801   3.032  0.7449  0.6344  2.5521
    1PC     C3511038   1.968   5.701   3.271 -0.3588  0.3321  0.2214
    1PC     H5A11039   1.979   5.615   3.337  1.5299 -0.6756 -1.3347
    1PC     H5B11040   1.883   5.758   3.309  0.8200  2.1205  0.2260
    1PC     H5C11041   2.060   5.760   3.271  0.5778 -1.1164  0.6224
    1PC     O3311042   2.011   5.170   3.097  0.5594  0.6284 -0.2844
    1PC     O3411043   1.760   5.199   3.046  0.8568 -0.2828  0.0685
    1PC     O2111044   1.778   4.917   3.481  0.0975 -0.0693 -0.0627
    1PC     C2111045   1.692   4.809   3.469  0.3494  0.3322  0.2185
    1PC     O2211046   1.720   4.708   3.409  0.1898 -0.2355  0.4218
    1OL     C1211047   1.555   4.826   3.517 -0.9634  0.0711  0.2656
    1OL     H2R11048   1.489   4.749   3.475 -0.0317 -1.6171  1.8047
    1OL     H2S11049   1.521   4.915   3.464 -0.4316 -0.6691 -1.3718
    1OL     C1311050   1.557   4.850   3.667  0.2182  0.1621  0.1458
    1OL     H3R11051   1.631   4.929   3.677  1.1379 -0.8705  1.7267
    1OL     H3S11052   1.583   4.761   3.725 -1.5354 -1.2498 -1.1893
    1OL     C1411053   1.429   4.916   3.724  0.0448 -0.5218 -0.3085
    1OL     H4R11054   1.401   4.994   3.653  0.6435  1.5972  1.7094
    1OL     H4S11055   1.463   4.958   3.819 -1.8973 -0.8353  0.5370
    1OL     C1511056   1.315   4.811   3.742 -0.1795  0.2249  0.3779
    1OL     H5R11057   1.291   4.761   3.648 -0.5762 -1.9356  1.5978
    1OL     H5S11058   1.222   4.862   3.769 -2.3408 -3.3425  0.0121
    1OL     C1611059   1.348   4.708   3.854 -0.1542 -0.0990  0.0294
    1OL     H6R11060   1.390   4.764   3.937  2.1989 -0.7931 -0.6621
    1OL     H6S11061   1.436   4.651   3.825 -0.3618 -0.7884  0.7394
    1OL     C1711062   1.239   4.602   3.889 -0.0303 -0.2208  0.2081
    1OL     H7R11063   1.282   4.546   3.973 -0.1035 -0.1845  0.2696
    1OL     H7S11064   1.226   4.526   3.811  0.8165 -0.7241  0.5516
    1OL     C1811065   1.093   4.648   3.926 -0.1273 -0.2052 -0.5139
    1OL     H8R11066   1.043   4.560   3.966  1.1544 -1.0482 -0.7462
    1OL     H8S11067   1.046   4.672   3.830 -0.8662  0.8870  0.1124
    1OL     C1911068   1.095   4.762   4.025  0.8447 -0.7428 -0.1180
    1OL     H9R11069   1.104   4.858   3.974  0.4937 -1.0801 -0.8206
    1OL    C11011070   1.085   4.753   4.158  0.2872  0.1876  0.2277
    1OL    H10R11071   1.074   4.846   4.213  2.2522 -0.0742  1.0943
    1OL    C11111072   1.084   4.632   4.254  0.5287  0.0996  0.3914
    1OL    H11R11073   1.083   4.532   4.209  1.2417 -0.1805  0.9873
    1OL    H11S11074   0.994   4.636   4.315 -0.2817  1.9440 -0.8661
    1OL    C11211075   1.206   4.651   4.341  0.1914  0.6503  0.1302
    1OL    H12R11076   1.182   4.737   4.404 -0.0339  1.1652 -0.6452
    1OL    H12S11077   1.300   4.671   4.289  0.2114 -0.0325 -0.1072
    1OL    C11311078   1.224   4.526   4.433 -0.1069 -0.6903  0.4338
    1OL    H13R11079   1.244   4.436   4.375  0.7371  0.4166 -1.0462
    1OL    H13S11080   1.128   4.517   4.484 -0.2549 -1.1049  0.0821
    1OL    C11411081   1.327   4.535   4.550  0.1641  0.2212  0.9291
    1OL    H14R11082   1.291   4.618   4.611  1.6243  2.0462 -0.6184
    1OL    H14S11083   1.423   4.560   4.504 -1.1041  1.9247 -0.9161
    1OL    C11511084   1.338   4.408   4.626 -0.4640  0.3235  0.5746
    1OL    H15R11085   1.385   4.336   4.559 -1.1724  1.5284 -1.2784
    1OL    H15S11086   1.239   4.366   4.648 -0.5419  0.6076  0.7753
    1OL    C11611087   1.432   4.420   4.749 -0.3479  0.0518 -0.7243
    1OL    H16R11088   1.534   4.452   4.728 -0.7442  0.4237 -2.0915
    1OL    H16S11089   1.432   4.326   4.805 -0.7631  0.0947 -0.6526
    1OL    C11711090   1.390   4.522   4.860 -0.0221  0.7278  0.3178
    1OL    H17R11091   1.287   4.504   4.892 -0.1173 -1.3936 -1.0309
    1OL    H17S11092   1.385   4.621   4.814 -0.4570  0.5884  0.0618
    1OL    C11811093   1.482   4.517   4.978  0.3327 -0.6965  0.2009
    1OL    H18R11094   1.437   4.566   5.065  0.1131 -2.1006  0.8877
    1OL    H18S11095   1.570   4.581   4.967 -0.9528  1.4145  2.0006
    1OL    H18T11096   1.522   4.417   4.996  3.7955  0.3612 -1.1520
    1PA    C11611097   0.618   3.803   5.417 -0.1996  0.4316  0.2131
    1PA    H16R11098   0.666   3.901   5.416  0.8977 -0.0810  1.2191
    1PA    H16S11099   0.705   3.743   5.445  1.2624  1.9392 -0.9735
    1PA    H16T11100   0.535   3.794   5.487 -0.0795  2.3089  0.6267
    1PA    C11511101   0.566   3.765   5.278  0.7598 -0.0041 -0.0154
    1PA    H15R11102   0.498   3.838   5.234  0.5100  1.2523  2.4276
    1PA    H15S11103   0.653   3.756   5.213 -0.5822  2.2087 -2.1931
    1PA    C11411104   0.496   3.630   5.289  0.1401 -0.0223  0.0130
    1PA    H14R11105   0.555   3.560   5.348 -0.9559 -0.2734  0.8273
    1PA    H14S11106   0.396   3.643   5.331 -0.0173  1.8422 -0.8619
    1PA    C11311107   0.484   3.578   5.144 -0.2844  0.5984  0.6439
    1PA    H13R11108   0.425   3.486   5.139  0.7155 -0.0405  0.4535
    1PA    H13S11109   0.426   3.651   5.086 -2.1692  0.0429  1.7670
    1PA    C11211110   0.611   3.550   5.059  0.1760 -0.6880 -0.6620
    1PA    H12R11111   0.672   3.640   5.054  0.8711 -1.1001  0.3469
    1PA    H12S11112   0.675   3.476   5.108 -0.9389  1.4823  4.3001
    1PA    C11111113   0.589   3.499   4.917  0.4525 -0.1298 -0.1632
    1PA    H11R11114   0.686   3.500   4.867  0.5092  1.6857 -0.0585
    1PA    H11S11115   0.553   3.396   4.922  1.0545 -0.4160 -1.4942
    1PA    C11011116   0.496   3.586   4.824 -0.3720 -0.3998 -0.1459
    1PA    H10R11117   0.414   3.627   4.882  0.1055  0.1711  0.1340
    1PA    H10S11118   0.548   3.680   4.804 -0.7418 -0.0604  0.4869
    1PA     C1911119   0.444   3.528   4.691  1.0941  0.0985 -0.0593
    1PA     H9R11120   0.404   3.427   4.701  0.6640  0.4088  1.4732
    1PA     H9S11121   0.361   3.586   4.651  1.6441  0.8178 -0.1673
    1PA     C1811122   0.550   3.518   4.576  0.4976  0.6184 -0.4250
    1PA     H8R11123   0.628   3.592   4.594  1.0830 -0.4364  1.4819
    1PA     H8S11124   0.596   3.420   4.590 -0.4540  0.3913  1.2715
    1PA     C1711125   0.480   3.517   4.436  0.5846 -0.1840  0.7337
    1PA     H7R11126   0.413   3.603   4.434  1.2326  0.3120 -0.3550
    1PA     H7S11127   0.559   3.538   4.364 -0.0629  2.9887  0.8664
    1PA     C1611128   0.401   3.395   4.397 -0.0713 -0.3724 -0.3902
    1PA     H6R11129   0.463   3.307   4.376  0.1503 -0.9322  2.3829
    1PA     H6S11130   0.336   3.358   4.476 -0.5160 -1.0020 -1.0356
    1PA     C1511131   0.304   3.429   4.282  0.2789 -0.2240 -0.6754
    1PA     H5R11132   0.225   3.356   4.263 -0.7018  0.7159 -0.2848
    1PA     H5S11133   0.246   3.516   4.311 -0.1827 -0.5731 -0.5478
    1PA     C1411134   0.370   3.455   4.143  0.1366 -0.9815  0.4077
    1PA     H4R11135   0.448   3.530   4.156 -0.7018 -0.0301  0.0286
    1PA     H4S11136   0.418   3.363   4.110 -0.7835 -1.3258  0.0192
    1PA     C1311137   0.275   3.503   4.026 -0.1750 -0.4464  0.1293
    1PA     H3R11138   0.218   3.594   4.043  1.4639  0.5088  0.5923
    1PA     H3S11139   0.346   3.528   3.946 -0.0689 -0.5640  0.1862
    1PA     C1211140   0.174   3.396   3.978  0.0842  0.2221 -0.1214
    1PA     H2R11141   0.225   3.301   3.961  1.8003  0.9965  0.5319
    1PA     H2S11142   0.098   3.393   4.057 -0.6773  1.2647 -0.7969
    1PC     C1111143   0.108   3.435   3.851  0.8715  0.2731  0.1176
    1PC     O1211144   0.151   3.520   3.780 -0.1452 -0.5287  0.0927
    1PC     O1111145  -0.006   3.366   3.820 -0.7087  0.5247  0.0644
    1PC      C111146  -0.075   3.385   3.697 -0.0667 -0.3007 -0.0217
    1PC      HR11147  -0.069   3.492   3.673 -1.5600 -0.1838  0.0385
    1PC      HS11148  -0.023   3.323   3.624 -1.0004  1.7116 -2.4815
    1PC      C211149  -0.218   3.319   3.699 -0.9458 -0.3289  0.4371
    1PC      HX11150  -0.196   3.217   3.731  3.0434  0.5626  0.7642
    1PC      C311151  -0.282   3.326   3.561  0.3272  0.0364 -0.2256
    1PC      HA11152  -0.379   3.274   3.561 -0.1508  0.9124 -0.3117
    1PC      HB11153  -0.294   3.430   3.529  1.0987  0.1923 -0.0122
    1PC     O3111154  -0.194   3.251   3.472 -0.2649 -0.1076 -0.2905
    1PC     P3111155  -0.134   3.320   3.348 -0.0727  0.3806  0.1250
    1PC     O3211156  -0.030   3.438   3.409 -0.3702 -0.0367 -0.0017
    1PC     C3111157  -0.044   3.574   3.364 -0.4453  0.4976  0.2362
    1PC     H1A11158   0.011   3.577   3.270 -0.2820  0.5644  0.3340
    1PC     H1B11159  -0.147   3.609   3.359 -0.7194 -0.5078 -1.6693
    1PC     C3211160   0.032   3.664   3.471  0.3641 -0.1702  0.2395
    1PC     H2A11161   0.008   3.770   3.458  2.1869  0.3424  0.8531
    1PC     H2B11162  -0.001   3.632   3.569  0.4849  2.3496  1.1501
    1PC     N3111163   0.180   3.654   3.465 -0.1513  0.1887 -0.2243
    1PC     C3311164   0.228   3.733   3.584 -0.2371 -0.1141 -0.7912
    1PC     H3A11165   0.231   3.839   3.558 -0.2974 -0.1890 -1.1063
    1PC     H3B11166   0.158   3.714   3.665 -0.1055  0.4979 -0.5374
    1PC     H3C11167   0.326   3.697   3.613  0.1692  0.0777 -1.8820
    1PC     C3411168   0.226   3.518   3.486  0.1911 -0.1040  0.0261
    1PC     H4A11169   0.335   3.520   3.488  0.2248 -1.3714 -0.2436
    1PC     H4B11170   0.177   3.484   3.577  0.1146  0.5912  0.2448
    1PC     H4C11171   0.199   3.447   3.408  1.5640 -0.3412 -0.2460
    1PC     C3511172   0.241   3.704   3.341  0.1597 -0.8498 -0.1351
    1PC     H5A11173   0.349   3.704   3.356  0.3737  2.6988 -1.2133
    1PC     H5B11174   0.206   3.805   3.320  2.1716 -0.0992  0.0523
    1PC     H5C11175   0.207   3.645   3.256  2.6689 -2.6293  0.0382
    1PC     O3311176  -0.057   3.213   3.282 -1.0948  0.6044 -0.0772
    1PC     O3411177  -0.247   3.383   3.280 -0.2370  0.6514 -0.1792
    1PC     O2111178  -0.301   3.385   3.807 -0.3249  0.1585 -0.0173
    1PC     C2111179  -0.367   3.311   3.895 -0.3381  0.2131  0.7589
    1PC     O2211180  -0.379   3.185   3.885 -0.5955  0.3582  0.2123
    1OL     C1211181  -0.436   3.385   4.000 -0.0971 -1.1607  0.2133
    1OL     H2R11182  -0.539   3.389   3.964 -0.0076 -2.7288 -0.2241
    1OL     H2S11183  -0.389   3.484   4.007 -0.8444 -0.5798 -2.4000
    1OL     C1311184  -0.425   3.318   4.138  0.4129  0.6637 -0.3204
    1OL     H3R11185  -0.322   3.301   4.170  0.2483 -1.2987 -0.7637
    1OL     H3S11186  -0.466   3.216   4.131  0.3068  0.3347  4.0923
    1OL     C1411187  -0.505   3.397   4.240 -0.8918  0.3433  0.6556
    1OL     H4R11188  -0.599   3.426   4.192  0.1768  2.0311 -0.4817
    1OL     H4S11189  -0.461   3.495   4.258 -0.4406  0.1852  0.4355
    1OL     C1511190  -0.520   3.310   4.370 -0.0729  0.0992  0.0008
    1OL     H5R11191  -0.422   3.286   4.411 -0.9786 -0.2144  2.0721
    1OL     H5S11192  -0.596   3.232   4.365  1.1491 -1.0082 -1.7458
    1OL     C1611193  -0.569   3.410   4.472 -0.0220 -0.4221 -0.2329
    1OL     H6R11194  -0.669   3.436   4.438  0.9346  3.6999 -0.1429
    1OL     H6S11195  -0.510   3.501   4.475  0.5316 -0.7887  0.4308
    1OL     C1711196  -0.569   3.361   4.621 -0.3188  0.3743  0.0266
    1OL     H7R11197  -0.625   3.268   4.638  0.5810 -0.4037 -1.1526
    1OL     H7S11198  -0.609   3.442   4.682 -0.4740  1.7087 -1.8106
    1OL     C1811199  -0.428   3.347   4.679  0.6333 -0.0490  0.4412
    1OL     H8R11200  -0.398   3.445   4.715 -0.7181  0.4472  0.2450
    1OL     H8S11201  -0.361   3.315   4.598 -1.4432 -0.7876 -1.0212
    1OL     C1911202  -0.434   3.238   4.780  0.5585  0.3331  0.1512
    1OL     H9R11203  -0.466   3.144   4.736 -0.2150  0.0703  1.2449
    1OL    C11011204  -0.407   3.244   4.907  0.1536 -0.4359 -0.6882
    1OL    H10R11205  -0.413   3.158   4.973  0.7661 -0.1622 -0.2637
    1OL    C11111206  -0.359   3.372   4.987  0.2280 -0.9855  0.2700
    1OL    H11R11207  -0.449   3.426   5.018 -1.2554 -3.1905 -0.0360
    1OL    H11S11208  -0.295   3.440   4.930 -0.2054 -0.8347 -0.0388
    1OL    C11211209  -0.256   3.339   5.094  1.1586  0.0501  0.4158
    1OL    H12R11210  -0.291   3.255   5.155 -0.3661  0.8288  0.6321
    1OL    H12S11211  -0.259   3.425   5.161  0.7587  0.3102  0.0578
    1OL    C11311212  -0.115   3.303   5.035 -0.0543 -0.0279  0.5144
    1OL    H13R11213  -0.089   3.374   4.956 -2.0280 -1.4992 -1.5223
    1OL    H13S11214  -0.124   3.205   4.988  0.2219  0.4282 -0.5060
    1OL    C11411215  -0.005   3.294   5.142  0.6388  0.7531  0.5988
    1OL    H14R11216  -0.025   3.218   5.217 -0.2391  0.6461  0.2519
    1OL    H14S11217  -0.001   3.388   5.197  0.6996 -0.1066  2.0766
    1OL    C11511218   0.125   3.250   5.079 -0.3319  0.4704  0.4542
    1OL    H15R11219   0.151   3.320   4.998 -0.6874 -1.9650 -1.8233
    1OL    H15S11220   0.105   3.153   5.033 -1.0066  0.6560  0.3576
    1OL    C11611221   0.241   3.232   5.174 -0.1718  0.4105  0.4296
    1OL    H16R11222   0.285   3.327   5.207  0.8228  0.0115  0.2787
    1OL    H16S11223   0.323   3.185   5.119 -0.8399 -1.2256  0.8090
    1OL    C11711224   0.204   3.144   5.296  0.0741  0.2699 -0.4617
    1OL    H17R11225   0.150   3.054   5.266  2.1808 -0.6644 -1.5775
    1OL    H17S11226   0.139   3.199   5.365  1.0588 -0.5155  1.1171
    1OL    C11811227   0.329   3.099   5.367  0.1331 -0.3583 -0.1459
    1OL    H18R11228   0.383   3.017   5.320  0.8092 -0.3296  0.5577
    1OL    H18S11229   0.300   3.051   5.461  0.0321  0.3185  0.1712
    1OL    H18T11230   0.399   3.181   5.384  1.4310 -0.8841 -2.7313
    1PA    C11611231   0.506   4.830   5.089 -0.4091 -0.2786 -0.3179
    1PA    H16R11232   0.444   4.898   5.147  1.0094 -0.5917  1.6172
    1PA    H16S11233   0.599   4.882   5.067 -0.6447  0.1306 -0.3485
    1PA    H16T11234   0.529   4.742   5.150 -4.3933 -2.1689 -1.3288
    1PA    C11511235   0.446   4.776   4.961 -0.1116  0.1362  0.5460
    1PA    H15R11236   0.363   4.713   4.992 -0.1197  1.1512  2.6694
    1PA    H15S11237   0.397   4.854   4.903  0.4269 -0.0694 -0.1940
    1PA    C11411238   0.541   4.692   4.875  0.4679  0.3520 -0.4074
    1PA    H14R11239   0.631   4.742   4.839  1.5097 -0.4554  1.0108
    1PA    H14S11240   0.575   4.608   4.936 -1.2219  0.1390  0.2665
    1PA    C11311241   0.467   4.635   4.753  0.1566 -0.3675  0.1621
    1PA    H13R11242   0.393   4.567   4.795 -2.3770  1.0227 -1.8984
    1PA    H13S11243   0.402   4.708   4.704  0.7217 -1.2949 -2.0226
    1PA    C11211244   0.549   4.564   4.645 -0.1219 -0.1662 -0.0214
    1PA    H12R11245   0.580   4.640   4.572  1.8869 -0.3282  0.6507
    1PA    H12S11246   0.641   4.514   4.675  2.1085  2.7701 -1.6003
    1PA    C11111247   0.458   4.474   4.562  0.2976 -0.4636  0.4455
    1PA    H11R11248   0.399   4.414   4.633  2.2635 -1.5642  1.1747
    1PA    H11S11249   0.383   4.536   4.513  0.0949 -0.3524  0.8919
    1PA    C11011250   0.539   4.371   4.478 -0.0042 -0.2201  0.1113
    1PA    H10R11251   0.586   4.294   4.539 -1.7501 -2.2541 -1.0370
    1PA    H10S11252   0.466   4.314   4.420 -0.5548 -0.4867  1.0410
    1PA     C1911253   0.646   4.430   4.386 -0.1758 -0.4454 -0.1838
    1PA     H9R11254   0.712   4.504   4.433  0.8539 -0.8459 -0.9670
    1PA     H9S11255   0.715   4.357   4.344  1.1353  2.3658 -3.1435
    1PA     C1811256   0.584   4.515   4.280  0.2145  0.5157  0.2173
    1PA     H8R11257   0.529   4.450   4.211 -0.5136 -0.5079  1.7478
    1PA     H8S11258   0.519   4.593   4.319 -0.2316 -0.1991  0.9008
    1PA     C1711259   0.693   4.582   4.201  1.3980  0.9047 -0.0459
    1PA     H7R11260   0.740   4.665   4.254  2.9282  0.6104 -0.9094
    1PA     H7S11261   0.757   4.503   4.161 -2.2836 -2.1851 -0.0741
    1PA     C1611262   0.623   4.654   4.079  0.2366  0.0602 -0.4180
    1PA     H6R11263   0.566   4.587   4.015  2.0618  0.0684 -2.0710
    1PA     H6S11264   0.540   4.716   4.115  0.1623  0.1596 -0.7580
    1PA     C1511265   0.718   4.752   4.000  0.3836 -0.4257 -0.2408
    1PA     H5R11266   0.793   4.791   4.070  0.4134 -0.8465 -0.0355
    1PA     H5S11267   0.758   4.705   3.910 -0.4398 -1.1670 -0.2257
    1PA     C1411268   0.638   4.869   3.950 -0.3896 -0.5075  0.6556
    1PA     H4R11269   0.570   4.834   3.871  1.6113  0.1936 -1.4128
    1PA     H4S11270   0.582   4.917   4.031 -0.7928 -0.8281  0.5706
    1PA     C1311271   0.740   4.964   3.891 -0.0961  0.3647 -0.4638
    1PA     H3R11272   0.790   5.010   3.976  0.4033  1.8199 -1.5229
    1PA     H3S11273   0.820   4.916   3.832 -0.3130  1.1314 -1.3983
    1PA     C1211274   0.679   5.079   3.805 -0.9222  0.1481  0.1243
    1PA     H2R11275   0.589   5.115   3.856 -1.4580 -1.6836  0.5135
    1PA     H2S11276   0.750   5.162   3.801 -0.3310 -0.2789  1.5745
    1PC     C1111277   0.646   5.036   3.662  0.8233 -0.3600  0.5307
    1PC     O1211278   0.702   5.093   3.571 -0.4103  0.1068  0.2177
    1PC     O1111279   0.556   4.941   3.645  0.2643 -0.1785 -0.7642
    1PC      C111280   0.500   4.904   3.518  0.8447 -0.1082 -0.7932
    1PC      HR11281   0.416   4.963   3.481  0.0318 -1.3602 -0.9626
    1PC      HS11282   0.586   4.914   3.450  1.7749 -2.2881  0.0267
    1PC      C211283   0.458   4.762   3.513 -0.0140  0.3631 -0.5924
    1PC      HX11284   0.544   4.696   3.525  1.4823  2.6200  1.5441
    1PC      C311285   0.396   4.716   3.373 -0.1855  0.3976 -0.1856
    1PC      HA11286   0.352   4.617   3.388 -1.2411  1.3243  3.5357
    1PC      HB11287   0.317   4.787   3.345 -1.8321 -0.6041  1.7838
    1PC     O3111288   0.504   4.715   3.270  0.1353 -0.2592  0.0383
    1PC     P3111289   0.487   4.616   3.142  0.2144  0.1187  0.1022
    1PC     O3211290   0.501   4.717   3.025 -0.1681  0.0745  0.3716
    1PC     C3111291   0.416   4.830   3.006 -0.4585  0.0321 -0.0918
    1PC     H1A11292   0.313   4.803   3.026 -0.1656 -0.3109  0.9523
    1PC     H1B11293   0.455   4.907   3.073  1.4806 -1.3969  0.4567
    1PC     C3211294   0.448   4.865   2.858  0.2483  0.2924  0.2426
    1PC     H2A11295   0.554   4.882   2.837  0.3206 -1.0693 -0.5584
    1PC     H2B11296   0.424   4.769   2.812 -2.1375  0.6378  0.7145
    1PC     N3111297   0.376   4.976   2.785  0.4422 -0.4577 -0.2680
    1PC     C3311298   0.234   4.924   2.776  0.3598 -0.2396 -0.2105
    1PC     H3A11299   0.188   4.967   2.866 -0.8284 -2.0981  0.1055
    1PC     H3B11300   0.191   4.958   2.682 -0.6980 -0.1157  0.3070
    1PC     H3C11301   0.227   4.816   2.790 -1.3738 -0.7040 -4.1826
    1PC     C3411302   0.392   5.111   2.851 -0.2933  1.3098  0.4521
    1PC     H4A11303   0.341   5.108   2.947  1.2500 -2.2884  1.2183
    1PC     H4B11304   0.498   5.114   2.878 -0.4886 -2.0776  1.7515
    1PC     H4C11305   0.367   5.190   2.779 -0.5801  0.0692 -0.8229
    1PC     C3511306   0.434   4.983   2.651  0.0128  0.3534 -0.5300
    1PC     H5A11307   0.458   4.884   2.613  0.8545  0.1441  0.5244
    1PC     H5B11308   0.520   5.048   2.667 -0.2561  0.0959  2.2611
    1PC     H5C11309   0.356   5.028   2.589 -0.1792 -2.1233 -2.1257
    1PC     O3311310   0.598   4.516   3.139 -0.0412 -0.1266 -0.1414
    1PC     O3411311   0.354   4.562   3.144 -0.1218 -0.6683 -0.3014
    1PC     O2111312   0.348   4.742   3.603  0.0173 -0.4262  0.4703
    1PC     C2111313   0.381   4.678   3.719 -0.0836 -0.2709 -0.3202
    1PC     O2211314   0.490   4.633   3.749  0.4038 -0.2213 -0.1254
    1OL     C1211315   0.263   4.682   3.809 -0.2882 -0.0836 -0.2632
    1OL     H2R11316   0.248   4.576   3.832 -1.0371 -0.3206 -1.7604
    1OL     H2S11317   0.179   4.711   3.746 -1.5701 -0.9271  1.0292
    1OL     C1311318   0.271   4.772   3.933  0.2467  1.0395  0.0138
    1OL     H3R11319   0.304   4.873   3.907  2.3341  0.2632 -0.4959
    1OL     H3S11320   0.355   4.739   3.995 -0.9182 -1.6767  0.2084
    1OL     C1411321   0.137   4.782   4.007 -0.0249  0.3621  0.3057
    1OL     H4R11322   0.104   4.686   4.047 -0.2551 -0.2127 -1.2384
    1OL     H4S11323   0.065   4.823   3.936 -1.2438 -2.3332 -0.0823
    1OL     C1511324   0.140   4.872   4.134 -0.0324  0.1298  0.3160
    1OL     H5R11325   0.055   4.836   4.193  0.0359 -1.5309 -0.5649
    1OL     H5S11326   0.127   4.976   4.103 -0.8020  0.1445  0.6769
    1OL     C1611327   0.262   4.857   4.227 -0.1226  0.0357  0.0589
    1OL     H6R11328   0.358   4.891   4.188 -0.0648 -0.3409 -0.1235
    1OL     H6S11329   0.281   4.755   4.259  2.7839  0.6992  0.6317
    1OL     C1711330   0.244   4.933   4.356  0.7732  0.8074 -0.1736
    1OL     H7R11331   0.166   4.881   4.412  0.7706  2.0474  1.0185
    1OL     H7S11332   0.205   5.030   4.325  1.1174  0.7534 -0.7878
    1OL     C1811333   0.371   4.935   4.453  0.0556  0.2562 -0.0210
    1OL     H8R11334   0.423   4.839   4.455 -0.4934 -0.0470 -0.3936
    1OL     H8S11335   0.325   4.954   4.550 -1.2145 -1.6053 -0.2494
    1OL     C1911336   0.456   5.054   4.415 -0.0280  0.9410  0.4380
    1OL     H9R11337   0.409   5.152   4.420  0.3366  1.0997  0.8006
    1OL    C11011338   0.584   5.057   4.388 -0.6053 -0.8027 -0.4233
    1OL    H10R11339   0.642   5.146   4.365 -0.7248 -0.3205  1.0553
    1OL    C11111340   0.679   4.932   4.390  1.0464 -0.4661  0.2567
    1OL    H11R11341   0.755   4.930   4.312  1.3783  1.1032  0.5257
    1OL    H11S11342   0.624   4.837   4.391  2.0284 -1.1055 -2.1351
    1OL    C11211343   0.753   4.941   4.527  0.8453 -0.5039  0.3616
    1OL    H12R11344   0.683   4.949   4.611 -0.4895  1.0117 -0.8478
    1OL    H12S11345   0.817   5.029   4.535 -1.0298  1.1883 -2.3768
    1OL    C11311346   0.844   4.816   4.543 -0.4837  0.0321 -0.3154
    1OL    H13R11347   0.917   4.822   4.462 -1.7392  1.9487 -1.3301
    1OL    H13S11348   0.789   4.722   4.529  1.3314 -1.1039 -0.0262
    1OL    C11411349   0.932   4.805   4.676 -0.4690 -0.2951  0.5044
    1OL    H14R11350   0.989   4.716   4.650  0.3707  0.1705  0.7390
    1OL    H14S11351   0.871   4.785   4.764 -2.2577  0.1300 -0.6134
    1OL    C11511352   1.043   4.913   4.684 -0.3063 -0.5578 -0.4596
    1OL    H15R11353   0.993   5.008   4.698  1.7104  0.4207  0.2246
    1OL    H15S11354   1.101   4.919   4.592 -1.2147 -1.4491 -1.1111
    1OL    C11611355   1.133   4.878   4.803 -0.5556  0.1613 -1.1872
    1OL    H16R11356   1.192   4.791   4.773 -0.7106  0.2747 -1.8245
    1OL    H16S11357   1.072   4.847   4.888 -0.4463  0.2814 -1.0668
    1OL    C11711358   1.228   4.988   4.853  0.2317  0.3484  0.2754
    1OL    H17R11359   1.278   4.954   4.944  0.2366  2.4336  1.0898
    1OL    H17S11360   1.164   5.074   4.874 -0.2530  0.5937 -2.1316
    1OL    C11811361   1.331   5.028   4.747 -0.4523  0.3885  0.0092
    1OL    H18R11362   1.411   4.955   4.737 -1.8532 -1.2494  0.4923
    1OL    H18S11363   1.389   5.117   4.771  1.9428 -1.4692  1.3593
    1OL    H18T11364   1.283   5.048   4.651 -0.3819 -0.8010 -0.2813
    1PA    C11611365   4.412   0.184   4.899 -0.4029  0.5351  0.1152
    1PA    H16R11366   4.442   0.084   4.865  1.3034  0.1538  2.5581
    1PA    H16S11367   4.305   0.190   4.917 -0.5924 -2.1878  0.2203
    1PA    H16T11368   4.476   0.203   4.986  0.7496  0.7114 -0.7501
    1PA    C11511369   4.470   0.281   4.795  0.4322 -0.1395 -0.8666
    1PA    H15R11370   4.410   0.267   4.704  1.0631  0.8782 -1.4485
    1PA    H15S11371   4.441   0.384   4.816  1.5579  0.2060 -1.0124
    1PA    C11411372   4.619   0.267   4.768 -0.6277 -0.4026 -0.0759
    1PA    H14R11373   4.671   0.292   4.860  0.9204 -0.0985 -1.0091
    1PA    H14S11374   4.638   0.162   4.745 -1.5601 -0.8010  0.9675
    1PA    C11311375   4.673   0.355   4.658  0.2862  0.0810  0.0280
    1PA    H13R11376   4.623   0.452   4.655  0.3563  0.1018 -0.5870
    1PA    H13S11377   4.777   0.370   4.686 -0.0962  1.9686  0.4987
    1PA    C11211378   4.678   0.300   4.514 -0.6703 -0.3781  1.0403
    1PA    H12R11379   4.741   0.361   4.449 -0.3435 -1.9648 -0.1657
    1PA    H12S11380   4.729   0.204   4.526  1.4605  0.6709  0.5254
    1PA    C11111381   4.541   0.279   4.444 -0.7448  0.2052  0.0520
    1PA    H11R11382   4.471   0.219   4.503 -0.3671  0.8076  1.1324
    1PA    H11S11383   4.501   0.380   4.431  0.1909  0.2781 -2.4042
    1PA    C11011384   4.562   0.212   4.305  0.1932  1.0020 -0.1278
    1PA    H10R11385   4.460   0.203   4.268 -0.3977 -0.0484  1.6469
    1PA    H10S11386   4.626   0.265   4.234 -0.5546  0.6540 -1.0653
    1PA     C1911387   4.607   0.069   4.311  0.0704  0.1073  0.7848
    1PA     H9R11388   4.705   0.072   4.361 -0.2050  0.0198  1.3337
    1PA     H9S11389   4.551   0.015   4.388 -0.6496 -1.5255 -0.8622
    1PA     C1811390   4.620  -0.005   4.175 -0.4186 -0.0761 -0.2497
    1PA     H8R11391   4.533   0.019   4.114 -1.1431 -0.5265  0.5845
    1PA     H8S11392   4.705   0.029   4.116  0.6941 -1.6297  0.4177
    1PA     C1711393   4.637  -0.157   4.197  0.0394 -0.1392 -0.0788
    1PA     H7R11394   4.550  -0.185   4.256 -0.2618  1.5567  0.3292
    1PA     H7S11395   4.635  -0.204   4.099 -0.4425  0.5574 -0.4121
    1PA     C1611396   4.761  -0.203   4.278  0.5423  0.2032 -0.0884
    1PA     H6R11397   4.760  -0.167   4.381 -1.4755 -1.7183  0.6004
    1PA     H6S11398   4.764  -0.312   4.284  2.1993  0.2920  1.0469
    1PA     C1511399   4.899  -0.170   4.212 -0.1038  0.3949 -0.3090
    1PA     H5R11400   4.909  -0.062   4.221 -1.0639  0.3354  1.7345
    1PA     H5S11401   4.978  -0.217   4.272  2.2211  0.7024 -2.9878
    1PA     C1411402   4.920  -0.204   4.065  0.3133  0.4200  0.1812
    1PA     H4R11403   4.914  -0.310   4.042 -0.6315  0.3931  0.5295
    1PA     H4S11404   4.856  -0.146   3.999 -1.2880 -1.2679  0.1975
    1PA     C1311405   5.066  -0.168   4.026 -0.1980 -0.2663 -0.5675
    1PA     H3R11406   5.088  -0.062   4.038 -3.0394  0.4554 -1.2831
    1PA     H3S11407   5.133  -0.224   4.092 -0.3319  0.3630  0.1074
    1PA     C1211408   5.104  -0.225   3.889  0.1823 -0.2988 -0.4531
    1PA     H2R11409   5.211  -0.209   3.873  0.2344  0.8074  0.8369
    1PA     H2S11410   5.085  -0.332   3.884 -0.9379 -0.1084 -0.2138
    1PC     C1111411   5.039  -0.153   3.777  0.0796 -0.2162  0.5652
    1PC     O1211412   5.070  -0.041   3.744 -0.4822 -0.4623  0.3659
    1PC     O1111413   4.925  -0.224   3.738  0.0055  0.1957  0.0063
    1PC      C111414   4.854  -0.182   3.620 -0.8994  0.1180  0.1207
    1PC      HR11415   4.812  -0.084   3.642 -1.9272 -0.1970 -0.3917
    1PC      HS11416   4.913  -0.180   3.528 -0.1366 -0.8819  0.5840
    1PC      C211417   4.733  -0.272   3.608 -0.6266 -0.2421  0.5340
    1PC      HX11418   4.767  -0.371   3.575 -2.0064 -0.7775  0.7095
    1PC      C311419   4.628  -0.196   3.514  0.1316 -0.2463  0.0910
    1PC      HA11420   4.535  -0.252   3.502 -1.0802  2.0119 -1.4353
    1PC      HB11421   4.600  -0.099   3.554  0.8412  0.5616 -1.3458
    1PC     O3111422   4.678  -0.171   3.383 -0.3257  0.4553  0.0942
    1PC     P3111423   4.685  -0.285   3.274 -0.0482  0.0222 -0.0897
    1PC     O3211424   4.531  -0.330   3.271  0.0728 -0.1772  0.1351
    1PC     C3111425   4.429  -0.246   3.215  0.0069  0.1870  0.5652
    1PC     H1A11426   4.335  -0.268   3.266 -1.2920 -0.8517 -2.1644
    1PC     H1B11427   4.463  -0.144   3.234  0.4590  0.2351 -0.4412
    1PC     C3211428   4.411  -0.294   3.066 -0.0817 -0.3769  0.2856
    1PC     H2A11429   4.510  -0.300   3.020  0.4173 -1.0328  1.4292
    1PC     H2B11430   4.372  -0.396   3.062  0.1766 -0.5134  1.1712
    1PC     N3111431   4.331  -0.205   2.983 -0.0430  0.1323  0.0271
    1PC     C3311432   4.188  -0.203   3.035 -0.4198  0.2815 -0.7625
    1PC     H3A11433   4.129  -0.161   2.953  0.7192 -0.2330 -1.8736
    1PC     H3B11434   4.160  -0.308   3.048 -0.9420  0.8751  3.7717
    1PC     H3C11435   4.174  -0.147   3.127  1.8761  0.6633 -0.6171
    1PC     C3411436   4.386  -0.064   2.987 -0.1034  0.0710 -0.3104
    1PC     H4A11437   4.391  -0.028   3.090 -0.5317 -0.3225 -0.1504
    1PC     H4B11438   4.483  -0.062   2.937  1.4318  1.8658  2.5477
    1PC     H4C11439   4.318  -0.013   2.918 -1.7289 -0.4032  0.8962
    1PC     C3511440   4.330  -0.261   2.844  0.2128 -0.0088 -0.1786
    1PC     H5A11441   4.433  -0.271   2.809  0.5204 -3.4676  1.5061
    1PC     H5B11442   4.265  -0.202   2.778  1.8750  1.4027 -0.6133
    1PC     H5C11443   4.291  -0.361   2.860  0.2584  0.1109  0.6759
    1PC     O3311444   4.729  -0.217   3.150  0.8761 -0.0940 -0.1193
    1PC     O3411445   4.770  -0.399   3.312 -0.4727 -0.5448  0.0833
    1PC     O2111446   4.659  -0.292   3.735  0.1922 -0.4658 -0.2123
    1PC     C2111447   4.572  -0.390   3.748  0.4377  0.4115  0.0540
    1PC     O2211448   4.550  -0.463   3.660  0.0400  0.1388  0.1373
    1OL     C1211449   4.501  -0.402   3.881 -0.5754  0.3341  0.7598
    1OL     H2R11450   4.395  -0.425   3.877 -0.4700 -0.2405  1.0891
    1OL     H2S11451   4.506  -0.304   3.929 -3.7034  0.4164  0.9814
    1OL     C1311452   4.564  -0.511   3.978  0.0759  0.2270  0.0050
    1OL     H3R11453   4.662  -0.470   4.003  0.5481 -1.1975  0.5015
    1OL     H3S11454   4.575  -0.603   3.920 -1.6735  0.2463 -0.4091
    1OL     C1411455   4.484  -0.547   4.103  0.5688  0.1823 -0.8087
    1OL     H4R11456   4.525  -0.634   4.155 -1.3179  1.4160  2.8974
    1OL     H4S11457   4.384  -0.568   4.065 -1.0902  0.3850  3.2022
    1OL     C1511458   4.473  -0.436   4.210  0.1767  0.8657  0.0835
    1OL     H5R11459   4.465  -0.340   4.159  0.1689 -0.8529 -3.2620
    1OL     H5S11460   4.563  -0.428   4.271 -0.0901  0.5012  0.5296
    1OL     C1611461   4.350  -0.461   4.299  0.0658 -0.4016  0.2948
    1OL     H6R11462   4.273  -0.509   4.239 -1.5077  0.3797  1.6431
    1OL     H6S11463   4.309  -0.368   4.339 -0.5184  0.4474 -2.2265
    1OL     C1711464   4.385  -0.562   4.407 -0.5712 -0.4152  0.4764
    1OL     H7R11465   4.445  -0.505   4.479  2.2873 -3.0475  0.2812
    1OL     H7S11466   4.446  -0.639   4.359 -0.7191  0.4616 -1.1365
    1OL     C1811467   4.256  -0.621   4.476  0.8549  0.1479 -0.3292
    1OL     H8R11468   4.183  -0.668   4.411 -0.6936 -1.4358  2.4818
    1OL     H8S11469   4.207  -0.545   4.537  1.8529  1.4863 -1.1420
    1OL     C1911470   4.314  -0.727   4.571 -0.2744 -0.1151  0.4014
    1OL     H9R11471   4.335  -0.822   4.523  1.5532  1.1995 -1.5172
    1OL    C11011472   4.359  -0.712   4.693 -0.3185 -0.4482 -0.3610
    1OL    H10R11473   4.384  -0.805   4.743 -0.2098  0.0779  0.5763
    1OL    C11111474   4.358  -0.576   4.765  0.3842  0.1923  0.8480
    1OL    H11R11475   4.257  -0.541   4.747 -0.9647 -3.5624  0.6421
    1OL    H11S11476   4.420  -0.499   4.718  0.4794  0.4371  1.3693
    1OL    C11211477   4.382  -0.595   4.917 -0.3035 -0.2285 -0.4415
    1OL    H12R11478   4.483  -0.633   4.936 -0.3093  0.7496  1.7655
    1OL    H12S11479   4.305  -0.668   4.940 -0.3882 -0.5691 -1.7943
    1OL    C11311480   4.359  -0.474   5.001 -0.2625  0.2997  0.9244
    1OL    H13R11481   4.339  -0.510   5.102 -1.3205 -0.6589  0.3718
    1OL    H13S11482   4.268  -0.429   4.962 -0.2368  1.7039  2.4322
    1OL    C11411483   4.473  -0.379   4.993  0.0340 -0.2882 -0.0816
    1OL    H14R11484   4.560  -0.432   5.031 -0.6935 -2.3758 -1.2524
    1OL    H14S11485   4.454  -0.301   5.067  0.1764  0.0683 -0.4198
    1OL    C11511486   4.501  -0.295   4.867 -0.1639  0.8598  0.1723
    1OL    H15R11487   4.554  -0.360   4.796  1.9707  0.7546  1.8183
    1OL    H15S11488   4.581  -0.226   4.894  0.6912 -0.2323  0.4798
    1OL    C11611489   4.379  -0.215   4.809  0.6458 -0.8351 -0.0503
    1OL    H16R11490   4.369  -0.146   4.893 -0.0254  0.7316 -1.3924
    1OL    H16S11491   4.284  -0.268   4.800  0.3678 -0.1883 -0.9531
    1OL    C11711492   4.406  -0.132   4.683 -0.4069 -0.4850  0.2610
    1OL    H17R11493   4.504  -0.087   4.695 -1.0797  0.6000  1.8733
    1OL    H17S11494   4.324  -0.062   4.665  0.3030 -0.2589 -2.3514
    1OL    C11811495   4.417  -0.213   4.554 -0.2680 -0.0795 -0.1610
    1OL    H18R11496   4.495  -0.289   4.560 -1.2827 -0.9917  1.6029
    1OL    H18S11497   4.445  -0.150   4.469 -1.1773 -0.1472 -0.5180
    1OL    H18T11498   4.318  -0.258   4.543 -0.2652  0.0228 -0.5948
    1PA    C11611499   1.212   0.020   4.608 -0.2685  0.3777  0.0211
    1PA    H16R11500   1.174   0.112   4.654 -2.3865 -0.7296  0.5727
    1PA    H16S11501   1.294   0.032   4.538 -0.3354 -0.9699 -0.2870
    1PA    H16T11502   1.251  -0.037   4.692 -0.4694  0.3053  0.0668
    1PA    C11511503   1.094  -0.046   4.525 -0.0200 -0.5773 -0.7438
    1PA    H15R11504   1.128  -0.142   4.485 -0.1657 -1.0542  0.2628
    1PA    H15S11505   1.006  -0.056   4.589  0.3641 -2.0429 -0.4375
    1PA    C11411506   1.063   0.047   4.405  0.6669  0.3905 -0.1572
    1PA    H14R11507   1.031   0.145   4.439  1.9213  0.1433  1.7778
    1PA    H14S11508   1.155   0.065   4.348  0.1774  0.3770 -0.9700
    1PA    C11311509   0.946  -0.015   4.324 -0.7160 -0.1876  0.3978
    1PA    H13R11510   0.990  -0.105   4.280 -0.8171 -0.4188  0.7616
    1PA    H13S11511   0.870  -0.044   4.397 -0.4574 -0.4917  0.5499
    1PA    C11211512   0.880   0.075   4.219  0.0049  0.4662 -0.5164
    1PA    H12R11513   0.827   0.157   4.267  1.7394  1.7030 -0.6531
    1PA    H12S11514   0.963   0.114   4.160 -0.7516  0.3151 -1.6833
    1PA    C11111515   0.778  -0.001   4.134 -0.1664 -0.1439  0.5264
    1PA    H11R11516   0.825  -0.066   4.060  0.6139 -0.3716  1.2130
    1PA    H11S11517   0.702  -0.058   4.187 -2.0480 -0.6925 -2.6452
    1PA    C11011518   0.689   0.106   4.062 -0.3447  0.3273 -0.4573
    1PA    H10R11519   0.634   0.044   3.991 -1.4562  0.3972  0.3400
    1PA    H10S11520   0.620   0.149   4.135  0.3856 -1.4598  1.3573
    1PA     C1911521   0.758   0.226   3.989  0.2160  0.5668 -0.2256
    1PA     H9R11522   0.820   0.282   4.059  0.3992 -2.6609  2.3445
    1PA     H9S11523   0.823   0.177   3.917  0.0666  0.4295 -0.2679
    1PA     C1811524   0.653   0.306   3.907  0.1008 -0.0939  0.3909
    1PA     H8R11525   0.571   0.330   3.975  0.5388  0.1347  0.8383
    1PA     H8S11526   0.693   0.404   3.881  0.4565 -0.2548  0.3306
    1PA     C1711527   0.600   0.228   3.784 -0.1852 -1.1366 -0.4598
    1PA     H7R11528   0.687   0.189   3.731 -0.0228  0.8587 -1.7077
    1PA     H7S11529   0.552   0.134   3.811 -0.8831 -0.5901  0.2313
    1PA     C1611530   0.520   0.314   3.685  0.2720 -0.0465  0.4142
    1PA     H6R11531   0.576   0.404   3.658  3.2423 -1.7666  0.6678
    1PA     H6S11532   0.524   0.264   3.588  1.7702 -0.1651  0.5221
    1PA     C1511533   0.374   0.344   3.729 -0.5310  0.2008 -0.1022
    1PA     H5R11534   0.311   0.257   3.749 -1.1619  0.6599 -0.0822
    1PA     H5S11535   0.372   0.400   3.822 -1.1648  2.5610 -1.4826
    1PA     C1411536   0.304   0.414   3.611  0.3094 -0.2437 -0.4672
    1PA     H4R11537   0.365   0.496   3.573  0.4418 -0.6501 -1.1460
    1PA     H4S11538   0.296   0.348   3.524  1.7718 -1.6974  0.4811
    1PA     C1311539   0.172   0.472   3.643 -0.0730  0.2713 -0.6647
    1PA     H3R11540   0.099   0.397   3.674  0.4072  0.1529  0.1979
    1PA     H3S11541   0.194   0.549   3.717  1.3513 -0.5267 -0.2360
    1PA     C1211542   0.112   0.544   3.523  0.9795 -0.4301 -0.1937
    1PA     H2R11543   0.118   0.481   3.434  0.9103  0.2006 -0.6486
    1PA     H2S11544   0.007   0.570   3.532  0.6207 -1.1441 -1.9446
    1PC     C1111545   0.178   0.678   3.501  0.0152  0.1099 -0.5984
    1PC     O1211546   0.222   0.752   3.590 -0.2089 -0.2871 -1.0705
    1PC     O1111547   0.194   0.702   3.370 -0.2419  0.0810 -0.6208
    1PC      C111548   0.269   0.817   3.313  0.0240 -0.0683  0.8563
    1PC      HR11549   0.221   0.833   3.216  1.3368 -0.1482  0.1863
    1PC      HS11550   0.261   0.909   3.371  1.7261  0.5679  0.1127
    1PC      C211551   0.419   0.770   3.296 -0.3808 -0.5226 -0.4342
    1PC      HX11552   0.478   0.857   3.266 -0.5571  0.5635  2.2420
    1PC      C311553   0.453   0.658   3.191  0.0382 -0.1587 -0.5424
    1PC      HA11554   0.450   0.705   3.093 -3.6815  1.8388  0.4729
    1PC      HB11555   0.555   0.620   3.205  0.2431  0.5637 -0.0386
    1PC     O3111556   0.360   0.558   3.183  0.0571  0.1370 -1.1501
    1PC     P3111557   0.394   0.415   3.116  0.1660 -0.2955  0.1359
    1PC     O3211558   0.429   0.318   3.238  0.4770  0.0962  0.2751
    1PC     C3111559   0.542   0.336   3.324 -0.2509 -0.1201  0.9865
    1PC     H1A11560   0.614   0.398   3.270  1.4471 -1.9653  1.0995
    1PC     H1B11561   0.501   0.383   3.414 -1.1129 -0.2903  0.6950
    1PC     C3211562   0.609   0.203   3.350 -0.5141  0.8764 -0.1465
    1PC     H2A11563   0.687   0.215   3.425 -1.1805 -0.4452  0.7791
    1PC     H2B11564   0.539   0.132   3.395 -0.9016  0.6757 -1.0468
    1PC     N3111565   0.689   0.133   3.247  0.1341  0.0671 -0.6067
    1PC     C3311566   0.604   0.089   3.134  0.0405  0.2967  0.6487
    1PC     H3A11567   0.584   0.173   3.068 -2.1271 -0.0008  0.8735
    1PC     H3B11568   0.668   0.014   3.086  0.4426  1.8050 -1.2068
    1PC     H3C11569   0.515   0.044   3.179  1.0911 -3.4298 -0.8007
    1PC     C3411570   0.805   0.208   3.193 -0.7095  0.0604  0.6158
    1PC     H4A11571   0.846   0.151   3.110 -1.6657  1.0054 -0.5364
    1PC     H4B11572   0.767   0.300   3.146  3.9388  0.7558 -2.1476
    1PC     H4C11573   0.871   0.219   3.280 -1.5314 -0.0668  1.2569
    1PC     C3511574   0.751   0.007   3.314  0.1553 -0.0970 -0.3416
    1PC     H5A11575   0.821   0.040   3.390  1.3723 -0.4943 -1.2559
    1PC     H5B11576   0.821  -0.035   3.241 -1.8163  0.4527 -2.5982
    1PC     H5C11577   0.678  -0.070   3.341  0.2261 -0.7692 -1.9901
    1PC     O3311578   0.277   0.357   3.051  0.0004  0.6534  0.0205
    1PC     O3411579   0.520   0.425   3.032  0.0567 -0.7738  0.5412
    1PC     O2111580   0.469   0.716   3.422 -0.0350 -0.5088 -0.2235
    1PC     C2111581   0.542   0.787   3.507 -0.2999  0.3993  0.3311
    1PC     O2211582   0.590   0.900   3.485  0.2559  0.3033  0.4595
    1OL     C1211583   0.572   0.708   3.637 -0.4652 -0.7125  0.1583
    1OL     H2R11584   0.653   0.636   3.622 -0.1371 -0.3455  0.1676
    1OL     H2S11585   0.479   0.655   3.659 -0.6196 -0.0057  1.2427
    1OL     C1311586   0.586   0.798   3.759  0.4334  1.1508 -0.2132
    1OL     H3R11587   0.506   0.872   3.754  0.0476  0.8428  1.2144
    1OL     H3S11588   0.687   0.839   3.751  0.9312 -0.3781 -2.0858
    1OL     C1411589   0.593   0.719   3.893 -0.5714 -0.3995  0.0756
    1OL     H4R11590   0.667   0.639   3.884 -0.7274 -0.3278 -2.2022
    1OL     H4S11591   0.503   0.670   3.931 -0.9609  0.4132  0.2021
    1OL     C1511592   0.621   0.817   4.002  0.5182  0.5886 -0.5179
    1OL     H5R11593   0.530   0.865   4.039  0.3521 -1.4515  1.8032
    1OL     H5S11594   0.687   0.893   3.959  1.6803  0.4858  1.0454
    1OL     C1611595   0.704   0.754   4.111  0.3861  0.3429  0.2731
    1OL     H6R11596   0.729   0.837   4.178 -0.7567  1.6240 -0.8413
    1OL     H6S11597   0.798   0.722   4.066 -0.0618 -1.6006  0.7026
    1OL     C1711598   0.651   0.642   4.202 -0.2078  0.0766 -0.7862
    1OL     H7R11599   0.623   0.558   4.137 -0.4737 -1.0049  0.6917
    1OL     H7S11600   0.563   0.660   4.263 -0.8954 -0.6273 -1.5555
    1OL     C1811601   0.756   0.579   4.299 -0.5620 -0.2056 -0.0550
    1OL     H8R11602   0.792   0.651   4.373  1.0440 -0.5772 -0.4524
    1OL     H8S11603   0.834   0.522   4.248  0.0363  0.3938  0.1735
    1OL     C1911604   0.680   0.470   4.368 -0.3825 -0.7768  0.0838
    1OL     H9R11605   0.575   0.455   4.345 -0.5191 -1.6393  1.2223
    1OL    C11011606   0.726   0.394   4.470  0.0394 -0.1431  0.1159
    1OL    H10R11607   0.668   0.318   4.524 -1.2251  0.9102  0.2612
    1OL    C11111608   0.865   0.403   4.530 -0.1906 -0.3666 -0.2210
    1OL    H11R11609   0.920   0.484   4.481  1.0388 -1.1972 -0.2281
    1OL    H11S11610   0.926   0.313   4.522  1.9333  0.9244  0.9602
    1OL    C11211611   0.859   0.439   4.683  0.4638 -0.3735 -0.0443
    1OL    H12R11612   0.797   0.370   4.740 -0.2112  0.1520 -0.1465
    1OL    H12S11613   0.820   0.538   4.705  0.0674 -0.9438  1.9315
    1OL    C11311614   0.996   0.428   4.758 -0.2481 -0.3171  0.5876
    1OL    H13R11615   1.045   0.331   4.755  1.5582  0.5851  0.2298
    1OL    H13S11616   0.973   0.442   4.864 -1.5025  4.2641 -0.1809
    1OL    C11411617   1.088   0.550   4.721 -0.0041  0.1617 -0.0829
    1OL    H14R11618   1.040   0.642   4.755 -1.6682 -1.5701  2.4167
    1OL    H14S11619   1.095   0.556   4.612 -1.5925 -1.1876 -0.2825
    1OL    C11511620   1.222   0.517   4.786  0.0845 -0.3029 -0.3306
    1OL    H15R11621   1.250   0.412   4.772 -1.5786 -0.4911 -2.5231
    1OL    H15S11622   1.206   0.533   4.892 -0.6264 -0.6678 -0.3776
    1OL    C11611623   1.342   0.599   4.751  0.3038  0.7429  0.1272
    1OL    H16R11624   1.308   0.700   4.727  0.1435  0.1500 -2.2576
    1OL    H16S11625   1.399   0.552   4.671 -1.0385  0.3315 -0.5968
    1OL    C11711626   1.447   0.611   4.867 -0.2185  0.2889 -0.7514
    1OL    H17R11627   1.470   0.510   4.902 -0.1881  1.2958  2.3231
    1OL    H17S11628   1.380   0.660   4.938 -0.7007 -1.2497 -0.1218
    1OL    C11811629   1.572   0.694   4.843 -0.4016  1.1923  0.0766
    1OL    H18R11630   1.641   0.646   4.773  0.2868  1.7468  0.3709
    1OL    H18S11631   1.628   0.706   4.936  1.4027 -0.0678 -0.8041
    1OL    H18T11632   1.535   0.792   4.813 -0.4668  1.0650 -0.2667
    1PA    C11611633   1.998   4.749   4.925  0.8964 -0.4408  0.1471
    1PA    H16R11634   2.070   4.691   4.983  0.1822  0.8865  2.4131
    1PA    H16S11635   1.898   4.749   4.969  0.0267  0.3241 -1.7862
    1PA    H16T11636   2.040   4.848   4.909  0.6151 -0.3728 -0.1779
    1PA    C11511637   1.987   4.678   4.791 -0.5696  0.5998  0.2466
    1PA    H15R11638   2.083   4.695   4.743 -0.5882 -0.9695 -0.3910
    1PA    H15S11639   1.990   4.569   4.804 -2.5144  0.4561 -0.2969
    1PA    C11411640   1.876   4.718   4.694  0.2551 -0.0683  0.0807
    1PA    H14R11641   1.884   4.826   4.677  0.8581 -0.0491  0.4601
    1PA    H14S11642   1.882   4.675   4.594 -2.7179  0.8542 -0.5487
    1PA    C11311643   1.737   4.688   4.739 -0.0836  0.0250 -0.1605
    1PA    H13R11644   1.747   4.587   4.780  1.9223  0.1436 -0.2746
    1PA    H13S11645   1.708   4.741   4.830 -0.3164  2.0206 -1.3902
    1PA    C11211646   1.626   4.694   4.629 -0.2611 -0.7921  0.1118
    1PA    H12R11647   1.654   4.623   4.552  0.7625 -0.0539 -0.2098
    1PA    H12S11648   1.530   4.659   4.666 -0.2110 -1.9165 -0.8024
    1PA    C11111649   1.605   4.832   4.565 -0.4022  0.5994  0.6321
    1PA    H11R11650   1.594   4.909   4.642 -1.1862  1.2978 -0.1542
    1PA    H11S11651   1.702   4.858   4.522  0.5501 -0.6716  1.9535
    1PA    C11011652   1.498   4.837   4.455 -0.2489 -0.8325  0.9724
    1PA    H10R11653   1.510   4.748   4.392  0.5898  0.0703 -0.1773
    1PA    H10S11654   1.402   4.828   4.504  0.4297 -3.3600  1.9143
    1PA     C1911655   1.500   4.960   4.359  0.1952 -0.1563 -0.3293
    1PA     H9R11656   1.487   5.054   4.414 -0.0996  0.8035 -2.0205
    1PA     H9S11657   1.601   4.969   4.320 -0.5241 -1.1064 -2.4707
    1PA     C1811658   1.392   4.960   4.249  0.5788 -0.1413  0.2142
    1PA     H8R11659   1.382   4.871   4.187 -1.0728  1.0397 -1.2475
    1PA     H8S11660   1.296   4.970   4.302  0.6954 -0.1805  0.4350
    1PA     C1711661   1.411   5.085   4.161  0.1187  0.1345 -0.1031
    1PA     H7R11662   1.384   5.175   4.218 -0.9924 -0.0946 -0.2527
    1PA     H7S11663   1.517   5.084   4.137  0.5797  0.2640  1.8523
    1PA     C1611664   1.328   5.083   4.029  0.3791 -0.1698  0.2768
    1PA     H6R11665   1.381   5.146   3.957  1.2132  0.3472  1.3245
    1PA     H6S11666   1.317   4.983   3.988  0.5428 -0.1473  0.1777
    1PA     C1511667   1.187   5.136   4.045  0.2295 -0.3782 -0.2401
    1PA     H5R11668   1.149   5.086   4.135  0.0447  1.8922  0.9898
    1PA     H5S11669   1.179   5.244   4.062 -1.6683 -0.7799  1.5419
    1PA     C1411670   1.099   5.115   3.923  0.3133  0.4315  0.4684
    1PA     H4R11671   1.104   5.014   3.882 -0.2252  0.9362 -0.8712
    1PA     H4S11672   0.993   5.139   3.934  0.0889  0.4980 -1.5490
    1PA     C1311673   1.157   5.197   3.812  0.2563 -0.0431 -0.9100
    1PA     H3R11674   1.173   5.301   3.841 -2.3745 -0.2181  1.3367
    1PA     H3S11675   1.253   5.155   3.783 -0.2556 -1.7514 -0.1834
    1PA     C1211676   1.065   5.196   3.688 -0.2161 -0.2054  0.5122
    1PA     H2R11677   1.056   5.103   3.633 -1.1015  1.4600 -2.2788
    1PA     H2S11678   0.961   5.221   3.711  0.1138  0.1681  1.6123
    1PC     C1111679   1.125   5.287   3.587  0.5376 -0.2212  0.2705
    1PC     O1211680   1.221   5.355   3.605  0.3047  0.3865 -0.0132
    1PC     O1111681   1.061   5.284   3.472  0.0803  0.3386 -0.3581
    1PC      C111682   1.124   5.352   3.361  0.2613  0.2834 -0.2891
    1PC      HR11683   1.038   5.385   3.301 -1.1690 -1.3389  0.8313
    1PC      HS11684   1.172   5.445   3.391  0.2640  0.3935 -0.6280
    1PC      C211685   1.227   5.267   3.281  0.3723  1.0673 -0.1940
    1PC      HX11686   1.259   5.313   3.187  2.5436 -0.1663 -0.0774
    1PC      C311687   1.162   5.137   3.228 -0.1057 -0.5884  0.7209
    1PC      HA11688   1.229   5.081   3.163  0.3022  0.2673  0.3984
    1PC      HB11689   1.138   5.066   3.308  0.0501  0.0555  1.3467
    1PC     O3111690   1.034   5.152   3.147 -0.5433  0.7885 -0.4724
    1PC     P3111691   1.027   5.232   3.012  0.2370 -0.0924  0.1112
    1PC     O3211692   1.127   5.154   2.917  0.0673  0.2839 -0.2400
    1PC     C3111693   1.082   5.087   2.798 -0.5378 -0.0232 -0.3156
    1PC     H1A11694   0.988   5.035   2.818  0.3613 -1.0606  1.3653
    1PC     H1B11695   1.055   5.163   2.724 -1.1311 -1.1211 -1.2311
    1PC     C3211696   1.193   4.994   2.738 -0.5097  0.0377  0.5833
    1PC     H2A11697   1.209   4.917   2.815 -2.1466 -0.9632 -0.0552
    1PC     H2B11698   1.152   4.962   2.642 -0.0962 -0.1112  0.4546
    1PC     N3111699   1.330   5.054   2.717  0.2726  0.3707 -0.5734
    1PC     C3311700   1.334   5.166   2.623  0.5820 -0.2206 -0.2366
    1PC     H3A11701   1.261   5.243   2.650  2.0355  1.9103 -2.1187
    1PC     H3B11702   1.434   5.211   2.622  1.0006 -1.1239  0.7728
    1PC     H3C11703   1.316   5.128   2.523 -0.9027  1.9503 -0.8446
    1PC     C3411704   1.402   5.083   2.845 -0.7432 -0.3146 -0.0136
    1PC     H4A11705   1.505   5.101   2.813 -1.0743 -0.2902 -1.0791
    1PC     H4B11706   1.363   5.178   2.883 -1.6673  0.1793 -2.1293
    1PC     H4C11707   1.396   5.000   2.916  2.1471 -0.1899  0.4492
    1PC     C3511708   1.410   4.943   2.661  0.2171 -0.0310 -0.0797
    1PC     H5A11709   1.383   4.914   2.559 -0.3814  0.4298 -0.0541
    1PC     H5B11710   1.405   4.866   2.738 -0.5526  2.9263  2.9574
    1PC     H5C11711   1.507   4.993   2.657  0.6755 -0.8876  0.1442
    1PC     O3311712   0.888   5.222   2.952 -0.2451  0.0240 -0.0502
    1PC     O3411713   1.078   5.367   3.045 -0.1860 -0.1725 -0.0431
    1PC     O2111714   1.333   5.231   3.374 -0.3690  0.2543 -0.5113
    1PC     C2111715   1.453   5.288   3.358 -0.1012  0.0902 -0.2988
    1PC     O2211716   1.477   5.383   3.286  0.3033 -0.2977  0.1667
    1OL     C1211717   1.564   5.228   3.445  0.0120 -0.0041  0.5081
    1OL     H2R11718   1.664   5.250   3.405  0.9240 -1.0853  2.1301
    1OL     H2S11719   1.553   5.122   3.424 -2.1951  0.3313 -0.0933
    1OL     C1311720   1.535   5.264   3.595  0.3919 -0.1982 -0.5157
    1OL     H3R11721   1.489   5.174   3.637  1.7739 -1.2162 -1.1553
    1OL     H3S11722   1.470   5.351   3.599  1.0387  0.3109 -1.0012
    1OL     C1411723   1.657   5.307   3.683 -0.2062 -0.3200  0.5629
    1OL     H4R11724   1.689   5.405   3.648 -0.1803 -0.6423 -0.3110
    1OL     H4S11725   1.736   5.237   3.658 -0.5550  0.1710 -2.0149
    1OL     C1511726   1.625   5.302   3.831  0.3438 -0.0529  0.3109
    1OL     H5R11727   1.718   5.324   3.882  0.4220  0.5094 -0.0710
    1OL     H5S11728   1.609   5.198   3.860 -0.6807 -0.0642 -0.2370
    1OL     C1611729   1.520   5.401   3.866 -0.2972  0.2828  0.0792
    1OL     H6R11730   1.425   5.364   3.825  0.0290 -0.1117 -0.3319
    1OL     H6S11731   1.535   5.495   3.813 -0.0137 -0.0364 -0.4122
    1OL     C1711732   1.489   5.420   4.015  0.5989  0.3248 -0.3961
    1OL     H7R11733   1.577   5.469   4.058  0.7244  0.4143 -0.7530
    1OL     H7S11734   1.474   5.329   4.073  0.4538  1.1789  0.9266
    1OL     C1811735   1.361   5.504   4.033 -0.7239  0.4755 -0.3450
    1OL     H8R11736   1.268   5.452   4.008  1.0715 -1.9635 -2.1481
    1OL     H8S11737   1.375   5.587   3.963 -3.3342  0.4544 -0.9679
    1OL     C1911738   1.349   5.553   4.172 -0.0395 -0.8393 -0.2246
    1OL     H9R11739   1.427   5.513   4.237 -0.1920  2.4813  2.1371
    1OL    C11011740   1.269   5.648   4.218  0.4328 -0.2804  0.0228
    1OL    H10R11741   1.280   5.681   4.321 -1.1578 -0.8455  0.3982
    1OL    C11111742   1.161   5.721   4.140 -0.1923 -0.5189  0.1244
    1OL    H11R11743   1.065   5.693   4.185 -0.2411  0.1398  0.4409
    1OL    H11S11744   1.169   5.684   4.038  0.0610 -0.3604  0.0868
    1OL    C11211745   1.182   5.874   4.158  0.1425  0.2636  0.4884
    1OL    H12R11746   1.124   5.931   4.086 -0.0952  2.6832  2.5145
    1OL    H12S11747   1.286   5.898   4.133  0.1636  1.6349  1.7784
    1OL    C11311748   1.164   5.929   4.301  0.5758 -0.4615  0.4048
    1OL    H13R11749   1.255   5.929   4.361  0.8548  0.3118 -0.0080
    1OL    H13S11750   1.090   5.879   4.364 -1.3892  0.9595 -0.6881
    1OL    C11411751   1.096   6.075   4.288 -0.0035  0.2176 -0.2321
    1OL    H14R11752   1.003   6.064   4.232 -0.0329  3.1690 -0.8454
    1OL    H14S11753   1.161   6.143   4.232 -0.6480  1.2793  0.3148
    1OL    C11511754   1.074   6.142   4.430 -0.9265  0.5130 -0.6793
    1OL    H15R11755   1.006   6.081   4.490 -0.6142 -0.5908 -1.4319
    1OL    H15S11756   1.011   6.230   4.413 -0.1363  1.0093 -1.0342
    1OL    C11611757   1.201   6.184   4.507 -0.3370 -0.3421 -0.2719
    1OL    H16R11758   1.267   6.250   4.449 -1.9987 -0.8964 -2.8800
    1OL    H16S11759   1.252   6.090   4.528 -3.0376 -1.6741  0.3804
    1OL    C11711760   1.161   6.249   4.636  0.3675  0.8959 -0.4645
    1OL    H17R11761   1.099   6.191   4.705  1.8059  0.1344  0.2026
    1OL    H17S11762   1.104   6.340   4.616 -1.6087 -0.0580  0.6014
    1OL    C11811763   1.287   6.304   4.709  0.3050 -0.8242 -0.0278
    1OL    H18R11764   1.267   6.306   4.816 -1.6351 -0.6669 -0.3827
    1OL    H18S11765   1.306   6.403   4.669 -1.1375 -0.7085 -0.4562
    1OL    H18T11766   1.371   6.234   4.696  1.1679 -0.0337  1.1687
    1PA    C11611767   0.180   5.029   5.089 -0.7353 -0.4162 -0.2847
    1PA    H16R11768   0.244   4.943   5.067 -2.4954 -1.9354  0.4499
    1PA    H16S11769   0.084   5.014   5.039 -1.1242  0.0723  0.3198
    1PA    H16T11770   0.167   5.016   5.196  1.6259  0.5994  0.1609
    1PA    C11511771   0.243   5.173   5.062 -0.1502  0.3346 -0.2066
    1PA    H15R11772   0.181   5.254   5.102  0.9309  1.1941 -0.2539
    1PA    H15S11773   0.342   5.183   5.106  0.1916  1.1878 -1.1581
    1PA    C11411774   0.254   5.200   4.913  0.2759  0.2749  0.2829
    1PA    H14R11775   0.318   5.122   4.873 -0.4540  0.6453 -1.6731
    1PA    H14S11776   0.156   5.186   4.868  0.8482 -0.2193 -0.8153
    1PA    C11311777   0.303   5.338   4.866  0.4712  0.3194  0.0695
    1PA    H13R11778   0.245   5.418   4.913 -0.4790 -0.4165  0.1770
    1PA    H13S11779   0.407   5.354   4.893 -0.3083  1.5572  2.4222
    1PA    C11211780   0.300   5.346   4.718 -1.0000 -0.8999 -0.3032
    1PA    H12R11781   0.369   5.278   4.668  1.3752  0.5795  0.9048
    1PA    H12S11782   0.199   5.333   4.679 -1.7819 -1.4728  1.8415
    1PA    C11111783   0.337   5.499   4.677 -0.2496  0.6327 -0.3775
    1PA    H11R11784   0.282   5.565   4.744  0.0455  2.2899 -1.7320
    1PA    H11S11785   0.443   5.518   4.695  0.0279 -1.5362  0.4814
    1PA    C11011786   0.290   5.512   4.529  0.2745 -0.1103  0.8424
    1PA    H10R11787   0.331   5.423   4.479  1.0976  1.2589 -0.9878
    1PA    H10S11788   0.183   5.523   4.509  0.2111 -0.3034  1.0780
    1PA     C1911789   0.357   5.637   4.463  0.4324  0.1895 -0.4540
    1PA     H9R11790   0.324   5.726   4.516 -1.4052 -0.7590  0.0215
    1PA     H9S11791   0.465   5.633   4.482  0.4000  1.6662  0.1279
    1PA     C1811792   0.334   5.668   4.311 -0.7320  0.2473  1.1312
    1PA     H8R11793   0.382   5.760   4.278  0.8386 -0.7394  0.6061
    1PA     H8S11794   0.380   5.587   4.254 -0.6290  0.0663  1.4671
    1PA     C1711795   0.188   5.677   4.261  0.1033  0.3118 -0.2311
    1PA     H7R11796   0.129   5.596   4.304 -0.0796  0.7604  0.3789
    1PA     H7S11797   0.146   5.771   4.299  0.3736  0.4785 -0.3378
    1PA     C1611798   0.181   5.681   4.112  0.5368 -0.3453 -0.3869
    1PA     H6R11799   0.076   5.703   4.095  0.8716  0.2832 -1.6606
    1PA     H6S11800   0.238   5.771   4.088 -0.1741 -0.2810 -1.8233
    1PA     C1511801   0.230   5.568   4.018  0.2005  0.5279 -0.7021
    1PA     H5R11802   0.199   5.591   3.916  0.4968  1.0445 -0.6728
    1PA     H5S11803   0.339   5.563   4.017  0.3849  3.6223 -2.4602
    1PA     C1411804   0.170   5.434   4.059  0.0889  0.1294 -0.3474
    1PA     H4R11805   0.216   5.416   4.156  0.8667  1.0898 -0.5337
    1PA     H4S11806   0.061   5.434   4.065  0.0997 -3.8822  1.4794
    1PA     C1311807   0.207   5.319   3.977 -0.2935 -0.1425 -0.1151
    1PA     H3R11808   0.314   5.332   3.958 -0.1649 -0.5513  0.3031
    1PA     H3S11809   0.184   5.229   4.035  1.4351  0.1803  1.1282
    1PA     C1211810   0.140   5.317   3.833 -0.0101 -0.3600 -0.7046
    1PA     H2R11811   0.034   5.296   3.847 -0.4201  0.6709 -2.0791
    1PA     H2S11812   0.142   5.416   3.786 -1.7315  0.4285  0.8270
    1PC     C1111813   0.199   5.223   3.733  0.2926 -0.7669  0.0263
    1PC     O1211814   0.315   5.227   3.705 -0.2718  0.0560  0.4528
    1PC     O1111815   0.115   5.127   3.698  0.2530 -0.4391 -0.9434
    1PC      C111816   0.167   5.016   3.628  0.0961  0.7744  0.0207
    1PC      HR11817   0.235   5.050   3.549  1.9362  1.3297  1.8169
    1PC      HS11818   0.227   4.958   3.698 -0.2339  1.8716  1.2138
    1PC      C211819   0.060   4.927   3.556 -0.5615  0.7880  0.6081
    1PC      HX11820   0.118   4.851   3.504  0.1206  0.6108  1.6098
    1PC      C311821  -0.030   5.012   3.471  0.3666  0.0506  1.1935
    1PC      HA11822  -0.080   5.092   3.525  1.5010  1.5055  0.1269
    1PC      HB11823   0.028   5.071   3.399 -1.3043  1.2205  0.7857
    1PC     O3111824  -0.139   4.938   3.409  0.0696  0.2625  0.0290
    1PC     P3111825  -0.122   4.891   3.252  0.0812 -0.3574  0.1834
    1PC     O3211826  -0.158   5.011   3.179  0.2689  0.7195  0.8588
    1PC     C3111827  -0.289   5.054   3.150  0.1493 -0.0981 -0.6689
    1PC     H1A11828  -0.351   4.963   3.150 -1.0939  0.7313 -1.4227
    1PC     H1B11829  -0.333   5.119   3.225  0.3887 -0.0353 -0.5832
    1PC     C3211830  -0.300   5.123   3.015  0.0323 -0.4381 -0.8928
    1PC     H2A11831  -0.403   5.158   3.010  0.1056 -0.2740 -1.1901
    1PC     H2B11832  -0.218   5.194   3.019 -0.9342  0.7663 -2.1355
    1PC     N3111833  -0.264   5.041   2.892  0.2014  0.1718  0.2635
    1PC     C3311834  -0.124   5.001   2.900 -0.5161 -0.1361  0.4076
    1PC     H3A11835  -0.093   4.957   2.805  0.4539  0.4593  0.4372
    1PC     H3B11836  -0.071   5.092   2.928  0.5933 -0.2703 -1.2180
    1PC     H3C11837  -0.102   4.932   2.981  1.5372  1.9558  1.6859
    1PC     C3411838  -0.335   4.912   2.865  0.4934  0.1327  0.1771
    1PC     H4A11839  -0.312   4.838   2.942 -1.3969  1.5133  2.1408
    1PC     H4B11840  -0.444   4.923   2.870  0.7144  1.7868  1.9871
    1PC     H4C11841  -0.304   4.875   2.767 -0.1147 -0.5032  0.2139
    1PC     C3511842  -0.289   5.122   2.768 -0.4669  0.0639  0.1032
    1PC     H5A11843  -0.222   5.082   2.692 -0.4199 -1.1609  0.7842
    1PC     H5B11844  -0.260   5.223   2.799 -0.6667  0.0014  0.5037
    1PC     H5C11845  -0.392   5.113   2.732  0.3460  0.4428 -2.4104
    1PC     O3311846   0.022   4.861   3.224  0.1623 -0.5474  0.1131
    1PC     O3411847  -0.215   4.777   3.224 -0.1254  0.0500  0.4863
    1PC     O2111848  -0.024   4.868   3.659 -0.0894 -0.5257 -0.3890
    1PC     C2111849  -0.068   4.737   3.641  0.1365 -0.0325 -0.0038
    1PC     O2211850  -0.014   4.657   3.567 -0.6519 -0.0908  0.2627
    1OL     C1211851  -0.205   4.706   3.721 -0.6786 -0.0142  0.2317
    1OL     H2R11852  -0.257   4.632   3.659  0.5356  0.8996 -1.9330
    1OL     H2S11853  -0.260   4.800   3.719 -1.2724 -0.3343  1.2183
    1OL     C1311854  -0.182   4.660   3.864  0.5787  0.5908 -0.6435
    1OL     H3R11855  -0.117   4.733   3.912  0.4120  0.7139 -0.6052
    1OL     H3S11856  -0.132   4.563   3.870 -4.0574 -2.0087 -1.4567
    1OL     C1411857  -0.312   4.634   3.941 -0.3291 -0.4940  0.2395
    1OL     H4R11858  -0.371   4.559   3.888  0.4492 -0.4196 -0.7518
    1OL     H4S11859  -0.365   4.729   3.931 -0.8381 -0.7409  0.5926
    1OL     C1511860  -0.311   4.597   4.087 -0.3790  0.4737 -0.5233
    1OL     H5R11861  -0.251   4.669   4.142  1.9354 -1.3317 -0.6183
    1OL     H5S11862  -0.270   4.496   4.096  1.1428  1.0565 -0.8995
    1OL     C1611863  -0.448   4.594   4.147  0.0653  0.4072 -0.6520
    1OL     H6R11864  -0.503   4.526   4.081  0.5165 -0.7618  0.1473
    1OL     H6S11865  -0.488   4.695   4.139 -1.5679 -0.2305 -0.6414
    1OL     C1711866  -0.451   4.551   4.296  0.2091 -0.4273  0.6418
    1OL     H7R11867  -0.368   4.601   4.346  1.4954  0.0571 -1.9039
    1OL     H7S11868  -0.439   4.443   4.306 -2.6446 -0.6850  1.6432
    1OL     C1811869  -0.576   4.596   4.364 -0.1377  0.2155 -0.0328
    1OL     H8R11870  -0.664   4.548   4.321  1.2774 -1.0695 -1.5790
    1OL     H8S11871  -0.594   4.701   4.340 -0.8408  0.7021  2.4747
    1OL     C1911872  -0.579   4.588   4.511 -0.0914  0.0494 -0.1114
    1OL     H9R11873  -0.593   4.490   4.556  1.3424  0.0554  0.3787
    1OL    C11011874  -0.549   4.687   4.594 -0.2856 -0.5526  0.2926
    1OL    H10R11875  -0.548   4.677   4.702  2.2005  0.1434  0.3844
    1OL    C11111876  -0.522   4.828   4.557 -0.4401 -0.7003  0.9989
    1OL    H11R11877  -0.621   4.875   4.548  0.4942  0.8807 -1.7993
    1OL    H11S11878  -0.466   4.829   4.463 -0.6723  1.2571  0.8580
    1OL    C11211879  -0.440   4.910   4.665  0.6626  0.2857  0.2977
    1OL    H12R11880  -0.505   4.916   4.752  0.5611 -0.2331  0.2603
    1OL    H12S11881  -0.424   5.010   4.624  1.3038  0.2557  0.4590
    1OL    C11311882  -0.306   4.851   4.700  0.6314  0.4188 -0.4137
    1OL    H13R11883  -0.322   4.760   4.758 -0.1650  0.2063 -0.9613
    1OL    H13S11884  -0.251   4.926   4.758 -0.5814  0.8788  0.1523
    1OL    C11411885  -0.205   4.811   4.585 -0.8078  0.0983  0.7454
    1OL    H14R11886  -0.176   4.898   4.527 -0.5498  0.6243  1.6472
    1OL    H14S11887  -0.259   4.746   4.516 -1.0509 -2.4961  3.2538
    1OL    C11511888  -0.077   4.744   4.642 -0.8888  0.0638  0.1413
    1OL    H15R11889  -0.010   4.739   4.556 -1.4031  1.4964 -0.3552
    1OL    H15S11890  -0.105   4.643   4.671 -0.6824 -1.1396 -3.6001
    1OL    C11611891  -0.014   4.826   4.757  0.7637 -0.2266  0.0366
    1OL    H16R11892  -0.085   4.844   4.839 -0.6695  3.6512 -1.9184
    1OL    H16S11893   0.022   4.918   4.712 -1.3507  0.4317 -0.3464
    1OL    C11711894   0.106   4.743   4.813  0.2005  0.0135  0.1584
    1OL    H17R11895   0.162   4.813   4.875  0.4371  1.2381 -1.4111
    1OL    H17S11896   0.179   4.710   4.739  1.8854 -2.2089  2.7107
    1OL    C11811897   0.051   4.620   4.885 -0.7894 -0.6712  0.0637
    1OL    H18R11898  -0.036   4.623   4.952 -1.3686  0.1546 -0.7210
    1OL    H18S11899   0.127   4.571   4.947 -0.7899  0.6099  1.1180
    1OL    H18T11900   0.040   4.544   4.808  2.2942 -0.0914 -1.0147
    7Na+    Na+11901   1.636   1.831   0.252  0.2231  0.2989 -0.1999
    8Na+    Na+11902   0.568   3.405   8.844 -0.1209  0.0601 -0.0523
    9Na+    Na+11903   0.728   5.300   8.706  0.0405 -0.4920  0.0185
   10Na+    Na+11904   3.599   1.502   1.255 -0.3278  0.0684 -0.0367
   11Na+    Na+11905   3.696   3.568   0.687 -0.1601  0.0660 -0.0558
   12Na+    Na+11906   1.200   3.222   9.096 -0.1363 -0.0999  0.5064
   13Na+    Na+11907   4.842   0.057   1.669  0.5358  0.5107 -0.4986
   14Na+    Na+11908   1.200   1.575   1.605 -0.4330  0.0513  0.2960
   15Na+    Na+11909   4.792   2.001   0.504  0.0075  0.3720 -0.2983
   16Na+    Na+11910   3.350   0.730   9.090  0.2761 -0.1438  0.1561
   17Na+    Na+11911   1.482   0.634   2.273 -0.3181  0.1527  0.0729
   18Na+    Na+11912   4.903   0.557   0.567  0.7886  0.0318  0.0136
   19Na+    Na+11913   4.568   3.839   1.151 -0.1765 -0.1960 -0.4794
   20Na+    Na+11914   2.239   4.514   8.588 -0.5469 -0.0726  0.1870
   21Cl-    Cl-11915   4.778   3.752   1.306  0.1101 -0.2071 -0.2318
   22Cl-    Cl-11916   0.748   1.545   2.247 -0.2625 -0.0432  0.0327
   23Cl-    Cl-11917   3.723   5.158   9.149 -0.0035  0.3424 -0.0753
   24Cl-    Cl-11918   0.311   3.261   1.566 -0.3885  0.0320 -0.2131
   25Cl-    Cl-11919   0.541   3.954   8.739  0.1095 -0.4497 -0.4703
   26Cl-    Cl-11920   2.070   1.744   2.485 -0.0409  0.1562 -0.6153
   27Cl-    Cl-11921   1.790   1.610   1.905  0.3252 -0.0103  0.3891
   28Cl-    Cl-11922   2.400   4.788  10.144 -0.2547  0.0439  0.6347
   29Cl-    Cl-11923   0.478   4.707   9.297 -0.1755  0.2028 -0.0070
   30Cl-    Cl-11924   4.043   2.913   8.713  0.1754 -0.3705 -0.1357
   31Cl-    Cl-11925   4.543   2.371   9.263  0.5448  0.0759 -0.2632
   32Cl-    Cl-11926   2.162   0.720   7.531 -0.0520 -0.2849  0.0960
   33Cl-    Cl-11927   0.921   1.656   9.337  0.0327 -0.0680 -0.3057
   34Cl-    Cl-11928   3.146   3.766   1.985 -0.1717  0.0450  0.1072
   35Cl-    Cl-11929   2.962   1.389   0.919  0.0137  0.2452  0.0368
   36Cl-    Cl-11930   1.198   5.169   2.221  0.1013  0.0708 -0.1197
   37Cl-    Cl-11931   3.446   2.081   2.863 -0.1055  0.0378 -0.3169
   38TP3      O11932   2.113   1.909   1.318 -0.0067  0.1202  0.2812
   38TP3     H111933   2.205   1.885   1.320  0.0291  0.1298 -0.8772
   38TP3     H211934   2.070   1.838   1.270 -0.7677 -0.4065  1.7293
   39TP3      O11935   3.758   2.738   0.078  0.2892  0.0747  0.0911
   39TP3     H111936   3.776   2.753  -0.015 -0.0516 -0.9081 -0.1440
   39TP3     H211937   3.663   2.736   0.084  0.2930  1.1104  0.6310
   40TP3      O11938   0.037   4.860   8.311 -0.0708  0.5011  0.1924
   40TP3     H111939  -0.022   4.799   8.266  0.8598 -0.7904  0.7023
   40TP3     H211940   0.122   4.847   8.268 -0.3057  2.9297 -1.0848
   41TP3      O11941   1.404   2.295   0.617 -0.2783  0.3413 -0.2556
   41TP3     H111942   1.402   2.288   0.712 -0.5146  1.8642 -0.1296
   41TP3     H211943   1.495   2.317   0.596 -0.4683  1.1292 -0.2784
   42TP3      O11944   0.852   3.666   0.432 -0.9034 -0.1714 -0.1528
   42TP3     H111945   0.765   3.640   0.400 -0.1571 -1.7664 -0.9194
   42TP3     H211946   0.888   3.721   0.362 -0.6656 -0.8063 -0.5308
   43TP3      O11947   4.672   2.524   8.992 -0.2415 -0.5893  0.0798
   43TP3     H111948   4.591   2.543   8.944  0.3220 -1.1973 -1.1129
   43TP3     H211949   4.659   2.435   9.025  0.2774 -0.9926 -0.8027
   44TP3      O11950   0.857   2.791   0.507  0.0018  0.2121 -0.7044
   44TP3     H111951   0.834   2.759   0.420 -0.5763 -0.5664 -0.2753
   44TP3     H211952   0.816   2.877   0.513 -0.1137  0.1855 -1.1300
   45TP3      O11953   3.473   2.089   7.303 -0.2229 -0.3481 -0.8183
   45TP3     H111954   3.533   2.164   7.305 -0.2952 -0.2244 -2.5656
   45TP3     H211955   3.469   2.064   7.210 -2.5823 -0.5836 -0.6817
   46TP3      O11956   0.174   0.875   9.743  0.2359  0.4136  0.0869
   46TP3     H111957   0.087   0.883   9.702  0.0829 -2.1587 -0.1793
   46TP3     H211958   0.229   0.936   9.694 -0.4792 -0.9226 -2.4526
   47TP3      O11959   2.402   4.518   9.722  0.1289  0.0627 -0.3119
   47TP3     H111960   2.356   4.439   9.748 -1.9729  0.9112 -1.3817
   47TP3     H211961   2.333   4.581   9.702  1.7223  1.0536 -2.9391
   48TP3      O11962   3.638   3.789   9.584  0.1009  0.2894 -0.2823
   48TP3     H111963   3.556   3.777   9.631 -0.3965  2.3199 -0.5996
   48TP3     H211964   3.660   3.881   9.596  1.7921  0.0184 -1.0833
   49TP3      O11965   4.687   0.178   0.912 -0.6437 -0.2024  0.4845
   49TP3     H111966   4.641   0.126   0.977 -1.3267 -0.6903 -0.3793
   49TP3     H211967   4.779   0.170   0.935 -0.7751 -1.4673  0.5970
   50TP3      O11968   4.506   3.621   0.719 -0.5717  0.8660  0.1374
   50TP3     H111969   4.427   3.569   0.734 -1.0374  1.2396 -1.0189
   50TP3     H211970   4.570   3.557   0.688 -0.4581  0.5900  0.9262
   51TP3      O11971   1.785   1.910   7.438 -0.2670 -0.3967  0.6373
   51TP3     H111972   1.765   1.900   7.531 -1.7711  0.6321  0.4303
   51TP3     H211973   1.765   1.825   7.399  0.2808 -0.8009  1.2303
   52TP3      O11974   2.635   3.633   8.811 -0.4752 -0.2381 -0.0225
   52TP3     H111975   2.581   3.597   8.741  1.2412  1.3455 -2.2433
   52TP3     H211976   2.640   3.727   8.791 -0.2855  0.3320  2.4897
   53TP3      O11977   1.337   3.626   8.459  0.4645  0.2539  0.1199
   53TP3     H111978   1.286   3.634   8.540  0.5944  0.2364  0.2024
   53TP3     H211979   1.428   3.628   8.488  0.5089 -0.3490  0.0299
   54TP3      O11980   1.335   1.229   8.047 -0.2220  0.6949 -0.3052
   54TP3     H111981   1.257   1.274   8.079  0.3078  1.4540 -0.0701
   54TP3     H211982   1.309   1.137   8.039 -0.2640  0.4326  2.6165
   55TP3      O11983   5.167   2.304   8.704  0.1220 -0.7906  0.6040
   55TP3     H111984   5.142   2.212   8.706  0.1242 -0.7809  2.4583
   55TP3     H211985   5.259   2.304   8.731 -0.3285 -0.1303  2.1982
   56TP3      O11986   1.708   0.930   9.408 -0.2194  0.4480 -0.2717
   56TP3     H111987   1.699   0.964   9.320 -2.0840 -1.3886 -0.8565
   56TP3     H211988   1.769   0.857   9.400 -0.6402  0.0716 -0.1303
   57TP3      O11989   2.930   4.368   8.687  0.3368 -0.1303  0.1625
   57TP3     H111990   2.981   4.370   8.768  0.2465  0.3887  0.2104
   57TP3     H211991   2.874   4.446   8.693  0.7133  0.2081 -0.6478
   58TP3      O11992   5.253   4.202   0.137 -0.2865 -0.3297 -0.4665
   58TP3     H111993   5.296   4.136   0.082  0.2763 -0.0164 -0.4127
   58TP3     H211994   5.317   4.273   0.142  1.0279 -1.6520  3.2463
   59TP3      O11995   1.280   1.818   9.506  0.1583  0.2708  0.1170
   59TP3     H111996   1.267   1.734   9.551  0.5042  0.9245  1.4570
   59TP3     H211997   1.353   1.859   9.551 -0.0776  1.3470 -0.4529
   60TP3      O11998   0.775   2.373   7.016  0.4055 -0.7098  0.1207
   60TP3     H111999   0.818   2.333   7.092 -0.1757  3.0721  2.5791
   60TP3     H212000   0.830   2.349   6.942  2.3612 -2.5127  2.0858
   61TP3      O12001   3.987   2.408   6.714 -0.1879 -0.9700 -0.3940
   61TP3     H112002   3.962   2.402   6.806  0.1927  0.9910 -0.1465
   61TP3     H212003   4.010   2.318   6.690  0.4321 -1.3833  1.6349
   62TP3      O12004   0.400   2.793   8.126 -0.1844  0.4552  0.1156
   62TP3     H112005   0.344   2.753   8.060 -1.6678  1.9402  0.4420
   62TP3     H212006   0.435   2.719   8.176 -1.1484 -0.5427 -0.6667
   63TP3      O12007   0.828   1.423   7.280 -0.2555  0.1787 -0.0594
   63TP3     H112008   0.798   1.439   7.369  1.3686  0.6214  0.4241
   63TP3     H212009   0.912   1.468   7.274  0.5464 -1.3967 -1.2196
   64TP3      O12010   2.889   4.256   1.562  0.3719 -0.2416 -0.2678
   64TP3     H112011   2.871   4.162   1.568  0.3018 -0.1888  0.4302
   64TP3     H212012   2.983   4.263   1.578  0.4011 -0.2058 -0.4586
   65TP3      O12013   3.789   2.490   8.513  0.4694 -0.2033 -0.1472
   65TP3     H112014   3.848   2.426   8.551  0.4737  0.0486  0.2746
   65TP3     H212015   3.708   2.480   8.563  0.0652 -0.7290 -0.8922
   66TP3      O12016   0.716   2.808   6.636  0.3201 -0.9678  0.0054
   66TP3     H112017   0.791   2.859   6.667  0.6480 -1.7247  0.4486
   66TP3     H212018   0.676   2.773   6.715 -1.5644  0.8991 -0.0817
   67TP3      O12019   2.745   2.186   9.313  0.0862 -0.1856  0.1859
   67TP3     H112020   2.689   2.161   9.386  0.5546  0.0993  0.6462
   67TP3     H212021   2.698   2.257   9.269 -1.0660 -1.5755 -0.8930
   68TP3      O12022   0.134   1.986   7.579  0.7086 -0.3696  0.9385
   68TP3     H112023   0.227   1.981   7.599  0.8788 -1.3443 -0.0479
   68TP3     H212024   0.093   1.928   7.644  0.6714  0.8507  2.0228
   69TP3      O12025   1.523   3.552   7.682  0.0889 -0.4024 -0.2153
   69TP3     H112026   1.613   3.519   7.680 -0.2587 -1.4725  1.1379
   69TP3     H212027   1.472   3.486   7.636 -0.2106 -0.5042  0.2512
   70TP3      O12028   2.510   3.188   0.244 -0.0618 -0.1138 -0.6732
   70TP3     H112029   2.512   3.104   0.198 -0.2485 -0.2055 -0.5134
   70TP3     H212030   2.421   3.220   0.230 -0.8358 -1.2206  1.5806
   71TP3      O12031   1.746   3.508   2.367  0.2372  0.0741  0.6010
   71TP3     H112032   1.668   3.512   2.423  1.1959 -1.2800  2.0725
   71TP3     H212033   1.819   3.520   2.428  1.2249  0.4946 -0.6503
   72TP3      O12034   5.065   3.691   2.681  0.2884 -0.4545 -0.5004
   72TP3     H112035   5.120   3.714   2.756  1.0981  2.0916 -1.7884
   72TP3     H212036   5.101   3.608   2.650 -0.2618 -1.7149  2.0574
   73TP3      O12037   4.344   5.140   2.245  0.3384 -0.3009  0.9027
   73TP3     H112038   4.330   5.182   2.160  2.0477  0.0790  0.7932
   73TP3     H212039   4.256   5.115   2.274 -0.3437  0.2856 -0.6032
   74TP3      O12040   4.456   3.727   7.900 -0.2825 -0.1770 -0.4216
   74TP3     H112041   4.547   3.714   7.926 -1.1137 -2.2395  1.6519
   74TP3     H212042   4.411   3.749   7.981 -2.0317 -1.5621 -0.9818
   75TP3      O12043   2.581   4.632   9.235  0.0074 -0.4333  0.2972
   75TP3     H112044   2.511   4.692   9.261  0.9057  0.1366  1.4240
   75TP3     H212045   2.538   4.546   9.232 -0.0712 -0.6257  4.1277
   76TP3      O12046   0.801   4.349   7.186 -0.4618  0.6316 -0.1360
   76TP3     H112047   0.755   4.381   7.109  0.4109 -1.8875 -1.7802
   76TP3     H212048   0.892   4.340   7.157  0.4394  2.1974  2.0195
   77TP3      O12049   2.778   4.166   0.372  0.1983  0.6438 -0.0906
   77TP3     H112050   2.705   4.199   0.320 -0.6995 -1.0947  0.0382
   77TP3     H212051   2.739   4.148   0.458  0.8805  0.2025  0.1273
   78TP3      O12052   1.281   1.311   7.117  0.1697  0.3147  0.1012
   78TP3     H112053   1.354   1.355   7.074  0.2902  0.4857  0.4774
   78TP3     H212054   1.210   1.376   7.118  0.2441  0.3931  0.3706
   79TP3      O12055   3.330   2.097   2.319 -0.0175  0.2972 -0.4591
   79TP3     H112056   3.397   2.034   2.296 -0.1269  0.2091 -0.5385
   79TP3     H212057   3.346   2.117   2.411  0.6217  0.9002 -0.7012
   80TP3      O12058   0.862   0.594   7.477  0.7781  0.0090 -0.1171
   80TP3     H112059   0.897   0.508   7.455  4.0945  1.4709 -0.9294
   80TP3     H212060   0.841   0.589   7.570  0.3102 -1.8556 -0.3152
   81TP3      O12061   2.061   0.906   8.620  0.0292  0.1098 -0.1843
   81TP3     H112062   2.037   0.819   8.587  0.8612 -0.6234  1.1306
   81TP3     H212063   2.150   0.921   8.587  0.4085 -0.1229  0.7156
   82TP3      O12064   2.991   1.128   9.895 -0.0238 -0.0000 -0.6333
   82TP3     H112065   3.007   1.036   9.872  1.7965 -0.3636  1.8619
   82TP3     H212066   3.043   1.178   9.832 -0.6580 -0.6854 -1.7152
   83TP3      O12067   0.545   0.655   0.230  0.6154  0.1281 -1.1961
   83TP3     H112068   0.528   0.689   0.318  0.8832 -1.2388 -0.6057
   83TP3     H212069   0.634   0.683   0.210  0.5762  0.3856 -1.0180
   84TP3      O12070   4.521   0.460   9.696  0.2134  0.6030 -0.0345
   84TP3     H112071   4.434   0.501   9.696  0.2697  0.7224 -0.9650
   84TP3     H212072   4.531   0.424   9.608 -0.0486 -1.9021  0.9155
   85TP3      O12073   2.254   1.465   9.371  0.1131  0.0925  0.5848
   85TP3     H112074   2.173   1.468   9.322  1.1382  0.6604 -1.1092
   85TP3     H212075   2.280   1.556   9.382  0.6628 -0.0883  0.8545
   86TP3      O12076   1.483   0.021   9.290  0.5788 -0.4644 -1.1984
   86TP3     H112077   1.475   0.064   9.375  2.8093 -1.8247 -0.2568
   86TP3     H212078   1.425  -0.055   9.296 -0.5970  0.3922 -1.5492
   87TP3      O12079   0.990   2.078   6.937 -0.3283  0.5810  0.6880
   87TP3     H112080   1.037   1.996   6.951  0.6636  0.9266 -0.5016
   87TP3     H212081   0.912   2.071   6.991 -0.6995 -1.5396 -0.1000
   88TP3      O12082   3.862   5.017   8.603 -0.5571  0.3451 -0.1796
   88TP3     H112083   3.787   4.997   8.548 -1.1535 -2.7339  1.5935
   88TP3     H212084   3.826   5.025   8.691  1.1608 -1.3945  0.7376
   89TP3      O12085   1.023   2.420   6.881  0.3179  0.2734 -0.2599
   89TP3     H112086   1.105   2.431   6.928 -1.1525  1.5223  2.0940
   89TP3     H212087   0.985   2.508   6.877 -1.5352 -0.4856 -0.0714
   90TP3      O12088   0.796   4.069   6.698  0.5105  0.0720  0.0199
   90TP3     H112089   0.876   4.032   6.663 -0.0615 -0.5190 -0.6789
   90TP3     H212090   0.824   4.148   6.744  1.4540  0.0115 -0.4497
   91TP3      O12091   5.085   4.469   7.619 -0.2219 -0.0861  0.1129
   91TP3     H112092   4.993   4.466   7.592 -0.1157  0.8831 -0.3986
   91TP3     H212093   5.083   4.497   7.710 -0.3929  0.9724 -0.2110
   92TP3      O12094   2.552   1.647   0.671  0.2581  0.3338 -0.5772
   92TP3     H112095   2.467   1.606   0.658  0.3800  0.2324 -1.0388
   92TP3     H212096   2.574   1.686   0.586  1.1926 -0.6123 -0.7778
   93TP3      O12097   1.769   0.050   9.244  0.4422  0.5318 -0.1595
   93TP3     H112098   1.674   0.056   9.229  0.5880  1.1285 -0.9133
   93TP3     H212099   1.777   0.020   9.334 -0.4692  0.4642 -0.0914
   94TP3      O12100   3.716   2.250   7.281  0.1671 -0.3682  0.0179
   94TP3     H112101   3.714   2.345   7.272 -1.0011 -0.2067  1.6900
   94TP3     H212102   3.806   2.225   7.259  0.8298  1.2609  0.8111
   95TP3      O12103   1.211   2.395   9.674 -0.0322  0.7227 -0.2651
   95TP3     H112104   1.194   2.301   9.679 -0.2876  0.8378  1.2859
   95TP3     H212105   1.129   2.433   9.643 -0.5259  0.6026  0.8616
   96TP3      O12106   3.627   4.836   1.296  0.3849 -0.1939  0.5891
   96TP3     H112107   3.535   4.816   1.282  0.2876 -0.2302  1.2278
   96TP3     H212108   3.627   4.924   1.334  0.7532  0.6621 -1.3336
   97TP3      O12109   3.656   3.261   8.660  0.3022 -0.1147 -0.5049
   97TP3     H112110   3.633   3.230   8.573 -0.7886 -4.1418  1.1357
   97TP3     H212111   3.721   3.198   8.692  0.6157  1.2298  1.6312
   98TP3      O12112   5.113   4.361   8.071  0.3192  0.3395  0.2142
   98TP3     H112113   5.178   4.309   8.118  1.1903  1.0398 -0.1778
   98TP3     H212114   5.074   4.301   8.008 -0.4647 -0.4611  1.4782
   99TP3      O12115   1.614   2.078   1.858 -0.1218  0.7201  1.2529
   99TP3     H112116   1.603   2.173   1.866 -1.9894  0.5907  0.3206
   99TP3     H212117   1.571   2.043   1.936  1.5713  0.6877  2.1875
  100TP3      O12118   0.003   2.141   7.826 -0.7070 -0.9812  0.0432
  100TP3     H112119   0.037   2.060   7.864  2.0771 -0.2349 -0.7549
  100TP3     H212120   0.073   2.171   7.767 -1.8581  1.8026  0.0315
  101TP3      O12121   4.211   0.446   8.854 -0.1951 -0.3922  0.3988
  101TP3     H112122   4.146   0.382   8.825  1.0102 -1.6335  0.3811
  101TP3     H212123   4.227   0.501   8.777 -1.5626  0.2217  0.5482
  102TP3      O12124   1.533   4.351   8.502  0.0503 -0.7139 -0.3696
  102TP3     H112125   1.528   4.258   8.523 -2.1077 -0.3711  0.8107
  102TP3     H212126   1.445   4.384   8.519  1.0202  1.7322  0.0978
  103TP3      O12127   0.165   5.299   6.879  0.6593  0.5981 -0.2503
  103TP3     H112128   0.222   5.375   6.868  1.1251  0.4602  1.1418
  103TP3     H212129   0.095   5.330   6.937  1.2550 -0.2392  0.9328
  104TP3      O12130   3.219   1.213   9.510 -0.4032  0.0529  0.2757
  104TP3     H112131   3.209   1.124   9.544 -0.8254 -0.1389 -0.3551
  104TP3     H212132   3.129   1.247   9.506 -0.3921 -0.0326 -0.9302
  105TP3      O12133   0.487   4.872   7.200  0.1037  0.1315 -0.1481
  105TP3     H112134   0.398   4.837   7.198  0.1085  0.1539 -1.8441
  105TP3     H212135   0.525   4.845   7.116  2.3940 -1.6103  1.4244
  106TP3      O12136   4.992   3.566   8.070 -0.1200  0.1229 -0.1139
  106TP3     H112137   5.062   3.601   8.015 -0.7560  3.2611  0.9666
  106TP3     H212138   5.036   3.536   8.149  0.1503  1.1695  0.1417
  107TP3      O12139   0.611   1.005   7.686  0.1203 -0.5804  0.2209
  107TP3     H112140   0.577   1.014   7.775 -0.0617  1.4102 -0.0314
  107TP3     H212141   0.701   1.038   7.692  0.8163 -2.3750  0.0844
  108TP3      O12142   4.519   1.740   8.059 -0.1878 -0.2410 -0.5908
  108TP3     H112143   4.424   1.728   8.055 -0.0911 -0.7905 -1.3059
  108TP3     H212144   4.547   1.691   8.136 -0.6895  1.3063  0.6098
  109TP3      O12145   0.093   3.972   8.638 -0.2782 -0.5769 -0.3228
  109TP3     H112146   0.143   4.049   8.663 -2.1329  0.9135 -1.0249
  109TP3     H212147   0.096   3.971   8.542 -1.3132 -0.6473 -0.3636
  110TP3      O12148   0.055   3.458   8.037 -0.8560  0.4997  0.2014
  110TP3     H112149   0.091   3.539   8.073 -0.5203 -0.7716  2.8225
  110TP3     H212150   0.130   3.400   8.028 -0.8158  0.9995 -3.2935
  111TP3      O12151   3.408   1.586   9.189 -0.0623  0.1819 -0.1087
  111TP3     H112152   3.340   1.546   9.245 -0.3684 -0.0185 -0.6230
  111TP3     H212153   3.404   1.679   9.210 -0.3901  0.1484 -0.0198
  112TP3      O12154   2.484   2.786   7.190  0.3799 -0.7009  0.2754
  112TP3     H112155   2.532   2.723   7.136 -0.6685 -0.9380 -0.3858
  112TP3     H212156   2.481   2.865   7.135 -1.7830 -1.3323 -0.5546
  113TP3      O12157   0.360   0.532   9.170  0.0799 -0.2604  0.3149
  113TP3     H112158   0.425   0.486   9.222 -1.3845 -1.3949  1.1969
  113TP3     H212159   0.331   0.604   9.226  0.3822  0.0780  0.0348
  114TP3      O12160   1.699   0.440   7.170 -0.5665  0.2812  0.3415
  114TP3     H112161   1.644   0.514   7.198 -1.1841  0.3678 -1.1013
  114TP3     H212162   1.654   0.363   7.204 -0.9411  0.4308  0.1787
  115TP3      O12163   4.880   1.015   8.354  0.3990  0.3355 -0.0285
  115TP3     H112164   4.863   0.929   8.314 -1.7130 -0.3069  2.1369
  115TP3     H212165   4.807   1.070   8.327  1.3535  1.2509 -0.7836
  116TP3      O12166   1.495   1.489   7.037 -0.3307 -0.0497 -0.0961
  116TP3     H112167   1.413   1.537   7.029 -1.2098 -1.6210 -0.7892
  116TP3     H212168   1.527   1.480   6.948  0.7441  0.7877  0.1955
  117TP3      O12169   2.190   4.349   9.473 -0.2336 -0.0111  0.0529
  117TP3     H112170   2.169   4.422   9.531  0.2160 -0.4882  0.8259
  117TP3     H212171   2.268   4.309   9.511 -0.1256 -0.5272 -0.6966
  118TP3      O12172   0.730   0.184   7.584  0.5133  0.1730  0.2023
  118TP3     H112173   0.768   0.234   7.512  0.0781 -0.3936 -0.4333
  118TP3     H212174   0.655   0.139   7.545  0.0176  0.2031  1.1191
  119TP3      O12175   0.766   1.683   6.835  0.0232 -0.4851  0.0417
  119TP3     H112176   0.789   1.594   6.862 -0.1058 -0.7566 -0.7292
  119TP3     H212177   0.792   1.687   6.743 -0.9054 -0.0446 -0.1981
  120TP3      O12178   1.175   1.259   6.746  0.1589 -0.3541 -0.8797
  120TP3     H112179   1.113   1.200   6.788 -0.3733  3.0910  3.6049
  120TP3     H212180   1.130   1.291   6.668 -1.8682 -1.4003 -0.1577
  121TP3      O12181   2.448   2.601   3.019 -0.2899 -0.4837  0.5831
  121TP3     H112182   2.485   2.523   2.977 -0.2572 -0.4907  0.6236
  121TP3     H212183   2.462   2.672   2.956 -0.7597 -0.6055  0.3447
  122TP3      O12184   4.306   2.714   0.929  0.2403 -0.2214 -0.3732
  122TP3     H112185   4.228   2.747   0.885  0.6785 -1.4508 -2.1078
  122TP3     H212186   4.380   2.749   0.879  0.8050  0.1921  0.7198
  123TP3      O12187   0.254   1.667   8.437 -0.4240  0.2061  0.3249
  123TP3     H112188   0.321   1.599   8.434 -2.2909 -1.9045  3.6218
  123TP3     H212189   0.301   1.745   8.465  1.2672 -0.3106 -0.9493
  124TP3      O12190   2.259   4.289   7.651 -0.5501  0.5343  0.1709
  124TP3     H112191   2.192   4.331   7.706 -1.1869 -1.9554  1.3372
  124TP3     H212192   2.296   4.221   7.706 -0.8072 -1.6450 -2.2706
  125TP3      O12193   3.764   0.895   6.789 -0.5113  0.2000 -0.6121
  125TP3     H112194   3.856   0.879   6.768 -0.7380 -0.1677 -1.3218
  125TP3     H212195   3.729   0.808   6.806 -1.0787  0.1954 -1.7696
  126TP3      O12196   3.646   1.881   9.505  0.3812  0.6034 -0.4322
  126TP3     H112197   3.646   1.970   9.470 -0.4561  0.6377 -0.3497
  126TP3     H212198   3.565   1.842   9.473  1.3454 -0.5578 -1.5354
  127TP3      O12199   2.418   4.232   7.176  0.2982  0.0572 -0.6797
  127TP3     H112200   2.343   4.178   7.150  0.9432  0.1468 -2.8042
  127TP3     H212201   2.381   4.299   7.232 -1.5638  1.2780 -3.2931
  128TP3      O12202   4.636   1.155   8.293  0.7107 -0.6951  0.0675
  128TP3     H112203   4.669   1.240   8.323 -1.0008 -0.4424  1.3111
  128TP3     H212204   4.586   1.121   8.368  1.2083 -2.7160 -0.4779
  129TP3      O12205   0.790   0.953   6.752 -0.0688 -0.5651 -0.4565
  129TP3     H112206   0.704   0.986   6.777  0.9428  0.5175  1.7718
  129TP3     H212207   0.782   0.858   6.756 -1.6260 -0.4981 -1.9377
  130TP3      O12208   4.535   1.329   7.881  0.2002 -0.6509  0.0151
  130TP3     H112209   4.528   1.269   7.955 -1.3619 -1.4209 -0.7253
  130TP3     H212210   4.502   1.278   7.806  0.0383  0.7121 -0.8539
  131TP3      O12211   1.205   0.320   7.299  0.1882 -0.2599  0.2381
  131TP3     H112212   1.134   0.317   7.364 -0.2262 -1.3020 -0.2619
  131TP3     H212213   1.189   0.245   7.243 -0.4150  1.5345 -2.0829
  132TP3      O12214   0.958   1.683   8.589  0.2297 -0.7679 -0.0153
  132TP3     H112215   1.034   1.740   8.595  0.4500 -0.9076 -1.3694
  132TP3     H212216   0.995   1.594   8.596  0.4134 -0.9083 -2.4257
  133TP3      O12217   3.008   1.531   8.080  0.5013  0.1114 -0.1761
  133TP3     H112218   3.037   1.440   8.069 -0.8960 -0.2572 -1.0035
  133TP3     H212219   3.089   1.581   8.091  1.3446 -1.0780 -0.8389
  134TP3      O12220   3.494   2.801   1.241 -0.2265  0.0018 -0.5298
  134TP3     H112221   3.571   2.806   1.297 -1.9870  1.4069  1.8757
  134TP3     H212222   3.528   2.802   1.152  2.5138  0.5954  0.4839
  135TP3      O12223   1.813   2.467   8.109 -0.3221 -0.4672  0.1236
  135TP3     H112224   1.832   2.514   8.190 -0.7451 -1.1261  0.6214
  135TP3     H212225   1.773   2.532   8.051  1.8272  0.5122 -0.3152
  136TP3      O12226   2.650   1.379   0.873  0.2973 -0.0841  0.1192
  136TP3     H112227   2.742   1.384   0.897  0.2788 -0.0945  0.1923
  136TP3     H212228   2.639   1.447   0.806  0.1607  0.5318  0.7514
  137TP3      O12229   0.312   3.651   7.919  0.0939 -0.3070  0.4246
  137TP3     H112230   0.375   3.636   7.850 -0.9533 -2.7795 -0.0822
  137TP3     H212231   0.334   3.586   7.986  0.0306  0.8936  1.6221
  138TP3      O12232   1.553   0.661   0.971 -0.4437 -0.4947 -0.0312
  138TP3     H112233   1.460   0.681   0.970 -0.5384 -0.8401  0.7712
  138TP3     H212234   1.563   0.599   1.044  0.7456  1.2317  1.2982
  139TP3      O12235   0.605   2.844   7.713 -0.0754  0.3125 -0.3042
  139TP3     H112236   0.606   2.774   7.647 -0.3718  0.4876 -0.4982
  139TP3     H212237   0.697   2.856   7.737 -0.0238 -0.1574 -0.2539
  140TP3      O12238   0.623   2.741   6.877 -0.0304 -0.2387 -0.4426
  140TP3     H112239   0.670   2.814   6.916 -1.1910  0.1833  0.1911
  140TP3     H212240   0.530   2.762   6.891 -0.4264 -0.8568 -1.9951
  141TP3      O12241   2.212   4.062   7.220  0.8307  0.1003 -0.0523
  141TP3     H112242   2.188   3.989   7.163 -0.1077  0.5753 -0.2643
  141TP3     H212243   2.134   4.117   7.224  0.9355  0.1527  1.5799
  142TP3      O12244   4.688   1.545   1.982 -0.2359 -0.2172 -0.1185
  142TP3     H112245   4.610   1.563   1.930 -0.6732 -0.7976  0.3348
  142TP3     H212246   4.655   1.513   2.066  0.4961 -1.7849 -0.3998
  143TP3      O12247   1.559   4.588   8.016  0.4602  0.0403  0.1467
  143TP3     H112248   1.555   4.562   8.108 -0.7030 -0.1491  0.0457
  143TP3     H212249   1.515   4.673   8.014 -0.3152 -0.3656 -0.3725
  144TP3      O12250   1.098   3.793   8.748  0.3460 -0.3902  0.1018
  144TP3     H112251   1.181   3.842   8.745 -0.5967  1.4646  2.8137
  144TP3     H212252   1.041   3.840   8.687  0.5155 -0.1830  0.1004
  145TP3      O12253   1.232   0.994   0.850  0.7760  0.4158 -0.0350
  145TP3     H112254   1.267   0.926   0.908  2.8267  0.7153 -0.8968
  145TP3     H212255   1.228   1.072   0.905  1.0003  0.2594  0.2060
  146TP3      O12256   3.723   2.033   0.155  0.0570 -0.6917 -0.1558
  146TP3     H112257   3.708   2.072   0.069  1.0227 -0.2390 -0.1351
  146TP3     H212258   3.808   1.990   0.147  1.0198  0.9131  1.0951
  147TP3      O12259   4.467   4.626   9.020  0.1664  0.0681  0.5259
  147TP3     H112260   4.403   4.556   9.028 -1.5804  1.6649  0.8388
  147TP3     H212261   4.443   4.672   8.939  0.7846  0.8026  0.7502
  148TP3      O12262   0.289   0.215   6.806 -0.4589 -0.3392 -0.0883
  148TP3     H112263   0.246   0.243   6.725  0.6959  0.6702 -0.3482
  148TP3     H212264   0.283   0.291   6.864  1.6954  0.1081 -0.4124
  149TP3      O12265   0.781   5.264   7.931  0.2383  0.0831 -0.4813
  149TP3     H112266   0.762   5.330   7.865  1.2149 -0.3073 -1.1712
  149TP3     H212267   0.871   5.282   7.958  0.4964 -0.9223 -0.6462
  150TP3      O12268   3.256   3.592   7.276  0.0790 -0.0156  0.1651
  150TP3     H112269   3.351   3.600   7.290  0.4713 -3.1341 -0.3012
  150TP3     H212270   3.237   3.658   7.210  2.0601  0.1893 -0.2536
  151TP3      O12271   1.059   1.173   7.283 -0.8279 -0.5944  0.2539
  151TP3     H112272   1.093   1.142   7.366 -0.6247  1.4993  0.9854
  151TP3     H212273   1.137   1.187   7.229 -0.7158  1.1822  0.8512
  152TP3      O12274   4.196   2.089   0.790 -0.9047 -0.2841  0.3474
  152TP3     H112275   4.260   2.078   0.860  0.4206  0.7861 -0.6564
  152TP3     H212276   4.180   2.000   0.758 -1.1988 -0.7276  1.7181
  153TP3      O12277   1.430   2.728   0.577  0.2092  0.3551  0.0803
  153TP3     H112278   1.518   2.707   0.607  0.1661  0.0447 -0.0109
  153TP3     H212279   1.440   2.808   0.526  0.1056  1.5970  1.9651
  154TP3      O12280   3.717   3.419   1.080 -0.4336  0.2329 -0.1520
  154TP3     H112281   3.664   3.402   1.158  0.9271 -2.9691  0.1703
  154TP3     H212282   3.782   3.483   1.110 -0.9501  0.2851  0.8989
  155TP3      O12283   0.860   0.690   6.728  0.4751  0.0775 -0.2176
  155TP3     H112284   0.830   0.607   6.765 -0.6728  0.6270  0.1062
  155TP3     H212285   0.954   0.679   6.718  0.5954 -0.5880  1.5432
  156TP3      O12286   4.879   4.732   8.558 -0.1614  0.0143 -0.3507
  156TP3     H112287   4.828   4.696   8.486  0.8948 -0.6699 -0.7730
  156TP3     H212288   4.960   4.681   8.558 -0.6133 -0.7838  2.0598
  157TP3      O12289   0.049   3.975   0.001 -0.3211 -0.2196  0.3280
  157TP3     H112290   0.050   3.923  -0.080  0.3381  1.0544 -0.4971
  157TP3     H212291   0.077   3.913   0.069 -1.7398 -1.5389 -0.2585
  158TP3      O12292   0.743   2.746   8.057  0.1651 -0.0169  0.5157
  158TP3     H112293   0.762   2.740   8.150 -0.7031  1.1464  0.7864
  158TP3     H212294   0.828   2.748   8.014  0.5544 -1.6731  1.1977
  159TP3      O12295   5.233   4.042   7.435  0.3390 -0.0523 -0.7740
  159TP3     H112296   5.251   3.991   7.514  1.7010 -1.1387 -1.7688
  159TP3     H212297   5.318   4.054   7.393 -0.0878  2.2809 -1.0348
  160TP3      O12298   5.260   2.792   7.645 -0.1516  0.6930 -0.2377
  160TP3     H112299   5.324   2.840   7.697  1.8496 -0.2465 -1.7821
  160TP3     H212300   5.312   2.743   7.582 -2.4025 -0.0632 -1.5616
  161TP3      O12301   3.414   5.070   0.877 -0.4898 -0.1282 -0.6819
  161TP3     H112302   3.410   5.158   0.840  0.0268  0.5851  0.9482
  161TP3     H212303   3.332   5.029   0.851 -0.5239  0.6658 -1.8536
  162TP3      O12304   0.967   1.157   0.794  0.1396 -0.2780 -0.7567
  162TP3     H112305   0.922   1.189   0.872  0.1891 -1.5339 -0.1986
  162TP3     H212306   1.007   1.074   0.822  0.8440 -0.3277 -1.8883
  163TP3      O12307   1.625   3.725   9.953 -0.1363 -0.1778 -0.7597
  163TP3     H112308   1.592   3.646   9.994  0.5099 -0.7494 -1.3320
  163TP3     H212309   1.574   3.796   9.993 -1.2119 -0.9350 -0.7690
  164TP3      O12310   5.005   0.044   8.841 -0.4157 -0.3396  0.7627
  164TP3     H112311   5.007   0.091   8.758 -0.2325  0.1068  1.0165
  164TP3     H212312   4.977  -0.045   8.818 -0.9373 -0.0591  0.2979
  165TP3      O12313   4.867   1.744   8.394 -0.6946  0.2040  0.2559
  165TP3     H112314   4.850   1.762   8.302 -1.6053  0.0755  0.3895
  165TP3     H212315   4.855   1.649   8.403 -0.7367  0.2328  0.5263
  166TP3      O12316   4.612   1.989   9.249 -0.3078  0.2859  0.3133
  166TP3     H112317   4.524   2.021   9.228 -0.5416  0.7223  1.8904
  166TP3     H212318   4.644   2.049   9.317  0.5557 -0.8583  0.9375
  167TP3      O12319   0.560   4.176   7.613  0.0587 -0.2266  0.6506
  167TP3     H112320   0.616   4.217   7.547 -0.2160 -0.9094 -0.0215
  167TP3     H212321   0.523   4.249   7.662  1.0636  0.2528  0.7146
  168TP3      O12322   3.292   5.172   8.217  0.3052  0.2181 -0.0148
  168TP3     H112323   3.213   5.121   8.204 -0.1073  1.3301 -2.0437
  168TP3     H212324   3.309   5.166   8.311 -1.9694 -0.3351  0.3902
  169TP3      O12325   3.825   0.297   8.738 -0.4373  0.6704  0.0810
  169TP3     H112326   3.916   0.267   8.732 -0.8119 -0.6596  0.8098
  169TP3     H212327   3.773   0.220   8.715 -1.4274  0.5585  2.5068
  170TP3      O12328   1.143   2.368   1.033  0.1076  0.4156 -0.0811
  170TP3     H112329   1.119   2.383   0.941  0.1136 -0.7489 -0.2804
  170TP3     H212330   1.084   2.299   1.062 -0.8018  1.7067  1.1969
  171TP3      O12331   1.648   2.452   0.144 -0.1130 -0.0324  0.2206
  171TP3     H112332   1.726   2.494   0.182 -0.4555  1.1866 -0.3757
  171TP3     H212333   1.583   2.456   0.214  0.3089 -0.9143  0.6695
  172TP3      O12334   1.473   2.077   9.203  0.3519 -0.0176 -0.1391
  172TP3     H112335   1.541   2.045   9.262  0.4296  3.0736  1.5471
  172TP3     H212336   1.393   2.033   9.232  0.9359 -0.8266  0.2628
  173TP3      O12337   1.011   4.361   7.493  0.2875 -0.3591  0.3947
  173TP3     H112338   1.030   4.436   7.550  1.4009 -0.8074  0.6265
  173TP3     H212339   1.037   4.390   7.406 -0.3474 -0.0768  0.2982
  174TP3      O12340   0.857   5.092   7.094 -0.3053 -0.1619 -0.8430
  174TP3     H112341   0.799   5.032   7.046 -1.1172 -0.7829  0.8902
  174TP3     H212342   0.943   5.052   7.088 -0.5562 -0.6784 -1.0389
  175TP3      O12343   1.384   3.194   9.585  0.1930  0.3153  0.8054
  175TP3     H112344   1.469   3.237   9.578  0.0570  0.3561 -0.6412
  175TP3     H212345   1.400   3.120   9.644  1.4973 -0.3191 -0.3171
  176TP3      O12346   5.284   3.336   7.428  0.2005  0.5409  0.1009
  176TP3     H112347   5.303   3.249   7.462  1.8356 -0.2563 -2.6938
  176TP3     H212348   5.356   3.391   7.460  0.8621  0.1564 -0.7180
  177TP3      O12349   2.615   1.159   9.029 -0.4967  0.2594  0.0504
  177TP3     H112350   2.558   1.140   9.103  1.0104 -2.6080  0.5722
  177TP3     H212351   2.572   1.118   8.954  0.3574 -1.0879  0.2738
  178TP3      O12352   3.956   0.953   0.064 -0.4505 -0.1592 -0.6150
  178TP3     H112353   3.945   0.858   0.057 -0.3740 -0.5494  3.4174
  178TP3     H212354   3.945   0.972   0.157  1.0838  3.6072 -1.1003
  179TP3      O12355   2.333   3.338   7.798 -0.2364 -0.2935  0.1071
  179TP3     H112356   2.414   3.363   7.842 -0.0011 -1.4250  0.3214
  179TP3     H212357   2.344   3.370   7.708 -0.2589  1.0292  0.5581
  180TP3      O12358   1.838   3.061   0.607 -0.4687 -0.0065 -0.3045
  180TP3     H112359   1.749   3.096   0.611  0.3096  2.1591 -1.5740
  180TP3     H212360   1.830   2.983   0.552 -1.6438 -0.1052 -0.0150
  181TP3      O12361   2.587   4.386   0.659 -0.0934  0.4743  0.9579
  181TP3     H112362   2.569   4.382   0.753  1.3022 -2.2878  1.1532
  181TP3     H212363   2.683   4.394   0.653 -0.2144  1.1718 -0.2164
  182TP3      O12364   1.466   1.049   0.695 -0.4122 -0.3810 -0.8251
  182TP3     H112365   1.531   1.046   0.766 -0.2460 -0.2913 -0.9737
  182TP3     H212366   1.384   1.022   0.737 -0.3909  0.0344 -0.5164
  183TP3      O12367   1.019   2.200  10.121 -0.1795  0.5204  0.3715
  183TP3     H112368   1.092   2.262  10.114 -0.0189  0.1931 -0.9219
  183TP3     H212369   0.977   2.222  10.204 -0.6534  2.9367 -0.4731
  184TP3      O12370   0.988   4.170   7.881  0.2867  0.1592 -0.7977
  184TP3     H112371   1.046   4.125   7.819  1.9756  1.1510  0.0372
  184TP3     H212372   1.023   4.259   7.886  0.4117 -0.0182  1.8953
  185TP3      O12373   0.455   2.412   6.470 -0.6149 -0.2021 -0.1951
  185TP3     H112374   0.434   2.469   6.544 -0.5810  0.4494 -0.6839
  185TP3     H212375   0.376   2.359   6.457 -0.3947 -0.7654  0.7051
  186TP3      O12376   0.534   4.546   8.131 -0.3297  0.1968  0.6221
  186TP3     H112377   0.477   4.470   8.119  0.0037 -0.0257  0.4436
  186TP3     H212378   0.508   4.582   8.216  0.0137 -0.5480  1.0499
  187TP3      O12379   1.709   1.332   9.320 -0.5852  0.1406  0.1424
  187TP3     H112380   1.671   1.375   9.243 -1.3538  1.0044  0.9934
  187TP3     H212381   1.688   1.391   9.393  0.2486 -0.6072  0.9915
  188TP3      O12382   2.814   1.872   9.952 -0.1785 -0.5456  0.2014
  188TP3     H112383   2.814   1.953  10.003 -1.2521 -1.1590  1.2131
  188TP3     H212384   2.887   1.821   9.988  0.3324 -0.1353 -0.2545
  189TP3      O12385   4.428   0.093   9.540  0.2090  0.2730 -1.0528
  189TP3     H112386   4.359   0.074   9.476 -0.2013 -1.8075 -0.0255
  189TP3     H212387   4.380   0.117   9.619  0.7034  1.1569 -1.0172
  190TP3      O12388   3.927   1.635   7.338  0.0294 -0.8777 -0.0387
  190TP3     H112389   3.850   1.582   7.318 -0.6099 -0.0582  0.2704
  190TP3     H212390   3.967   1.653   7.253  0.3882 -2.0435 -0.1382
  191TP3      O12391   5.274   0.601   1.313  0.1948 -0.5271 -0.3770
  191TP3     H112392   5.224   0.589   1.394  1.5971  1.9837  0.9093
  191TP3     H212393   5.208   0.623   1.248 -1.1299 -4.0379 -0.3402
  192TP3      O12394   4.957   2.617   9.326 -0.2597 -0.3136  0.1329
  192TP3     H112395   4.942   2.580   9.239  1.5265 -0.3146 -0.1927
  192TP3     H212396   4.874   2.603   9.373 -0.8242 -1.4101 -1.1613
  193TP3      O12397   2.555   1.659   1.711  0.3104  0.6128  0.1513
  193TP3     H112398   2.546   1.638   1.804 -0.1499 -1.1149 -0.2531
  193TP3     H212399   2.487   1.606   1.669  0.9766  0.8507 -1.2380
  194TP3      O12400   1.081   1.421   9.513 -0.4628  0.3584 -0.4948
  194TP3     H112401   1.027   1.478   9.458 -2.1922 -1.2603 -0.5200
  194TP3     H212402   1.088   1.340   9.464 -0.2555 -0.3749  0.7158
  195TP3      O12403   0.318   4.519   7.571  0.0352  0.3507  0.2999
  195TP3     H112404   0.296   4.605   7.607  2.2881  1.3204 -0.5846
  195TP3     H212405   0.315   4.532   7.476 -0.4515 -0.7781  0.1523
  196TP3      O12406   1.884   3.749   8.477 -0.1947  0.4774  0.2278
  196TP3     H112407   1.809   3.739   8.419 -0.0959  0.2131  0.1469
  196TP3     H212408   1.863   3.826   8.530 -0.6773  0.2046  0.4362
  197TP3      O12409   1.755   0.713   1.714 -0.4547  0.0460 -0.0458
  197TP3     H112410   1.722   0.664   1.639  0.6546 -2.1918  0.8793
  197TP3     H212411   1.844   0.680   1.726 -0.0985  1.4719  1.3379
  198TP3      O12412   2.707   2.030   8.269  0.1043 -0.1228  0.6235
  198TP3     H112413   2.783   1.982   8.236  0.0148 -1.0241  1.6969
  198TP3     H212414   2.659   1.965   8.321 -0.3846  0.9486  1.5191
  199TP3      O12415   0.116   4.255   7.140 -0.1985 -0.0455 -0.8070
  199TP3     H112416   0.185   4.321   7.148  0.5733 -1.0201  0.9257
  199TP3     H212417   0.160   4.178   7.106 -0.7148 -0.2620 -0.9972
  200TP3      O12418   4.124   5.132   8.673  0.2610  0.9668 -0.1488
  200TP3     H112419   4.132   5.155   8.766  1.2586  1.7701 -0.4240
  200TP3     H212420   4.032   5.146   8.653  0.0035  0.6139  0.7670
  201TP3      O12421   0.944   0.589   8.530  0.1030  0.2818  0.0489
  201TP3     H112422   0.852   0.608   8.546  0.4687  1.6620  0.5672
  201TP3     H212423   0.987   0.675   8.528  1.3349 -0.3263 -0.4477
  202TP3      O12424   3.648   4.102   9.220  1.0243  0.0116  0.3698
  202TP3     H112425   3.637   4.050   9.140  2.0174  0.2950  0.0408
  202TP3     H212426   3.738   4.084   9.247 -0.4999 -3.1961  3.6622
  203TP3      O12427   0.708   3.363   0.391  0.2421  0.2219 -0.0056
  203TP3     H112428   0.660   3.298   0.443 -0.7982 -0.9737 -2.3578
  203TP3     H212429   0.646   3.435   0.381  0.6472  0.6968  0.8657
  204TP3      O12430   3.801   3.953   8.406 -0.3899  0.1196  0.0191
  204TP3     H112431   3.782   3.954   8.312 -2.1812  0.3683  0.3542
  204TP3     H212432   3.885   3.998   8.414 -1.2005  1.9618 -1.2992
  205TP3      O12433   4.096   4.004   1.020 -0.3937  0.1280 -0.1141
  205TP3     H112434   4.156   3.930   1.009  1.1124  1.1764  0.8521
  205TP3     H212435   4.101   4.051   0.937 -0.3375 -0.1099 -0.2475
  206TP3      O12436   2.157   4.426   8.805  0.0763  0.7603  0.2872
  206TP3     H112437   2.093   4.494   8.820  0.3256  0.7018  1.7009
  206TP3     H212438   2.185   4.399   8.893 -0.7142 -1.8126 -0.2108
  207TP3      O12439   5.058   3.198   9.486  0.3211 -0.3933  0.0537
  207TP3     H112440   5.087   3.147   9.561  0.1135  0.0401  0.4248
  207TP3     H212441   5.078   3.289   9.508 -2.2951  0.0458  0.7936
  208TP3      O12442   2.711   1.276   8.797 -0.6577 -0.1459  0.7921
  208TP3     H112443   2.781   1.220   8.764 -1.6331 -0.9597  0.0748
  208TP3     H212444   2.699   1.248   8.888 -0.0611  0.0007  0.9211
  209TP3      O12445   2.394   0.176   0.134  0.0254  0.0944 -0.0119
  209TP3     H112446   2.304   0.150   0.111 -0.2797  0.3268  0.9131
  209TP3     H212447   2.446   0.097   0.117 -0.4207 -0.1721 -0.1587
  210TP3      O12448   1.030   4.458   7.965  0.0038  0.2448 -0.3320
  210TP3     H112449   0.962   4.490   8.024 -0.1303 -0.2763 -0.1994
  210TP3     H212450   1.038   4.526   7.898 -1.3578 -0.1684 -0.9208
  211TP3      O12451   3.625   0.443   8.489  0.2059 -0.1064  0.3240
  211TP3     H112452   3.601   0.354   8.516  0.5619 -0.1179  0.6132
  211TP3     H212453   3.553   0.498   8.519  1.0522  0.0175  2.1928
  212TP3      O12454   0.886   2.238   0.836  0.0517 -0.0180 -0.3147
  212TP3     H112455   0.816   2.268   0.894  0.4998 -0.2227  0.3501
  212TP3     H212456   0.843   2.222   0.752 -0.3941  1.3912 -0.3653
  213TP3      O12457   3.703   4.175   8.875 -0.4673  0.5064  0.0708
  213TP3     H112458   3.651   4.255   8.879 -1.7849 -0.2717 -0.9300
  213TP3     H212459   3.741   4.176   8.787  0.4263  0.5917  0.4553
  214TP3      O12460   1.369   4.251   9.508  0.1609  0.0408 -0.7400
  214TP3     H112461   1.430   4.207   9.448 -1.0061 -1.4686 -0.8578
  214TP3     H212462   1.345   4.331   9.462  1.0810  0.0417 -1.2456
  215TP3      O12463   1.519   1.473   7.577  0.2151  0.1934  0.3043
  215TP3     H112464   1.587   1.465   7.644  0.6066 -1.6388 -0.2908
  215TP3     H212465   1.450   1.524   7.619  0.6966 -0.4478  1.9029
  216TP3      O12466   0.741   5.132   8.309  0.0463 -0.4207 -0.3928
  216TP3     H112467   0.677   5.194   8.346  1.0230  1.0893 -1.1465
  216TP3     H212468   0.752   5.065   8.376 -1.2382  0.0928  0.3527
  217TP3      O12469   2.179   5.164   9.580  0.0351 -0.2222  0.8619
  217TP3     H112470   2.177   5.205   9.666 -3.0301  2.5177 -0.3932
  217TP3     H212471   2.115   5.092   9.586  0.0638 -0.2391  0.9637
  218TP3      O12472   0.033   3.643   9.272 -0.1583 -0.3116  0.5661
  218TP3     H112473   0.006   3.728   9.236 -0.5882 -1.0638 -0.9571
  218TP3     H212474   0.111   3.619   9.222  1.0521  0.0442  2.2784
  219TP3      O12475   2.461   3.701   1.350 -0.1876  0.3059 -0.5496
  219TP3     H112476   2.422   3.686   1.263 -0.6492  0.5435 -0.3875
  219TP3     H212477   2.526   3.632   1.359 -1.2163 -0.6702 -0.4390
  220TP3      O12478   0.933   2.262   7.980  0.6481  0.1267  0.0237
  220TP3     H112479   0.960   2.244   8.070 -0.5574  0.3581  0.4329
  220TP3     H212480   0.838   2.254   7.981  0.5802  0.7201 -1.1029
  221TP3      O12481   5.078   3.289   7.241 -0.1422 -0.5149  0.4108
  221TP3     H112482   5.148   3.268   7.302  0.7578  0.9934 -0.0444
  221TP3     H212483   5.117   3.274   7.154 -0.1522  0.9364  0.1416
  222TP3      O12484   2.077   4.394   8.458  0.5593 -0.4533 -0.3392
  222TP3     H112485   1.988   4.378   8.489  0.8552 -1.3916  0.0459
  222TP3     H212486   2.095   4.321   8.398  1.3351 -0.6752  0.1621
  223TP3      O12487   1.810   5.058   7.060  0.4798  0.1816  0.3263
  223TP3     H112488   1.731   5.018   7.097  0.1922  0.7116  0.3015
  223TP3     H212489   1.799   5.152   7.079  0.4803  0.4164 -0.8478
  224TP3      O12490   4.166   1.344   9.140  0.1509  0.0206 -0.1056
  224TP3     H112491   4.216   1.368   9.062 -1.4527  2.2384 -0.4961
  224TP3     H212492   4.097   1.410   9.145 -1.1209 -1.4240  1.9314
  225TP3      O12493   4.368   1.855   7.311 -0.4897  0.1617  0.2640
  225TP3     H112494   4.428   1.847   7.236  1.6313  1.8892  1.7062
  225TP3     H212495   4.382   1.775   7.362 -1.2494 -0.5850 -0.6875
  226TP3      O12496   1.309   0.333   6.998 -0.3920  0.1170 -0.0066
  226TP3     H112497   1.249   0.313   6.926 -0.4020 -2.5319  0.6678
  226TP3     H212498   1.391   0.290   6.973  0.1801  0.7951  0.6868
  227TP3      O12499   0.019   2.398   7.375 -0.2714  0.6357  0.1322
  227TP3     H112500   0.048   2.336   7.308  0.4040  1.0943 -0.0042
  227TP3     H212501  -0.067   2.428   7.345 -0.7468 -0.4778  0.3654
  228TP3      O12502   2.108   1.238   6.885 -0.2208 -0.0223 -0.0330
  228TP3     H112503   2.200   1.217   6.867 -0.4235  0.2920 -1.4765
  228TP3     H212504   2.086   1.183   6.960  1.4486  0.7083  1.0262
  229TP3      O12505   2.380   1.450   8.467  0.6514  0.0545  0.0690
  229TP3     H112506   2.429   1.430   8.387  1.3740 -1.1436  0.7968
  229TP3     H212507   2.446   1.455   8.536 -0.1037 -0.1970  0.8184
  230TP3      O12508   4.044   1.647   0.107  0.5712 -0.0491 -0.3933
  230TP3     H112509   4.035   1.585   0.034 -1.0801  0.5851 -0.7598
  230TP3     H212510   4.138   1.661   0.115  0.7390  0.4364 -2.8893
  231TP3      O12511   4.822   4.829   2.224 -0.0673  0.0589  0.0314
  231TP3     H112512   4.762   4.893   2.262 -1.7141 -0.7408 -1.1802
  231TP3     H212513   4.890   4.882   2.182 -0.1359  0.9748  1.0436
  232TP3      O12514   2.757   4.467   7.114  0.9024 -0.9137  1.0528
  232TP3     H112515   2.782   4.559   7.121  2.0948 -1.2023  0.7153
  232TP3     H212516   2.826   4.428   7.061 -0.8845 -1.5013 -0.9368
  233TP3      O12517   2.199   0.868   8.242 -0.3104  0.5422  0.7125
  233TP3     H112518   2.241   0.932   8.185 -2.2699  0.4272 -0.8757
  233TP3     H212519   2.158   0.805   8.183 -0.5415 -0.7961  2.2464
  234TP3      O12520   0.490   1.951   8.029 -0.2353  0.3817 -0.3387
  234TP3     H112521   0.453   2.033   7.996 -0.0439  0.3698 -0.5805
  234TP3     H212522   0.438   1.883   7.987 -1.6087  0.3959  1.2636
  235TP3      O12523   0.152   3.298   9.207  0.2241 -0.2485  0.3918
  235TP3     H112524   0.172   3.385   9.172 -3.5933  0.0316 -1.3453
  235TP3     H212525   0.139   3.312   9.301  1.0416  0.7778  0.3576
  236TP3      O12526   3.606   0.720   7.718  0.4400  0.3937  0.3207
  236TP3     H112527   3.596   0.739   7.812  1.6254  1.3597  0.2710
  236TP3     H212528   3.524   0.751   7.679  0.0216  0.1760  1.0049
  237TP3      O12529   3.254   5.053   7.827 -0.5154 -0.4996 -0.1183
  237TP3     H112530   3.172   5.007   7.810 -0.7716 -0.6101  1.3481
  237TP3     H212531   3.288   5.074   7.740 -1.0456 -2.2856 -0.7799
  238TP3      O12532   5.014   2.858  10.060 -0.1264 -0.4918 -0.8481
  238TP3     H112533   5.029   2.766  10.036 -0.3751 -0.5457 -0.7974
  238TP3     H212534   5.024   2.906   9.978  0.1554 -0.5474 -0.8460
  239TP3      O12535   0.295   3.695   9.943  0.4944 -0.5230  0.0230
  239TP3     H112536   0.374   3.691   9.888  0.8052 -1.2726  0.5223
  239TP3     H212537   0.328   3.694  10.033  0.0167  1.5201  0.2265
  240TP3      O12538   1.167   2.168   7.414  0.0415  0.2314  0.5409
  240TP3     H112539   1.083   2.122   7.418  0.0439  0.1997  0.2631
  240TP3     H212540   1.180   2.185   7.321  0.0612  0.7619  0.6422
  241TP3      O12541   4.626   0.980   1.712 -0.4505  0.4925  0.1712
  241TP3     H112542   4.682   1.002   1.787 -2.2335 -0.4871  1.8030
  241TP3     H212543   4.637   0.886   1.700  0.7263  0.8116 -1.5906
  242TP3      O12544   4.783   3.060   2.139 -0.2223  0.6344  0.8503
  242TP3     H112545   4.842   3.120   2.093 -0.9351 -0.5086 -1.6917
  242TP3     H212546   4.698   3.076   2.097 -0.9788 -0.1896  2.0775
  243TP3      O12547   1.575   4.886   7.154 -0.3608  0.1435  0.1946
  243TP3     H112548   1.490   4.928   7.167 -0.5307 -0.7190  2.0759
  243TP3     H212549   1.555   4.792   7.151  0.5267 -0.0671  0.7165
  244TP3      O12550   3.668   1.884   9.081 -0.2862 -0.0381 -0.1682
  244TP3     H112551   3.622   1.850   9.005 -1.6354  0.0220  0.6066
  244TP3     H212552   3.712   1.963   9.050 -3.1589  1.6063 -0.2308
  245TP3      O12553   2.354   2.054   7.587 -0.2303  1.0947 -0.5378
  245TP3     H112554   2.332   1.970   7.627 -0.5556  1.3086 -0.2627
  245TP3     H212555   2.423   2.033   7.524  1.1724  0.9434  1.0146
  246TP3      O12556   1.729   3.429   8.171 -0.0574  0.6470  0.4648
  246TP3     H112557   1.690   3.447   8.085 -1.5535 -0.2716  0.9300
  246TP3     H212558   1.784   3.352   8.156  0.1584  0.8480  0.2047
  247TP3      O12559   2.941   1.055   7.361  1.0188  0.3327 -0.0485
  247TP3     H112560   2.919   1.091   7.275  0.6562 -1.2814 -0.6456
  247TP3     H212561   2.979   1.129   7.408 -0.2613  1.6630 -1.0305
  248TP3      O12562   2.397   1.128   1.619  0.6659  0.3206  0.0213
  248TP3     H112563   2.474   1.080   1.650  0.5852 -0.0533 -0.3493
  248TP3     H212564   2.400   1.118   1.523  0.1456  0.2817  0.0080
  249TP3      O12565   0.299   2.297   8.347 -0.2262 -0.4678  0.6531
  249TP3     H112566   0.314   2.257   8.433  3.3016  0.5782  0.6189
  249TP3     H212567   0.324   2.230   8.284 -1.7790 -0.8633  0.4478
  250TP3      O12568   1.499   4.468   1.561  0.1011  0.1650  0.4400
  250TP3     H112569   1.592   4.479   1.537  0.3014  0.7045  1.4358
  250TP3     H212570   1.471   4.392   1.510  0.8447  0.5307 -0.5609
  251TP3      O12571   0.202   5.018   8.636 -0.2354 -0.0077 -0.3009
  251TP3     H112572   0.288   5.003   8.678 -0.4617 -1.1011 -0.2112
  251TP3     H212573   0.220   5.014   8.543 -0.1330  0.1075 -0.2871
  252TP3      O12574   2.577   0.001   8.473 -0.1812 -0.6128 -0.0109
  252TP3     H112575   2.575  -0.031   8.563 -1.9048  0.1912  0.2599
  252TP3     H212576   2.521  -0.059   8.424 -0.6658 -0.0427 -0.1773
  253TP3      O12577   1.951   1.318   9.492  0.2229 -0.6455 -0.2528
  253TP3     H112578   1.915   1.402   9.464 -1.2276 -1.0813  0.2431
  253TP3     H212579   1.928   1.258   9.421 -2.3840 -1.4881  1.2179
  254TP3      O12580   0.913   2.402   0.562  0.2879 -0.5196  0.3521
  254TP3     H112581   0.919   2.435   0.652  1.7600  1.2157 -0.3415
  254TP3     H212582   0.949   2.473   0.508  0.1266 -1.8316 -1.5449
  255TP3      O12583   0.983   3.600   9.678  0.3308 -0.6697 -0.2851
  255TP3     H112584   0.963   3.586   9.770 -1.8816 -0.7323 -0.7675
  255TP3     H212585   1.031   3.683   9.676 -1.3871  0.3696  0.7136
  256TP3      O12586   0.038   4.086   0.632  0.1314 -0.1657 -0.2734
  256TP3     H112587   0.065   4.043   0.714  0.2559  0.4206 -0.0061
  256TP3     H212588  -0.001   4.169   0.661 -0.1650 -0.1288 -0.7864
  257TP3      O12589   3.778   4.474   1.375 -0.0423  0.0961 -0.1801
  257TP3     H112590   3.713   4.410   1.403  0.0981  0.4127  0.8604
  257TP3     H212591   3.734   4.524   1.306 -0.2145 -0.9896 -0.8587
  258TP3      O12592   1.107   2.477   7.525  0.3837  0.3951  0.3728
  258TP3     H112593   1.110   2.445   7.615 -0.2421  1.8607  0.9358
  258TP3     H212594   1.164   2.418   7.477  2.0383  0.5735  2.0359
  259TP3      O12595   0.950   3.335   7.963 -0.2871 -0.0558 -0.4891
  259TP3     H112596   1.026   3.283   7.936 -1.0100 -0.3563 -1.9943
  259TP3     H212597   0.963   3.349   8.057  0.4630 -2.0521 -0.2642
  260TP3      O12598   4.189   1.003   9.883  0.0981  0.2590  0.0234
  260TP3     H112599   4.229   1.045   9.959  0.1753 -2.8040  1.7421
  260TP3     H212600   4.263   0.966   9.834 -0.2158 -0.8111  0.3521
  261TP3      O12601   1.950   3.898   8.243  0.5906 -0.1461  0.1812
  261TP3     H112602   1.996   3.825   8.285  0.8633  1.2992  2.4936
  261TP3     H212603   2.020   3.947   8.199  0.8802  0.3860  1.1972
  262TP3      O12604   3.017   1.858   6.979 -0.3111 -0.3128 -0.1667
  262TP3     H112605   2.937   1.864   7.031 -0.0916 -0.0944  0.1448
  262TP3     H212606   2.988   1.820   6.896 -0.4105 -2.2021  0.6942
  263TP3      O12607   5.054   2.278   0.008  0.3743  0.2202  0.1388
  263TP3     H112608   5.012   2.306   0.089 -0.1286 -1.4540  0.4643
  263TP3     H212609   5.125   2.342  -0.005 -1.0429  1.9144  0.6012
  264TP3      O12610   2.248   0.237   7.442 -0.1016 -0.1655 -0.2529
  264TP3     H112611   2.312   0.289   7.393 -0.2885 -1.0782 -1.4755
  264TP3     H212612   2.208   0.180   7.377 -1.9015  0.1231  0.5751
  265TP3      O12613   3.078   2.939   7.386  0.5366 -0.0261  0.4994
  265TP3     H112614   3.023   2.907   7.314  0.3444  0.6518  0.3363
  265TP3     H212615   3.027   2.920   7.465  0.2030  0.3261  0.3706
  266TP3      O12616   1.866   5.046  10.047  0.1668  0.8313 -0.6652
  266TP3     H112617   1.887   4.975  10.108 -0.1219  0.6574 -0.7643
  266TP3     H212618   1.806   5.103  10.096  0.1760  0.8552 -0.6808
  267TP3      O12619   2.603   2.513   7.147  0.1065 -0.4057  0.2207
  267TP3     H112620   2.515   2.478   7.135 -0.3434  1.1759 -1.3585
  267TP3     H212621   2.654   2.475   7.075  0.3784 -0.2939  0.3567
  268TP3      O12622   2.464   1.444   9.101 -0.4944  0.5509  0.0376
  268TP3     H112623   2.507   1.358   9.104 -2.9423 -0.7151  0.4422
  268TP3     H212624   2.408   1.440   9.023 -0.6918  1.7614  0.1047
  269TP3      O12625   2.216   3.681   7.568  0.6497  0.1946 -0.7063
  269TP3     H112626   2.233   3.650   7.479  1.1573  0.8335 -0.8361
  269TP3     H212627   2.236   3.774   7.565 -0.1589  0.3869 -0.1293
  270TP3      O12628   3.666   2.406   9.417  0.2176  0.3820 -0.2923
  270TP3     H112629   3.751   2.444   9.396  2.0414 -3.6542 -0.7491
  270TP3     H212630   3.658   2.417   9.512  1.4651  0.4357 -0.1839
  271TP3      O12631   5.222   1.096   7.605 -0.0720 -0.0170 -0.1970
  271TP3     H112632   5.264   1.154   7.668  0.7657 -0.1367 -0.6430
  271TP3     H212633   5.287   1.028   7.588 -0.8312 -0.7795 -0.1090
  272TP3      O12634   1.130   2.064   0.846  0.2823  0.1825 -0.3612
  272TP3     H112635   1.138   2.055   0.941  1.3254  1.8203 -0.2716
  272TP3     H212636   1.076   2.142   0.834  0.4547  0.1922 -1.1043
  273TP3      O12637   4.164   2.831   8.453 -0.0130 -0.0870  0.1672
  273TP3     H112638   4.249   2.789   8.465  1.0125  1.8530 -0.1026
  273TP3     H212639   4.143   2.868   8.539  1.3234  2.8204 -0.6815
  274TP3      O12640   0.411   1.638   6.933  0.2717  0.0889  0.0855
  274TP3     H112641   0.449   1.721   6.904  0.5507 -0.3094 -0.7017
  274TP3     H212642   0.486   1.586   6.964  0.1453 -0.0123  0.2236
  275TP3      O12643   5.119   4.918   7.346  0.3134  0.2664  0.4822
  275TP3     H112644   5.072   4.994   7.381 -0.9645  0.6035 -1.9266
  275TP3     H212645   5.204   4.953   7.319  0.0940  0.6420  0.2770
  276TP3      O12646   1.358   4.692   7.314 -0.3358 -0.5570 -0.4771
  276TP3     H112647   1.369   4.605   7.276  0.9022 -0.2376 -0.8679
  276TP3     H212648   1.327   4.746   7.242 -0.8370 -0.5985 -0.2997
  277TP3      O12649   4.835   3.746   0.375 -0.2470 -0.2055 -0.2971
  277TP3     H112650   4.747   3.717   0.351  0.7152 -2.9838 -0.6920
  277TP3     H212651   4.872   3.779   0.293 -0.8958  0.9554 -0.1334
  278TP3      O12652   0.269   1.338   7.530 -0.3553  0.5173 -0.5905
  278TP3     H112653   0.263   1.245   7.506  0.6332  0.4359 -0.5409
  278TP3     H212654   0.233   1.384   7.454 -1.1369  0.0796 -0.4875
  279TP3      O12655   3.768   1.177   9.834 -0.3030  0.1974 -0.4040
  279TP3     H112656   3.839   1.115   9.850 -0.3264  0.3093  0.1329
  279TP3     H212657   3.729   1.192   9.920 -0.4810  0.7384 -0.5779
  280TP3      O12658   4.778   0.096   1.899  0.3934 -0.2284  0.0147
  280TP3     H112659   4.734   0.181   1.889  1.5409  0.5345  1.2712
  280TP3     H212660   4.794   0.089   1.993  3.5067 -0.1912 -0.4828
  281TP3      O12661   1.959   5.023   9.376 -0.2435  0.0188 -0.7093
  281TP3     H112662   1.974   4.995   9.466 -0.0893  0.7118 -0.5135
  281TP3     H212663   1.916   4.948   9.334  0.0787 -0.4620 -0.1782
  282TP3      O12664   0.077   3.324   7.109  0.5480 -0.5831  0.1705
  282TP3     H112665   0.074   3.306   7.015  1.7953 -0.7388  0.1490
  282TP3     H212666   0.109   3.414   7.116  0.7258 -0.6631  0.4427
  283TP3      O12667   1.226   2.158   7.722 -0.0038 -0.4242  0.1001
  283TP3     H112668   1.204   2.222   7.790  1.5724  0.1158  0.1120
  283TP3     H212669   1.240   2.210   7.643 -1.8670 -1.0531 -0.6844
  284TP3      O12670   2.362   0.032   7.879  0.0953 -0.2603  0.0595
  284TP3     H112671   2.447   0.053   7.841  0.3470 -0.7060  0.3821
  284TP3     H212672   2.300   0.086   7.829  0.6068  0.3862  0.1108
  285TP3      O12673   3.460   0.891  10.009 -0.0813  0.2221 -0.0702
  285TP3     H112674   3.429   0.942   9.933  2.0020  2.1221  0.3193
  285TP3     H212675   3.547   0.862   9.984 -0.6386 -1.8605  0.3658
  286TP3      O12676   3.557   1.276   6.421  0.3223 -0.3256 -0.8398
  286TP3     H112677   3.618   1.315   6.359  0.8355 -0.3068 -0.3360
  286TP3     H212678   3.608   1.206   6.463  0.3670  0.4515  0.4162
  287TP3      O12679   3.146   5.156   2.348  0.6094 -0.3055  0.1012
  287TP3     H112680   3.098   5.218   2.403 -0.0673 -0.4080 -0.3628
  287TP3     H212681   3.235   5.156   2.384  0.1607 -0.4263  1.2372
  288TP3      O12682   2.013   0.499   9.810 -0.0964 -0.6224 -0.6621
  288TP3     H112683   2.062   0.580   9.819  0.0774 -1.0377  2.8618
  288TP3     H212684   1.922   0.524   9.821 -0.0644 -0.8358  0.1501
  289TP3      O12685   1.253   4.155  10.125  0.1847  0.8537  0.0138
  289TP3     H112686   1.243   4.149  10.220 -0.2875 -0.3535 -0.1037
  289TP3     H212687   1.317   4.087  10.103  0.1298  0.9804 -0.5675
  290TP3      O12688   5.026   1.934   9.701  0.2739  0.0622 -0.0272
  290TP3     H112689   4.995   1.984   9.777  2.3388  0.4628  0.5763
  290TP3     H212690   4.952   1.933   9.641 -1.2213  0.1963  1.7678
  291TP3      O12691   0.357   1.076   7.529 -0.1532 -0.2440  0.4637
  291TP3     H112692   0.336   0.984   7.513  0.9443 -0.7061  1.5892
  291TP3     H212693   0.451   1.077   7.545 -0.0502  1.1676 -0.1007
  292TP3      O12694   1.482   2.997   9.744  0.0441 -0.2872 -0.0780
  292TP3     H112695   1.500   2.936   9.672  1.3895  0.8435 -0.7364
  292TP3     H212696   1.441   2.944   9.811 -2.5613 -1.1046 -2.2233
  293TP3      O12697   1.209   1.751   0.839 -0.4308  0.4258 -0.4497
  293TP3     H112698   1.304   1.762   0.843 -0.3712  0.8044 -2.5678
  293TP3     H212699   1.174   1.840   0.841 -0.6576  0.3633 -1.5894
  294TP3      O12700   5.126   4.384   8.950 -0.2497 -0.0364 -0.2393
  294TP3     H112701   5.068   4.366   8.876  2.0891  0.0205 -2.1451
  294TP3     H212702   5.164   4.299   8.972  0.0825  0.1816  0.0268
  295TP3      O12703   2.915   4.223   9.321  0.5590  0.1373  0.2063
  295TP3     H112704   2.822   4.200   9.309  0.4152  0.4492  0.6919
  295TP3     H212705   2.960   4.179   9.249  0.1381 -0.7311  0.4576
  296TP3      O12706   1.595   0.235   1.640  0.1220 -0.3666 -0.6744
  296TP3     H112707   1.536   0.159   1.643 -1.5070  0.8882  0.2764
  296TP3     H212708   1.662   0.217   1.706 -1.4581 -0.0610  1.0496
  297TP3      O12709   2.121   5.223   8.043  0.2791 -0.5412 -0.0600
  297TP3     H112710   2.087   5.311   8.061 -0.1026 -0.7587  0.2806
  297TP3     H212711   2.200   5.238   7.991  0.7117  0.0322  0.7569
  298TP3      O12712   1.704   4.967   8.023  0.6482  0.0218 -0.3527
  298TP3     H112713   1.635   4.922   8.071 -0.7134  1.6094 -0.7666
  298TP3     H212714   1.673   4.968   7.932  1.7967 -0.3286 -0.7518
  299TP3      O12715   3.063   0.815   7.395  0.7191  0.0049  0.5709
  299TP3     H112716   3.012   0.896   7.392  2.0545  0.8321 -0.4398
  299TP3     H212717   3.152   0.842   7.374  1.1122 -1.7760 -0.1698
  300TP3      O12718   4.830   5.029   0.384 -0.2346 -0.1483  0.2973
  300TP3     H112719   4.826   4.956   0.322 -1.6659  0.7961 -0.7559
  300TP3     H212720   4.866   5.102   0.334 -0.1582  0.2554  0.9317
  301TP3      O12721   3.764   3.431   8.385  0.2252  0.1212  0.1699
  301TP3     H112722   3.677   3.401   8.359 -0.1172 -0.7141  2.1696
  301TP3     H212723   3.825   3.376   8.336 -0.3469  0.7249 -1.2605
  302TP3      O12724   3.246   1.840   7.384 -0.1717  0.0614  0.3774
  302TP3     H112725   3.292   1.905   7.436 -1.0105  1.8929 -1.1067
  302TP3     H212726   3.243   1.878   7.296 -0.3345 -2.1659 -0.6081
  303TP3      O12727   4.875   3.597   9.136 -0.1903 -0.2654 -0.1610
  303TP3     H112728   4.885   3.692   9.140  2.0746 -0.3344 -2.7827
  303TP3     H212729   4.960   3.563   9.165 -0.4780 -1.4498 -0.6984
  304TP3      O12730   1.676   3.140   1.012  0.0244 -0.0345  0.1480
  304TP3     H112731   1.764   3.174   0.996 -0.0585 -0.1069 -0.5109
  304TP3     H212732   1.680   3.049   0.980  0.1721 -0.5674  1.6411
  305TP3      O12733   4.300   2.846   8.862 -0.2790 -0.1139 -0.2309
  305TP3     H112734   4.240   2.825   8.933  1.9218  2.6065  2.5866
  305TP3     H212735   4.244   2.882   8.793 -2.2380 -0.7572  0.9854
  306TP3      O12736   1.222   1.054   0.175  0.2318  0.1516 -0.5380
  306TP3     H112737   1.300   1.106   0.192 -0.3089  1.8647 -3.0693
  306TP3     H212738   1.243   1.005   0.095 -0.8277 -0.3456 -0.5222
  307TP3      O12739   3.816   1.141   8.422 -0.1773 -0.0892  0.0319
  307TP3     H112740   3.798   1.048   8.431 -0.3689  0.1072  1.7983
  307TP3     H212741   3.771   1.182   8.495  1.5635  1.1703  0.4322
  308TP3      O12742   1.622   2.568   1.361 -0.2946 -0.2690  0.2135
  308TP3     H112743   1.573   2.599   1.284  1.4938 -0.5242 -1.0649
  308TP3     H212744   1.559   2.516   1.410 -1.6994  0.5796 -0.6533
  309TP3      O12745   3.788   2.895   8.509  0.5481  0.1429  0.3875
  309TP3     H112746   3.805   2.988   8.526  0.8107 -0.1279  1.6708
  309TP3     H212747   3.864   2.850   8.546  1.5370 -0.4431 -2.2532
  310TP3      O12748   2.858   1.132   1.060 -0.1432 -0.1878 -0.2922
  310TP3     H112749   2.839   1.111   0.969 -1.2217  1.3491 -0.4362
  310TP3     H212750   2.909   1.212   1.057 -0.9266  0.3619  0.4784
  311TP3      O12751   2.744   0.843   0.276 -0.0591 -0.2990  0.5143
  311TP3     H112752   2.807   0.771   0.277  1.2747  0.8524 -0.4992
  311TP3     H212753   2.690   0.825   0.199 -0.7628 -1.0686  1.1644
  312TP3      O12754   3.442   1.442   7.318 -0.0816 -0.1263  0.4310
  312TP3     H112755   3.531   1.468   7.294 -0.1202 -0.1619  0.2465
  312TP3     H212756   3.439   1.451   7.413 -0.3444  1.3338  0.3019
  313TP3      O12757   1.804   2.078   8.738  0.1103  0.2226  0.3682
  313TP3     H112758   1.899   2.073   8.728  0.2648  1.4839  1.0822
  313TP3     H212759   1.770   2.035   8.660  1.2649 -1.0076  0.5248
  314TP3      O12760   2.373   1.340   6.852  0.2725 -0.3858 -0.3622
  314TP3     H112761   2.417   1.425   6.850 -0.3491  0.0089  1.3860
  314TP3     H212762   2.434   1.282   6.896 -0.7234  0.0705  1.7194
  315TP3      O12763   1.091   3.027   7.422  0.6305 -0.1081 -0.2577
  315TP3     H112764   1.122   2.937   7.431  0.9955  0.1860  1.7209
  315TP3     H212765   1.162   3.080   7.457 -0.7115  0.7739  1.1719
  316TP3      O12766   3.569   0.274  10.039 -0.0360  0.4708 -0.2406
  316TP3     H112767   3.600   0.322   9.963  0.6713 -1.0978 -0.9695
  316TP3     H212768   3.571   0.182  10.012  1.0601 -0.1889  1.9512
  317TP3      O12769   2.839   0.177   7.389  0.3241  0.3955 -0.3274
  317TP3     H112770   2.896   0.143   7.459 -1.8417 -1.2098  0.7005
  317TP3     H212771   2.864   0.269   7.382  0.8463  0.5181  2.3395
  318TP3      O12772   3.599   0.326   6.497  0.1598  0.1263 -0.1389
  318TP3     H112773   3.600   0.234   6.524 -1.0005  0.3654  0.7284
  318TP3     H212774   3.568   0.374   6.573  0.6103  1.2318 -0.6366
  319TP3      O12775   2.757   0.890   7.118  0.4885 -0.3613 -0.5587
  319TP3     H112776   2.750   0.938   7.036  1.8986 -1.3898 -1.3024
  319TP3     H212777   2.667   0.863   7.138  0.1196  0.0394 -1.6792
  320TP3      O12778   3.651   1.115   6.634  0.2254 -0.0579  0.3482
  320TP3     H112779   3.558   1.115   6.657 -0.3706  0.3191 -1.9164
  320TP3     H212780   3.686   1.038   6.678 -1.0323  0.1165  1.7083
  321TP3      O12781   2.968   5.184   8.647  0.2179 -0.6394  0.6001
  321TP3     H112782   3.050   5.234   8.647 -0.3718  0.3318  0.5059
  321TP3     H212783   2.930   5.199   8.733 -0.3061 -0.3698  0.3193
  322TP3      O12784   2.698   2.718   9.791 -0.8091  0.5076 -0.8785
  322TP3     H112785   2.662   2.729   9.703 -1.0509 -1.8500 -1.0957
  322TP3     H212786   2.623   2.691   9.844 -0.1453 -0.6644 -0.5240
  323TP3      O12787   3.281   0.008   8.464 -0.2822  0.3703  0.5185
  323TP3     H112788   3.279   0.044   8.553 -0.0933  2.0734 -0.1381
  323TP3     H212789   3.294   0.085   8.408  1.7420 -0.9238 -0.8296
  324TP3      O12790   2.044   3.600   7.812 -0.1176  0.5421 -0.5624
  324TP3     H112791   2.028   3.680   7.762  0.0941  0.3114 -1.0043
  324TP3     H212792   2.067   3.534   7.746  1.7449  0.6315 -0.0324
  325TP3      O12793   2.787   1.821   7.123  0.4641  0.0547  0.1682
  325TP3     H112794   2.746   1.896   7.166 -0.2249 -0.9727  1.3092
  325TP3     H212795   2.719   1.753   7.122  2.3336 -1.9385  2.7776
  326TP3      O12796   3.993   2.619   8.808 -0.0134  0.0837 -0.0057
  326TP3     H112797   4.018   2.584   8.723 -0.1680 -1.0457  0.4046
  326TP3     H212798   4.014   2.712   8.803  0.6085 -0.1067 -1.0340
  327TP3      O12799   3.008   2.125   1.115  0.0978 -0.4316  0.2090
  327TP3     H112800   2.969   2.046   1.153 -2.2099  0.9656  0.7664
  327TP3     H212801   3.055   2.166   1.187 -2.1734  0.8849  0.9552
  328TP3      O12802   0.223   3.883   9.397 -0.1051  0.0190 -0.0784
  328TP3     H112803   0.286   3.885   9.470 -1.0842 -0.2947  0.7918
  328TP3     H212804   0.276   3.857   9.321  0.5575 -1.6850  0.9205
  329TP3      O12805   2.346   1.075   8.104 -1.0936  0.0987  0.0494
  329TP3     H112806   2.305   1.091   8.019 -2.8952 -0.6910  0.7438
  329TP3     H212807   2.304   1.138   8.162 -0.2729  0.2510  0.4893
  330TP3      O12808   4.015   2.418   9.609  0.1706  0.1911 -0.0738
  330TP3     H112809   4.027   2.509   9.639 -0.9398  0.4501 -0.3881
  330TP3     H212810   3.988   2.427   9.518 -0.4249 -0.4364  0.0383
  331TP3      O12811   3.811   3.384   7.994  0.3956  0.0734  1.1516
  331TP3     H112812   3.854   3.331   8.060 -0.6274 -1.6025  0.5034
  331TP3     H212813   3.728   3.410   8.034  0.6075  0.6475  1.2244
  332TP3      O12814   2.725   4.751   9.010  0.8048 -0.1915  0.0865
  332TP3     H112815   2.798   4.723   9.065  0.4782 -0.8149  0.2146
  332TP3     H212816   2.654   4.769   9.072  0.7073 -0.0512 -0.0652
  333TP3      O12817   2.358   1.008   6.986 -0.5761 -0.5358 -1.2876
  333TP3     H112818   2.389   0.958   7.061  0.2099  1.6922 -0.0725
  333TP3     H212819   2.438   1.035   6.940 -0.7990  2.0472 -0.2521
  334TP3      O12820   1.749   0.012   7.199 -0.2022 -0.4577 -0.0644
  334TP3     H112821   1.830   0.049   7.164  0.5585 -1.0914  0.9683
  334TP3     H212822   1.687   0.085   7.200  0.6724  0.2885  0.0657
  335TP3      O12823   1.308   3.719   7.828  0.0237  0.0005  0.1673
  335TP3     H112824   1.395   3.693   7.798 -0.5990  0.2997 -2.0136
  335TP3     H212825   1.265   3.637   7.851  0.9301 -0.1338  1.3824
  336TP3      O12826   1.811   0.020   1.050  0.6025  0.0792 -0.1717
  336TP3     H112827   1.901  -0.012   1.047  0.0735 -1.3896 -0.8051
  336TP3     H212828   1.819   0.113   1.067  2.2130 -0.2607  1.0095
  337TP3      O12829   0.154   3.519   9.024 -0.5706 -0.2087 -0.5710
  337TP3     H112830   0.140   3.442   8.969  1.8086 -1.2797  0.2526
  337TP3     H212831   0.130   3.593   8.968 -2.4488 -1.5131 -1.5221
  338TP3      O12832   1.682   4.704   8.708 -0.4682 -0.0910  0.0006
  338TP3     H112833   1.711   4.616   8.732 -2.3924 -0.2030  2.0189
  338TP3     H212834   1.756   4.760   8.729  0.8035 -1.2076 -1.3672
  339TP3      O12835   2.129   3.992  10.109 -0.4233  0.1031  0.0639
  339TP3     H112836   2.097   3.966  10.195 -0.5118  1.3614  0.4194
  339TP3     H212837   2.224   3.994  10.119 -0.4663  0.9959  0.3606
  340TP3      O12838   2.166   4.038   8.064 -0.4621 -0.0162 -0.2438
  340TP3     H112839   2.249   4.031   8.109 -0.2547 -1.5311 -0.8525
  340TP3     H212840   2.188   4.078   7.980 -0.4301  0.0772 -0.1915
  341TP3      O12841   2.409   5.223   6.917 -0.3496 -0.0969 -0.5145
  341TP3     H112842   2.390   5.139   6.960  0.1546 -1.9419 -3.7120
  341TP3     H212843   2.339   5.281   6.945 -0.6110 -1.5097  1.9164
  342TP3      O12844   2.088   0.176   8.059 -0.2699  0.0818  0.6595
  342TP3     H112845   2.036   0.229   8.120  1.9287  1.2116  1.5890
  342TP3     H212846   2.079   0.220   7.975 -1.4041 -0.1525  0.6495
  343TP3      O12847   1.563   2.017   7.597 -0.1332  0.4932 -0.2388
  343TP3     H112848   1.499   1.991   7.663  0.3782  0.0912  0.1027
  343TP3     H212849   1.510   2.048   7.523 -0.7378 -0.8281 -0.3683
  344TP3      O12850   1.778   1.952   6.939  0.0284 -0.5533 -0.0851
  344TP3     H112851   1.842   1.881   6.934 -0.0963 -0.6747  0.0177
  344TP3     H212852   1.701   1.912   6.979  0.0046 -0.3265  0.1009
  345TP3      O12853   1.118   0.259   0.692  0.4683 -0.5719 -0.4639
  345TP3     H112854   1.213   0.253   0.696  0.4195 -1.1788  0.0008
  345TP3     H212855   1.100   0.328   0.629  1.2394  0.9146  0.9097
  346TP3      O12856   4.808   0.833   8.581 -0.2788  0.0389 -0.2923
  346TP3     H112857   4.751   0.836   8.658 -0.9304 -0.0990 -0.7688
  346TP3     H212858   4.831   0.924   8.564 -0.1660  0.0731  0.0375
  347TP3      O12859   1.370   0.641   7.818  0.2819 -0.1423 -0.6960
  347TP3     H112860   1.438   0.598   7.765  0.5492  0.9431 -1.2615
  347TP3     H212861   1.393   0.620   7.908  1.1301 -0.1370 -0.9034
  348TP3      O12862   4.166   1.834   0.700  0.1548 -0.2281  0.0460
  348TP3     H112863   4.119   1.811   0.620 -1.2782 -1.6070  1.2453
  348TP3     H212864   4.256   1.804   0.684 -0.1575 -0.6494 -0.9797
  349TP3      O12865   1.412   1.446   8.455 -0.0821  0.1436 -0.4013
  349TP3     H112866   1.478   1.497   8.408 -2.3962  1.5199 -2.2570
  349TP3     H212867   1.376   1.387   8.389 -1.8743  0.5705  0.1909
  350TP3      O12868   0.438   2.279   9.143  0.3269 -0.4289 -0.5417
  350TP3     H112869   0.512   2.323   9.101  0.2840  0.0638 -0.1060
  350TP3     H212870   0.463   2.186   9.145  0.4195 -0.4274 -1.4549
  351TP3      O12871   4.482   1.349   0.534  0.1090  0.0943 -0.2771
  351TP3     H112872   4.549   1.347   0.602 -0.6373  0.9463  0.4980
  351TP3     H212873   4.531   1.346   0.451  1.0624  0.0542  0.2862
  352TP3      O12874   2.875   4.030   9.814 -0.3261  0.4633  0.1860
  352TP3     H112875   2.856   3.950   9.863  1.7457 -0.4492 -0.4624
  352TP3     H212876   2.891   4.001   9.725 -1.5599  1.8496 -0.5143
  353TP3      O12877   4.281   1.685   7.646  0.1178 -0.6714  0.2740
  353TP3     H112878   4.234   1.769   7.645  0.2091 -0.6272 -0.2326
  353TP3     H212879   4.363   1.704   7.692 -0.0525 -0.5891  0.5489
  354TP3      O12880   4.054   3.153   0.191 -0.1890 -0.1874 -0.0333
  354TP3     H112881   4.128   3.122   0.139 -0.8510 -2.0862  0.1270
  354TP3     H212882   3.980   3.098   0.164 -0.8323 -0.3864  2.0133
  355TP3      O12883   3.092   0.576   8.050  0.1943 -0.2723 -0.4799
  355TP3     H112884   3.087   0.672   8.047  0.0548 -0.2848 -0.7106
  355TP3     H212885   3.119   0.551   7.961  1.6712 -0.3708 -0.0119
  356TP3      O12886   4.985   0.112   2.847 -0.2102 -0.0330 -0.3066
  356TP3     H112887   5.071   0.153   2.846 -0.5320  0.6647  0.3697
  356TP3     H212888   4.961   0.108   2.940 -1.0476  0.0888 -0.5122
  357TP3      O12889   1.990   4.749   0.442 -0.0026  0.1725  0.0816
  357TP3     H112890   2.056   4.769   0.508 -1.1014  0.7007  1.0442
  357TP3     H212891   1.917   4.807   0.463 -0.7439 -0.3436 -1.0145
  358TP3      O12892   3.581   0.176   8.550 -0.4824  0.0364  0.0256
  358TP3     H112893   3.652   0.138   8.498 -0.8328  0.3254 -0.6682
  358TP3     H212894   3.515   0.202   8.485  0.1233  2.6231  0.4011
  359TP3      O12895   2.057   0.981   7.695  0.5448 -0.2181  0.1849
  359TP3     H112896   2.078   0.940   7.778  0.8262 -1.1868 -0.3535
  359TP3     H212897   2.070   0.912   7.630 -0.2488  0.3590 -0.6004
  360TP3      O12898   2.494   1.103   1.335  0.0856  0.2602 -0.0056
  360TP3     H112899   2.566   1.070   1.281  0.0393 -0.6759  0.4884
  360TP3     H212900   2.416   1.062   1.298 -0.5242  3.1556 -2.0611
  361TP3      O12901   4.113   4.356   8.479  0.2073  0.6329  0.1839
  361TP3     H112902   4.185   4.402   8.523 -0.2218  1.7128 -0.2250
  361TP3     H212903   4.145   4.342   8.390 -0.6097  2.3658 -0.4047
  362TP3      O12904   3.494   1.434   7.778 -0.2287 -0.3124 -0.7381
  362TP3     H112905   3.456   1.381   7.708 -0.2038 -1.0963 -0.1638
  362TP3     H212906   3.545   1.501   7.732 -1.1639 -0.1017 -1.4867
  363TP3      O12907   1.746   2.111   9.020  0.3348  0.0447 -0.2491
  363TP3     H112908   1.650   2.111   9.027  0.1133 -4.8886 -1.4011
  363TP3     H212909   1.763   2.113   8.926  1.3506 -0.0325 -0.0705
  364TP3      O12910   0.912   2.940   6.771  0.4845  0.2810 -0.3044
  364TP3     H112911   0.859   2.957   6.849 -0.7471  0.7499 -1.2218
  364TP3     H212912   0.986   2.999   6.779  0.6521 -0.0551  0.7670
  365TP3      O12913   0.011   1.659   8.576 -0.0158 -0.2081  0.2494
  365TP3     H112914   0.094   1.613   8.580 -0.5525 -1.1084  1.3107
  365TP3     H212915   0.028   1.735   8.520  2.1555  0.9436  2.3573
  366TP3      O12916   2.190   4.506   9.163 -0.0288 -0.2539  0.6910
  366TP3     H112917   2.242   4.541   9.235 -0.4306 -0.0914  0.8980
  366TP3     H212918   2.228   4.419   9.146  1.9626  0.8746 -0.8223
  367TP3      O12919   4.506   4.631   8.506  0.1204  0.1610 -0.0900
  367TP3     H112920   4.566   4.684   8.453  2.8967 -3.0270 -0.3350
  367TP3     H212921   4.466   4.570   8.444 -0.9191  0.1083  0.6165
  368TP3      O12922   1.830   0.264   8.993 -0.2304 -0.8311 -0.1132
  368TP3     H112923   1.865   0.218   8.916  0.7359 -2.0719  1.0622
  368TP3     H212924   1.753   0.213   9.019 -0.4967 -0.4662 -0.1694
  369TP3      O12925   5.234   4.959   0.613  0.2637 -0.1865 -0.0090
  369TP3     H112926   5.305   4.926   0.558 -0.4164  0.0532 -1.0305
  369TP3     H212927   5.267   4.949   0.703  1.2537 -0.8527 -0.4401
  370TP3      O12928   4.856   1.354   0.123 -0.1298  0.2602 -0.6000
  370TP3     H112929   4.891   1.443   0.126  0.6072 -0.0960  1.9717
  370TP3     H212930   4.795   1.355   0.049  0.4448  2.6781 -1.0738
  371TP3      O12931   0.418   3.781   9.236 -0.0886  0.2323  0.2292
  371TP3     H112932   0.440   3.758   9.145  0.4668 -0.6749  0.5800
  371TP3     H212933   0.478   3.852   9.257  0.5849 -0.3269  0.2501
  372TP3      O12934   1.914   1.486   6.928  0.2843  0.1889 -0.7529
  372TP3     H112935   1.836   1.471   6.876 -0.0918  0.8427 -0.3785
  372TP3     H212936   1.957   1.401   6.932 -1.8254 -0.8311  1.3487
  373TP3      O12937   0.887   0.898   7.704  0.1101  0.2941  0.3419
  373TP3     H112938   0.832   0.845   7.762  0.8452  0.3924  1.1263
  373TP3     H212939   0.975   0.894   7.742  1.3748 -2.4423 -2.5754
  374TP3      O12940   2.831   0.846   9.593 -0.5818  1.2429  0.2887
  374TP3     H112941   2.785   0.810   9.517 -0.4264  1.3670  0.1362
  374TP3     H212942   2.813   0.940   9.589  0.9773  1.5200 -0.6486
  375TP3      O12943   2.263   2.688   8.394 -0.5783 -0.2315  0.0560
  375TP3     H112944   2.326   2.708   8.326  0.0391 -0.5052  0.5466
  375TP3     H212945   2.180   2.674   8.347 -0.4699  0.9451 -0.5170
  376TP3      O12946   3.851   2.208   7.701  0.2101 -0.1969 -0.9570
  376TP3     H112947   3.864   2.151   7.778  0.2399  1.2261  0.1124
  376TP3     H212948   3.838   2.147   7.629  3.1498 -1.5950 -0.3757
  377TP3      O12949   3.446   0.479   2.601 -0.1734 -0.1737 -0.2652
  377TP3     H112950   3.415   0.443   2.517 -1.0196  0.0651 -0.0593
  377TP3     H212951   3.537   0.452   2.606  0.3918  1.3179 -2.1005
  378TP3      O12952   0.756   2.288   7.293  0.0257  0.0926 -0.2400
  378TP3     H112953   0.717   2.264   7.376  0.3799 -0.8385 -0.3428
  378TP3     H212954   0.789   2.377   7.307 -2.0434  0.8746 -0.1289
  379TP3      O12955   2.579   1.063   6.830  0.6162  0.1511 -0.0319
  379TP3     H112956   2.608   1.131   6.770  1.3197  0.4348  0.6234
  379TP3     H212957   2.651   0.999   6.832 -0.0359 -0.6141 -0.6385
  380TP3      O12958   3.570   2.392   8.616 -0.0816 -0.2674 -0.5978
  380TP3     H112959   3.540   2.304   8.593  0.1222 -0.2700 -0.8551
  380TP3     H212960   3.514   2.418   8.689 -0.4762 -0.4146 -0.8422
  381TP3      O12961   1.467   1.200   8.664  0.2037 -0.3155 -0.1166
  381TP3     H112962   1.377   1.211   8.633 -0.8028 -1.8237  2.1551
  381TP3     H212963   1.467   1.116   8.710  3.6156 -2.0339 -2.9688
  382TP3      O12964   0.089   3.681   8.836 -0.8168 -0.1454  0.0866
  382TP3     H112965  -0.000   3.709   8.818 -0.1938  0.4364 -2.2882
  382TP3     H212966   0.139   3.707   8.758  1.4736 -0.2261  1.4536
  383TP3      O12967   4.234   3.682   8.555 -0.3315 -0.0683 -0.2626
  383TP3     H112968   4.297   3.662   8.624 -0.6600  0.7076  0.2779
  383TP3     H212969   4.264   3.633   8.479 -0.4017 -1.5446  0.6447
  384TP3      O12970   3.422   2.410   9.285  0.0960  0.2036 -0.1483
  384TP3     H112971   3.442   2.493   9.242  0.7163 -0.2872 -0.8267
  384TP3     H212972   3.500   2.389   9.336 -0.5846  0.7101  1.1243
  385TP3      O12973   3.057   4.290   8.454 -0.2455 -0.3060 -0.6437
  385TP3     H112974   3.147   4.318   8.470 -0.1312 -2.1393  2.2937
  385TP3     H212975   3.010   4.315   8.534 -2.1954 -0.0002 -1.8608
  386TP3      O12976   1.928   5.072   1.314  0.0445 -0.5138  0.4433
  386TP3     H112977   1.859   5.138   1.317 -0.0815 -0.5853 -0.5338
  386TP3     H212978   1.995   5.110   1.256  0.4991 -0.7548  0.8029
  387TP3      O12979   2.793   5.122   7.844 -0.3883 -0.2028 -0.0055
  387TP3     H112980   2.866   5.076   7.884 -0.4624 -1.0949 -0.8828
  387TP3     H212981   2.784   5.203   7.896  0.1006 -0.8989  1.1774
  388TP3      O12982   3.844   1.108   0.394 -0.4453  0.4651 -0.1697
  388TP3     H112983   3.824   1.167   0.467 -2.5258 -0.9824  0.4871
  388TP3     H212984   3.887   1.033   0.436  0.5699  0.7016 -0.7683
  389TP3      O12985   1.464   0.425   7.390 -0.4470  0.2651  0.6980
  389TP3     H112986   1.384   0.393   7.349 -0.4900  1.3287 -0.0450
  389TP3     H212987   1.481   0.509   7.348  0.4656  0.5474  1.6180
  390TP3      O12988   3.892   3.056  10.008 -0.4126 -0.2822  0.2929
  390TP3     H112989   3.908   3.150  10.001  0.1433 -0.4368 -0.5084
  390TP3     H212990   3.870   3.043  10.101  0.8195  0.4269  0.6943
  391TP3      O12991   1.802   1.548   8.053  0.0911  0.1352 -0.4092
  391TP3     H112992   1.868   1.606   8.016  0.3350  0.2049  0.1318
  391TP3     H212993   1.784   1.484   7.984  1.5374 -0.5487 -0.1709
  392TP3      O12994   3.745   4.746   2.468  0.3627  0.2591 -0.3024
  392TP3     H112995   3.710   4.779   2.551  0.3851  2.2000 -1.0383
  392TP3     H212996   3.817   4.688   2.494 -0.4380 -0.1455  1.0646
  393TP3      O12997   2.020   1.992   1.633 -0.8286  0.8887 -0.4804
  393TP3     H112998   1.951   1.989   1.699 -0.3789  2.0345  0.0596
  393TP3     H212999   2.078   1.920   1.656  0.4181  2.5256  1.6218
  394TP3      O13000   2.701   3.840   9.393  0.0196  0.3351  0.2317
  394TP3     H113001   2.632   3.774   9.396 -0.3849  0.6949 -0.8647
  394TP3     H213002   2.703   3.876   9.482 -0.7278 -0.1591  0.4600
  395TP3      O13003   4.632   4.689   7.615  0.3802 -0.0001 -0.2139
  395TP3     H113004   4.610   4.632   7.541  1.2254  1.3722 -1.5487
  395TP3     H213005   4.727   4.689   7.618  0.4059  2.1532 -0.8663
  396TP3      O13006   4.851   1.137   0.893 -0.4124  0.0728 -0.0420
  396TP3     H113007   4.784   1.074   0.866  1.3736 -1.4817 -0.9720
  396TP3     H213008   4.934   1.094   0.873  0.8770  2.1785  0.5812
  397TP3      O13009   3.616   5.188   8.249 -0.5732 -0.0928  0.2481
  397TP3     H113010   3.522   5.178   8.233 -0.5921 -0.9956  0.8811
  397TP3     H213011   3.656   5.123   8.191 -0.3569  0.1167  0.1677
  398TP3      O13012   2.884   0.237   7.104 -0.0712 -0.8057  0.6055
  398TP3     H113013   2.860   0.230   7.197 -0.6754  1.2532  0.6439
  398TP3     H213014   2.965   0.188   7.096 -0.3770 -1.5848  2.0822
  399TP3      O13015   2.404   0.275   8.142 -0.0059  0.1746 -0.5054
  399TP3     H113016   2.410   0.359   8.096 -0.5105 -0.2529 -1.3717
  399TP3     H213017   2.328   0.232   8.103 -0.1269 -0.4185  0.3756
  400TP3      O13018   4.489   4.176   0.725 -0.2060  0.2829  0.4697
  400TP3     H113019   4.541   4.198   0.803 -0.2683  0.2591  0.5184
  400TP3     H213020   4.498   4.081   0.717  0.5912  0.4060 -0.1161
  401TP3      O13021   2.787   4.360   8.186  0.2565  0.3512 -0.0034
  401TP3     H113022   2.848   4.289   8.168 -1.8928 -1.0646 -1.9788
  401TP3     H213023   2.842   4.436   8.202  2.5448 -1.1731 -0.4416
  402TP3      O13024   5.020   2.944   9.156 -0.3199 -0.4558  0.4279
  402TP3     H113025   4.952   2.964   9.091  0.2923 -0.3911 -0.2010
  402TP3     H213026   5.053   2.858   9.130  2.0833  0.8961 -1.2320
  403TP3      O13027   1.836   0.945   6.987 -0.2927  0.2963 -0.1068
  403TP3     H113028   1.749   0.931   7.026 -0.3747  0.5760 -0.1918
  403TP3     H213029   1.862   1.032   7.017 -0.2565  0.4190 -0.4919
  404TP3      O13030   5.065   3.317  10.063 -0.0480  0.2153  0.0569
  404TP3     H113031   4.972   3.308  10.083 -0.5102  1.0659 -1.6549
  404TP3     H213032   5.068   3.376   9.988  1.8837  0.2463  0.1298
  405TP3      O13033   4.365   4.257   7.532  0.3829 -0.1877 -0.1568
  405TP3     H113034   4.291   4.198   7.525  0.9655 -0.9457 -0.0369
  405TP3     H213035   4.411   4.248   7.449  0.5475 -0.0039 -0.0879
  406TP3      O13036   4.918   5.164   1.766  0.0874  0.5319 -0.4975
  406TP3     H113037   5.005   5.150   1.804  0.6620 -1.4661 -2.4715
  406TP3     H213038   4.858   5.138   1.836  1.0375  1.9051  0.8791
  407TP3      O13039   2.180   0.153   9.800 -0.2679  0.2315  0.9184
  407TP3     H113040   2.254   0.186   9.750 -0.8742 -0.9819 -0.8589
  407TP3     H213041   2.183   0.200   9.883  2.7653 -0.1603  1.0832
  408TP3      O13042   1.083   0.538   0.683 -0.1925  0.1664  0.6408
  408TP3     H113043   1.051   0.565   0.769 -0.7116  1.1580  0.1485
  408TP3     H213044   1.138   0.610   0.654 -1.6796  0.7898 -0.7468
  409TP3      O13045   0.742   4.196   8.971 -0.1507 -0.0328 -0.3309
  409TP3     H113046   0.659   4.199   9.019 -0.7679  0.7635 -1.4255
  409TP3     H213047   0.722   4.145   8.893 -0.0844  1.6046 -1.4479
  410TP3      O13048   2.768   4.691   8.173  0.3550  0.9070  0.2674
  410TP3     H113049   2.714   4.741   8.234  0.4850  0.4839  0.7376
  410TP3     H213050   2.708   4.663   8.104 -0.2101 -0.2944  1.2312
  411TP3      O13051   1.912   3.366   9.199 -0.3914  0.4912 -0.4862
  411TP3     H113052   1.905   3.364   9.295  3.9243 -1.5818 -0.1267
  411TP3     H213053   1.838   3.313   9.169 -1.3186  0.4715  1.7161
  412TP3      O13054   2.234   2.817   7.396  0.3325 -0.0349 -0.3021
  412TP3     H113055   2.293   2.806   7.321  2.1043 -1.4986  1.2491
  412TP3     H213056   2.161   2.758   7.378 -0.1281  0.9217 -1.6775
  413TP3      O13057   4.458   0.393   9.958  0.1887 -0.0427 -0.4773
  413TP3     H113058   4.492   0.392   9.868  0.0776 -1.4747 -0.5231
  413TP3     H213059   4.520   0.340  10.008  1.1689  2.1194  0.6727
  414TP3      O13060   2.837   2.393   0.993 -0.2453  0.5516 -0.3720
  414TP3     H113061   2.829   2.447   1.071  0.1643  1.0470 -0.6717
  414TP3     H213062   2.844   2.455   0.921  2.2692  0.1566 -0.5338
  415TP3      O13063   1.110   1.504   7.109  0.1095  0.0676 -0.4523
  415TP3     H113064   1.081   1.555   7.184 -1.7154  0.3682 -1.3460
  415TP3     H213065   1.162   1.565   7.057 -1.2826  0.7640 -1.0379
  416TP3      O13066   0.862   3.174   7.399 -0.3337  0.5185  0.0897
  416TP3     H113067   0.830   3.140   7.315  0.3654 -0.6385  0.2752
  416TP3     H213068   0.948   3.134   7.409  0.3601  2.1083  0.5027
  417TP3      O13069   0.984   0.458   8.281 -0.0421  0.1015  0.1272
  417TP3     H113070   1.003   0.511   8.358  0.6473  1.6659 -1.0972
  417TP3     H213071   0.976   0.369   8.315  0.4981  0.7286  1.9588
  418TP3      O13072   0.627   0.519   1.090 -0.4440  0.3081  0.7482
  418TP3     H113073   0.666   0.432   1.091 -0.3683  0.3356  2.6394
  418TP3     H213074   0.621   0.542   0.997 -2.2469 -2.4930  0.1262
  419TP3      O13075   0.362   2.970   8.664 -0.0210  0.4252 -0.4687
  419TP3     H113076   0.270   2.989   8.643  0.2807  1.6901 -0.6904
  419TP3     H213077   0.357   2.903   8.732 -1.1430  1.4854  0.5119
  420TP3      O13078   4.205   0.145   9.711 -0.0607  0.3094 -0.2663
  420TP3     H113079   4.121   0.135   9.666 -0.6048  0.3163  0.7235
  420TP3     H213080   4.184   0.196   9.790  1.0686  1.2949 -0.5792
  421TP3      O13081   0.743   3.376   8.370 -0.4374  0.0882 -0.0273
  421TP3     H113082   0.743   3.458   8.320 -0.5539  0.1677  0.0993
  421TP3     H213083   0.662   3.332   8.343  0.2832 -0.5976 -1.0764
  422TP3      O13084   2.403   4.820   6.803  0.0440  0.1978  0.2790
  422TP3     H113085   2.417   4.726   6.791  1.5619  0.2463  1.5763
  422TP3     H213086   2.469   4.861   6.747  0.0959  0.4919  0.5591
  423TP3      O13087   1.801   1.960   8.056  0.7198 -0.0029  0.0470
  423TP3     H113088   1.811   1.977   7.962 -0.2621 -0.5681 -0.1658
  423TP3     H213089   1.781   2.045   8.094 -0.1257  0.0228 -0.4396
  424TP3      O13090   2.570   2.375   1.055 -0.0092  0.5768  0.0078
  424TP3     H113091   2.662   2.363   1.076  0.0010 -0.2663 -0.4863
  424TP3     H213092   2.533   2.417   1.132  0.5267 -0.2605  0.7265
  425TP3      O13093   2.964   0.692   0.361  0.2799  0.3005  0.2760
  425TP3     H113094   3.017   0.639   0.302  0.8864  0.6504  0.5044
  425TP3     H213095   2.950   0.637   0.437 -1.5468 -0.6224 -0.6890
  426TP3      O13096   3.817   0.292   6.350  0.3202 -0.2816 -0.4829
  426TP3     H113097   3.805   0.353   6.278 -1.1861 -1.7170 -1.4637
  426TP3     H213098   3.735   0.295   6.399 -1.2772 -4.2067 -2.6606
  427TP3      O13099   2.050   2.108   1.013 -0.2054  0.3239  0.2063
  427TP3     H113100   2.125   2.110   1.071 -0.6212 -0.9615  0.8073
  427TP3     H213101   2.004   2.190   1.031 -0.7128 -0.3636  2.2301
  428TP3      O13102   1.428   2.434   7.977 -0.2098 -0.2839 -0.1349
  428TP3     H113103   1.400   2.351   8.016 -1.2503  1.1538  2.3070
  428TP3     H213104   1.505   2.412   7.924  0.8236 -2.4432  2.2018
  429TP3      O13105   2.449   2.313   9.913  0.5576 -1.1466 -0.0174
  429TP3     H113106   2.483   2.356   9.834 -0.8789  2.3224  1.1730
  429TP3     H213107   2.366   2.357   9.930  1.2976 -1.1240  4.0064
  430TP3      O13108   1.444   1.725   0.362 -0.6446  0.0411 -0.2809
  430TP3     H113109   1.462   1.646   0.414  0.3825 -0.2157 -1.0026
  430TP3     H213110   1.381   1.696   0.296 -0.8896  0.0167 -0.0336
  431TP3      O13111   0.835   2.924   8.318 -0.0335  0.4554  0.1152
  431TP3     H113112   0.873   3.000   8.273 -0.6772  0.9155  0.3515
  431TP3     H213113   0.787   2.961   8.392 -1.4723 -0.0782 -0.5377
  432TP3      O13114   3.813   4.538   0.162 -0.3177  0.6377  0.6860
  432TP3     H113115   3.793   4.612   0.220  0.8001  0.4773  1.2880
  432TP3     H213116   3.738   4.534   0.103 -0.4593  2.1652  0.7303
  433TP3      O13117   3.322   0.067   9.571 -0.4791  0.7316 -0.4677
  433TP3     H113118   3.315   0.154   9.532 -0.2548  0.3901 -1.2781
  433TP3     H213119   3.308   0.007   9.498  1.1226  0.0745 -0.2437
  434TP3      O13120   4.235   1.584   6.796  0.2919  0.0611  0.7013
  434TP3     H113121   4.290   1.648   6.842 -0.1314  0.9566 -0.0182
  434TP3     H213122   4.159   1.572   6.854  0.9762 -0.7680  1.4401
  435TP3      O13123   0.454   4.903   8.103  0.3990  0.5789 -0.6457
  435TP3     H113124   0.542   4.933   8.083  0.3791  1.9591  1.2348
  435TP3     H213125   0.401   4.936   8.030  1.3436  0.0610 -1.5898
  436TP3      O13126   0.295   3.056   9.194  0.4534 -0.6787 -0.0745
  436TP3     H113127   0.247   3.131   9.230  0.6107  0.2812 -1.8188
  436TP3     H213128   0.235   3.017   9.131  1.3628 -0.4262 -1.1047
  437TP3      O13129   4.412   0.136   7.346 -0.2144 -0.2639 -0.0846
  437TP3     H113130   4.426   0.106   7.256  0.2977  1.6057 -0.6452
  437TP3     H213131   4.317   0.134   7.357 -0.3218  0.1035 -0.8879
  438TP3      O13132   2.813   0.093   9.357 -0.3057  0.1589 -0.0566
  438TP3     H113133   2.815   0.004   9.390 -2.7205 -0.1434 -0.5937
  438TP3     H213134   2.851   0.146   9.427 -0.3250 -1.0954  0.9246
  439TP3      O13135   4.317   0.698   7.287  0.0521  0.3902  0.0874
  439TP3     H113136   4.238   0.743   7.315  0.9924  1.4928  1.0461
  439TP3     H213137   4.372   0.768   7.250  0.4715 -0.4019 -0.8155
  440TP3      O13138   5.036   2.444   9.852 -0.8367 -0.7051  0.3863
  440TP3     H113139   5.018   2.355   9.820 -1.4346 -1.0577  1.6571
  440TP3     H213140   5.007   2.501   9.781 -0.8248 -1.5051 -0.2771
  441TP3      O13141   3.637   2.473   6.780 -0.2309 -0.2887 -0.2142
  441TP3     H113142   3.637   2.410   6.852 -0.0225 -0.9450 -0.7838
  441TP3     H213143   3.619   2.420   6.702 -2.4214  0.7039 -0.4154
  442TP3      O13144   3.974   1.336   0.288  0.0170 -0.1735 -0.0557
  442TP3     H113145   3.925   1.255   0.300 -0.6535  0.1054 -0.8603
  442TP3     H213146   3.955   1.388   0.367 -1.1373  0.0118 -0.4509
  443TP3      O13147   5.244   0.450   7.122  0.9089  0.4921 -0.0708
  443TP3     H113148   5.322   0.499   7.097  1.6724 -1.5490 -1.8481
  443TP3     H213149   5.277   0.362   7.143 -0.7710 -0.0727  0.2751
  444TP3      O13150   3.872   2.809   7.755  0.4564  0.2414  0.6774
  444TP3     H113151   3.967   2.798   7.755  0.5065  0.4065 -1.0269
  444TP3     H213152   3.840   2.733   7.706 -0.1600  0.9483 -0.0337
  445TP3      O13153   3.560   4.559   0.097  0.1714 -0.0078  0.0347
  445TP3     H113154   3.470   4.556   0.065  1.1753  0.9662 -3.1046
  445TP3     H213155   3.561   4.633   0.158 -0.5385  1.9202 -2.2004
  446TP3      O13156   5.204   0.731   7.589  0.1956 -0.1440  0.3492
  446TP3     H113157   5.118   0.750   7.627  0.6131  0.1191  1.1652
  446TP3     H213158   5.184   0.685   7.507 -0.7175 -0.2020  0.5991
  447TP3      O13159   1.678   0.789   8.908  0.1554  0.4479 -0.5632
  447TP3     H113160   1.681   0.839   8.827 -0.3153  1.0815 -0.1859
  447TP3     H213161   1.601   0.733   8.900  0.6102 -0.1386 -0.9299
  448TP3      O13162   3.609   1.231   0.704 -0.1925 -0.2396 -0.0076
  448TP3     H113163   3.698   1.198   0.693  0.8657  2.0965  1.2297
  448TP3     H213164   3.554   1.166   0.661  1.9798 -2.5327  0.5875
  449TP3      O13165   2.631   4.863   8.350  0.4018 -0.0963 -0.4637
  449TP3     H113166   2.571   4.820   8.411 -0.0473  1.4584  0.2318
  449TP3     H213167   2.591   4.949   8.335  2.0447  0.6578 -0.6199
  450TP3      O13168   4.090   0.764   1.434 -0.3858  0.0147 -0.4177
  450TP3     H113169   4.043   0.830   1.383  0.1464  1.3803  0.8328
  450TP3     H213170   4.040   0.757   1.515 -1.3679 -2.3213 -1.1849
  451TP3      O13171   1.335   4.683   8.479 -0.5227  0.2322 -0.3078
  451TP3     H113172   1.247   4.699   8.446 -0.4390  1.6806  0.1270
  451TP3     H213173   1.350   4.590   8.464 -3.0600 -0.6055  1.8014
  452TP3      O13174   4.348   0.676   7.838 -0.1911  0.0375 -0.0654
  452TP3     H113175   4.297   0.601   7.870 -0.3264  0.3482  0.4531
  452TP3     H213176   4.424   0.636   7.796  0.7281 -0.3719  1.9137
  453TP3      O13177   4.388   2.401   7.295 -0.3644  0.4684 -0.7649
  453TP3     H113178   4.349   2.322   7.333  1.4725 -0.0380  0.1175
  453TP3     H213179   4.403   2.459   7.370 -0.4989  1.1355 -1.2491
  454TP3      O13180   5.013   0.072   7.557 -0.0673 -0.3879  0.4194
  454TP3     H113181   4.934   0.118   7.586  0.8292 -0.2118  2.7197
  454TP3     H213182   5.079   0.096   7.622  1.9352 -0.4088 -1.5659
  455TP3      O13183   2.748   3.300   8.130  0.2457 -0.4755  0.2107
  455TP3     H113184   2.755   3.225   8.071  0.1303 -0.7870  0.5940
  455TP3     H213185   2.823   3.355   8.108 -0.4384 -0.0135 -1.0390
  456TP3      O13186   2.948   4.820   9.159  0.4151 -0.2321 -0.3853
  456TP3     H113187   2.992   4.852   9.080  0.7722 -0.6090 -0.3436
  456TP3     H213188   3.012   4.834   9.229  0.0535  0.2042 -0.1460
  457TP3      O13189   1.039   3.436   8.233 -0.0237  0.0651 -0.0383
  457TP3     H113190   1.133   3.451   8.222 -0.3499  1.1389 -1.4394
  457TP3     H213191   1.001   3.523   8.240 -0.8327 -0.3784  1.4362
  458TP3      O13192   2.883   4.704   7.925  0.0245 -0.3205 -0.1665
  458TP3     H113193   2.856   4.616   7.898  2.3491 -0.9038 -0.6860
  458TP3     H213194   2.871   4.705   8.020  1.1359 -1.6086 -0.0087
  459TP3      O13195   3.822   3.094   8.813  0.1498  0.4076 -0.4324
  459TP3     H113196   3.844   3.140   8.894  1.4153  1.6542 -1.4578
  459TP3     H213197   3.900   3.043   8.793 -0.8778 -1.4433  0.1572
  460TP3      O13198   3.684   4.523   7.910  0.6520 -0.4039  0.2954
  460TP3     H113199   3.750   4.579   7.951  1.1486  0.0109 -1.0411
  460TP3     H213200   3.647   4.578   7.840  0.1417 -1.2559 -0.1069
  461TP3      O13201   0.250   0.790   8.149 -0.0188 -0.6094 -0.0397
  461TP3     H113202   0.219   0.875   8.117 -0.7643 -0.9060 -0.1066
  461TP3     H213203   0.306   0.812   8.224  2.0290  0.1049 -1.7202
  462TP3      O13204   3.427   1.647   9.519 -0.5710 -1.0008 -0.0696
  462TP3     H113205   3.450   1.566   9.474  0.4558 -0.9878  0.4377
  462TP3     H213206   3.446   1.630   9.611  1.3488  0.4165 -0.1730
  463TP3      O13207   3.905   3.926   7.451 -0.2671 -0.6465 -0.2918
  463TP3     H113208   3.821   3.912   7.496 -0.4113 -2.3033 -1.0152
  463TP3     H213209   3.883   3.983   7.377 -0.8124 -1.2723 -0.6200
  464TP3      O13210   1.212   0.866   7.675  0.2435 -0.4470 -0.6371
  464TP3     H113211   1.186   0.809   7.603 -0.8768 -0.3324 -0.3415
  464TP3     H213212   1.266   0.811   7.732 -2.7370 -1.9434  0.8511
  465TP3      O13213   3.758   3.218   7.583 -0.2241 -0.9056  0.3633
  465TP3     H113214   3.685   3.279   7.594  1.7579  1.4471  0.8502
  465TP3     H213215   3.766   3.209   7.488  0.8938  1.4388  0.1913
  466TP3      O13216   0.907   0.274   0.225  0.1995 -0.4348  0.7139
  466TP3     H113217   0.857   0.267   0.144  1.1383 -0.8199  0.1618
  466TP3     H213218   0.876   0.201   0.279  1.4164 -1.7452 -0.3249
  467TP3      O13219   0.245   2.597   7.995  0.2004 -0.4758 -0.3250
  467TP3     H113220   0.158   2.602   7.955  0.6593  0.0765 -1.2581
  467TP3     H213221   0.305   2.595   7.921  0.9498 -1.7463  0.3102
  468TP3      O13222   4.890   5.081   7.062  0.1084  0.2627  0.0787
  468TP3     H113223   4.831   5.157   7.064 -0.0663  0.1369 -0.2191
  468TP3     H213224   4.977   5.118   7.079  0.5014  1.0015 -3.2535
  469TP3      O13225   4.099   4.841   7.943 -0.1861  0.2388 -0.4805
  469TP3     H113226   4.166   4.799   7.997  0.2805  1.3111 -0.2143
  469TP3     H213227   4.147   4.900   7.886 -0.6021 -1.5934 -2.7614
  470TP3      O13228   1.635   0.831   1.921  0.0883  0.0323 -0.5831
  470TP3     H113229   1.711   0.883   1.945 -0.8682  1.3003 -0.2669
  470TP3     H213230   1.664   0.781   1.845  0.9861  1.1061 -0.9659
  471TP3      O13231   2.701   3.311   8.472 -0.4207  0.4569  0.3543
  471TP3     H113232   2.673   3.367   8.545  1.0341  1.1607  0.3825
  471TP3     H213233   2.691   3.367   8.394 -0.3667  0.2673  0.2113
  472TP3      O13234   4.824   1.949   9.523 -0.0899  0.6431 -0.2461
  472TP3     H113235   4.871   1.964   9.440  2.3371  2.9137  1.4799
  472TP3     H213236   4.765   2.024   9.531 -0.5509  0.2625 -0.0570
  473TP3      O13237   1.475   1.822   0.853 -0.2295  0.1601  0.5344
  473TP3     H113238   1.487   1.903   0.804  2.6493 -0.8041 -0.4864
  473TP3     H213239   1.533   1.830   0.928 -0.8727 -0.4198  1.0925
  474TP3      O13240   3.878   1.200   1.230 -0.0880  0.1764 -0.0451
  474TP3     H113241   3.796   1.186   1.183  0.4591  0.2551 -1.0523
  474TP3     H213242   3.941   1.225   1.161  0.6123  0.7837  0.7967
  475TP3      O13243   0.672   4.648   0.093 -0.2996  0.3039 -0.7008
  475TP3     H113244   0.725   4.623   0.168  1.2427  0.0312 -1.8501
  475TP3     H213245   0.602   4.583   0.090  0.4202 -0.5040 -0.2979
  476TP3      O13246   1.915   2.713   7.091 -0.4285 -0.4489 -0.0893
  476TP3     H113247   1.829   2.688   7.057  0.4303 -0.9355 -1.9601
  476TP3     H213248   1.973   2.641   7.067  1.1473  1.2744 -1.6131
  477TP3      O13249   4.437   3.725   9.758  0.1981 -0.1667 -0.0277
  477TP3     H113250   4.425   3.657   9.692  0.4606  1.2935 -1.6169
  477TP3     H213251   4.469   3.678   9.835 -0.3271 -1.9357 -0.8512
  478TP3      O13252   4.719   4.697   8.965  0.3497  0.4341 -0.1194
  478TP3     H113253   4.643   4.642   8.984  0.4994 -0.9606 -3.3356
  478TP3     H213254   4.683   4.775   8.923  0.4278  1.3773  1.5157
  479TP3      O13255   1.326   4.287   9.846  0.2882 -0.1689 -0.2224
  479TP3     H113256   1.392   4.249   9.905  0.0802 -1.8911 -1.0442
  479TP3     H213257   1.359   4.266   9.758 -0.2722  0.8522 -0.6745
  480TP3      O13258   3.439   1.850   8.877  0.1518  0.9660 -0.2818
  480TP3     H113259   3.371   1.792   8.910 -0.5488  1.5004 -0.7793
  480TP3     H213260   3.407   1.938   8.895 -0.4649  1.2987 -2.7305
  481TP3      O13261   4.410   2.154   7.632  0.5001 -0.0587 -0.6185
  481TP3     H113262   4.498   2.144   7.667  0.6616 -0.4100 -1.1260
  481TP3     H213263   4.400   2.249   7.620  0.6560  0.0136 -0.1766
  482TP3      O13264   5.133   3.714   8.749  0.3218  0.0601 -0.1423
  482TP3     H113265   5.109   3.769   8.824 -0.8939 -0.1344 -0.3669
  482TP3     H213266   5.094   3.629   8.769 -0.7620  0.2441 -1.3844
  483TP3      O13267   4.341   4.876   0.144  0.1726  0.2680  0.0246
  483TP3     H113268   4.286   4.815   0.095  0.2279  0.1083  0.1625
  483TP3     H213269   4.402   4.911   0.079 -1.0655  1.5868 -0.4538
  484TP3      O13270   4.480   0.668   6.987  0.0840 -0.0146  0.2020
  484TP3     H113271   4.488   0.708   6.900 -1.0548  0.9503  0.5263
  484TP3     H213272   4.486   0.742   7.047 -1.5791 -0.3659  0.8356
  485TP3      O13273   3.794   4.867   9.024 -0.1944 -0.7100  0.2878
  485TP3     H113274   3.803   4.954   9.063 -0.8589 -0.3591 -0.3119
  485TP3     H213275   3.822   4.806   9.092 -0.1221 -0.0403  0.8569
  486TP3      O13276   1.054   3.078   1.828 -0.4313  0.5073  0.5284
  486TP3     H113277   0.972   3.034   1.806  0.5069 -1.2116  0.4178
  486TP3     H213278   1.078   3.043   1.914  0.1553  1.0464  0.5884
  487TP3      O13279   5.007   1.985   7.817 -0.5452 -0.4960 -0.1666
  487TP3     H113280   5.101   1.986   7.801 -0.8761 -0.5164 -2.2744
  487TP3     H213281   4.986   1.892   7.827 -0.6827 -0.7015 -2.0830
  488TP3      O13282   4.168   0.350   7.460 -0.1917  0.5048 -0.1679
  488TP3     H113283   4.088   0.402   7.462 -0.1201  0.5957  0.2717
  488TP3     H213284   4.209   0.373   7.376 -0.5442  0.5776 -0.3217
  489TP3      O13285   3.385   0.099   7.033  0.0759  0.9676 -0.3912
  489TP3     H113286   3.399   0.165   6.965 -1.5610 -0.1702 -1.8927
  489TP3     H213287   3.425   0.020   6.996 -0.7204  0.3732  0.0157
  490TP3      O13288   2.739   4.101   0.675 -0.4470 -0.0696 -0.2986
  490TP3     H113289   2.789   4.155   0.735 -0.6143  0.6588 -0.8077
  490TP3     H213290   2.736   4.015   0.716  0.8022  0.0143 -0.0370
  491TP3      O13291   0.932   1.337   1.147 -0.3228  0.3289  0.1135
  491TP3     H113292   0.904   1.365   1.059 -1.8254 -1.4647 -0.0047
  491TP3     H213293   0.995   1.404   1.174 -0.5630  1.4339 -1.9357
  492TP3      O13294   3.487   4.905   7.832 -0.2103 -0.2762  0.3282
  492TP3     H113295   3.396   4.932   7.844 -0.3766 -1.2456  1.2737
  492TP3     H213296   3.537   4.987   7.829 -0.7951  0.1693  2.4133
  493TP3      O13297   1.281   2.620   9.174  0.0407  0.3435 -0.0044
  493TP3     H113298   1.360   2.569   9.193 -0.8582 -1.3600 -0.7155
  493TP3     H213299   1.235   2.625   9.258  0.0798 -0.1253  0.0489
  494TP3      O13300   1.271   1.856   7.306 -0.0205  0.0007 -0.1461
  494TP3     H113301   1.285   1.853   7.212  0.8535 -0.1247 -0.0220
  494TP3     H213302   1.177   1.872   7.317 -0.0961  0.1593 -1.0339
  495TP3      O13303   0.267   1.053  10.011  0.1681  0.2924  0.2661
  495TP3     H113304   0.293   1.144   9.995  0.7348 -0.3111 -2.6358
  495TP3     H213305   0.322   1.002   9.952 -1.1347 -1.8211  0.8244
  496TP3      O13306   2.339   2.389   7.423 -0.1933  0.0691 -0.0634
  496TP3     H113307   2.403   2.334   7.466  1.0611  1.1544 -0.5129
  496TP3     H213308   2.370   2.479   7.438 -1.8127  0.6228  0.0697
  497TP3      O13309   4.933   1.689   7.133 -0.3382  0.4137 -0.4775
  497TP3     H113310   5.009   1.746   7.123  0.7209 -1.0002 -0.6830
  497TP3     H213311   4.971   1.602   7.148 -1.9192 -0.2269 -0.1288
  498TP3      O13312   3.540   0.107   7.521  0.7441 -0.1599 -0.1388
  498TP3     H113313   3.551   0.096   7.426  2.4634 -1.0582  0.1526
  498TP3     H213314   3.620   0.151   7.549  0.1321  0.3189  0.8748
  499TP3      O13315   2.487   2.970   9.897 -0.8161 -0.7264  0.4131
  499TP3     H113316   2.483   2.875   9.888  0.0175 -0.8797  1.5469
  499TP3     H213317   2.496   3.002   9.807  1.2102 -1.8521  0.1718
  500TP3      O13318   0.462   0.376   7.960  0.1385 -0.2663 -1.0900
  500TP3     H113319   0.500   0.296   7.926  2.1050 -0.2394  0.9741
  500TP3     H213320   0.519   0.446   7.927 -1.2113  0.2739 -2.3706
  501TP3      O13321   0.462   2.622   6.255 -0.2787  0.4174  0.4007
  501TP3     H113322   0.545   2.648   6.295  0.2686 -0.7126  0.0119
  501TP3     H213323   0.435   2.545   6.304 -0.7344  0.3570  0.0571
  502TP3      O13324   3.171   1.716   8.356 -0.1562 -0.0437  0.0456
  502TP3     H113325   3.207   1.802   8.380  0.7755 -0.8792  1.7396
  502TP3     H213326   3.206   1.700   8.269  0.4254  0.9007  0.0895
  503TP3      O13327   4.288   0.477   6.950  0.1333 -0.4917  0.4023
  503TP3     H113328   4.365   0.532   6.965  1.1915 -1.9485  0.3750
  503TP3     H213329   4.323   0.389   6.937 -1.4480 -0.9634 -0.8681
  504TP3      O13330   4.856   2.200   7.800 -0.3347 -0.2591 -0.3072
  504TP3     H113331   4.921   2.269   7.811 -0.6215  0.5958 -3.4380
  504TP3     H213332   4.903   2.119   7.818  0.1047  0.6884  3.0369
  505TP3      O13333   4.639   5.210   0.072 -0.5310  0.6960 -0.0516
  505TP3     H113334   4.627   5.248  -0.015 -3.0521  0.2683  0.0931
  505TP3     H213335   4.663   5.119   0.056  2.2799  1.4200 -0.3201
  506TP3      O13336   1.400   4.939   8.401  0.1290 -0.3450 -0.3848
  506TP3     H113337   1.464   4.969   8.466 -1.0506  0.1657  0.5489
  506TP3     H213338   1.390   4.845   8.419 -0.5996 -0.0997  0.5403
  507TP3      O13339   4.176   1.232   0.155  0.1663 -0.6203 -0.9427
  507TP3     H113340   4.163   1.279   0.074 -1.7090 -0.0385 -0.3366
  507TP3     H213341   4.121   1.277   0.219  1.0738 -1.4704  0.4917
  508TP3      O13342   3.485   4.977  10.036  0.2636 -0.0214  0.0932
  508TP3     H113343   3.393   4.958  10.055  0.1852 -0.5549 -0.7736
  508TP3     H213344   3.518   4.896   9.995  0.2397  1.2668 -2.5862
  509TP3      O13345   3.347   4.867   8.627 -0.0304  0.1801 -0.1596
  509TP3     H113346   3.377   4.932   8.562  1.6587  0.8878  1.2872
  509TP3     H213347   3.322   4.919   8.703  0.9901 -0.8100  0.8837
  510TP3      O13348   2.140   0.335   8.726  0.7914  0.0434  0.3655
  510TP3     H113349   2.180   0.273   8.786  1.6152 -1.2488 -1.4844
  510TP3     H213350   2.212   0.364   8.670 -0.5864 -1.5111 -2.3248
  511TP3      O13351   4.218   4.956   8.907 -0.3574  0.0434 -0.3583
  511TP3     H113352   4.231   4.862   8.899 -0.9779  0.1211 -2.9352
  511TP3     H213353   4.139   4.965   8.959 -1.0234 -0.9142 -1.1827
  512TP3      O13354   1.421   4.569   7.747 -0.2668  0.5135 -0.3646
  512TP3     H113355   1.472   4.629   7.693  0.4769  1.2383  1.1187
  512TP3     H213356   1.483   4.536   7.812 -1.6702  1.5568  1.5874
  513TP3      O13357   4.144   3.524   3.262  0.2506  0.0828 -0.3353
  513TP3     H113358   4.237   3.508   3.248  0.5189 -0.3804  1.8914
  513TP3     H213359   4.111   3.548   3.175  2.5412  0.8479 -1.0237
  514TP3      O13360   3.384   0.604   8.543  0.3330  0.8125  0.3836
  514TP3     H113361   3.311   0.548   8.569 -0.1259  0.9343 -0.6043
  514TP3     H213362   3.382   0.677   8.604  2.1741 -1.2067  2.9843
  515TP3      O13363   0.632   0.527   9.279  0.2373 -0.5251 -0.1557
  515TP3     H113364   0.621   0.621   9.294 -0.9033 -0.8517  1.1322
  515TP3     H213365   0.689   0.497   9.350 -1.4412 -1.2465  0.9133
  516TP3      O13366   2.961   0.860   9.841  0.2499 -0.0441 -0.9422
  516TP3     H113367   2.986   0.778   9.884  0.0331 -0.2659 -1.2312
  516TP3     H213368   2.867   0.849   9.824 -0.1297  0.9234  0.4582
  517TP3      O13369   3.716   2.818   8.857 -0.3019 -0.0761 -0.6887
  517TP3     H113370   3.799   2.770   8.869 -0.9211 -0.4086  3.0153
  517TP3     H213371   3.741   2.897   8.810  2.0558 -0.4530 -0.1641
  518TP3      O13372   0.793   1.315   8.634 -0.0897  0.0879  0.3513
  518TP3     H113373   0.829   1.301   8.546  0.6988  0.5188  0.6008
  518TP3     H213374   0.839   1.392   8.667  0.4344 -0.7368  1.5788
  519TP3      O13375   1.128   2.223   8.641  0.0916 -0.1842 -0.4307
  519TP3     H113376   1.194   2.283   8.676 -1.1572 -0.6063  2.8539
  519TP3     H213377   1.168   2.187   8.562  2.8362  1.3240  0.2067
  520TP3      O13378   2.612   0.243   7.532  0.0907 -0.1239 -0.4263
  520TP3     H113379   2.563   0.320   7.504  0.8077  0.6554  0.4137
  520TP3     H213380   2.674   0.227   7.461 -0.0442  0.0890 -0.5936
  521TP3      O13381   4.151   0.762   9.521 -0.4646  0.4583  0.6561
  521TP3     H113382   4.200   0.771   9.439 -0.9512 -2.3241  0.0195
  521TP3     H213383   4.060   0.756   9.495 -0.5196 -1.8226  1.2595
  522TP3      O13384   0.843   1.591   8.847  0.0354 -0.0426  0.1108
  522TP3     H113385   0.847   1.647   8.769  0.1016  0.9948  0.8442
  522TP3     H213386   0.855   1.652   8.920  0.0318 -1.0161  0.9261
  523TP3      O13387   4.566   0.504   7.719  0.2305  0.3092 -0.1313
  523TP3     H113388   4.546   0.439   7.652  0.0018  0.1303  0.1079
  523TP3     H213389   4.617   0.571   7.674 -1.9682  1.4051 -1.0522
  524TP3      O13390   3.168   4.917   7.427  0.0827  0.8988  0.8399
  524TP3     H113391   3.204   4.894   7.341  0.0599  0.2781  0.9897
  524TP3     H213392   3.076   4.934   7.410 -0.0697  0.1075  0.8460
  525TP3      O13393   0.959   3.637   9.366 -0.1474 -0.5365  0.7374
  525TP3     H113394   1.001   3.609   9.447  0.1401  0.5237  0.9626
  525TP3     H213395   0.895   3.568   9.347  0.2571 -1.1279  1.4908
  526TP3      O13396   4.954   3.660  10.088 -0.6150 -0.3650  0.3017
  526TP3     H113397   5.042   3.665  10.126 -0.5398 -0.0984  0.0940
  526TP3     H213398   4.906   3.730  10.132 -0.4279  0.1805 -0.3569
  527TP3      O13399   3.558   2.301   7.599 -0.0446  0.3653  0.0705
  527TP3     H113400   3.596   2.374   7.649 -0.9576  1.0040 -0.1524
  527TP3     H213401   3.611   2.225   7.624  1.8015  1.3440 -0.7068
  528TP3      O13402   3.921   4.202   1.474  0.4436 -0.5475 -0.0091
  528TP3     H113403   3.976   4.224   1.399  1.2728 -0.2179  0.6894
  528TP3     H213404   3.832   4.209   1.441  0.7506  1.3033 -0.4929
  529TP3      O13405   1.307   1.723   8.227  0.2788 -0.3569 -0.2252
  529TP3     H113406   1.304   1.637   8.269  1.0343 -0.3062 -0.0667
  529TP3     H213407   1.331   1.783   8.297  0.9343 -0.1855 -0.5943
  530TP3      O13408   0.573   2.526   7.995 -0.3759  0.8202 -0.5344
  530TP3     H113409   0.539   2.518   8.084  0.6585  1.7868 -0.0461
  530TP3     H213410   0.613   2.613   7.992  0.7384  0.2876 -1.5343
  531TP3      O13411   4.839   2.611   6.947 -0.1758  0.0791 -0.2908
  531TP3     H113412   4.833   2.593   7.041  1.9817 -0.9441 -0.3159
  531TP3     H213413   4.822   2.705   6.940 -1.9166 -0.1159  0.9294
  532TP3      O13414   2.371   3.894   7.377  0.0947 -0.2006  0.0965
  532TP3     H113415   2.386   3.815   7.325  0.1561 -0.4683  0.5222
  532TP3     H213416   2.314   3.948   7.322  0.1995 -0.4603 -0.2702
  533TP3      O13417   0.053   5.303   9.102 -0.0568  0.2938 -0.1515
  533TP3     H113418   0.087   5.318   9.191 -0.0866  0.8619 -0.2352
  533TP3     H213419   0.129   5.273   9.052 -0.8274 -4.1251  1.0409
  534TP3      O13420   3.314   0.085   7.709  0.1872 -0.5283 -0.0787
  534TP3     H113421   3.353   0.018   7.766  3.2116  2.3203  1.3091
  534TP3     H213422   3.377   0.096   7.638 -0.3156  0.8431 -0.3196
  535TP3      O13423   4.435   4.992   9.099 -0.1124  0.3036 -0.0833
  535TP3     H113424   4.349   4.992   9.055 -0.2420  0.8757  0.1691
  535TP3     H213425   4.493   4.950   9.036 -0.8619 -1.3325  0.2929
  536TP3      O13426   2.644   2.463   7.785 -0.5171 -0.0388  0.8458
  536TP3     H113427   2.566   2.411   7.765 -1.2481  0.5837  2.0185
  536TP3     H213428   2.700   2.453   7.708 -1.3323 -1.2796  0.4032
  537TP3      O13429   4.082   0.356   0.087  0.0343  0.3757 -0.0263
  537TP3     H113430   4.142   0.421   0.050  0.2134 -0.5695 -1.4020
  537TP3     H213431   4.109   0.273   0.048 -0.2394 -0.5376  1.6647
  538TP3      O13432   0.758   4.879  10.087 -0.4651  1.0316 -0.2198
  538TP3     H113433   0.715   4.801  10.122 -0.7387  0.3552 -2.0054
  538TP3     H213434   0.689   4.945  10.083 -0.8807  0.5500 -1.2041
  539TP3      O13435   3.144   3.799   8.156  0.1694  0.2801 -0.8344
  539TP3     H113436   3.118   3.882   8.196 -1.2714 -1.3882  1.8992
  539TP3     H213437   3.229   3.779   8.195  0.2144  0.1690 -0.9867
  540TP3      O13438   3.175   5.117   7.076  0.1783  0.1043  0.1800
  540TP3     H113439   3.179   5.027   7.105 -0.9001 -0.1270 -0.3622
  540TP3     H213440   3.243   5.124   7.008  0.0332 -0.3866 -0.0132
  541TP3      O13441   4.165   4.411   8.027  0.4632  0.4844  0.2472
  541TP3     H113442   4.159   4.469   7.951 -0.1052 -0.5059 -0.4833
  541TP3     H213443   4.234   4.348   8.004  0.3093  0.1995  0.5615
  542TP3      O13444   0.035   4.978   8.957 -0.1653  0.2275  0.1424
  542TP3     H113445   0.005   5.008   9.043 -1.2690  0.8110 -0.4413
  542TP3     H213446  -0.025   4.906   8.935 -1.1242  1.3660 -1.0074
  543TP3      O13447   4.004   3.353   1.830  0.2338  0.1123 -0.2333
  543TP3     H113448   4.038   3.268   1.861  0.9188  0.5235  0.1612
  543TP3     H213449   3.946   3.382   1.900 -2.3849 -1.4251 -1.6876
  544TP3      O13450   4.093   5.147   9.842  0.2469 -0.4266  0.2919
  544TP3     H113451   4.082   5.195   9.760  2.0504 -1.0984 -0.3615
  544TP3     H213452   4.043   5.066   9.829 -2.3363  0.9777  1.1883
  545TP3      O13453   3.807   0.563   9.617  0.4298  0.4667  0.2367
  545TP3     H113454   3.758   0.488   9.651  0.8523 -0.9733 -2.2694
  545TP3     H213455   3.898   0.535   9.619  0.6971  1.3254  0.2970
  546TP3      O13456   0.485   4.976   0.653  0.0977 -0.5183  0.0658
  546TP3     H113457   0.403   5.010   0.689 -0.6049 -2.4760  0.3541
  546TP3     H213458   0.545   4.977   0.728 -0.7447 -2.5499  0.8088
  547TP3      O13459   5.126   1.888   8.348  0.0460 -0.3784  0.7771
  547TP3     H113460   5.065   1.824   8.384  1.4929 -2.2765 -0.0661
  547TP3     H213461   5.090   1.909   8.262  0.4609 -1.3627  0.3530
  548TP3      O13462   0.782   4.473   7.783  0.9399  0.1227  0.1231
  548TP3     H113463   0.690   4.446   7.783  0.4193  1.8048  1.5009
  548TP3     H213464   0.826   4.408   7.838  0.7875 -1.2493 -1.3200
  549TP3      O13465   0.238   4.362   9.181 -0.4351 -0.3345  0.0382
  549TP3     H113466   0.255   4.388   9.272 -3.0271  1.0698  0.1670
  549TP3     H213467   0.320   4.323   9.152  0.7846  0.1562  2.6532
  550TP3      O13468   3.291   4.551   9.072  0.5545 -0.8065  0.3468
  550TP3     H113469   3.229   4.533   9.143  0.7661 -2.4256  0.1304
  550TP3     H213470   3.322   4.465   9.044  1.1528 -0.1336 -1.1203
  551TP3      O13471   4.833   4.320   7.933  0.2048  0.4931 -0.1180
  551TP3     H113472   4.815   4.227   7.924 -2.0559  0.8343  0.5117
  551TP3     H213473   4.753   4.356   7.973  0.2617  3.0026 -2.1304
  552TP3      O13474   0.864   1.462   0.889  0.0023  0.4579 -0.0605
  552TP3     H113475   0.786   1.442   0.838  0.0699  2.6748 -1.0847
  552TP3     H213476   0.924   1.503   0.826  1.4766 -0.0279  1.0063
  553TP3      O13477   5.275   2.661   9.087  0.3688  0.1461 -0.0490
  553TP3     H113478   5.279   2.653   9.182 -0.0381  1.6889  0.1124
  553TP3     H213479   5.186   2.631   9.064 -0.3071  1.7973  0.3035
  554TP3      O13480   1.144   4.148   8.397  0.7967 -0.0428  0.1355
  554TP3     H113481   1.230   4.116   8.372  0.2332 -0.2753 -1.5638
  554TP3     H213482   1.093   4.148   8.316 -0.7420  0.2942  1.0649
  555TP3      O13483   1.170   1.088   7.513  0.4064  0.2137 -0.9216
  555TP3     H113484   1.183   1.018   7.578 -1.6487  0.8410  0.2089
  555TP3     H213485   1.191   1.169   7.561 -0.9536  0.6678 -1.0794
  556TP3      O13486   4.399   0.236   6.939  0.5136  0.0839 -0.7022
  556TP3     H113487   4.415   0.172   7.008  1.3293  0.1636 -0.8216
  556TP3     H213488   4.413   0.188   6.857  0.0930  0.1391 -0.8107
  557TP3      O13489   1.767   3.447   7.790  0.6352  0.2735  0.1812
  557TP3     H113490   1.750   3.392   7.714 -0.7569  0.0357  0.6393
  557TP3     H213491   1.860   3.438   7.807  0.5811 -1.2412 -0.2893
  558TP3      O13492   4.092   1.853   7.409 -0.2228  0.2001  0.4191
  558TP3     H113493   4.127   1.890   7.328  0.5190 -0.6553  0.3368
  558TP3     H213494   4.036   1.781   7.380  1.3028 -1.1333  0.7069
  559TP3      O13495   1.691   1.092  10.069  0.2698  0.4083  0.3343
  559TP3     H113496   1.617   1.053  10.021  0.1714 -1.0107  1.6072
  559TP3     H213497   1.666   1.183  10.080 -0.6671  0.2610 -0.4549
  560TP3      O13498   2.811   1.731   9.405  0.2493 -0.0308  0.2441
  560TP3     H113499   2.762   1.719   9.486 -0.9001  0.8619 -0.2959
  560TP3     H213500   2.806   1.646   9.362  0.6439 -0.4350  0.9931
  561TP3      O13501   1.646   0.253  10.006 -0.1160 -0.4518 -0.2904
  561TP3     H113502   1.709   0.303  10.058 -1.5142 -0.6042  1.6058
  561TP3     H213503   1.626   0.311   9.931  0.7865  0.4077  0.1202
  562TP3      O13504   0.152   0.712   7.284  0.2206  0.3748  0.1027
  562TP3     H113505   0.080   0.662   7.323  1.3380 -1.4609 -0.1404
  562TP3     H213506   0.153   0.684   7.193 -0.2174  2.1313 -0.4546
  563TP3      O13507   3.140   2.954   0.104  0.0246 -0.5708 -0.5567
  563TP3     H113508   3.138   2.885   0.170  0.9493  0.2421  0.3357
  563TP3     H213509   3.181   2.913   0.028 -0.9362 -1.4764 -0.6093
  564TP3      O13510   0.317   0.271   7.695 -0.3387 -0.0775  0.5927
  564TP3     H113511   0.247   0.254   7.759 -0.9524 -2.2888 -0.6138
  564TP3     H213512   0.398   0.252   7.743 -0.7651 -1.0520  0.9574
  565TP3      O13513   1.192   0.124   7.819  0.4649  0.1040  0.1057
  565TP3     H113514   1.270   0.147   7.871  2.1826  0.5696 -2.5659
  565TP3     H213515   1.153   0.208   7.795  0.3516 -0.0670 -0.3194
  566TP3      O13516   0.244   0.868   8.699 -0.6767 -0.0501 -0.0815
  566TP3     H113517   0.326   0.863   8.649 -0.6510 -1.5213  0.0696
  566TP3     H213518   0.186   0.806   8.654 -1.3303  0.1524  0.4843
  567TP3      O13519   3.603   1.702  10.089  0.2224 -0.5659 -0.5356
  567TP3     H113520   3.576   1.671  10.175  2.4950 -0.1366  0.3465
  567TP3     H213521   3.599   1.624  10.033 -1.7869 -0.7289 -0.2167
  568TP3      O13522   1.797   2.652   7.848  0.1824  0.0313 -0.0248
  568TP3     H113523   1.877   2.704   7.837  0.4575 -0.2941  0.4274
  568TP3     H213524   1.810   2.576   7.792 -0.5843  0.8518 -1.3546
  569TP3      O13525   2.198   0.487   0.552 -0.1398 -0.7476 -0.1483
  569TP3     H113526   2.137   0.551   0.516  0.9727 -0.7547 -2.0798
  569TP3     H213527   2.157   0.402   0.533  0.5498 -0.7616 -1.6486
  570TP3      O13528   2.370   4.362   1.229 -0.3300  0.4734  0.3209
  570TP3     H113529   2.438   4.296   1.233  0.2110  0.7549 -2.7167
  570TP3     H213530   2.296   4.318   1.186 -0.6752  1.2553  0.0974
  571TP3      O13531   3.427   5.125   6.923 -0.0006  0.2958  0.3318
  571TP3     H113532   3.462   5.050   6.972 -1.3155 -0.6235 -0.1005
  571TP3     H213533   3.484   5.132   6.846 -1.8189 -2.3959 -1.3641
  572TP3      O13534   3.051   4.393   7.275 -0.0047 -0.4742 -0.6181
  572TP3     H113535   2.971   4.356   7.310 -0.9565  0.7274 -1.4821
  572TP3     H213536   3.035   4.401   7.181  1.5534 -1.2841 -0.9769
  573TP3      O13537   3.796   0.344   7.199  0.0004  0.2129 -0.4243
  573TP3     H113538   3.712   0.344   7.153  0.0576 -0.1314 -0.5286
  573TP3     H213539   3.833   0.430   7.182 -0.1799  0.2442 -0.6545
  574TP3      O13540   4.136   5.090   6.969  0.4383  0.0717  0.0256
  574TP3     H113541   4.043   5.090   6.994 -0.4220  1.4014 -2.9870
  574TP3     H213542   4.147   5.008   6.920  0.4994  0.5772 -0.8121
  575TP3      O13543   3.842   1.735   0.583 -0.0239  0.1699 -0.9584
  575TP3     H113544   3.854   1.766   0.493  0.4630  0.3683 -0.8288
  575TP3     H213545   3.761   1.685   0.581 -1.4385  2.3764 -0.9375
  576TP3      O13546   3.381   1.275   7.114 -0.1552  0.2793  0.1615
  576TP3     H113547   3.398   1.322   7.196 -0.3603  0.3115  0.1882
  576TP3     H213548   3.286   1.261   7.115 -0.3750  1.5640 -0.7452
  577TP3      O13549   3.020   3.206   9.029 -0.1414 -0.2282  0.1942
  577TP3     H113550   2.979   3.184   9.112 -3.6571 -0.7043 -1.5418
  577TP3     H213551   2.984   3.291   9.006  0.0945 -0.4974 -1.2469
  578TP3      O13552   1.812   5.210   7.748  0.6340  0.1484 -0.0736
  578TP3     H113553   1.881   5.196   7.812  1.4093  0.9150 -0.7204
  578TP3     H213554   1.787   5.122   7.719 -0.1623 -0.2371  1.7159
  579TP3      O13555   4.460   0.622   9.182  0.0082 -0.4580 -0.0905
  579TP3     H113556   4.510   0.634   9.101  0.6390 -1.1512  0.1949
  579TP3     H213557   4.517   0.569   9.238 -0.2058  0.4692  1.0165
  580TP3      O13558   4.128   3.794  10.100 -0.1819 -0.0883  0.1630
  580TP3     H113559   4.101   3.873  10.053 -0.5734  1.0766  2.2492
  580TP3     H213560   4.220   3.781  10.075  0.1302  1.5144  0.4152
  581TP3      O13561   1.088   1.174   8.528 -0.2823  0.6059 -0.9383
  581TP3     H113562   1.098   1.258   8.573 -1.0227 -0.6931  1.7326
  581TP3     H213563   1.028   1.192   8.456 -1.4839  2.0834  0.4090
  582TP3      O13564   5.085   1.487   9.254 -0.0395  0.1679 -0.1204
  582TP3     H113565   5.037   1.502   9.335  0.6746  1.0520  0.1438
  582TP3     H213566   5.018   1.493   9.185 -0.7423 -1.1690  0.4403
  583TP3      O13567   3.669   1.291   8.604  0.4617 -0.5320  0.4439
  583TP3     H113568   3.734   1.297   8.674  0.8796 -2.2341  0.2186
  583TP3     H213569   3.591   1.332   8.641  1.4903  1.1023  0.8906
  584TP3      O13570   5.158   3.241   8.178 -0.3593  0.2030 -0.2243
  584TP3     H113571   5.089   3.282   8.230 -0.3970  1.0681 -0.9483
  584TP3     H213572   5.227   3.307   8.173  0.2934 -0.4394  0.0018
  585TP3      O13573   0.334   2.853  10.167 -0.3623  0.3919  0.2246
  585TP3     H113574   0.279   2.862  10.089  0.3877  3.1038 -0.0412
  585TP3     H213575   0.408   2.799  10.138 -0.2976  1.0393 -0.8388
  586TP3      O13576   3.062   0.687   9.553 -0.4347  0.0053  0.1974
  586TP3     H113577   3.016   0.762   9.590 -0.0662 -0.0616  0.7896
  586TP3     H213578   3.001   0.614   9.561 -0.4534  0.0471  0.4303
  587TP3      O13579   2.990   0.421   3.021  1.1505 -0.0184 -0.0717
  587TP3     H113580   3.082   0.398   3.029  1.0127 -1.9072 -3.0929
  587TP3     H213581   2.943   0.341   3.043  0.0975  1.4147  3.2258
  588TP3      O13582   3.029   5.061   8.118 -0.6824  0.1124 -0.5895
  588TP3     H113583   2.958   5.036   8.176 -1.3757  0.4340 -1.2832
  588TP3     H213584   3.026   5.157   8.115  0.1754  0.1644 -0.1388
  589TP3      O13585   0.185   3.709   7.349 -0.0769  0.4859 -0.3822
  589TP3     H113586   0.179   3.802   7.330  1.5415  0.5827 -0.5040
  589TP3     H213587   0.197   3.667   7.263  0.4900  0.3000 -0.2193
  590TP3      O13588   3.046   2.784   8.776  0.1128  0.4525 -0.3121
  590TP3     H113589   2.991   2.721   8.729 -1.2792  1.9641 -0.7607
  590TP3     H213590   3.126   2.788   8.724 -0.4396  0.2609 -1.2049
  591TP3      O13591   3.412   5.290  10.153  0.0781 -0.3255  0.2225
  591TP3     H113592   3.390   5.367  10.205  1.8844  0.6189 -0.3535
  591TP3     H213593   3.408   5.217  10.216  1.4333  0.6804  1.5208
  592TP3      O13594   4.052   4.971   1.241  0.2031  0.3503 -0.2363
  592TP3     H113595   3.998   4.919   1.301  1.7634 -0.1210  0.7801
  592TP3     H213596   3.988   5.022   1.191 -1.1734  0.1560  1.2606
  593TP3      O13597   2.011   1.288   8.263  0.4836 -0.2110  0.2086
  593TP3     H113598   2.047   1.375   8.246 -0.1274  0.2251  1.1297
  593TP3     H213599   2.067   1.251   8.331 -0.2823  0.1301  1.0277
  594TP3      O13600   0.277   4.775   8.227  0.0003  0.5005  0.0364
  594TP3     H113601   0.225   4.725   8.164  0.2818  0.3566 -0.0824
  594TP3     H213602   0.351   4.808   8.176  1.4519 -1.5073  0.7831
  595TP3      O13603   3.070   2.815   7.664 -0.4592 -0.1849  0.6271
  595TP3     H113604   3.158   2.844   7.685 -0.9426  2.5311 -0.9989
  595TP3     H213605   3.077   2.719   7.660  2.3466 -0.0122  0.6656
  596TP3      O13606   0.134   0.272   7.175 -0.2341 -0.0265  0.0971
  596TP3     H113607   0.113   0.187   7.138  1.4936 -0.8754  0.9823
  596TP3     H213608   0.184   0.317   7.106 -1.6013  0.4929 -0.5679
  597TP3      O13609   0.092   3.042   9.561 -0.2609  0.3388  0.2441
  597TP3     H113610   0.133   2.963   9.525  0.0595  1.1844 -1.2896
  597TP3     H213611   0.000   3.036   9.533  0.2178  1.5089 -1.6261
  598TP3      O13612   0.730   2.011   8.785  0.8139 -0.0688  0.0966
  598TP3     H113613   0.672   1.955   8.733 -0.2277  2.0489 -1.0931
  598TP3     H213614   0.693   2.008   8.873 -0.4556  0.3781 -0.4157
  599TP3      O13615   0.580   0.599   7.877 -0.1832  0.2720  0.6849
  599TP3     H113616   0.675   0.594   7.865 -0.1907 -0.1120  0.7667
  599TP3     H213617   0.567   0.674   7.934 -0.0029  0.9432 -0.1425
  600TP3      O13618   3.558   4.023   9.767 -0.1753  0.0264  0.2175
  600TP3     H113619   3.575   3.987   9.854 -0.3564  0.8681  0.6022
  600TP3     H213620   3.546   4.117   9.781 -0.4594  0.1332 -0.6797
  601TP3      O13621   4.275   4.391   7.318  0.1524 -0.5569  0.6935
  601TP3     H113622   4.360   4.356   7.345 -0.4295 -2.1262  0.5764
  601TP3     H213623   4.219   4.314   7.311 -1.0847  0.3800  0.0406
  602TP3      O13624   2.690   4.645   2.234  0.2770 -0.1930  0.5090
  602TP3     H113625   2.698   4.609   2.146  0.5675 -0.3239  0.5896
  602TP3     H213626   2.729   4.579   2.291  0.0136 -0.1470  0.7450
  603TP3      O13627   4.398   1.198   6.577  0.1000  0.4304 -0.5904
  603TP3     H113628   4.348   1.277   6.561 -0.5314  0.2424  0.4299
  603TP3     H213629   4.340   1.142   6.629 -0.0498 -1.3354 -2.5735
  604TP3      O13630   1.644   1.523   8.304  0.1267  0.2916 -0.4732
  604TP3     H113631   1.704   1.503   8.376  1.0065  0.2385 -1.2126
  604TP3     H213632   1.696   1.508   8.225 -0.5915  1.1355 -1.1077
  605TP3      O13633   2.798   4.623   8.767 -0.3290  0.3575  0.1714
  605TP3     H113634   2.820   4.715   8.754 -1.2321  0.6269  0.5443
  605TP3     H213635   2.761   4.620   8.856 -0.9906 -0.2373 -0.1243
  606TP3      O13636   4.199   1.540   8.656  0.2236 -0.2272 -0.3590
  606TP3     H113637   4.238   1.518   8.572  1.9224  0.3806  0.2517
  606TP3     H213638   4.182   1.634   8.651  0.1452 -0.2272 -0.1028
  607TP3      O13639   2.980   4.035   7.331  0.4558 -0.0876 -0.0061
  607TP3     H113640   2.937   4.112   7.368  0.3461 -0.1026 -0.1036
  607TP3     H213641   2.910   3.971   7.321 -0.3375  1.2343 -3.9292
  608TP3      O13642   1.051   2.158   9.232 -0.2675  0.4714  0.2945
  608TP3     H113643   1.096   2.157   9.148 -2.5584  0.1523 -0.9847
  608TP3     H213644   1.107   2.107   9.290  1.2947  0.6031 -1.0547
  609TP3      O13645   2.246   4.369   7.351  0.0691  0.4063 -0.6213
  609TP3     H113646   2.154   4.382   7.330  0.1321 -0.8166 -1.7252
  609TP3     H213647   2.247   4.347   7.444 -0.8774 -0.8371 -0.9079
  610TP3      O13648   4.826   3.137   8.650 -0.9528 -0.3766  0.6341
  610TP3     H113649   4.859   3.049   8.667 -0.0469 -0.6345 -2.1841
  610TP3     H213650   4.893   3.177   8.595 -0.1391  2.9939  3.8821
  611TP3      O13651   3.523   3.218   7.924 -0.0440  0.0294  0.7840
  611TP3     H113652   3.483   3.213   7.837 -1.6315  0.2553  1.4909
  611TP3     H213653   3.593   3.152   7.922  1.6174  1.7933 -1.5107
  612TP3      O13654   4.610   5.258   9.951 -0.1356 -0.3027  0.0058
  612TP3     H113655   4.520   5.262   9.917  0.3902  1.7743 -1.2038
  612TP3     H213656   4.645   5.176   9.915 -1.5531 -1.1806  0.5597
  613TP3      O13657   2.558   0.699   0.724 -0.1906  0.4653  0.3926
  613TP3     H113658   2.642   0.732   0.692  0.6585 -2.7619 -0.8142
  613TP3     H213659   2.501   0.701   0.646 -0.0720 -1.0667  0.2584
  614TP3      O13660   2.333   2.984   6.765  0.5041  0.0770 -0.1602
  614TP3     H113661   2.380   3.057   6.725 -2.1698  1.3548 -1.1133
  614TP3     H213662   2.332   2.916   6.697  2.5121 -0.6896  0.5295
  615TP3      O13663   3.282   1.641   9.821  0.1465  0.1334 -0.1715
  615TP3     H113664   3.268   1.606   9.909  0.8282 -2.2531 -0.9700
  615TP3     H213665   3.212   1.705   9.810  0.4822  0.9944  2.3555
  616TP3      O13666   3.460   3.479   9.061  0.7204  0.2821  0.4854
  616TP3     H113667   3.458   3.575   9.060  1.4991  0.3286  1.7716
  616TP3     H213668   3.533   3.456   9.004 -1.0163  0.3558 -1.8299
  617TP3      O13669   3.570   0.054   7.261 -0.1046 -0.3132  0.3167
  617TP3     H113670   3.540   0.112   7.192 -0.5258  0.4719  1.1521
  617TP3     H213671   3.664   0.071   7.268 -0.2045  0.1732  0.4722
  618TP3      O13672   4.681   2.817   8.743  0.4255  0.8509 -0.0051
  618TP3     H113673   4.704   2.830   8.651  1.9425  0.7010  0.3401
  618TP3     H213674   4.737   2.744   8.772 -0.5527  0.4207  0.8450
  619TP3      O13675   3.654   3.816   7.502 -0.4904 -0.3366  0.0494
  619TP3     H113676   3.637   3.768   7.421 -1.5693  1.7299 -0.9774
  619TP3     H213677   3.581   3.877   7.510 -0.0004  0.0285  2.1835
  620TP3      O13678   0.069   1.911   8.747  0.0051 -0.0777  0.4135
  620TP3     H113679   0.105   1.993   8.781  0.2245  0.0273 -0.0604
  620TP3     H213680   0.022   1.936   8.668  1.8576 -0.6685 -0.9163
  621TP3      O13681   2.378   0.535   8.273  0.4368  0.0223 -0.1104
  621TP3     H113682   2.368   0.442   8.294  1.4484 -0.0372  0.1106
  621TP3     H213683   2.367   0.538   8.178  2.6301 -0.6420 -0.4097
  622TP3      O13684   1.706   1.411   0.450 -0.0177 -0.2933  0.0466
  622TP3     H113685   1.700   1.395   0.545 -1.0144 -0.2307  0.0033
  622TP3     H213686   1.617   1.439   0.426  0.3983  0.3206 -0.7886
  623TP3      O13687   5.157   4.306   8.542 -0.6406 -0.7021 -0.7150
  623TP3     H113688   5.227   4.245   8.566 -1.1040 -1.6335 -1.6458
  623TP3     H213689   5.101   4.255   8.483 -1.7147  0.2504 -0.5340
  624TP3      O13690   2.878   2.281   8.576  0.4056 -0.1637  0.2708
  624TP3     H113691   2.842   2.367   8.552  0.3767  0.2676  1.8461
  624TP3     H213692   2.936   2.259   8.502 -0.3670  0.7343 -0.6249
  625TP3      O13693   2.060   4.161   8.292  0.2756 -0.2414  0.3880
  625TP3     H113694   1.991   4.105   8.327 -0.0262 -0.8965 -1.2069
  625TP3     H213695   2.075   4.128   8.203  1.9015  0.5664  0.3461
  626TP3      O13696   0.996   2.418   6.599 -0.2255  0.1649 -0.0680
  626TP3     H113697   0.904   2.439   6.583  0.5331  3.5644 -0.4103
  626TP3     H213698   1.010   2.441   6.691  0.4589  0.3872 -0.2233
  627TP3      O13699   4.364   2.529   8.302  0.6494  0.8412 -0.1931
  627TP3     H113700   4.436   2.503   8.360  1.8995 -2.6800 -3.1559
  627TP3     H213701   4.408   2.569   8.227 -0.4990 -0.6650 -1.6903
  628TP3      O13702   1.049   2.638   7.204  0.0072 -0.2405  0.0846
  628TP3     H113703   1.128   2.605   7.161  0.4719  0.5486  0.3100
  628TP3     H213704   1.077   2.722   7.242 -0.0191 -1.5411  3.0574
  629TP3      O13705   3.366   2.414   9.648  0.0868  0.2060 -0.2136
  629TP3     H113706   3.461   2.409   9.649  0.1532  1.2863 -0.1863
  629TP3     H213707   3.338   2.332   9.608  0.9261 -1.2356  2.0493
  630TP3      O13708   4.630   0.368   9.181  0.4972  0.6624  0.0003
  630TP3     H113709   4.710   0.323   9.154  0.5320  2.0760 -2.4082
  630TP3     H213710   4.559   0.308   9.156  0.7558 -0.4024  1.7456
  631TP3      O13711   0.429   3.274   0.381  0.2437  0.4057 -0.4161
  631TP3     H113712   0.395   3.360   0.409 -0.7514 -0.0070 -0.3335
  631TP3     H213713   0.356   3.234   0.334  0.0959 -1.1150  1.0547
  632TP3      O13714   1.435   5.185   9.584 -0.0028 -0.5274 -0.2518
  632TP3     H113715   1.369   5.115   9.579 -0.8959  0.1592  1.4968
  632TP3     H213716   1.518   5.139   9.596 -0.6011 -1.3137  1.0502
  633TP3      O13717   0.704   2.656   6.409 -0.3927  0.1846  0.3929
  633TP3     H113718   0.732   2.717   6.478 -0.4509 -0.5403  1.0564
  633TP3     H213719   0.723   2.569   6.444  1.6491 -0.1417 -1.4121
  634TP3      O13720   1.384   4.109   8.281  0.3262 -0.3228 -0.4940
  634TP3     H113721   1.421   4.122   8.193  2.6497 -1.0922  0.3132
  634TP3     H213722   1.394   4.015   8.297  0.1615 -0.1360  0.6972
  635TP3      O13723   2.199   3.963   7.582  0.5492  0.6311  0.1731
  635TP3     H113724   2.278   3.951   7.529 -0.0377 -0.6887 -0.4289
  635TP3     H213725   2.202   4.055   7.608  1.4667  1.0088 -1.1716
  636TP3      O13726   1.295   4.413   8.329  0.0910 -0.5631 -0.4343
  636TP3     H113727   1.313   4.323   8.302 -2.5339 -0.8247 -1.4733
  636TP3     H213728   1.287   4.462   8.248  0.4716  0.3852  0.0960
  637TP3      O13729   2.137   0.950  10.035  0.2812 -0.2834  0.0407
  637TP3     H113730   2.172   0.908  10.113  0.3637 -0.9473 -0.3497
  637TP3     H213731   2.128   0.879   9.971 -2.9539 -0.3305  0.5111
  638TP3      O13732   5.298   2.446   7.904  0.0983  0.5257 -0.2646
  638TP3     H113733   5.222   2.398   7.937  0.8176 -0.2829  0.2374
  638TP3     H213734   5.321   2.401   7.822 -0.4769  1.2993 -0.8586
  639TP3      O13735   2.026   1.916   0.220 -0.4206 -0.0544 -0.0935
  639TP3     H113736   2.104   1.960   0.188 -1.0213  1.8404  0.9526
  639TP3     H213737   2.059   1.836   0.261  0.7051 -0.5236 -1.8780
  640TP3      O13738   0.438   4.834   7.637 -0.4515 -0.2104  0.6525
  640TP3     H113739   0.385   4.914   7.642  0.4432  0.4526 -0.2004
  640TP3     H213740   0.410   4.782   7.712 -1.6975  0.5012  0.6998
  641TP3      O13741   3.294   3.597   8.818  0.2434  0.9355  0.1370
  641TP3     H113742   3.276   3.549   8.738 -1.4987  1.4879  0.1752
  641TP3     H213743   3.350   3.538   8.869 -0.1346 -0.1721 -0.7018
  642TP3      O13744   0.443   1.976   7.680  0.1936 -0.0560 -0.4438
  642TP3     H113745   0.519   2.014   7.724 -0.0549  0.1426 -0.1806
  642TP3     H213746   0.467   1.974   7.587  0.3576  0.3979 -0.4134
  643TP3      O13747   4.880   1.265   9.869 -0.0405  0.4440 -0.1634
  643TP3     H113748   4.859   1.175   9.843 -0.3899  0.5136 -0.1212
  643TP3     H213749   4.806   1.293   9.923 -0.3261  1.0461 -0.8590
  644TP3      O13750   4.333   4.111   9.081  0.2893  0.2109 -0.5774
  644TP3     H113751   4.348   4.175   9.151  2.4982  1.7452 -2.3804
  644TP3     H213752   4.267   4.152   9.025 -1.4367 -0.9954  0.4944
  645TP3      O13753   2.986   2.933   8.128  0.4723 -0.1921  0.1425
  645TP3     H113754   2.894   2.929   8.154  0.5612 -0.0908  0.4671
  645TP3     H213755   2.983   2.928   8.032  0.0773  0.7224  0.1000
  646TP3      O13756   1.172   3.198   7.907 -0.3168 -0.8993 -0.0285
  646TP3     H113757   1.170   3.153   7.992 -0.0389 -1.5157 -0.3524
  646TP3     H213758   1.185   3.129   7.843  2.1262 -0.1630 -0.3812
  647TP3      O13759   2.439   2.587   1.197  0.0562 -0.0343 -0.2385
  647TP3     H113760   2.465   2.630   1.116 -0.7359  1.6703  0.4009
  647TP3     H213761   2.344   2.591   1.198  0.0011 -1.2223  0.1506
  648TP3      O13762   1.422   1.143   6.812  0.1153  0.2466 -0.0537
  648TP3     H113763   1.358   1.187   6.756 -0.0254  1.0605  0.7258
  648TP3     H213764   1.371   1.083   6.866 -0.2999  2.3824  2.0185
  649TP3      O13765   0.861   1.454   6.940 -0.1389 -0.3855 -0.0791
  649TP3     H113766   0.939   1.472   6.992  0.2240 -0.9765 -0.4211
  649TP3     H213767   0.833   1.367   6.966  0.8965 -1.2996 -1.9282
  650TP3      O13768   2.886   0.439   7.388 -0.5987  0.0799 -0.0570
  650TP3     H113769   2.881   0.513   7.327 -0.7994 -0.2781 -0.4760
  650TP3     H213770   2.850   0.473   7.470 -0.5492  0.4913 -0.2061
  651TP3      O13771   4.829   0.227   9.064 -0.1825 -0.3779 -0.1145
  651TP3     H113772   4.906   0.178   9.089 -0.6914 -0.7668  0.7077
  651TP3     H213773   4.787   0.173   8.997  0.0088 -0.3919 -0.2228
  652TP3      O13774   0.855   3.626   7.598  0.4416  0.7071 -0.5759
  652TP3     H113775   0.819   3.599   7.683  0.0298 -1.4475 -1.4136
  652TP3     H213776   0.864   3.722   7.605  0.7041  0.5178  1.9886
  653TP3      O13777   4.820   3.900   2.193 -0.9611 -0.4983 -0.3064
  653TP3     H113778   4.872   3.883   2.272 -1.8514 -0.8725  0.2044
  653TP3     H213779   4.734   3.924   2.226 -2.5352 -4.5939 -1.1977
  654TP3      O13780   1.537   0.478   7.644  0.2569 -0.1815  0.3621
  654TP3     H113781   1.631   0.491   7.654  0.3046 -1.4839  1.9482
  654TP3     H213782   1.527   0.449   7.553  1.6894 -2.2505  0.8116
  655TP3      O13783   0.693   3.038   9.712  0.5743 -0.0485  0.2130
  655TP3     H113784   0.761   3.034   9.645  0.6795  0.1471  0.3051
  655TP3     H213785   0.612   3.018   9.666  0.3875  1.8985 -0.3446
  656TP3      O13786   1.028   3.266   7.074 -0.4179 -0.1445  0.2227
  656TP3     H113787   1.031   3.358   7.097  0.9080  0.1704 -1.1609
  656TP3     H213788   0.945   3.235   7.111 -1.6192  1.9464 -0.6070
  657TP3      O13789   4.669   3.808   8.242  0.0566  0.3225 -0.0828
  657TP3     H113790   4.736   3.867   8.209 -0.4490 -0.4252 -2.5806
  657TP3     H213791   4.677   3.812   8.337  2.1031  1.9781 -0.3096
  658TP3      O13792   4.546   3.051   8.860 -0.1335  0.4875 -0.6060
  658TP3     H113793   4.577   2.984   8.800  0.4270 -0.6877  0.9633
  658TP3     H213794   4.464   3.016   8.895 -0.0579  0.8026 -0.1028
  659TP3      O13795   5.210   2.653   8.559 -0.8115  0.4307 -0.0509
  659TP3     H113796   5.294   2.612   8.538 -1.4486 -0.8125 -0.2574
  659TP3     H213797   5.224   2.746   8.545  0.8695  0.3636  1.0066
  660TP3      O13798   4.728   4.580   9.889 -0.1107 -0.2316  0.2677
  660TP3     H113799   4.806   4.608   9.841 -0.1046 -0.5327  0.1016
  660TP3     H213800   4.664   4.560   9.821  0.2635 -1.7425  0.3448
  661TP3      O13801   1.230   4.174   7.556  0.3196  0.3073 -0.2437
  661TP3     H113802   1.168   4.247   7.551  0.3458  0.2701 -1.4442
  661TP3     H213803   1.316   4.216   7.553  0.3504  0.1878 -2.6730
  662TP3      O13804   1.631   2.820   6.857 -0.1833  0.5651 -0.5250
  662TP3     H113805   1.626   2.729   6.886 -0.0015  0.9587  0.7763
  662TP3     H213806   1.659   2.815   6.765  2.2711 -0.6101  0.2619
  663TP3      O13807   2.910   5.176   2.916  0.1249 -0.3456  0.0796
  663TP3     H113808   2.850   5.251   2.916  0.4174 -0.1172 -0.4297
  663TP3     H213809   2.864   5.110   2.968  0.4235  0.6331  1.6394
  664TP3      O13810   1.409   1.433   7.863 -0.2476 -0.0199 -0.2235
  664TP3     H113811   1.504   1.422   7.853 -0.2237 -1.8899  1.6970
  664TP3     H213812   1.387   1.381   7.940 -2.7970  0.6915 -0.4310
  665TP3      O13813   0.807   3.467   8.972  0.0340  1.0017 -0.0335
  665TP3     H113814   0.831   3.553   8.938 -0.7367  0.6871 -1.4074
  665TP3     H213815   0.804   3.479   9.067 -0.2176  2.5435 -0.2215
  666TP3      O13816   2.748   3.990   8.236 -0.8020  0.2807 -0.0706
  666TP3     H113817   2.759   3.995   8.141  0.7372 -0.1139  0.0679
  666TP3     H213818   2.835   4.011   8.271 -1.7038  1.8587  1.2970
  667TP3      O13819   1.088   4.720   8.332  0.4004  0.2806  0.1126
  667TP3     H113820   1.131   4.672   8.262  1.4721  2.0341 -0.4487
  667TP3     H213821   1.021   4.772   8.288  0.2580  0.4669  0.5482
  668TP3      O13822   1.583   1.834   7.096 -0.7224  0.2649 -0.0553
  668TP3     H113823   1.508   1.789   7.056  1.0683 -0.9940 -2.0999
  668TP3     H213824   1.614   1.772   7.162  0.7808 -0.9163 -1.8023
  669TP3      O13825   3.568   4.230   7.888 -0.1318 -0.2317  0.1382
  669TP3     H113826   3.575   4.323   7.906 -2.6792  0.1591 -0.7528
  669TP3     H213827   3.644   4.210   7.833  1.6170  0.8265  2.1113
  670TP3      O13828   3.051   1.827   8.725 -0.6936 -0.3660  0.0585
  670TP3     H113829   3.037   1.899   8.664 -0.3993 -0.7436 -0.4608
  670TP3     H213830   3.020   1.750   8.678 -1.1382 -0.5613  0.6675
  671TP3      O13831   3.774   0.251   7.580  0.4268  0.6117 -0.0549
  671TP3     H113832   3.833   0.285   7.512  2.0614  1.1509  1.6030
  671TP3     H213833   3.719   0.325   7.603  1.6346  1.1690  1.0640
  672TP3      O13834   3.272   4.207   8.908  0.0582 -0.0664 -0.5568
  672TP3     H113835   3.303   4.123   8.872  1.0294 -0.9186  2.1908
  672TP3     H213836   3.316   4.215   8.992 -1.1563  2.5419 -0.1342
  673TP3      O13837   0.089   2.202   0.332  0.1614  0.1284 -0.5502
  673TP3     H113838   0.094   2.279   0.276  2.3803 -0.3925 -1.1146
  673TP3     H213839   0.093   2.128   0.272  0.9619 -0.4332  0.1896
  674TP3      O13840   1.507   2.124   7.110 -0.6713 -0.7656  0.3040
  674TP3     H113841   1.552   2.117   7.026  0.3518 -0.6053  0.8261
  674TP3     H213842   1.499   2.033   7.140 -0.1332 -0.7510  0.4968
  675TP3      O13843   0.141   4.632   9.083 -0.3843  0.6033  0.2720
  675TP3     H113844   0.180   4.548   9.107  0.1628  1.2554  1.7455
  675TP3     H213845   0.093   4.614   9.002  0.3414 -0.9485  0.1657
  676TP3      O13846   1.235   1.620   7.981  0.0747 -0.1033 -0.0157
  676TP3     H113847   1.306   1.578   7.933 -1.0874 -0.4155 -1.4974
  676TP3     H213848   1.276   1.650   8.062  2.4314  1.6939 -1.7898
  677TP3      O13849   3.893   4.712   2.171 -0.2979  0.3162 -0.3045
  677TP3     H113850   3.908   4.619   2.154  0.2469  0.4191 -0.4016
  677TP3     H213851   3.894   4.719   2.267 -2.0318 -0.0449 -0.2510
  678TP3      O13852   0.465   2.828   0.669  0.3876 -0.1948  0.1012
  678TP3     H113853   0.381   2.782   0.667  1.1298 -1.5208 -2.7406
  678TP3     H213854   0.460   2.883   0.747 -3.0195 -0.4176  0.1089
  679TP3      O13855   0.473   1.922   7.419  0.0993 -0.5723  0.6381
  679TP3     H113856   0.408   1.852   7.417 -0.5286  0.0200 -0.1466
  679TP3     H213857   0.548   1.887   7.372  0.5429 -1.4303  1.9461
  680TP3      O13858   0.291   5.023   0.843  0.6033  0.2307 -0.6093
  680TP3     H113859   0.323   5.093   0.901  0.2767  2.1530 -2.6793
  680TP3     H213860   0.211   4.992   0.887  0.5797  1.3665  0.1968
  681TP3      O13861   5.046   1.354   9.688  0.0364  0.6577 -0.5789
  681TP3     H113862   4.988   1.307   9.748  1.6166  1.3957  1.6158
  681TP3     H213863   4.988   1.387   9.619 -1.6387 -1.3012 -0.1672
  682TP3      O13864   4.137   2.191   7.981 -0.6810 -0.4311  0.2525
  682TP3     H113865   4.173   2.176   8.069 -0.2446 -0.5539  0.0552
  682TP3     H213866   4.177   2.123   7.927 -0.5803 -0.0576 -0.1466
  683TP3      O13867   2.714   0.896   8.404  0.1156 -0.2423 -0.1640
  683TP3     H113868   2.795   0.943   8.382 -0.2764  0.5225 -0.0077
  683TP3     H213869   2.658   0.908   8.327 -0.1957  0.0190  0.1027
  684TP3      O13870   2.355   1.435   7.628  0.2986  0.4468 -0.2516
  684TP3     H113871   2.355   1.514   7.681  1.4339 -0.1714  0.6840
  684TP3     H213872   2.398   1.460   7.546 -1.0977  1.2945 -0.7451
  685TP3      O13873   2.848   5.033   8.302  0.2342  0.3585 -0.3816
  685TP3     H113874   2.826   5.080   8.383  1.5075  0.3373 -0.0011
  685TP3     H213875   2.789   4.958   8.301  0.4912  0.1260  0.7534
  686TP3      O13876   1.446   3.434   1.755 -0.0108 -0.2814  0.1076
  686TP3     H113877   1.371   3.405   1.703 -0.5783  0.0691  0.7309
  686TP3     H213878   1.518   3.439   1.692 -0.6583  0.0018 -0.6131
  687TP3      O13879   1.217   1.080  10.026  0.0238  0.6566 -0.0095
  687TP3     H113880   1.127   1.056  10.049  0.4638 -1.3197 -0.2205
  687TP3     H213881   1.223   1.173  10.047 -2.5633  1.2167 -1.5637
  688TP3      O13882   5.206   3.667   7.897  0.0228 -0.3732  0.0259
  688TP3     H113883   5.275   3.733   7.912 -0.4742  0.2749 -0.4937
  688TP3     H213884   5.254   3.588   7.872  0.5290  0.5538 -2.0770
  689TP3      O13885   0.766   4.898   8.472 -0.2138 -0.4422 -0.1637
  689TP3     H113886   0.687   4.937   8.510 -2.0039 -1.5504 -2.5935
  689TP3     H213887   0.791   4.830   8.534  0.5982  1.8603  2.1091
  690TP3      O13888   1.387   2.969   7.807  0.0077 -0.0940  0.5470
  690TP3     H113889   1.430   3.040   7.759 -1.4455  2.0443  2.3247
  690TP3     H213890   1.459   2.916   7.842  1.1203  0.8585 -0.2868
  691TP3      O13891   0.906   2.811   1.420 -0.2030 -0.1358 -0.8681
  691TP3     H113892   0.973   2.799   1.353  0.7123  1.2912 -0.2368
  691TP3     H213893   0.832   2.758   1.390  1.3902 -2.2024 -1.2842
  692TP3      O13894   2.494   2.969   6.990 -0.3313 -0.1048 -0.4002
  692TP3     H113895   2.463   2.981   6.900 -0.9782  1.3463  0.0025
  692TP3     H213896   2.585   2.997   6.988 -0.3814  0.0463 -0.5827
  693TP3      O13897   0.222   3.626   8.424  0.5164  0.0512  0.0313
  693TP3     H113898   0.209   3.711   8.383  1.2196 -0.0870 -0.4853
  693TP3     H213899   0.259   3.646   8.510 -0.7710  0.3301  0.5418
  694TP3      O13900   2.771   3.808   7.317 -0.0058 -0.3580  0.0844
  694TP3     H113901   2.726   3.729   7.285  0.4812 -0.5816 -0.0624
  694TP3     H213902   2.847   3.774   7.365 -0.1720  0.0049  0.6054
  695TP3      O13903   3.303   1.683   8.127  0.5680  0.6879  0.3114
  695TP3     H113904   3.387   1.701   8.168  0.8656  0.9450 -0.4054
  695TP3     H213905   3.315   1.598   8.084  0.6156  0.9499 -0.1969
  696TP3      O13906   0.783   2.045   8.310  0.1830  0.2962  0.0579
  696TP3     H113907   0.791   1.995   8.229 -1.0606 -1.3377  0.9125
  696TP3     H213908   0.766   1.979   8.377 -0.7262  1.8024  1.3437
  697TP3      O13909   3.781   1.797   8.144  0.0813 -0.1181  0.0351
  697TP3     H113910   3.805   1.708   8.169 -2.0981 -0.5883  0.5376
  697TP3     H213911   3.856   1.851   8.171  0.0022 -1.3367  2.8301
  698TP3      O13912   2.310   4.721   8.972  0.2341  0.3714  0.2029
  698TP3     H113913   2.367   4.676   8.909 -0.5096  0.2739 -0.4083
  698TP3     H213914   2.277   4.652   9.028 -0.5724  0.2130 -0.4694
  699TP3      O13915   0.414   2.018   8.867  0.2992 -0.4335  0.0061
  699TP3     H113916   0.441   1.967   8.790  1.3058  1.6264 -1.0769
  699TP3     H213917   0.388   2.103   8.831 -0.5064  0.1178  1.8312
  700TP3      O13918   1.939   3.296   6.774 -0.1071 -0.0663 -0.2990
  700TP3     H113919   1.955   3.357   6.846 -1.1634 -0.5371  0.3589
  700TP3     H213920   1.961   3.345   6.695  0.4261  0.6831  0.3026
  701TP3      O13921   5.045   2.919   6.984  0.3803  0.3862  0.0204
  701TP3     H113922   5.081   2.838   7.020 -1.6482 -0.4966  0.1286
  701TP3     H213923   4.953   2.899   6.966 -0.2606  2.7619  0.3940
  702TP3      O13924   2.129   4.161   8.692 -0.0263 -0.0719 -0.1744
  702TP3     H113925   2.223   4.148   8.678 -0.3746 -2.5603 -0.3294
  702TP3     H213926   2.120   4.256   8.707  2.3575  0.3374 -1.1590
  703TP3      O13927   4.424   0.182   8.903  0.0005  0.7966 -0.6223
  703TP3     H113928   4.478   0.169   8.981  2.1317  0.3580 -2.1276
  703TP3     H213929   4.446   0.270   8.873 -0.4101  0.7560 -1.0505
  704TP3      O13930   0.989   2.677   6.815 -0.1032  0.5098 -0.2085
  704TP3     H113931   0.974   2.759   6.768 -0.5985  1.8826  2.2914
  704TP3     H213932   1.076   2.686   6.853  0.4712 -0.7682 -1.1762
  705TP3      O13933   1.645   1.679   7.347 -0.3667 -0.4743  1.0237
  705TP3     H113934   1.621   1.586   7.343 -1.2159 -0.2607  0.9509
  705TP3     H213935   1.587   1.715   7.414  0.2218 -0.0722  1.3128
  706TP3      O13936   2.529   2.700   7.447  0.0645 -0.7698  0.5496
  706TP3     H113937   2.580   2.621   7.464 -2.5199 -2.3837  0.9760
  706TP3     H213938   2.540   2.715   7.353  2.8693  0.0572  0.9522
  707TP3      O13939   1.263   3.553   9.283 -0.0429  0.4563 -0.0854
  707TP3     H113940   1.179   3.516   9.256  0.6922 -1.0606 -0.3639
  707TP3     H213941   1.258   3.557   9.379 -0.0662 -0.5428 -0.0413
  708TP3      O13942   1.301   0.851   9.461 -0.0711  0.7796  0.1024
  708TP3     H113943   1.393   0.833   9.479 -0.3374 -1.7119 -0.8301
  708TP3     H213944   1.294   0.852   9.366 -1.2369 -0.4348  0.1531
  709TP3      O13945   5.247   2.886   7.965 -0.0438 -0.0997 -0.2302
  709TP3     H113946   5.296   2.910   7.887 -0.5001  0.1466 -0.4437
  709TP3     H213947   5.168   2.843   7.932 -0.6563  0.7733  0.0570
  710TP3      O13948   4.707   0.029   8.858  0.0033  0.1937 -0.0736
  710TP3     H113949   4.748  -0.057   8.857 -1.3339 -0.4687 -0.4092
  710TP3     H213950   4.613   0.010   8.869 -0.0620  1.7070  2.1126
  711TP3      O13951   0.743   3.184   9.924 -0.4585  0.2299  0.2423
  711TP3     H113952   0.685   3.259   9.927  0.8428  1.3125 -1.3075
  711TP3     H213953   0.728   3.145   9.838 -0.0537 -0.4423  0.4703
  712TP3      O13954   0.462   1.432   1.208  0.2688  0.3421  0.2947
  712TP3     H113955   0.424   1.491   1.273 -0.2518 -0.6793  0.9284
  712TP3     H213956   0.547   1.407   1.245  0.6203  0.9046 -0.1108
  713TP3      O13957   2.692   0.793   2.391  0.0061  0.5272  0.2183
  713TP3     H113958   2.719   0.776   2.481  1.0869  0.4594 -0.1211
  713TP3     H213959   2.679   0.706   2.353 -1.3927  0.5611  0.5832
  714TP3      O13960   3.307   3.062   7.130 -0.1126 -0.6275 -0.2130
  714TP3     H113961   3.224   3.099   7.101 -0.0335 -0.7214 -0.5623
  714TP3     H213962   3.284   2.977   7.168 -0.4014  0.1466  1.3790
  715TP3      O13963   2.569   2.180   8.646 -0.2424  0.2428 -0.4521
  715TP3     H113964   2.572   2.246   8.714 -3.1206  0.3677 -0.4112
  715TP3     H213965   2.630   2.112   8.676 -1.3356  0.3724  2.1345
  716TP3      O13966   3.540   3.898  10.020 -0.3495 -0.1591 -0.2344
  716TP3     H113967   3.457   3.851  10.010 -1.1255  0.9968  0.7731
  716TP3     H213968   3.595   3.839  10.070 -0.6261 -0.8478 -0.7335
  717TP3      O13969   4.061   3.106   7.986  0.2443  0.0684 -0.1395
  717TP3     H113970   4.103   3.189   8.006 -0.4156  0.3890 -0.0645
  717TP3     H213971   3.979   3.108   8.036 -1.1334  0.6067 -2.3742
  718TP3      O13972   4.242   5.272   7.146  0.3879  0.1800 -0.0276
  718TP3     H113973   4.325   5.315   7.125  0.8267 -0.7024 -0.1434
  718TP3     H213974   4.212   5.236   7.063  0.2793 -0.1684  0.1611
  719TP3      O13975   3.880   2.034   7.910 -0.2856 -0.7626 -0.5165
  719TP3     H113976   3.902   2.057   8.000 -2.3964  3.9533 -1.0423
  719TP3     H213977   3.827   1.955   7.917 -0.4487 -0.4302  2.3953
  720TP3      O13978   4.206   0.290   9.969  0.3752 -0.0855  0.2121
  720TP3     H113979   4.234   0.225  10.034  0.5057  0.6207  0.8738
  720TP3     H213980   4.277   0.355   9.969  0.6782 -0.4106 -1.1043
  721TP3      O13981   1.785   2.923   7.596 -0.3710  0.1195  0.2207
  721TP3     H113982   1.808   2.994   7.537  0.5077  0.8774  1.4594
  721TP3     H213983   1.744   2.966   7.671 -2.8075 -0.9398 -0.4444
  722TP3      O13984   2.783   1.445   9.730  0.3633  0.2759 -0.0358
  722TP3     H113985   2.869   1.427   9.692 -0.1475 -0.8074 -0.6943
  722TP3     H213986   2.766   1.371   9.788  0.2187  0.8810  0.6998
  723TP3      O13987   1.394   4.779   9.044 -0.4276 -0.2500  0.0543
  723TP3     H113988   1.303   4.752   9.045 -0.0694 -1.5001  0.2308
  723TP3     H213989   1.434   4.725   8.975  0.5040 -0.8739  1.0540
  724TP3      O13990   3.412   2.445   8.392  0.0321 -0.1306  0.6431
  724TP3     H113991   3.463   2.427   8.471  2.2748 -1.5329 -1.0740
  724TP3     H213992   3.460   2.515   8.348 -1.0729  0.4747  0.3826
  725TP3      O13993   3.759   3.858   1.720  0.6970 -0.4137 -0.0864
  725TP3     H113994   3.770   3.788   1.785 -2.0248 -1.5235 -0.7807
  725TP3     H213995   3.813   3.831   1.646  0.0663 -1.5187 -0.1453
  726TP3      O13996   5.204   4.612   8.201 -0.1465 -0.1502 -0.3256
  726TP3     H113997   5.128   4.670   8.197 -0.8836 -1.0896 -0.0490
  726TP3     H213998   5.173   4.530   8.163  0.4875 -0.8003  0.5662
  727TP3      O13999   1.571   2.394   6.752  0.1353 -0.1607 -0.0284
  727TP3     H114000   1.531   2.459   6.809 -2.9785 -2.4050  0.4705
  727TP3     H214001   1.618   2.336   6.811  1.0069  0.2931 -0.2611
  728TP3      O14002   0.027   4.360   2.226 -0.3881  0.2772  0.0530
  728TP3     H114003   0.079   4.285   2.197 -0.7623 -0.0156  0.1317
  728TP3     H214004  -0.002   4.336   2.314 -0.0750  0.7395  0.2838
  729TP3      O14005   0.758   0.972   8.588  0.3895 -0.7116 -1.1718
  729TP3     H114006   0.790   0.998   8.501  1.0081 -0.1385 -0.7837
  729TP3     H214007   0.838   0.962   8.640 -0.0781  1.9887  0.1708
  730TP3      O14008   3.368   4.359   7.552 -0.4832  0.1662 -0.0268
  730TP3     H114009   3.325   4.400   7.627 -0.8516 -0.9043  0.3577
  730TP3     H214010   3.303   4.297   7.518 -0.4162  0.8124 -1.3901
  731TP3      O14011   0.920   5.303   8.599 -0.4893  0.3897 -0.3930
  731TP3     H114012   0.974   5.321   8.676 -0.0793  0.4400 -0.6879
  731TP3     H214013   0.961   5.228   8.558 -1.6888 -0.6888  0.3491
  732TP3      O14014   1.650   3.969   1.890  0.0895 -0.1740 -0.5032
  732TP3     H114015   1.709   3.899   1.918  0.3371 -0.5252 -1.8769
  732TP3     H214016   1.586   3.976   1.961  0.6939 -1.0564  0.1391
  733TP3      O14017   0.852   0.604   1.976  0.1202 -0.5151  0.2361
  733TP3     H114018   0.853   0.637   2.065  1.6389  1.6979 -0.5475
  733TP3     H214019   0.886   0.514   1.983  1.5212  0.1034  1.7380
  734TP3      O14020   2.265   1.299  10.030  0.0059  0.1545  0.2870
  734TP3     H114021   2.192   1.348  10.067 -1.4055 -2.0379  0.5116
  734TP3     H214022   2.256   1.310   9.935 -0.0961  0.6035  0.3498
  735TP3      O14023   3.603   0.377   6.994 -0.4595  0.4553  0.1174
  735TP3     H114024   3.538   0.338   6.936 -0.4758 -0.1274  0.5288
  735TP3     H214025   3.634   0.454   6.946 -0.0893 -0.3161 -0.9067
  736TP3      O14026   2.395   2.705   9.892 -0.1290  0.0479 -0.1725
  736TP3     H114027   2.364   2.648   9.963 -0.1222 -0.7365 -0.7936
  736TP3     H214028   2.317   2.751   9.862 -0.2234  0.0068  0.0067
  737TP3      O14029   1.506   4.473   1.139  0.2206 -0.4293 -0.5072
  737TP3     H114030   1.457   4.489   1.220  0.5147 -0.9616 -0.2201
  737TP3     H214031   1.596   4.496   1.160  0.4531 -1.3777 -0.4116
  738TP3      O14032   4.406   3.764   6.999  0.2796  0.0204  0.0907
  738TP3     H114033   4.437   3.828   6.935  2.0163 -0.2462  0.6326
  738TP3     H214034   4.454   3.684   6.978  0.4747 -0.2123  1.3974
  739TP3      O14035   3.807   5.093   0.330  0.0713 -0.2488  0.0665
  739TP3     H114036   3.872   5.084   0.260 -2.7222 -1.0548 -2.5391
  739TP3     H214037   3.807   5.187   0.349  1.3259 -0.1089 -0.5282
  740TP3      O14038   1.013   1.649   7.298  0.2805  0.2238  0.2279
  740TP3     H114039   0.965   1.683   7.222  0.1830 -1.0975 -0.3215
  740TP3     H214040   0.991   1.710   7.369 -1.4033  0.2381 -0.2654
  741TP3      O14041   0.529   0.019   7.496 -0.1486  0.3605  0.9172
  741TP3     H114042   0.434   0.020   7.504 -0.4468  1.1602 -2.1948
  741TP3     H214043   0.552  -0.074   7.488 -0.7464  0.2072  0.9928
  742TP3      O14044   2.592   3.020   7.720  0.3565  0.1576  0.5619
  742TP3     H114045   2.591   2.925   7.735  0.2344  0.2425  1.1020
  742TP3     H214046   2.505   3.049   7.746  0.0374  0.2728 -0.5964
  743TP3      O14047   1.262   3.308   7.261  0.0319  0.4291 -0.1541
  743TP3     H114048   1.215   3.227   7.241 -1.0158  1.0811 -0.3742
  743TP3     H214049   1.251   3.362   7.183  0.4620  0.9116  0.1126
  744TP3      O14050   3.489   1.229   7.556 -0.3392 -0.0203 -0.4086
  744TP3     H114051   3.442   1.192   7.482 -0.5420  0.0823 -0.3338
  744TP3     H214052   3.569   1.178   7.562 -1.1082 -1.1648  0.3698
  745TP3      O14053   1.481   1.980   2.059 -0.1376 -0.1479  0.3065
  745TP3     H114054   1.494   1.908   2.121 -0.4124 -0.5753 -0.1183
  745TP3     H214055   1.437   2.048   2.109 -1.3720 -0.9238  0.3005
  746TP3      O14056   1.711   2.576   7.015 -0.0805 -0.5903  0.2092
  746TP3     H114057   1.766   2.498   7.011  0.8234 -0.0483  1.7497
  746TP3     H214058   1.622   2.544   7.005  0.4278 -1.5675 -1.4965
  747TP3      O14059   2.900   1.943   8.990 -0.4396 -0.2624  0.3932
  747TP3     H114060   2.962   1.888   8.942  2.4246  1.9062  1.4597
  747TP3     H214061   2.942   1.959   9.075 -1.4529  2.9405  0.3809
  748TP3      O14062   1.851   0.782   7.531  0.9232  0.3917  0.0207
  748TP3     H114063   1.945   0.778   7.517  0.8438 -0.4815 -0.2841
  748TP3     H214064   1.815   0.815   7.449  0.9665  0.7455  0.1447
  749TP3      O14065   5.268   3.081   7.495  0.3617 -0.2929 -0.7397
  749TP3     H114066   5.211   3.098   7.570 -1.3334  0.1870 -2.0904
  749TP3     H214067   5.283   2.987   7.497  0.8964 -0.1948  0.5838
  750TP3      O14068   1.730   2.211   6.885  0.2061 -0.0172 -0.3252
  750TP3     H114069   1.770   2.125   6.897  2.8281  0.8594 -2.1253
  750TP3     H214070   1.787   2.271   6.933 -1.0811  0.8283  0.1703
  751TP3      O14071   4.059   5.135   7.304 -0.1479 -0.0788 -0.9278
  751TP3     H114072   4.109   5.211   7.273  1.9109 -1.2147 -0.4521
  751TP3     H214073   4.003   5.111   7.229  0.5591  0.7483 -1.7255
  752TP3      O14074   5.234   1.766   9.609 -0.2061 -0.4175  0.8875
  752TP3     H114075   5.176   1.778   9.534 -0.5775 -1.0359  1.0751
  752TP3     H214076   5.196   1.822   9.677  0.3918  0.4972  0.4748
  753TP3      O14077   4.570   1.843   9.007  0.3789 -0.2367 -0.3373
  753TP3     H114078   4.595   1.868   9.096  0.2948 -0.2409 -0.3144
  753TP3     H214079   4.627   1.896   8.951 -0.5228  0.7896 -0.2981
  754TP3      O14080   2.330   0.409  10.132  0.3403  0.0419 -0.6108
  754TP3     H114081   2.388   0.440  10.062  1.2249  0.2409  0.2144
  754TP3     H214082   2.386   0.355  10.188 -0.2244  0.3709  0.2821
  755TP3      O14083   1.658   4.464   8.928 -0.1208  0.3785  0.0018
  755TP3     H114084   1.584   4.482   8.869 -0.4156  2.4393  0.9630
  755TP3     H214085   1.624   4.399   8.989 -0.6792  0.2217 -0.4697
  756TP3      O14086   0.105   1.102   9.404  0.4526 -0.0375 -0.0619
  756TP3     H114087   0.137   1.166   9.467 -1.0024  0.1340  0.5137
  756TP3     H214088   0.135   1.134   9.319 -2.3356  2.7659 -0.0771
  757TP3      O14089   4.927   3.894   8.134 -0.4452  0.2930  0.1809
  757TP3     H114090   4.983   3.847   8.196 -0.1161 -0.0117 -0.3416
  757TP3     H214091   4.946   3.854   8.050 -0.3974  1.1648 -0.2232
  758TP3      O14092   0.513   1.240   8.705 -0.2231  0.4508 -0.0090
  758TP3     H114093   0.599   1.241   8.663 -0.0642 -0.8631  0.2757
  758TP3     H214094   0.528   1.281   8.790 -0.0149  0.7748 -0.1980
  759TP3      O14095   3.301   1.247   9.059  0.0940 -0.2935 -0.1816
  759TP3     H114096   3.371   1.309   9.037  1.2782 -1.7123 -0.5332
  759TP3     H214097   3.221   1.299   9.053  0.9777  1.0188 -1.2243
  760TP3      O14098   4.279   3.019   9.225 -0.2904  0.5406  0.1038
  760TP3     H114099   4.219   3.015   9.300  0.9717 -1.2798  1.0422
  760TP3     H214100   4.329   3.099   9.239  0.0331  0.1396  1.2932
  761TP3      O14101   0.139   2.665   8.250 -0.0554  0.2680 -0.1645
  761TP3     H114102   0.134   2.578   8.291  1.0651  0.5125  0.5142
  761TP3     H214103   0.184   2.650   8.167  1.2994  0.3990  0.5440
  762TP3      O14104   2.036   2.285  10.121  0.0756 -0.1488  0.1572
  762TP3     H114105   1.988   2.234  10.186  2.0521  0.6004  2.3028
  762TP3     H214106   2.060   2.221  10.053 -2.0129 -0.9502  0.1497
  763TP3      O14107   1.813   1.610   7.605  0.3534  0.6537  0.2213
  763TP3     H114108   1.740   1.654   7.649  0.7351  1.0826  0.4253
  763TP3     H214109   1.772   1.539   7.556 -0.2271  1.0129  0.1850
  764TP3      O14110   0.335   3.511   0.533  0.0324  0.0768 -0.5953
  764TP3     H114111   0.249   3.552   0.531  0.4313  0.9690  0.0489
  764TP3     H214112   0.347   3.485   0.624  1.4815  2.2413 -0.1318
  765TP3      O14113   0.708   4.995   8.051  0.1167 -0.2724  0.4672
  765TP3     H114114   0.710   5.065   7.987 -1.6191 -1.9431 -1.4671
  765TP3     H214115   0.737   5.037   8.133 -2.4928  3.0948 -0.2112
  766TP3      O14116   1.719   3.159   7.795 -0.3114 -0.3843  0.5390
  766TP3     H114117   1.808   3.194   7.793 -0.0791 -0.8968  1.3623
  766TP3     H214118   1.709   3.124   7.884 -1.4251 -0.0978  0.5437
  767TP3      O14119   3.542   2.872   9.957 -0.4996 -0.1938 -0.1617
  767TP3     H114120   3.448   2.885   9.974 -0.4744  0.6346 -0.6380
  767TP3     H214121   3.563   2.791  10.004 -1.2457  0.1166  0.7395
  768TP3      O14122   3.181   2.625  10.152  0.0362  0.8873  0.2657
  768TP3     H114123   3.148   2.617  10.242  0.2840  1.6917  0.4330
  768TP3     H214124   3.102   2.617  10.098 -0.0864  0.1838  0.5440
  769TP3      O14125   3.175   5.215   8.972 -0.0031 -0.2073 -0.4634
  769TP3     H114126   3.256   5.207   9.021  0.3892  0.0783 -1.0577
  769TP3     H214127   3.171   5.308   8.946 -0.1297 -0.3854 -1.0943
  770TP3      O14128   3.634   3.381   1.853  0.1512  0.0779  0.7588
  770TP3     H114129   3.615   3.337   1.936 -0.3195 -1.8649 -0.3525
  770TP3     H214130   3.562   3.442   1.840 -0.0519 -0.0016  1.5106
  771TP3      O14131   1.119   0.998   9.600  0.2300  0.2729  0.2033
  771TP3     H114132   1.169   1.070   9.562  0.8138 -0.2076  0.0452
  771TP3     H214133   1.154   0.920   9.558 -2.7881  0.1410 -2.2505
  772TP3      O14134   4.374   5.274   8.733  0.5240 -0.0502 -0.1714
  772TP3     H114135   4.307   5.223   8.778  0.9815 -0.1161  0.4405
  772TP3     H214136   4.379   5.356   8.783 -0.4413  0.7412 -1.3439
  773TP3      O14137   0.152   2.986   7.754  0.5639 -0.0341  0.0705
  773TP3     H114138   0.163   3.078   7.727 -1.5918  0.2203 -0.0290
  773TP3     H214139   0.235   2.964   7.796  1.2911  1.8209 -0.3227
  774TP3      O14140   1.582   4.319   7.907  0.4611  0.3254 -0.0621
  774TP3     H114141   1.572   4.390   7.971 -3.0240  0.0740 -0.2173
  774TP3     H214142   1.530   4.247   7.943  0.7328 -0.7887 -1.8369
  775TP3      O14143   0.315   5.050   8.875  0.3190  0.0957  0.5717
  775TP3     H114144   0.325   5.136   8.916 -1.1508  2.1955 -3.2847
  775TP3     H214145   0.222   5.029   8.886  0.1773  0.1035 -0.5793
  776TP3      O14146   1.708   3.907   8.097  0.7536  0.7490 -0.6003
  776TP3     H114147   1.775   3.894   8.164  0.5325 -0.4955 -0.6047
  776TP3     H214148   1.744   3.865   8.018 -0.1755 -0.2742 -0.5022
  777TP3      O14149   1.604   4.765   2.448  0.0034  0.0702 -0.2177
  777TP3     H114150   1.566   4.690   2.402 -0.6422 -0.0029  0.4188
  777TP3     H214151   1.576   4.841   2.397 -2.4751  0.1466  1.2136
  778TP3      O14152   3.571   3.597   7.340 -0.3069  0.0255  0.0261
  778TP3     H114153   3.600   3.506   7.336 -1.4111 -0.5065  2.7219
  778TP3     H214154   3.619   3.641   7.269 -0.1571 -2.7359 -1.6586
  779TP3      O14155   4.413   4.537   7.677 -0.0253  0.7849  0.0808
  779TP3     H114156   4.478   4.605   7.663  0.9775 -0.1931 -0.0848
  779TP3     H214157   4.464   4.456   7.682 -1.0743  0.1935  1.5236
  780TP3      O14158   3.122   3.204   7.419  0.4367 -0.0560  0.2209
  780TP3     H114159   3.091   3.254   7.344  2.6432  0.1003 -0.6250
  780TP3     H214160   3.112   3.113   7.392  2.2498 -0.0004 -0.7462
  781TP3      O14161   0.764   3.135   7.722 -0.0684 -0.0563  0.1690
  781TP3     H114162   0.782   3.156   7.630  0.0906  0.3117  0.2867
  781TP3     H214163   0.798   3.046   7.733 -1.4996 -0.7195 -0.5480
  782TP3      O14164   1.264   0.382   8.842 -0.7117 -0.2373 -0.7512
  782TP3     H114165   1.336   0.333   8.802 -0.7654 -1.9472  1.2035
  782TP3     H214166   1.216   0.318   8.894 -1.2531  1.6860  1.2147
  783TP3      O14167   0.334   2.177   9.483  0.1326  0.3874  0.4496
  783TP3     H114168   0.415   2.228   9.491 -0.8826  2.1711 -0.4407
  783TP3     H214169   0.354   2.111   9.416  0.7548  0.9771  0.0513
  784TP3      O14170   0.521   3.188   7.866 -0.1806 -0.2787 -0.1447
  784TP3     H114171   0.596   3.168   7.810  0.2257 -2.3839  1.0913
  784TP3     H214172   0.545   3.151   7.951 -2.1584  0.0147  0.5579
  785TP3      O14173   4.187   0.468   7.221  0.1189 -0.6154 -0.0943
  785TP3     H114174   4.203   0.443   7.130 -1.3308 -0.7339 -0.3296
  785TP3     H214175   4.244   0.544   7.235  0.5936 -0.7936 -1.0037
  786TP3      O14176   5.092   2.690   7.846 -0.7439  0.1795 -0.6914
  786TP3     H114177   5.171   2.688   7.792 -0.1985 -0.6476  0.1156
  786TP3     H214178   5.041   2.614   7.818 -0.3571 -0.3807  0.0915
  787TP3      O14179   1.203   1.510   7.449  0.4422  0.4363  0.0173
  787TP3     H114180   1.131   1.537   7.392 -1.8394 -0.0205  2.6325
  787TP3     H214181   1.243   1.593   7.476  0.3890  0.7226 -0.7418
  788TP3      O14182   2.593   2.347   8.855 -0.1579 -0.2407  0.6975
  788TP3     H114183   2.684   2.322   8.872 -0.7085 -1.2091  2.3561
  788TP3     H214184   2.592   2.442   8.867  0.6094 -0.2439  0.8143
  789TP3      O14185   2.350   2.238   8.917  0.0725 -0.5901  0.1051
  789TP3     H114186   2.347   2.202   8.829 -0.1286 -2.4495  0.8580
  789TP3     H214187   2.419   2.305   8.913 -0.0808 -0.5159 -1.4971
  790TP3      O14188   5.261   1.772   9.006 -0.7096  0.2358  0.4810
  790TP3     H114189   5.312   1.828   8.947 -1.1188  1.1161  0.9445
  790TP3     H214190   5.322   1.747   9.075 -0.1912 -0.9165 -0.3899
  791TP3      O14191   2.902   3.718   7.022  0.3347 -0.0249  0.0489
  791TP3     H114192   2.978   3.743   7.075 -0.7165 -0.2758  1.7271
  791TP3     H214193   2.882   3.629   7.051 -1.8889  0.8085  1.1683
  792TP3      O14194   3.414   2.098   8.576  0.1886 -0.5063  1.0031
  792TP3     H114195   3.494   2.049   8.591  1.4610  1.5204  1.0612
  792TP3     H214196   3.423   2.133   8.487  0.0939  1.0176  1.5807
  793TP3      O14197   2.633   3.649   7.864 -0.3779 -0.4717 -1.0181
  793TP3     H114198   2.683   3.715   7.816 -0.9420 -0.2529 -1.3114
  793TP3     H214199   2.541   3.672   7.848 -0.5723 -0.0345  0.6637
  794TP3      O14200   0.763   3.444   7.110 -0.6587 -0.0106 -0.4790
  794TP3     H114201   0.856   3.459   7.097 -0.9988  1.4565 -1.3092
  794TP3     H214202   0.757   3.353   7.141  1.0937  0.1543  0.3692
  795TP3      O14203   0.192   0.534   1.028  0.2147  0.1890  0.3707
  795TP3     H114204   0.154   0.557   0.943 -0.2963 -2.0920 -0.0686
  795TP3     H214205   0.117   0.533   1.088  0.5178  1.4241  0.7893
  796TP3      O14206   1.884   3.126   9.515  0.4309 -0.0962 -0.0443
  796TP3     H114207   1.919   3.112   9.603 -1.8246 -1.3701  0.6927
  796TP3     H214208   1.914   3.213   9.491  1.5157  0.0578  1.7691
  797TP3      O14209   3.250   2.944   2.531 -0.2574 -0.3731  0.1563
  797TP3     H114210   3.222   2.997   2.457 -0.7611 -0.9217 -0.0531
  797TP3     H214211   3.232   2.854   2.504 -1.4121 -0.5261  1.3438
  798TP3      O14212   0.669   4.945   0.823  0.3259  0.2102 -0.5270
  798TP3     H114213   0.731   4.877   0.798  1.3127  0.5790  0.8385
  798TP3     H214214   0.721   5.007   0.874 -1.3861 -0.0403  1.6138
  799TP3      O14215   1.102   3.945   0.599 -0.1224  0.3130  0.8481
  799TP3     H114216   1.076   4.031   0.631  0.2094  0.2047  1.4098
  799TP3     H214217   1.077   3.945   0.506 -0.7211  0.7677  1.0089
  800TP3      O14218   1.082   2.883   9.911  0.2460 -0.6202 -0.0741
  800TP3     H114219   1.125   2.968   9.900 -0.6391 -0.0275  0.9446
  800TP3     H214220   1.114   2.851   9.995 -1.9572  0.2390  1.1309
  801TP3      O14221   4.573   2.305   7.909 -0.0503  0.4273 -0.1141
  801TP3     H114222   4.634   2.291   7.982 -0.1361 -0.8735 -0.2753
  801TP3     H214223   4.596   2.237   7.846 -0.5264  1.0326 -0.9423
  802TP3      O14224   2.818   5.128   9.397  0.0494 -0.1532 -0.3795
  802TP3     H114225   2.874   5.109   9.473  0.0092  2.0642  0.2311
  802TP3     H214226   2.744   5.068   9.406 -0.0267  0.1893  1.4311
  803TP3      O14227   2.097   3.638   8.380  0.2914 -0.4793  0.7506
  803TP3     H114228   2.022   3.671   8.429 -0.4940 -1.0158 -0.0862
  803TP3     H214229   2.063   3.617   8.293  1.8920  1.4171 -0.3798
  804TP3      O14230   2.766   1.290   8.113  0.2438  0.2158  0.0310
  804TP3     H114231   2.731   1.206   8.081 -3.7972  2.5016 -1.8543
  804TP3     H214232   2.854   1.294   8.076 -0.0178 -2.5678 -1.0108
  805TP3      O14233   1.623   3.237   0.660  0.0669 -0.2324  0.2220
  805TP3     H114234   1.663   3.295   0.725  0.1256 -0.2439  0.1964
  805TP3     H214235   1.610   3.293   0.583  0.8747 -0.4558 -0.0819
  806TP3      O14236   1.797   3.603   7.168 -0.3623 -0.3216 -0.0608
  806TP3     H114237   1.763   3.524   7.125 -3.3059  0.9487 -0.1229
  806TP3     H214238   1.862   3.569   7.230 -1.6014 -2.8058 -0.0492
  807TP3      O14239   2.163   2.337   7.808 -0.2234  0.5057 -0.5947
  807TP3     H114240   2.093   2.341   7.742 -0.0339  0.0538 -0.8271
  807TP3     H214241   2.159   2.421   7.852  0.6572  1.4352 -2.2299
  808TP3      O14242   1.852   4.924   9.111  0.3417  0.1853  0.3873
  808TP3     H114243   1.845   4.855   9.176 -0.4544  0.8200  0.9981
  808TP3     H214244   1.833   4.881   9.028 -1.0620 -0.1572  0.8715
  809TP3      O14245   4.942   1.711   7.870 -0.1714  0.4647 -0.4211
  809TP3     H114246   5.009   1.654   7.834 -1.5080 -1.6123  0.2835
  809TP3     H214247   4.869   1.705   7.809 -0.5743  0.9186  0.0072
  810TP3      O14248   2.529   0.393   2.508  0.1333  0.9764 -0.5275
  810TP3     H114249   2.595   0.384   2.577  0.2166  3.4204 -0.2432
  810TP3     H214250   2.446   0.400   2.555  0.1160  1.9191 -0.6838
  811TP3      O14251   3.881   1.704   8.619  0.1692 -0.1657 -0.4378
  811TP3     H114252   3.786   1.703   8.621  0.1433 -0.0844 -1.2342
  811TP3     H214253   3.904   1.645   8.546  0.6981  0.4547 -0.7810
  812TP3      O14254   2.245   4.692   7.102  0.1378 -0.0490  0.3068
  812TP3     H114255   2.212   4.704   7.191 -1.1432 -0.1301 -0.1425
  812TP3     H214256   2.275   4.601   7.099  0.0330 -0.0927  0.6005
  813TP3      O14257   0.894   0.151   9.052  0.0262 -0.0891 -0.2975
  813TP3     H114258   0.812   0.193   9.077  1.4159  2.0060  0.8331
  813TP3     H214259   0.893   0.067   9.098  0.5467  1.8564  3.4918
  814TP3      O14260   4.260   5.096   9.557 -0.3875 -0.3115 -0.2345
  814TP3     H114261   4.170   5.066   9.543  0.1693 -0.9767 -2.5465
  814TP3     H214262   4.269   5.172   9.500  0.8414 -0.8946 -0.8408
  815TP3      O14263   1.478   0.254   1.351 -0.1732  0.5269 -0.1718
  815TP3     H114264   1.465   0.332   1.405  1.7524  1.7180 -1.3864
  815TP3     H214265   1.516   0.189   1.410  0.1461  1.1918  0.3590
  816TP3      O14266   2.652   3.863   9.679  0.3625  0.8302  0.2000
  816TP3     H114267   2.730   3.830   9.726 -1.3307 -0.6249  2.1050
  816TP3     H214268   2.621   3.935   9.733  1.1825  2.3680 -1.3360
  817TP3      O14269   0.885   5.263   7.612 -1.1260  0.5369 -0.0031
  817TP3     H114270   0.821   5.333   7.614 -1.3548  0.3056  1.1159
  817TP3     H214271   0.891   5.238   7.519 -0.3464  2.6504 -0.5600
  818TP3      O14272   3.615   0.857   7.412  0.0517 -0.3166  1.0778
  818TP3     H114273   3.520   0.870   7.410 -0.3172 -2.8917  0.1357
  818TP3     H214274   3.627   0.763   7.396  2.8344  0.2528 -0.5020
  819TP3      O14275   0.962   3.437   8.564  0.1863  0.0300 -0.2502
  819TP3     H114276   0.950   3.446   8.469 -1.2284 -0.5132 -0.1333
  819TP3     H214277   0.900   3.368   8.590  1.0829 -0.3378  0.9562
  820TP3      O14278   2.044   5.097   0.559  0.6197  0.4483  0.0239
  820TP3     H114279   1.953   5.109   0.587  0.4217 -1.6083  0.3495
  820TP3     H214280   2.041   5.022   0.499  2.5207 -1.8101  2.5958
  821TP3      O14281   4.487   0.444   8.840 -0.2100  0.0151  0.4278
  821TP3     H114282   4.392   0.459   8.843  0.0186  1.5901  0.2939
  821TP3     H214283   4.525   0.532   8.844  1.2097 -0.4979 -1.2078
  822TP3      O14284   4.696   2.106   8.148  0.0956  0.5766 -0.3081
  822TP3     H114285   4.716   2.058   8.229  0.4203  0.7580 -0.2801
  822TP3     H214286   4.668   2.192   8.178  0.3177  0.6788 -0.3904
  823TP3      O14287   2.040   1.888   7.778 -0.2726 -0.2885 -0.3881
  823TP3     H114288   2.044   1.924   7.689  1.3893 -0.0685 -0.2339
  823TP3     H214289   1.958   1.923   7.814 -0.3698  0.5796 -1.4210
  824TP3      O14290   1.293   2.194   8.369  0.1655 -0.2830 -0.3349
  824TP3     H114291   1.372   2.174   8.421 -0.4352  1.2655  1.2282
  824TP3     H214292   1.318   2.172   8.279  2.4564  0.3197  0.1012
  825TP3      O14293   3.831   1.065   8.125  0.3757 -0.3467  0.2827
  825TP3     H114294   3.837   0.974   8.154 -1.9288 -0.2337  1.2581
  825TP3     H214295   3.806   1.114   8.204  1.1878  1.0863 -0.3239
  826TP3      O14296   1.282   5.045   9.364 -0.0105 -0.5681 -0.0922
  826TP3     H114297   1.367   5.011   9.336  1.2971  0.1243  2.8406
  826TP3     H214298   1.256   4.988   9.436 -2.0467 -0.7466 -0.9476
  827TP3      O14299   3.956   1.740   8.930  0.4485  0.5659 -0.2516
  827TP3     H114300   3.931   1.696   9.011 -0.9184  0.4072 -0.7371
  827TP3     H214301   3.916   1.687   8.861 -0.7570  2.2358 -0.8786
  828TP3      O14302   2.979   0.240   7.807  0.2336 -0.2976  0.2626
  828TP3     H114303   3.047   0.234   7.874  0.2477  0.5590  0.3350
  828TP3     H214304   3.009   0.182   7.737  1.4188  0.6429 -0.0338
  829TP3      O14305   0.756   4.804   7.710  0.0789  0.0974 -0.4533
  829TP3     H114306   0.665   4.777   7.723  0.8108 -1.6979  1.2320
  829TP3     H214307   0.806   4.751   7.773  2.2362  1.3886 -1.0229
  830TP3      O14308   0.299   1.640   7.195  0.3989 -0.5894 -0.0591
  830TP3     H114309   0.238   1.710   7.220 -0.5927 -1.7746  0.9478
  830TP3     H214310   0.341   1.672   7.116  0.0735  1.2137  0.4707
  831TP3      O14311   2.009   3.444   7.007 -0.1328 -0.0795 -0.1093
  831TP3     H114312   2.034   3.532   7.035 -2.4165  0.1081  1.4890
  831TP3     H214313   1.965   3.406   7.083  0.1050 -2.3111 -1.0440
  832TP3      O14314   4.179   2.284  10.131 -0.1998  0.2372  0.0352
  832TP3     H114315   4.184   2.311  10.039 -1.7416  2.6632  0.6361
  832TP3     H214316   4.158   2.364  10.179  0.7115 -0.9740  2.5426
  833TP3      O14317   4.375   3.565   7.695  0.3365  0.1379  0.1105
  833TP3     H114318   4.438   3.579   7.766  0.4051  0.1381  0.0490
  833TP3     H214319   4.296   3.611   7.725 -0.2585 -1.4543  1.0696
  834TP3      O14320   4.871   2.876   7.927 -0.0452  0.3649  0.5412
  834TP3     H114321   4.853   2.843   8.015 -0.5267 -0.1805  0.2443
  834TP3     H214322   4.949   2.828   7.898  1.4297  2.1346  1.5098
  835TP3      O14323   1.141   4.268   8.989 -0.4659 -1.3708  0.0319
  835TP3     H114324   1.086   4.259   8.911 -1.7844 -0.5223  0.8486
  835TP3     H214325   1.140   4.361   9.008 -0.7228 -1.6546  1.4568
  836TP3      O14326   1.042   4.393   9.386 -0.0373 -0.0052 -0.2997
  836TP3     H114327   1.008   4.412   9.473  1.7826 -0.5211  0.5338
  836TP3     H214328   1.055   4.298   9.385 -0.2692 -0.0341 -1.2272
  837TP3      O14329   2.698   1.696   8.584 -0.5059 -0.5348  0.1833
  837TP3     H114330   2.696   1.759   8.512 -2.8362 -0.7356  0.0272
  837TP3     H214331   2.787   1.662   8.584  0.2557  1.3687 -0.9429
  838TP3      O14332   1.019   3.692   8.140  0.0749  0.3691  0.1344
  838TP3     H114333   1.014   3.720   8.048  1.1549  0.6204  0.1386
  838TP3     H214334   1.104   3.725   8.170 -0.7229  1.1780  1.5345
  839TP3      O14335   3.191   5.102   1.254 -0.3383  0.1937 -0.4209
  839TP3     H114336   3.102   5.091   1.288 -0.2829  0.5384 -0.1513
  839TP3     H214337   3.214   5.192   1.278  0.3062 -0.0883  0.0555
  840TP3      O14338   1.865   4.986   8.437  0.0824 -0.4744 -0.2665
  840TP3     H114339   1.873   4.956   8.346  0.1012  0.7684 -0.6926
  840TP3     H214340   1.916   5.067   8.439 -2.3209  1.0790  0.0867
  841TP3      O14341   3.883   3.232   6.958  0.3172  0.1649  0.2918
  841TP3     H114342   3.957   3.220   7.018  0.2777  0.1344  0.3341
  841TP3     H214343   3.829   3.299   6.999 -0.8958 -1.4666  1.4415
  842TP3      O14344   3.038   1.273   8.010 -0.1980  0.0741 -0.4187
  842TP3     H114345   3.105   1.226   8.059  0.3027  0.7389 -0.4669
  842TP3     H214346   3.013   1.212   7.940 -2.4017 -1.7520  1.8259
  843TP3      O14347   3.108   2.226   8.752  0.6192 -0.3267  0.1663
  843TP3     H114348   3.020   2.236   8.715  1.2059 -0.0944 -1.2261
  843TP3     H214349   3.166   2.265   8.686  1.9314 -2.2295  0.1477
  844TP3      O14350   5.234   4.762   7.587  0.1275  0.3279 -1.0361
  844TP3     H114351   5.171   4.690   7.580  1.0023 -0.2156 -3.5345
  844TP3     H214352   5.205   4.826   7.523  0.1004  1.6796  0.2855
  845TP3      O14353   5.285   0.344   8.413  0.1836 -0.0288 -0.1245
  845TP3     H114354   5.322   0.428   8.386 -0.8851  0.4162 -0.2179
  845TP3     H214355   5.291   0.290   8.334 -1.4125  0.7484 -0.7850
  846TP3      O14356   2.337   1.917   0.658 -0.2124 -0.0959  0.2709
  846TP3     H114357   2.383   1.869   0.727 -2.0889  1.3308  2.6339
  846TP3     H214358   2.336   2.008   0.689 -1.0716  0.5837 -1.6606
  847TP3      O14359   3.613   3.208   9.643 -0.2368  0.7005 -0.0578
  847TP3     H114360   3.651   3.295   9.649  1.0339  0.1503  0.0340
  847TP3     H214361   3.680   3.149   9.679 -1.1642 -0.2901  0.0954
  848TP3      O14362   4.501   3.125   7.982  0.2757 -0.6085 -0.0912
  848TP3     H114363   4.439   3.118   8.055  0.1512  0.5052 -0.0793
  848TP3     H214364   4.573   3.067   8.006  0.2420 -0.2381  0.9183
  849TP3      O14365   2.151   3.008   7.577  0.0902  0.0504  0.1230
  849TP3     H114366   2.177   2.931   7.526  0.5693  0.0502  0.3603
  849TP3     H214367   2.067   3.033   7.541 -0.9869 -1.7312  1.2926
  850TP3      O14368   2.503   1.975   6.994  0.1448  0.0941 -0.2385
  850TP3     H114369   2.536   1.907   7.053 -2.5973 -1.7128 -0.7068
  850TP3     H214370   2.519   2.057   7.041  0.6921 -1.1025  1.7146
  851TP3      O14371   2.941   1.986   9.280  0.1948 -0.3794 -0.4745
  851TP3     H114372   2.886   2.065   9.288  1.5279  0.2939  2.8962
  851TP3     H214373   2.885   1.915   9.310 -0.5195 -0.5279 -2.0941
  852TP3      O14374   3.033   4.378   9.512 -0.3578 -0.2785  0.9268
  852TP3     H114375   3.128   4.379   9.498 -0.5298  1.4386 -0.3550
  852TP3     H214376   2.998   4.331   9.437 -0.6664  0.9324  0.3116
  853TP3      O14377   4.915   2.515   7.725  1.1099  0.7627  0.2215
  853TP3     H114378   4.978   2.454   7.687  0.9607  1.3076 -0.9340
  853TP3     H214379   4.838   2.508   7.669  0.4871  0.7868  1.0673
  854TP3      O14380   2.660   1.696   9.631 -0.3372 -0.1127 -0.1524
  854TP3     H114381   2.716   1.628   9.668  0.5238 -0.7987 -2.6455
  854TP3     H214382   2.573   1.677   9.667  0.0383 -2.1041 -0.2636
  855TP3      O14383   4.108   0.776   7.424  0.0296  0.8247 -0.1396
  855TP3     H114384   4.042   0.712   7.451 -1.9259  2.8159 -0.1032
  855TP3     H214385   4.162   0.789   7.502  1.3293 -1.7893 -0.5497
  856TP3      O14386   3.467   2.887   7.333 -0.0453 -0.0845  0.5480
  856TP3     H114387   3.454   2.981   7.342  0.9786  0.1614 -0.4122
  856TP3     H214388   3.418   2.863   7.255  0.2626 -0.2198  0.3936
  857TP3      O14389   3.976   1.137   9.069 -0.1153 -0.3243  0.3435
  857TP3     H114390   3.976   1.085   9.149 -0.6651 -0.4046  0.2954
  857TP3     H214391   4.037   1.208   9.086 -1.3498  0.5064  1.3961
  858TP3      O14392   0.368   1.908   0.045  0.5919  0.1629 -0.2895
  858TP3     H114393   0.412   1.934   0.126  0.8211 -0.8982 -0.0555
  858TP3     H214394   0.409   1.825   0.021 -1.0253 -0.6754 -0.2633
  859TP3      O14395   0.406   2.986   8.333  0.3618 -0.7496 -0.0474
  859TP3     H114396   0.391   2.937   8.253  0.7812 -0.6010 -0.2216
  859TP3     H214397   0.397   2.922   8.403 -0.0714 -0.8658 -0.2098
  860TP3      O14398   2.142   1.757   7.494 -0.0013  0.2229 -0.2765
  860TP3     H114399   2.223   1.743   7.543  0.5229 -1.6907 -1.6467
  860TP3     H214400   2.122   1.850   7.508  1.5027  0.3251  1.4492
  861TP3      O14401   0.285   0.602   7.968 -0.2014  0.8258 -0.8052
  861TP3     H114402   0.287   0.648   8.053 -2.1859  0.7838 -0.7036
  861TP3     H214403   0.333   0.521   7.984 -1.8337  0.1292  0.7250
  862TP3      O14404   5.167   1.025   7.976 -0.0414 -0.4609  0.0444
  862TP3     H114405   5.111   0.949   7.961 -1.1559  0.7442 -2.1159
  862TP3     H214406   5.135   1.064   8.057 -1.0568 -0.8981 -0.1461
  863TP3      O14407   1.688   1.386   6.820 -0.2077 -0.5827 -0.3135
  863TP3     H114408   1.606   1.413   6.778 -0.0463 -0.0789 -0.3067
  863TP3     H214409   1.694   1.292   6.803 -0.4987 -0.5115 -0.8061
  864TP3      O14410   5.107   0.252   7.806 -0.5488  0.3434  0.0132
  864TP3     H114411   5.185   0.231   7.753 -0.4826  0.3480  0.1073
  864TP3     H214412   5.134   0.232   7.896 -0.2698  1.4439  0.1758
  865TP3      O14413   0.840   1.125   9.497  0.2454 -0.3100  0.0179
  865TP3     H114414   0.899   1.182   9.448  0.2694 -0.9990 -0.7719
  865TP3     H214415   0.894   1.089   9.568  0.6242 -0.4940 -0.3598
  866TP3      O14416   1.233   1.934   9.274  0.1206 -0.0053 -0.0820
  866TP3     H114417   1.250   1.897   9.361  0.1575 -0.4107 -0.2573
  866TP3     H214418   1.258   1.864   9.214  0.3632  0.3807 -0.4286
  867TP3      O14419   0.470   0.490   2.018  0.4958 -0.3391  0.0406
  867TP3     H114420   0.527   0.548   2.069  0.4329  0.2929 -0.6087
  867TP3     H214421   0.382   0.515   2.045  0.5325 -1.9813  1.7757
  868TP3      O14422   0.590   5.091  10.031 -0.6122  0.0581  0.2867
  868TP3     H114423   0.584   5.172  10.082 -1.4768 -0.3992  0.9223
  868TP3     H214424   0.515   5.039  10.059 -1.4912  0.0561 -1.9151
  869TP3      O14425   0.788   3.005   9.079  0.1244 -0.4427  0.5318
  869TP3     H114426   0.696   3.002   9.053 -0.2051  0.6864  1.5501
  869TP3     H214427   0.813   2.913   9.088 -0.8889 -0.7525  0.2340
  870TP3      O14428   4.385   2.250   8.165  0.6090  0.1562  0.2161
  870TP3     H114429   4.429   2.260   8.080  2.3556 -1.0931  0.9536
  870TP3     H214430   4.365   2.340   8.192 -0.8362  0.5308 -1.9316
  871TP3      O14431   0.809   4.517   8.136 -0.4304 -0.6395  0.3078
  871TP3     H114432   0.716   4.538   8.126  0.1488  1.7101 -0.5117
  871TP3     H214433   0.811   4.439   8.191 -2.8401 -0.0736  1.2253
  872TP3      O14434   0.559   3.195   8.274 -0.0464 -0.8329  0.6735
  872TP3     H114435   0.485   3.139   8.299 -0.8013  0.0796  0.5107
  872TP3     H214436   0.586   3.162   8.189  0.5851 -2.0115  1.3138
  873TP3      O14437   1.618   3.516   9.177  0.1543  0.3395  0.2438
  873TP3     H114438   1.633   3.423   9.194  1.9920  0.4960 -0.3789
  873TP3     H214439   1.692   3.542   9.121 -0.6129  2.0509 -0.0008
  874TP3      O14440   2.842   2.246   8.919 -0.1104  0.4248 -0.5066
  874TP3     H114441   2.841   2.160   8.959 -0.9457  0.9249  0.5903
  874TP3     H214442   2.898   2.299   8.976  0.2449  0.6583 -1.0634
  875TP3      O14443   2.962   1.746   6.697 -0.2153 -0.2517 -0.3353
  875TP3     H114444   2.982   1.679   6.631  0.2827  0.5191 -0.9865
  875TP3     H214445   2.870   1.765   6.684 -0.5879 -1.4466  0.4561
  876TP3      O14446   1.577   2.333   1.117  0.1188  0.3116  0.3426
  876TP3     H114447   1.651   2.284   1.154  0.2245  0.0732 -0.1741
  876TP3     H214448   1.521   2.353   1.192 -0.1207 -0.9380  0.5084
  877TP3      O14449   2.634   2.674   1.404 -0.4274 -0.4299  0.3526
  877TP3     H114450   2.627   2.763   1.371  1.2919 -0.6649 -0.7062
  877TP3     H214451   2.582   2.622   1.342 -2.1175 -0.0897  1.4353
  878TP3      O14452   0.708   1.556   8.312  0.0024 -0.1587 -0.0783
  878TP3     H114453   0.747   1.471   8.291  1.1694  0.4017 -0.2613
  878TP3     H214454   0.674   1.587   8.228  1.5737  0.5339 -0.4865
  879TP3      O14455   2.920   0.597   9.959 -1.0139  0.1175 -0.4963
  879TP3     H114456   2.993   0.571  10.015  0.2128  0.6546 -1.8010
  879TP3     H214457   2.842   0.569  10.006 -0.0073  0.4786  1.4230
  880TP3      O14458   5.277   3.446   0.262  0.1444 -0.5857  0.2567
  880TP3     H114459   5.277   3.362   0.307  0.2594 -0.3321  0.7234
  880TP3     H214460   5.320   3.507   0.322 -0.0496 -0.1621 -0.0275
  881TP3      O14461   4.156   4.081   7.511  0.6058 -0.0040  0.2976
  881TP3     H114462   4.081   4.021   7.518 -0.7647  1.7550  1.2422
  881TP3     H214463   4.159   4.104   7.418 -0.5046  0.4910  0.3775
  882TP3      O14464   2.708   2.620   9.488  0.7389  0.0660 -0.3602
  882TP3     H114465   2.781   2.558   9.481 -0.2816 -1.0756 -1.0228
  882TP3     H214466   2.652   2.600   9.414 -0.0948  1.1597 -0.0369
  883TP3      O14467   3.502   2.652   7.762 -0.4184  0.3708  0.4385
  883TP3     H114468   3.539   2.724   7.712 -0.5965 -0.4968 -0.9610
  883TP3     H214469   3.574   2.590   7.774 -0.0278  1.1837  2.4276
  884TP3      O14470   3.465   4.156  10.150  0.6257 -0.3376  0.0072
  884TP3     H114471   3.478   4.064  10.126  1.7907 -0.3679  0.7093
  884TP3     H214472   3.443   4.153  10.243  1.0508  0.1191  0.1214
  885TP3      O14473   2.372   2.396   7.119  0.6492 -0.4520  0.0028
  885TP3     H114474   2.324   2.322   7.081  0.7564 -0.6833  0.3201
  885TP3     H214475   2.305   2.463   7.132  0.2734 -1.0406  1.1282
  886TP3      O14476   3.226   3.110   8.110 -0.2830 -0.1041  0.8264
  886TP3     H114477   3.204   3.196   8.146 -0.8765 -0.7127  1.9154
  886TP3     H214478   3.166   3.049   8.152  0.4054 -1.1229  0.3677
  887TP3      O14479   1.961   3.913   7.226  0.7983 -0.5673 -0.2075
  887TP3     H114480   2.029   3.886   7.164  1.1110  1.3678 -0.7478
  887TP3     H214481   1.879   3.889   7.183  1.0368  0.2657 -1.1412
  888TP3      O14482   1.151   2.684   8.936  0.1500  0.1704  0.6197
  888TP3     H114483   1.205   2.700   8.858 -1.1266 -1.1620 -0.5613
  888TP3     H214484   1.214   2.664   9.005  1.1865 -1.5230 -0.7790
  889TP3      O14485   2.543   3.781   0.753 -0.0982 -0.2205  0.6064
  889TP3     H114486   2.448   3.788   0.742 -0.0288 -0.5007 -0.2570
  889TP3     H214487   2.577   3.787   0.663  0.6274 -1.0987  0.8239
  890TP3      O14488   2.195   2.995   8.443  0.5002 -0.6384  1.0706
  890TP3     H114489   2.229   3.013   8.355 -1.2663  0.0205  0.5077
  890TP3     H214490   2.270   3.011   8.501  1.7605 -1.3432 -0.3274
  891TP3      O14491   0.761   3.604   8.212 -0.1580 -0.2214  0.1703
  891TP3     H114492   0.845   3.639   8.184  0.8026  0.0929  3.2377
  891TP3     H214493   0.697   3.670   8.185  0.9785  1.1746  0.8363
  892TP3      O14494   3.954   0.337   9.901 -0.3005 -0.7310 -0.4202
  892TP3     H114495   4.049   0.334   9.916 -0.0118  0.1027 -1.9397
  892TP3     H214496   3.929   0.245   9.893  0.1039 -1.0385  1.4913
  893TP3      O14497   1.807   5.246   8.166  0.0099  0.0839 -0.3643
  893TP3     H114498   1.791   5.160   8.128  0.3901 -0.6448  1.0999
  893TP3     H214499   1.720   5.284   8.178 -0.2588 -0.7816  0.5116
  894TP3      O14500   2.243   4.429   2.211  0.0541  0.5000  0.1103
  894TP3     H114501   2.310   4.480   2.257 -0.5501  0.1494  1.4000
  894TP3     H214502   2.272   4.428   2.120  1.1130  1.4643  0.4267
  895TP3      O14503   3.246   3.448   7.541 -0.2713 -0.4975  0.7940
  895TP3     H114504   3.254   3.500   7.461  0.9734  0.3009  1.4258
  895TP3     H214505   3.237   3.358   7.510  0.0687 -0.1799 -0.2480
  896TP3      O14506   5.199   2.272   8.346 -0.8186  0.4155  0.5585
  896TP3     H114507   5.256   2.291   8.272 -2.4341  1.5645 -0.3971
  896TP3     H214508   5.221   2.339   8.411 -2.3695  2.0266 -0.5372
  897TP3      O14509   1.288   1.051   2.398  0.3529 -0.0836 -0.4097
  897TP3     H114510   1.260   1.042   2.489  2.6919  0.0509  0.3553
  897TP3     H214511   1.319   1.141   2.390  2.3959 -0.7769 -0.6653
  898TP3      O14512   1.263   2.448  10.055  0.7198 -0.1027  0.2187
  898TP3     H114513   1.326   2.492   9.998  1.4097 -1.8329 -0.3911
  898TP3     H214514   1.283   2.480  10.143  1.9131 -0.0119 -0.0737
  899TP3      O14515   4.012   4.345   0.181  0.0344 -0.1837  0.2791
  899TP3     H114516   3.975   4.258   0.196 -1.8838  0.2781 -1.6945
  899TP3     H214517   3.937   4.404   0.181  1.0431  1.1345 -1.0688
  900TP3      O14518   1.729   4.780   9.500  0.4629  0.4594 -0.3225
  900TP3     H114519   1.795   4.727   9.456 -0.8966 -0.8471 -0.8183
  900TP3     H214520   1.661   4.794   9.434 -0.4071  0.6318  0.5975
  901TP3      O14521   1.847   2.468   9.942  0.1396  0.1615  0.3145
  901TP3     H114522   1.907   2.542   9.939  2.3308 -1.5164  0.5794
  901TP3     H214523   1.864   2.420   9.861 -0.7281 -0.4415  0.4829
  902TP3      O14524   2.686   2.312   0.586 -0.2762 -0.5919  0.1314
  902TP3     H114525   2.619   2.255   0.548  0.3228 -0.4561 -1.1560
  902TP3     H214526   2.757   2.313   0.522  0.9458 -0.6632  1.4428
  903TP3      O14527   3.574   2.643   8.298 -0.0319  0.2061  0.1290
  903TP3     H114528   3.631   2.599   8.361 -1.4483 -0.5838  0.8998
  903TP3     H214529   3.621   2.639   8.215  1.0063 -0.4694  0.7447
  904TP3      O14530   1.839   1.451   8.484  0.0874 -0.5409 -0.3065
  904TP3     H114531   1.917   1.492   8.521 -0.3324  0.3474 -0.3729
  904TP3     H214532   1.818   1.380   8.545  1.1817 -1.0546 -0.5189
  905TP3      O14533   2.281   3.354   7.130 -0.5049 -0.2188 -0.2188
  905TP3     H114534   2.213   3.412   7.094  0.7243  0.3237 -1.7511
  905TP3     H214535   2.363   3.389   7.094  0.7180 -0.1790  2.4773
  906TP3      O14536   4.111   1.706   6.556 -0.4659  0.1182  0.0613
  906TP3     H114537   4.112   1.780   6.617 -0.7557  0.6762 -0.5995
  906TP3     H214538   4.139   1.631   6.608 -1.7375  0.3802  1.1515
  907TP3      O14539   2.214   2.722   7.955 -0.2048 -0.4813 -0.2187
  907TP3     H114540   2.216   2.686   7.866  1.8794  1.3134 -0.9637
  907TP3     H214541   2.261   2.658   8.008  2.2973  0.4282 -1.2645
  908TP3      O14542   1.532   3.154   7.617  0.2938  0.4875  0.5558
  908TP3     H114543   1.553   3.226   7.557  1.0848 -0.2877 -0.1117
  908TP3     H214544   1.583   3.173   7.696  1.0941  0.2679  0.0972
  909TP3      O14545   1.580   3.134   8.709  0.0935  0.4180 -0.1929
  909TP3     H114546   1.575   3.225   8.740 -0.7442  0.5135 -0.5951
  909TP3     H214547   1.622   3.140   8.624 -3.9611  0.9503 -2.2643
  910TP3      O14548   2.397   4.080   8.500  0.3135  0.5889  0.1414
  910TP3     H114549   2.491   4.060   8.510  0.5826  1.3891 -0.7379
  910TP3     H214550   2.353   4.009   8.547  1.3792  0.6653  1.2713
  911TP3      O14551   3.048   2.982   6.875 -0.6321 -0.0460 -0.6400
  911TP3     H114552   3.065   2.903   6.926  0.1772  0.4127 -0.1773
  911TP3     H214553   3.073   3.053   6.934  0.7557  0.4850 -1.8353
  912TP3      O14554   5.188   2.778   9.812  0.0385 -0.3162  0.1181
  912TP3     H114555   5.176   2.693   9.770  0.4579 -0.8254  1.0020
  912TP3     H214556   5.280   2.777   9.841 -0.2209  0.0501  0.9558
  913TP3      O14557   3.903   1.994   7.552 -0.6122  0.1757  0.7111
  913TP3     H114558   3.855   1.983   7.470  1.1449  2.2319 -0.6609
  913TP3     H214559   3.988   1.952   7.536 -0.3591  0.3600  1.5425
  914TP3      O14560   1.292   0.525   8.584 -0.0977 -0.0537  0.0669
  914TP3     H114561   1.346   0.451   8.609 -0.2487  0.5746  2.3072
  914TP3     H214562   1.245   0.550   8.664 -2.1468  0.7071 -1.3208
  915TP3      O14563   3.463   3.163   7.360  0.3565 -0.4637  0.1845
  915TP3     H114564   3.390   3.169   7.298 -2.4087  0.7552  3.4216
  915TP3     H214565   3.531   3.220   7.322 -1.1260 -0.0025 -1.8679
  916TP3      O14566   3.312   2.909   7.719  0.8416  0.1160 -0.2177
  916TP3     H114567   3.326   2.928   7.811  0.8062 -0.6762 -0.0432
  916TP3     H214568   3.391   2.862   7.691  0.0438 -1.3604 -0.0878
  917TP3      O14569   1.027   1.619   8.308  0.1183 -0.1225  0.0620
  917TP3     H114570   1.013   1.680   8.380 -0.1500  0.3629 -0.4003
  917TP3     H214571   1.001   1.667   8.229 -0.8170 -1.0818 -0.2295
  918TP3      O14572   2.958   3.379   9.549 -0.0338 -0.1624 -0.0949
  918TP3     H114573   3.048   3.399   9.574 -0.0819  1.1831 -0.9615
  918TP3     H214574   2.957   3.284   9.537  0.8557 -0.3958  1.5007
  919TP3      O14575   2.920   0.441   6.949 -0.0532 -0.7644  0.2140
  919TP3     H114576   2.900   0.357   6.991 -0.2807 -0.0674  1.5138
  919TP3     H214577   2.885   0.507   7.009  0.4437  0.2750 -0.6227
  920TP3      O14578   1.905   3.701   0.980  0.5980 -0.1155  0.5143
  920TP3     H114579   1.851   3.733   0.908 -1.6871 -1.6817  1.4930
  920TP3     H214580   1.936   3.780   1.024  2.6312  0.8897 -2.5787
  921TP3      O14581   1.841   3.765   0.320  0.1290 -0.4356 -0.0693
  921TP3     H114582   1.769   3.795   0.375  1.0542  0.8586  0.4864
  921TP3     H214583   1.800   3.711   0.253 -1.0472 -2.0106  1.8434
  922TP3      O14584   2.315   2.220   9.287 -0.3546  0.9470  0.2451
  922TP3     H114585   2.267   2.282   9.232  2.3570  0.3379 -2.9618
  922TP3     H214586   2.326   2.142   9.232  3.0818  0.5550  1.3734
  923TP3      O14587   2.641   0.951   1.172 -0.2575 -0.4360 -0.7321
  923TP3     H114588   2.602   0.887   1.112  1.3459 -1.7696 -0.4083
  923TP3     H214589   2.721   0.979   1.128 -1.0303  1.4847 -0.9324
  924TP3      O14590   0.223   0.788   1.265  1.3195  0.5172  0.1451
  924TP3     H114591   0.139   0.771   1.309  0.9330 -0.7806 -1.0444
  924TP3     H214592   0.284   0.729   1.307  1.7348  1.7356  1.2719
  925TP3      O14593   2.967   1.578   8.531 -0.5737 -0.6682  0.6247
  925TP3     H114594   2.947   1.491   8.498  1.7320 -0.9004 -0.2878
  925TP3     H214595   2.980   1.631   8.452 -0.0229  0.0227  1.1709
  926TP3      O14596   1.240   2.741   7.773 -0.8723  0.2965 -0.1417
  926TP3     H114597   1.232   2.712   7.864  0.1538 -0.1322 -0.1810
  926TP3     H214598   1.256   2.835   7.780 -1.6754  0.4276  0.0768
  927TP3      O14599   1.342   1.741   9.847 -0.2551 -0.3743  0.1060
  927TP3     H114600   1.308   1.655   9.871 -0.1638 -0.9434 -1.7695
  927TP3     H214601   1.281   1.802   9.888 -0.5246 -1.3267  1.1570
  928TP3      O14602   1.940   0.448   8.584 -0.2524 -0.3652 -0.0798
  928TP3     H114603   1.998   0.422   8.656 -1.0381  1.4683  1.2442
  928TP3     H214604   1.947   0.543   8.580  1.2078 -0.5223 -3.6900
  929TP3      O14605   0.052   0.589   0.782  0.2913 -0.3507 -1.3525
  929TP3     H114606   0.142   0.600   0.752  1.3756 -0.6499  1.6450
  929TP3     H214607   0.017   0.678   0.789  0.8503 -0.1550 -1.0760
  930TP3      O14608   0.023   0.691   0.135 -0.0047 -0.1962  0.4304
  930TP3     H114609   0.118   0.682   0.147  0.2773  1.2329 -0.5798
  930TP3     H214610   0.001   0.772   0.182 -0.5057  0.1499 -0.3961
  931TP3      O14611   4.752   1.355   7.727  0.1181 -0.5621  0.1288
  931TP3     H114612   4.816   1.314   7.784 -0.1604 -0.8723  0.2211
  931TP3     H214613   4.668   1.343   7.772 -0.3824 -2.6090 -1.3036
  932TP3      O14614   4.186   3.653   1.604 -0.1638  0.4930  0.2227
  932TP3     H114615   4.223   3.591   1.667  0.4312 -0.4749 -1.0460
  932TP3     H214616   4.094   3.628   1.596 -0.0564  0.1108  0.1391
  933TP3      O14617   1.633   2.760   8.543 -0.3284  0.0238 -0.6204
  933TP3     H114618   1.694   2.741   8.614 -2.3290 -0.3765  1.0628
  933TP3     H214619   1.625   2.855   8.543 -0.4934  0.0121 -0.1449
  934TP3      O14620   1.440   5.055   9.024 -0.7070 -0.1060  0.0977
  934TP3     H114621   1.525   5.054   9.069  0.5184 -0.4085 -2.1256
  934TP3     H214622   1.406   4.966   9.038 -0.3852 -0.1740  0.4889
  935TP3      O14623   3.735   1.448   7.278  0.5090 -0.2099  0.2098
  935TP3     H114624   3.741   1.430   7.184  0.9685  1.4946 -0.1018
  935TP3     H214625   3.808   1.400   7.316  1.4733  0.6288 -0.5535
  936TP3      O14626   0.702   3.381   7.451 -0.1252 -0.1973  0.0140
  936TP3     H114627   0.747   3.465   7.463 -0.8280  0.1939 -0.0466
  936TP3     H214628   0.773   3.317   7.443  0.4159  0.3179  0.5658
  937TP3      O14629   2.564   3.815   8.323  0.0414  0.5628  0.3329
  937TP3     H114630   2.635   3.872   8.294 -0.3186  0.2540 -1.2185
  937TP3     H214631   2.593   3.727   8.299 -0.8393  0.4332 -0.2692
  938TP3      O14632   3.838   3.943   0.902 -0.0627  0.0162 -0.2131
  938TP3     H114633   3.904   3.982   0.960 -0.2755  3.0479 -1.9078
  938TP3     H214634   3.767   4.007   0.901 -2.0800 -2.1549 -0.2315
  939TP3      O14635   4.600   5.018   2.210  0.3928  0.5318 -0.1498
  939TP3     H114636   4.673   5.070   2.243 -0.2052  1.0002  0.4792
  939TP3     H214637   4.522   5.069   2.235 -0.2291 -0.8930  0.8747
  940TP3      O14638   0.875   1.233   8.376 -0.2205 -0.2232 -0.5546
  940TP3     H114639   0.809   1.261   8.312 -0.8649  1.6046  0.8434
  940TP3     H214640   0.871   1.138   8.374 -0.7283 -0.1873 -2.7150
  941TP3      O14641   4.123   2.328   7.728 -0.5825  0.1146  0.3601
  941TP3     H114642   4.036   2.289   7.718  0.3865 -2.0216  0.1930
  941TP3     H214643   4.158   2.290   7.808  0.5967  0.2341 -0.0903
  942TP3      O14644   4.174   4.576   7.823 -0.0033  0.2564  0.2338
  942TP3     H114645   4.250   4.550   7.770  1.1616 -1.2162  2.5483
  942TP3     H214646   4.180   4.671   7.829  1.3776  0.1995 -0.0369
  943TP3      O14647   4.763   0.953   0.100  0.2190 -0.6785 -0.1151
  943TP3     H114648   4.837   0.991   0.147 -0.1850 -1.3656  1.0925
  943TP3     H214649   4.801   0.882   0.049  0.6480  0.0156 -0.7650
  944TP3      O14650   3.041   3.792   7.907 -0.2323  0.2204  0.6978
  944TP3     H114651   3.073   3.795   7.997  1.2089  1.2223  0.1649
  944TP3     H214652   3.092   3.722   7.866 -1.6820 -1.0040  0.9409
  945TP3      O14653   1.951   3.093   0.276  0.2060  0.4456  0.1261
  945TP3     H114654   1.974   3.105   0.184  1.0631 -5.5171 -0.5972
  945TP3     H214655   2.035   3.080   0.320 -0.3067  1.8033  1.5783
  946TP3      O14656   3.657   4.187   2.672  0.0311  0.0174 -0.1594
  946TP3     H114657   3.569   4.192   2.710  0.7457  0.0240  1.5430
  946TP3     H214658   3.690   4.277   2.677  0.6588 -0.2470  0.5086
  947TP3      O14659   1.503   2.684   0.251 -0.1799  0.7931 -0.5134
  947TP3     H114660   1.596   2.676   0.232  0.2327 -0.8132  1.9936
  947TP3     H214661   1.492   2.773   0.283  0.5583  0.8727 -0.4934
  948TP3      O14662   0.623   2.250   7.512  0.2381 -0.1465 -0.1731
  948TP3     H114663   0.649   2.206   7.593  0.5835  0.8552  0.2685
  948TP3     H214664   0.527   2.251   7.515  0.2506 -0.0735  0.2453
  949TP3      O14665   2.137   2.554   9.679 -0.3463  0.0134  0.2620
  949TP3     H114666   2.087   2.612   9.623  0.4168  1.3987  0.9901
  949TP3     H214667   2.122   2.587   9.768  1.1229 -0.1057  0.5692
  950TP3      O14668   3.924   0.053   0.298  0.2338  0.2094 -0.5355
  950TP3     H114669   3.910   0.052   0.204  1.4756 -0.0808 -0.7239
  950TP3     H214670   4.017   0.031   0.309 -0.1646 -0.8477  0.7996
  951TP3      O14671   3.941   4.766   1.663  0.3849  0.2261 -0.2220
  951TP3     H114672   3.898   4.714   1.596 -0.0824 -0.3373  0.5006
  951TP3     H214673   4.028   4.727   1.671  0.2928  0.0210 -0.2053
  952TP3      O14674   2.077   3.397   7.595  0.0047  0.5668 -0.4629
  952TP3     H114675   2.029   3.362   7.520  0.0937  1.9278 -1.1844
  952TP3     H214676   2.161   3.352   7.593  0.1316  0.8315 -1.3971
  953TP3      O14677   4.732   1.398   8.447  0.2233  0.3137 -0.4466
  953TP3     H114678   4.818   1.421   8.483 -0.0441  0.3358  0.1652
  953TP3     H214679   4.676   1.383   8.523 -0.7209  1.7744 -0.8452
  954TP3      O14680   1.142   5.283   9.330 -0.6020 -0.1177 -0.2982
  954TP3     H114681   1.191   5.203   9.347 -1.1402 -0.4379 -0.2472
  954TP3     H214682   1.062   5.254   9.286 -1.3580  0.2598  0.7915
  955TP3      O14683   3.321   3.909   8.873  0.6629 -0.1748 -0.1827
  955TP3     H114684   3.288   3.830   8.830  0.0736  1.5597 -3.0184
  955TP3     H214685   3.391   3.940   8.816  0.0948  2.0137  0.2748
  956TP3      O14686   4.738   2.463   7.479  0.1572  0.7295  0.1608
  956TP3     H114687   4.650   2.501   7.472 -0.0136  0.1782 -0.8522
  956TP3     H214688   4.774   2.470   7.390  0.2210 -1.2439  0.0153
  957TP3      O14689   4.525   1.639   8.826 -0.0274 -0.1795 -0.1833
  957TP3     H114690   4.613   1.606   8.809 -0.4547 -1.9151  0.9464
  957TP3     H214691   4.536   1.700   8.899  0.1231 -0.9306  0.4202
  958TP3      O14692   0.631   1.255   0.973 -0.8677 -0.2363 -0.2380
  958TP3     H114693   0.608   1.314   0.902 -0.2883  1.3207  0.8276
  958TP3     H214694   0.551   1.249   1.026 -0.9105 -0.3838 -0.3176
  959TP3      O14695   5.134   5.040   7.929  0.1090 -0.1229  0.2845
  959TP3     H114696   5.108   5.112   7.987 -0.6115  0.9393 -1.3149
  959TP3     H214697   5.069   5.041   7.859  1.8307 -0.3965 -1.3603
  960TP3      O14698   3.311   1.161   8.046  0.3250 -0.3494  0.3717
  960TP3     H114699   3.315   1.148   7.951  1.0509  3.1214 -0.1282
  960TP3     H214700   3.395   1.128   8.078  0.9196  0.3337 -0.4548
  961TP3      O14701   1.504   4.237   7.601 -0.2977  0.4532  0.4675
  961TP3     H114702   1.574   4.248   7.536 -1.3574  0.9967 -0.5815
  961TP3     H214703   1.536   4.283   7.678  1.2708 -0.7702  0.5816
  962TP3      O14704   0.083   1.057   8.523 -0.4603 -0.4777  0.2812
  962TP3     H114705   0.080   0.984   8.585 -0.7706  0.8112  1.8001
  962TP3     H214706   0.158   1.108   8.550 -0.7194  0.2134 -0.2966
  963TP3      O14707   4.154   5.249   8.910  0.8408 -0.0274  0.6570
  963TP3     H114708   4.140   5.330   8.959 -0.7402 -0.4512  0.9145
  963TP3     H214709   4.129   5.179   8.970 -2.3033 -0.5078 -1.0867
  964TP3      O14710   1.659   4.624   7.076  0.2203 -0.7600 -0.2775
  964TP3     H114711   1.588   4.587   7.023  0.6759 -0.0814 -1.3881
  964TP3     H214712   1.720   4.552   7.090  0.0493 -0.9676 -0.5987
  965TP3      O14713   1.719   0.929   8.528  0.1538  0.4996 -0.3799
  965TP3     H114714   1.648   0.902   8.469 -0.2085 -1.2174  0.8324
  965TP3     H214715   1.791   0.869   8.508  0.1248  0.0943  0.7409
  966TP3      O14716   2.390   0.736   8.995  0.6341 -0.4993 -0.1051
  966TP3     H114717   2.394   0.641   9.009 -1.0755 -0.6184 -0.2872
  966TP3     H214718   2.398   0.746   8.900  1.8004 -0.3882  0.0017
  967TP3      O14719   2.460   1.038   8.824 -0.3239  0.1753 -0.3008
  967TP3     H114720   2.455   0.948   8.791 -1.2254 -0.6186  1.8958
  967TP3     H214721   2.386   1.083   8.783  0.3516  0.0526 -1.7049
  968TP3      O14722   4.005   1.967   9.528 -0.2352  0.1150  0.0802
  968TP3     H114723   3.975   2.026   9.460 -2.0923 -0.0585  0.7372
  968TP3     H214724   4.072   1.913   9.485  0.2947  1.5532 -0.9566
  969TP3      O14725   4.208   3.131  10.124  0.6133 -0.7228  0.7689
  969TP3     H114726   4.297   3.153  10.094  0.0857 -0.9114 -1.0146
  969TP3     H214727   4.159   3.213  10.117  0.0447 -1.1661 -0.5746
  970TP3      O14728   3.403   3.397   8.393  0.7319 -0.0393 -0.1772
  970TP3     H114729   3.422   3.313   8.436  1.1755 -1.0853 -2.3710
  970TP3     H214730   3.460   3.399   8.317  1.0849  2.5086  0.0959
  971TP3      O14731   2.893   2.607   6.908  0.5700  0.3406 -0.4988
  971TP3     H114732   2.934   2.529   6.869  1.6032  1.3414 -1.4661
  971TP3     H214733   2.966   2.653   6.951 -0.1745  0.3806  0.7436
  972TP3      O14734   2.394   1.887   0.374  0.3953  0.2827  0.2032
  972TP3     H114735   2.373   1.913   0.463  0.1239 -0.9637  0.5085
  972TP3     H214736   2.470   1.829   0.383 -1.3071 -2.0428 -0.1138
  973TP3      O14737   1.193   0.252   9.274  0.4689  0.4540 -0.1335
  973TP3     H114738   1.235   0.231   9.191  2.4487  0.3423  0.8592
  973TP3     H214739   1.173   0.167   9.313  3.1328  0.3853  1.2320
  974TP3      O14740   2.813   4.675   9.378  0.6462  0.4539 -0.2079
  974TP3     H114741   2.838   4.741   9.314 -1.1426  0.0444 -1.3633
  974TP3     H214742   2.734   4.634   9.341 -0.2313 -0.0148  2.0742
  975TP3      O14743   1.232   0.665   7.517 -0.1634  0.2713 -0.3477
  975TP3     H114744   1.224   0.575   7.547  2.1929  0.8820  2.4106
  975TP3     H214745   1.307   0.665   7.459 -0.9443  0.2339 -1.3648
  976TP3      O14746   4.364   4.949   8.645 -0.3739 -0.3849 -0.3679
  976TP3     H114747   4.324   5.002   8.715 -2.1810  0.7394 -2.2010
  976TP3     H214748   4.345   4.858   8.672 -0.1844 -0.0121  1.0975
  977TP3      O14749   1.314   2.536   2.549  0.1646  0.1318 -0.5525
  977TP3     H114750   1.289   2.476   2.479  0.8129 -2.0790  1.0552
  977TP3     H214751   1.262   2.614   2.534 -0.2919 -0.6197 -3.0315
  978TP3      O14752   2.361   4.805   7.346 -0.1217 -0.3518  0.9247
  978TP3     H114753   2.404   4.764   7.271  0.5406  0.8745  0.6304
  978TP3     H214754   2.421   4.874   7.373 -0.4195 -0.6897  2.5027
  979TP3      O14755   1.904   4.920   7.765 -0.4324 -0.4854  0.4046
  979TP3     H114756   1.911   4.831   7.800  0.0269 -0.5498  0.1490
  979TP3     H214757   1.832   4.915   7.702  1.6106 -1.4462 -1.9371
  980TP3      O14758   5.105   3.170   8.909 -0.4066 -0.0340  0.0006
  980TP3     H114759   5.009   3.163   8.915 -0.3475 -1.5242 -0.5227
  980TP3     H214760   5.120   3.204   8.821 -0.4975  1.6994  0.6366
  981TP3      O14761   2.890   3.357   6.880 -0.2134  0.2346  0.1970
  981TP3     H114762   2.846   3.409   6.947 -0.1820 -1.2121  1.3741
  981TP3     H214763   2.823   3.294   6.851 -0.0417  0.4532 -0.6857
  982TP3      O14764   3.006   1.041   7.834 -0.4694 -0.1800  0.1789
  982TP3     H114765   2.924   1.064   7.791  0.5878  1.0050 -1.2208
  982TP3     H214766   3.035   0.961   7.789  0.7402  1.1723 -1.5022
  983TP3      O14767   0.983   1.095   6.874  0.0577  0.4321 -0.1914
  983TP3     H114768   0.922   1.146   6.927 -0.3854  0.5695 -0.8345
  983TP3     H214769   0.928   1.048   6.811  0.4174 -1.0813  0.5826
  984TP3      O14770   1.312   3.221   8.901 -0.8907 -0.3119  0.0632
  984TP3     H114771   1.290   3.146   8.846 -1.3335  0.3190 -0.6230
  984TP3     H214772   1.367   3.276   8.846 -0.6664 -0.0669  0.5247
  985TP3      O14773   0.452   2.537   1.095 -0.2106  0.1000 -0.1724
  985TP3     H114774   0.545   2.550   1.079  0.5227 -1.4647  2.4689
  985TP3     H214775   0.422   2.486   1.019  1.0223  0.7792 -1.1344
  986TP3      O14776   4.281   3.942   9.678 -0.0334  0.4395  0.1222
  986TP3     H114777   4.315   4.001   9.611  0.9406  0.5500  0.7063
  986TP3     H214778   4.355   3.884   9.699 -0.3991  0.2551  0.9259
  987TP3      O14779   4.517   0.528   7.364 -0.2748 -0.0953 -0.5028
  987TP3     H114780   4.580   0.581   7.411  0.2034  0.5791 -1.8814
  987TP3     H214781   4.458   0.591   7.322  0.1676 -0.6320 -1.9714
  988TP3      O14782   4.645   2.172   9.491 -0.5550 -0.0583  0.1703
  988TP3     H114783   4.623   2.250   9.441 -0.9258 -0.0945  0.2697
  988TP3     H214784   4.560   2.136   9.517 -0.3830 -0.4264  0.2278
  989TP3      O14785   2.051   2.293   7.450 -0.0010 -0.3836 -0.4862
  989TP3     H114786   2.129   2.347   7.440 -0.7970  1.1426  1.2608
  989TP3     H214787   1.997   2.314   7.374  0.5923 -0.2366 -0.8677
  990TP3      O14788   1.790   2.199   8.451  0.3000 -0.0312  0.1977
  990TP3     H114789   1.819   2.191   8.360 -0.9463 -0.2985 -0.1834
  990TP3     H214790   1.804   2.292   8.472  2.3642 -0.3463  0.3673
  991TP3      O14791   2.601   2.669   0.063 -0.4573 -0.6045 -0.0402
  991TP3     H114792   2.626   2.605  -0.003 -0.3994 -3.2708  2.4360
  991TP3     H214793   2.556   2.618   0.131  0.1681  1.8541  2.3606
  992TP3      O14794   0.067   2.098   9.335 -0.2490 -0.3164 -0.3455
  992TP3     H114795   0.129   2.028   9.354  0.5359  1.0149  2.2738
  992TP3     H214796  -0.010   2.078   9.389 -0.3776  0.3263 -0.2756
  993TP3      O14797   1.090   4.409   0.078 -0.2359  0.2910 -0.9959
  993TP3     H114798   1.139   4.336   0.040 -0.5530  0.3330 -1.4826
  993TP3     H214799   1.142   4.486   0.059  1.4829 -0.0754  1.8335
  994TP3      O14800   1.332   1.875   8.468 -0.2405  0.3274  0.1739
  994TP3     H114801   1.340   1.971   8.469  1.1929  0.2107 -0.0828
  994TP3     H214802   1.417   1.844   8.438 -0.3925 -1.0756  1.1696
  995TP3      O14803   3.989   1.519   8.448  0.4464  0.0287  0.2196
  995TP3     H114804   3.996   1.426   8.426  0.2982 -0.6878  3.0228
  995TP3     H214805   4.079   1.551   8.444  0.4133 -0.0504 -1.4463
  996TP3      O14806   2.895   3.643   8.209  0.1265 -0.3138 -0.3988
  996TP3     H114807   2.927   3.597   8.286  1.9809  0.2509 -0.8230
  996TP3     H214808   2.932   3.731   8.216 -1.5780  0.4586 -0.7517
  997TP3      O14809   4.674   2.247   7.616 -0.1672 -0.6692 -0.2723
  997TP3     H114810   4.701   2.329   7.576 -0.3650  0.6023  2.0897
  997TP3     H214811   4.738   2.233   7.686  0.7616 -3.3241 -1.5863
  998TP3      O14812   0.575   2.204   8.471  0.1738  0.7095 -0.0279
  998TP3     H114813   0.649   2.250   8.432  2.4608 -1.2903  1.7447
  998TP3     H214814   0.584   2.114   8.440 -2.0611  0.6216 -0.4938
  999TP3      O14815   0.903   3.868   9.225 -0.8679  0.0467  0.4073
  999TP3     H114816   0.963   3.933   9.262 -2.3096  1.3480  0.4969
  999TP3     H214817   0.934   3.785   9.261  0.3050  0.8006  1.2003
 1000TP3      O14818   4.784   2.896   6.847 -0.2769 -0.4825  0.4311
 1000TP3     H114819   4.775   2.979   6.800  1.5101 -0.2610  0.4273
 1000TP3     H214820   4.720   2.838   6.806 -1.1414  0.7275  0.0498
 1001TP3      O14821   4.291   1.251   8.538  0.3295  0.0446  0.8161
 1001TP3     H114822   4.302   1.175   8.481  0.3591  0.4949  0.2233
 1001TP3     H214823   4.216   1.298   8.501  2.7805  2.4802 -1.2379
 1002TP3      O14824   4.457   1.622   7.419  0.0373  0.3476  0.6495
 1002TP3     H114825   4.433   1.529   7.412  2.7212 -0.3240 -0.1973
 1002TP3     H214826   4.413   1.651   7.499 -1.0845 -1.5743  0.7847
 1003TP3      O14827   5.187   0.645   2.461  0.4859  0.3052 -0.0297
 1003TP3     H114828   5.218   0.577   2.402  1.6227 -0.9654  1.9632
 1003TP3     H214829   5.241   0.722   2.440  0.4960  0.0320 -1.0074
 1004TP3      O14830   3.708   3.940   9.003  0.2427 -0.5028  0.3559
 1004TP3     H114831   3.785   3.892   8.971  0.7496  0.3210  0.3360
 1004TP3     H214832   3.715   4.026   8.962  0.1215  0.0780  1.5361
 1005TP3      O14833   1.656   3.933   1.313 -0.6653  0.0714  0.0359
 1005TP3     H114834   1.599   3.894   1.379 -1.6426  0.5560 -0.5070
 1005TP3     H214835   1.637   3.884   1.233 -0.0734  0.0180 -0.0743
 1006TP3      O14836   1.815   3.749   7.909  0.1434 -0.3797 -0.2775
 1006TP3     H114837   1.823   3.654   7.908 -1.8155 -0.5513 -1.5353
 1006TP3     H214838   1.871   3.778   7.837 -0.9364 -0.7481 -1.2876
 1007TP3      O14839   4.119   3.207   7.113 -0.3851 -0.7696  0.1514
 1007TP3     H114840   4.169   3.171   7.186 -0.4408 -0.1448  0.4964
 1007TP3     H214841   4.170   3.282   7.083 -0.5671 -0.7829 -0.1946
 1008TP3      O14842   5.094   0.987   1.497 -0.1854 -0.6911  0.0475
 1008TP3     H114843   5.071   1.076   1.469  1.2074 -0.3318  0.0310
 1008TP3     H214844   5.167   0.999   1.558  0.7748 -1.8975 -0.8464
 1009TP3      O14845   4.040   0.850   8.590 -0.3558 -0.0287  0.7949
 1009TP3     H114846   3.973   0.877   8.528  0.6355  0.6466  0.0021
 1009TP3     H214847   4.005   0.875   8.675 -0.0724  2.5596  0.1921
 1010TP3      O14848   3.930   1.555   8.168 -0.3415 -0.2092  0.4272
 1010TP3     H114849   4.001   1.567   8.105 -0.3793  3.7616  1.0221
 1010TP3     H214850   3.974   1.559   8.253 -1.0340  0.2856  0.7599
 1011TP3      O14851   0.706   1.196   9.244 -0.5641  0.4296  0.0544
 1011TP3     H114852   0.751   1.148   9.313  0.0678  0.5625 -0.2640
 1011TP3     H214853   0.690   1.283   9.282 -2.1607 -0.1592  0.8195
 1012TP3      O14854   5.052   2.540   8.758 -0.1290 -0.9458  0.0500
 1012TP3     H114855   5.064   2.448   8.734  0.2543 -0.7093 -0.6939
 1012TP3     H214856   5.107   2.588   8.696  1.8090 -0.3708  2.1755
 1013TP3      O14857   4.860   3.899   6.957 -0.0812 -0.0352 -0.6612
 1013TP3     H114858   4.816   3.975   6.919 -1.4612  0.7818  2.4124
 1013TP3     H214859   4.804   3.825   6.934 -0.0187  0.1998 -1.6044
 1014TP3      O14860   2.656   1.479   7.939 -0.1236 -0.1922  0.1247
 1014TP3     H114861   2.732   1.534   7.923  0.0406  0.0350  1.6225
 1014TP3     H214862   2.690   1.406   7.991 -0.7542 -0.5619  0.0215
 1015TP3      O14863   2.402   3.156  10.084  0.1290 -0.3755  0.4254
 1015TP3     H114864   2.370   3.087  10.142 -0.6116 -1.3316 -1.0615
 1015TP3     H214865   2.438   3.108  10.009  1.4653  0.8102  0.2826
 1016TP3      O14866   2.379   2.580   8.856  0.0521  0.5764 -0.0075
 1016TP3     H114867   2.449   2.623   8.806  0.1333  0.8028  0.3007
 1016TP3     H214868   2.334   2.526   8.791  1.0746 -0.2785 -0.0252
 1017TP3      O14869   2.444   1.074   7.416 -0.0247  0.6753 -0.8909
 1017TP3     H114870   2.454   1.125   7.336  1.1639  2.9083  0.6247
 1017TP3     H214871   2.532   1.040   7.434 -0.4595 -0.5339 -0.9730
 1018TP3      O14872   1.409   0.933   1.782 -0.5572 -0.4229 -0.7031
 1018TP3     H114873   1.404   1.028   1.767  0.3147 -0.3477 -0.5525
 1018TP3     H214874   1.483   0.923   1.843 -0.1487 -1.2713 -1.3363
 1019TP3      O14875   0.553   2.075   1.040  0.1767 -0.6606  0.1357
 1019TP3     H114876   0.538   2.078   1.134  0.4129  1.9379  0.1322
 1019TP3     H214877   0.620   2.007   1.028  1.5321  0.2851  2.0484
 1020TP3      O14878   5.253   5.156   7.632  0.0336 -0.0058  0.0042
 1020TP3     H114879   5.303   5.079   7.606 -2.0777 -1.6162  0.5552
 1020TP3     H214880   5.198   5.175   7.555  0.5097  0.9383 -0.1122
 1021TP3      O14881   0.879   4.424   8.878  0.2642 -0.3009  0.3632
 1021TP3     H114882   0.857   4.355   8.940 -0.9618 -1.8015 -1.6855
 1021TP3     H214883   0.839   4.503   8.915 -1.1961 -1.3519  1.0634
 1022TP3      O14884   0.544   3.999   6.794 -0.6449  0.4217 -0.0380
 1022TP3     H114885   0.520   3.907   6.785 -0.4879  0.3996 -0.2147
 1022TP3     H214886   0.629   4.007   6.752  0.1514  0.2850  1.5054
 1023TP3      O14887   4.980   1.946   1.492 -0.4764  0.1712 -0.3298
 1023TP3     H114888   5.019   1.926   1.577 -2.2091 -0.6411  0.2924
 1023TP3     H214889   4.987   1.864   1.443 -0.9634  0.1578 -0.3807
 1024TP3      O14890   0.267   3.537   7.042 -0.1147  0.3763 -0.2686
 1024TP3     H114891   0.354   3.527   7.002  0.5198 -1.9465  1.6003
 1024TP3     H214892   0.251   3.631   7.040  2.1283  0.7769 -1.3114
 1025TP3      O14893   1.517   2.525   9.281 -0.4890 -0.0993 -0.1909
 1025TP3     H114894   1.542   2.439   9.248  0.2911  0.0839 -0.0741
 1025TP3     H214895   1.492   2.509   9.372 -1.9738 -0.4839 -0.6440
 1026TP3      O14896   1.775   1.129   8.268  0.1993 -0.3016  0.4022
 1026TP3     H114897   1.768   1.116   8.363 -0.7439  0.0710  0.3966
 1026TP3     H214898   1.842   1.196   8.258  1.0530 -1.0927  0.7411
 1027TP3      O14899   0.056   2.423   7.643  0.0941  0.3586 -0.4155
 1027TP3     H114900   0.063   2.394   7.551 -0.8270 -1.1324 -0.0323
 1027TP3     H214901  -0.018   2.483   7.643  0.6086  1.0023 -0.7963
 1028TP3      O14902   4.033   1.514   0.739 -0.5151  0.3913  0.0537
 1028TP3     H114903   4.127   1.514   0.719 -0.5156 -0.1572  0.0333
 1028TP3     H214904   4.018   1.596   0.784  0.5851 -0.9285  2.9563
 1029TP3      O14905   4.127   1.444  10.096  0.5259 -0.2754 -0.1881
 1029TP3     H114906   4.052   1.428  10.038  0.4768 -1.5071  0.2019
 1029TP3     H214907   4.185   1.500  10.045 -0.2541 -0.0338 -0.8283
 1030TP3      O14908   2.642   3.522   8.278  0.0989 -0.7269 -0.2183
 1030TP3     H114909   2.716   3.542   8.221  0.1414  0.3348  0.1974
 1030TP3     H214910   2.565   3.528   8.221  0.4194 -3.1089 -0.9511
 1031TP3      O14911   2.330   3.292   9.719 -0.5429  0.2571  0.1328
 1031TP3     H114912   2.390   3.363   9.743  0.2860 -0.5319  0.3884
 1031TP3     H214913   2.307   3.310   9.628 -0.4716  0.9464  0.2483
 1032TP3      O14914   5.081   1.577   7.443  0.2705  0.0619 -0.2480
 1032TP3     H114915   5.133   1.547   7.368 -0.6944  1.3058 -1.4444
 1032TP3     H214916   5.103   1.670   7.451 -1.0959  0.3897 -0.2043
 1033TP3      O14917   5.248   1.300   7.872 -0.0521 -0.3082 -0.0912
 1033TP3     H114918   5.323   1.316   7.929  0.3899  0.4687 -0.8743
 1033TP3     H214919   5.247   1.205   7.861  0.3251 -0.3937  0.5772
 1034TP3      O14920   3.931   3.830   8.886 -0.3461  0.0483 -0.2394
 1034TP3     H114921   3.914   3.821   8.792 -0.4495 -1.4082 -0.0997
 1034TP3     H214922   4.016   3.787   8.899 -1.0755 -1.1720  0.5797
 1035TP3      O14923   3.121   0.678   9.240  0.0614  0.1593  0.0755
 1035TP3     H114924   3.139   0.732   9.316 -0.1846  1.7760 -0.9948
 1035TP3     H214925   3.030   0.699   9.216  0.2930  0.0336 -0.9442
 1036TP3      O14926   2.400   3.454  10.164 -0.1789 -0.3109  0.3166
 1036TP3     H114927   2.457   3.381  10.138 -1.9120 -1.2722 -0.8581
 1036TP3     H214928   2.400   3.452  10.260  0.1454 -1.5543  0.2946
 1037TP3      O14929   3.609   0.346   9.534  0.7209  0.2609 -0.2634
 1037TP3     H114930   3.633   0.344   9.442  1.3179  0.1607 -0.1012
 1037TP3     H214931   3.528   0.295   9.539  0.5033  0.5533 -0.7846
 1038TP3      O14932   4.496   0.795   0.784 -0.2762 -0.1039  0.0706
 1038TP3     H114933   4.494   0.701   0.801 -0.3451  0.0097  0.7098
 1038TP3     H214934   4.504   0.802   0.689 -1.4254 -0.7453 -0.0832
 1039TP3      O14935   4.159   4.659   9.213  0.0427 -0.0880  0.1589
 1039TP3     H114936   4.151   4.565   9.197  2.2299 -0.0691 -1.1564
 1039TP3     H214937   4.235   4.667   9.271  0.7609  0.9871 -0.9284
 1040TP3      O14938   0.062   0.787   9.060 -0.4474 -0.4746  0.1794
 1040TP3     H114939  -0.009   0.808   9.121 -0.7884 -0.9883 -0.0388
 1040TP3     H214940   0.082   0.871   9.018 -1.7606 -0.5504 -0.6427
 1041TP3      O14941   3.735   1.361   9.608 -0.2298  0.4805  0.6205
 1041TP3     H114942   3.732   1.280   9.556 -0.4579  1.0119 -0.1991
 1041TP3     H214943   3.754   1.331   9.697 -1.7454 -0.6157  0.5990
 1042TP3      O14944   4.068   5.261   8.248 -0.6779  0.1012 -0.1729
 1042TP3     H114945   4.127   5.284   8.176 -1.1421  1.5404 -0.1074
 1042TP3     H214946   4.056   5.167   8.240  2.5739 -0.4334  0.5003
 1043TP3      O14947   5.022   3.203   9.221 -0.1401 -0.5885  0.0368
 1043TP3     H114948   5.054   3.193   9.310  2.1404 -1.9334 -0.8771
 1043TP3     H214949   5.012   3.113   9.189 -0.9089 -0.1270 -1.0644
 1044TP3      O14950   3.118   0.095   7.098  0.1888 -0.0425  0.0433
 1044TP3     H114951   3.123  -0.001   7.090 -0.1123 -0.0364 -0.2020
 1044TP3     H214952   3.203   0.126   7.067  0.4088 -0.2529  0.4334
 1045TP3      O14953   5.297   3.733  10.002  0.3092 -0.5807  0.1773
 1045TP3     H114954   5.279   3.672  10.075  1.7259 -0.0855  0.9530
 1045TP3     H214955   5.364   3.689   9.951 -0.5535 -0.8408 -0.7457
 1046TP3      O14956   0.119   2.505   0.529  0.2936  0.7511 -0.1006
 1046TP3     H114957   0.143   2.551   0.610  0.4736  0.0622  0.2385
 1046TP3     H214958   0.089   2.574   0.470 -1.1156  1.1141  1.0101
 1047TP3      O14959   5.106   0.082   9.103  0.4108 -0.3140  0.0673
 1047TP3     H114960   5.095   0.078   9.008  0.3250  1.3253 -0.0076
 1047TP3     H214961   5.188   0.036   9.120 -0.0239 -1.4063 -0.6947
 1048TP3      O14962   3.535   3.411   8.174 -0.3564  0.2751  0.6150
 1048TP3     H114963   3.549   3.496   8.131 -0.6661  1.0551  2.0266
 1048TP3     H214964   3.504   3.354   8.104 -1.7190  1.7684 -0.0325
 1049TP3      O14965   4.214   1.405   6.609  0.0261  0.6357  0.0458
 1049TP3     H114966   4.121   1.394   6.594  0.3852 -0.7416 -1.3460
 1049TP3     H214967   4.220   1.457   6.689 -1.9198  0.7332  0.1428
 1050TP3      O14968   3.743   2.243   8.309  0.2644 -0.2054  0.3112
 1050TP3     H114969   3.812   2.233   8.242  1.4868  0.4470  1.4411
 1050TP3     H214970   3.769   2.322   8.357 -1.2403 -0.0137  0.8142
 1051TP3      O14971   3.908   3.599   1.156  0.1208  0.4110 -0.0601
 1051TP3     H114972   4.000   3.590   1.132  0.2537 -1.3365  1.0550
 1051TP3     H214973   3.904   3.575   1.249 -1.4149  0.7853  0.0012
 1052TP3      O14974   4.145   1.952   7.132  0.0942  0.3842 -0.3878
 1052TP3     H114975   4.098   1.887   7.079  1.1540 -0.0071 -0.8675
 1052TP3     H214976   4.227   1.908   7.156  0.6221  1.3811 -0.3491
 1053TP3      O14977   3.857   2.460   0.685 -0.1390  0.2746  0.1050
 1053TP3     H114978   3.916   2.388   0.707 -0.2476 -0.3394 -1.5648
 1053TP3     H214979   3.889   2.493   0.602 -1.5556  0.5884 -0.3347
 1054TP3      O14980   0.926   1.656   7.575 -0.0964  0.8123 -0.7623
 1054TP3     H114981   0.899   1.567   7.550 -0.0931  0.2121  1.2285
 1054TP3     H214982   0.949   1.648   7.668  3.5947  2.0739 -1.4798
 1055TP3      O14983   3.899   2.204   8.692 -0.3344 -0.0779 -0.0312
 1055TP3     H114984   3.896   2.270   8.761  2.1580  0.3888 -0.3205
 1055TP3     H214985   3.905   2.121   8.739  1.9530  0.2741  0.3862
 1056TP3      O14986   5.202   2.019   7.241  0.0651 -0.4739 -0.3287
 1056TP3     H114987   5.138   1.996   7.173 -0.1641 -0.8521  0.0133
 1056TP3     H214988   5.277   2.053   7.192 -1.4152  2.4979 -0.6212
 1057TP3      O14989   1.012   3.535   1.911 -0.3985  0.8593  0.4026
 1057TP3     H114990   0.996   3.628   1.924  0.4862  1.4469 -2.2594
 1057TP3     H214991   0.946   3.508   1.847  0.9029  0.2711 -0.7339
 1058TP3      O14992   3.372   1.605   7.566  0.1407 -0.4635 -0.5118
 1058TP3     H114993   3.452   1.653   7.587  0.4262 -1.1641  0.0212
 1058TP3     H214994   3.328   1.660   7.501  0.1453  0.8398  0.5627
 1059TP3      O14995   0.276   3.220   7.678 -0.4729 -0.0911  0.4533
 1059TP3     H114996   0.282   3.293   7.617  1.7771 -1.2953 -0.8280
 1059TP3     H214997   0.365   3.210   7.712 -0.3043 -3.4181 -0.8207
 1060TP3      O14998   0.259   1.248   8.597 -0.8170  0.0124 -0.8174
 1060TP3     H114999   0.338   1.266   8.647 -0.1127 -0.8941 -1.5855
 1060TP3     H215000   0.191   1.301   8.639  0.0282  0.2056  0.3175
 1061TP3      O15001   2.276   4.699   8.441  0.2442 -0.1122 -0.3172
 1061TP3     H115002   2.332   4.694   8.364 -1.5379 -1.1374 -1.5784
 1061TP3     H215003   2.251   4.791   8.446  1.5154  0.2346 -0.0973
 1062TP3      O15004   0.614   4.438   9.646 -0.2558  0.0382  0.3634
 1062TP3     H115005   0.594   4.532   9.654 -2.6959 -0.1881 -2.4333
 1062TP3     H215006   0.564   4.397   9.716 -0.8970  0.5984  0.2304
 1063TP3      O15007   0.783   2.876   7.420  0.4106  0.2775  0.7547
 1063TP3     H115008   0.780   2.851   7.328  1.6739  1.0233  0.5024
 1063TP3     H215009   0.870   2.914   7.432 -0.0865  1.0411  2.0342
 1064TP3      O15010   0.095   2.659   7.430 -0.4451 -0.0072  0.2957
 1064TP3     H115011   0.188   2.637   7.436 -0.7062 -1.0785  0.6806
 1064TP3     H215012   0.055   2.583   7.388 -1.1721  0.3711  0.2874
 1065TP3      O15013   1.553   2.525   7.391 -0.9281 -0.1041  0.4469
 1065TP3     H115014   1.488   2.533   7.460 -2.6005  4.2291 -1.4107
 1065TP3     H215015   1.513   2.467   7.326 -1.2137 -0.6437  1.1039
 1066TP3      O15016   0.534   3.285   9.052  0.3292  0.1882  0.0656
 1066TP3     H115017   0.527   3.193   9.026 -1.5414 -0.2727  2.0824
 1066TP3     H215018   0.542   3.283   9.147 -1.2650  2.1700  0.2860
 1067TP3      O15019   3.320   2.669   7.968  0.5049  0.2080 -0.4921
 1067TP3     H115020   3.350   2.756   7.995  1.0601 -0.8752  2.6394
 1067TP3     H215021   3.381   2.643   7.899  1.2213  1.7099 -0.4403
 1068TP3      O15022   3.584   3.621   8.022  0.4530 -0.2657 -0.2665
 1068TP3     H115023   3.560   3.699   8.072  1.7496  0.5416 -0.8757
 1068TP3     H215024   3.551   3.639   7.934  1.3310 -0.1139 -0.5666
 1069TP3      O15025   5.039   0.519   6.942 -0.3549 -0.2749  0.4074
 1069TP3     H115026   5.122   0.490   6.978 -0.9543 -0.2464  1.8803
 1069TP3     H215027   5.057   0.540   6.850  0.5829 -3.1193 -0.0937
 1070TP3      O15028   3.731   2.873   6.675 -0.3450 -0.0672 -0.3155
 1070TP3     H115029   3.669   2.890   6.603  0.1037  0.9315 -0.4848
 1070TP3     H215030   3.771   2.789   6.653 -0.2670  0.1950 -1.1998
 1071TP3      O15031   2.616   3.501   9.053  0.1248 -0.4281 -0.2973
 1071TP3     H115032   2.679   3.565   9.086  1.4274 -1.4495 -0.7360
 1071TP3     H215033   2.599   3.529   8.963  0.1881 -0.3102 -0.2724
 1072TP3      O15034   3.354   3.122   8.380  0.3027  0.6989 -0.3647
 1072TP3     H115035   3.339   3.096   8.289 -0.7943 -1.7473  0.4570
 1072TP3     H215036   3.268   3.111   8.421  0.9355  1.1966  1.0987
 1073TP3      O15037   4.265   0.098   9.304  0.6767 -0.0370  0.6419
 1073TP3     H115038   4.297   0.012   9.277 -0.1692 -0.1932  0.1345
 1073TP3     H215039   4.187   0.113   9.251  1.9171  1.9075 -0.6811
 1074TP3      O15040   3.559   2.863   7.594 -0.3796 -0.0597  0.4671
 1074TP3     H115041   3.607   2.945   7.608  0.0670 -0.2917  0.3049
 1074TP3     H215042   3.537   2.865   7.501  0.1503 -0.4037  0.3339
 1075TP3      O15043   0.472   1.534   8.435  0.0997  0.1371 -0.6908
 1075TP3     H115044   0.560   1.563   8.414  0.6457  0.8800  2.3196
 1075TP3     H215045   0.484   1.449   8.477 -0.6915 -0.2525 -1.2574
 1076TP3      O15046   3.615   3.167   8.374  0.2511 -0.0399  0.4326
 1076TP3     H115047   3.521   3.149   8.366  0.0901  0.2564  1.5791
 1076TP3     H215048   3.657   3.091   8.334 -0.4782  0.6631 -1.7460
 1077TP3      O15049   3.392   2.910   9.197  0.0143  0.0652 -0.4923
 1077TP3     H115050   3.369   2.986   9.251 -1.9599 -0.9257  0.1082
 1077TP3     H215051   3.352   2.928   9.112  0.8857  0.4154 -0.8315
 1078TP3      O15052   2.330   3.920   9.555 -0.1003 -0.1729 -0.1447
 1078TP3     H115053   2.251   3.890   9.601 -0.0854  0.1456  0.0913
 1078TP3     H215054   2.402   3.891   9.610 -0.1233  1.1683  0.5991
 1079TP3      O15055   0.068   4.491   8.395 -0.5773  0.0239  0.0327
 1079TP3     H115056   0.154   4.514   8.362 -0.5403  1.2548  0.9823
 1079TP3     H215057   0.007   4.545   8.345 -0.6773  0.3103  0.4551
 1080TP3      O15058   2.485   1.773   7.382  0.2593 -0.5785 -0.2995
 1080TP3     H115059   2.517   1.862   7.395  1.9746 -1.2629  0.2800
 1080TP3     H215060   2.526   1.744   7.300  1.0153 -1.4048  0.3605
 1081TP3      O15061   4.933   3.027   8.339 -0.0593 -0.1287 -0.5163
 1081TP3     H115062   4.955   3.119   8.357  0.2373  0.4628 -3.6355
 1081TP3     H215063   5.005   2.996   8.285 -1.2873 -1.5545 -1.3448
 1082TP3      O15064   1.807   2.272   0.373  0.6548 -0.1926  0.0956
 1082TP3     H115065   1.901   2.286   0.381  0.6015  0.6534 -0.7090
 1082TP3     H215066   1.783   2.312   0.289 -0.3879 -0.5644  0.2036
 1083TP3      O15067   2.753   3.108   7.952  0.3065 -0.5008 -0.7806
 1083TP3     H115068   2.687   3.098   7.884  1.1764 -0.4307 -1.6559
 1083TP3     H215069   2.821   3.045   7.928  0.5521 -0.5809  0.1094
 1084TP3      O15070   1.439   2.138   7.391 -0.2246  0.4989  0.0688
 1084TP3     H115071   1.351   2.126   7.427 -0.6783 -1.3395 -1.5388
 1084TP3     H215072   1.428   2.200   7.319 -0.1215  0.6700  0.2019
 1085TP3      O15073   0.573   1.528   7.155  0.1626 -0.8444  0.2759
 1085TP3     H115074   0.539   1.447   7.194  0.6582 -0.9860  0.4222
 1085TP3     H215075   0.667   1.527   7.176  0.4865 -1.0338 -1.1164
 1086TP3      O15076   4.161   1.361   7.358 -0.6607 -0.1385  0.1620
 1086TP3     H115077   4.065   1.357   7.349 -0.7597  1.3032  0.3321
 1086TP3     H215078   4.189   1.415   7.284  0.0225 -0.5894  0.0927
 1087TP3      O15079   0.118   4.944   7.508 -0.0174  0.1553  0.0866
 1087TP3     H115080   0.063   4.868   7.525  1.0503 -0.2522  1.8343
 1087TP3     H215081   0.134   4.942   7.413 -1.0320 -1.0553 -0.0653
 1088TP3      O15082   2.065   0.363  10.031 -0.3403 -0.2352  0.8635
 1088TP3     H115083   2.065   0.393   9.940 -3.1085  0.4055  1.0414
 1088TP3     H215084   2.154   0.379  10.061  0.2099  0.9229 -1.2848
 1089TP3      O15085   1.151   2.237   7.123  0.2198 -0.2026 -0.2053
 1089TP3     H115086   1.196   2.304   7.072 -1.3239  0.9399 -0.1043
 1089TP3     H215087   1.085   2.202   7.063 -0.2136 -0.3225  0.3386
 1090TP3      O15088   1.483   3.244   8.198  0.4476  0.3147 -0.2902
 1090TP3     H115089   1.526   3.159   8.211 -0.0857  0.1229  0.1940
 1090TP3     H215090   1.510   3.270   8.110  0.8375 -0.2300 -0.3367
 1091TP3      O15091   4.211   4.590   7.487 -0.1862 -0.8195  0.3670
 1091TP3     H115092   4.226   4.517   7.428  0.5835 -2.2509  2.2588
 1091TP3     H215093   4.272   4.575   7.559  1.3587  2.7437 -0.1000
 1092TP3      O15094   5.071   5.170   7.403  0.2824 -0.3855 -0.0168
 1092TP3     H115095   5.031   5.247   7.445 -1.1558 -0.5146 -1.1462
 1092TP3     H215096   5.097   5.201   7.317 -0.1383 -1.1260 -0.4080
 1093TP3      O15097   3.242   1.442   8.467 -0.8386 -0.0707  0.1984
 1093TP3     H115098   3.219   1.535   8.464 -0.9579 -0.0844  0.6339
 1093TP3     H215099   3.331   1.441   8.503 -1.6495 -0.2446  2.2868
 1094TP3      O15100   0.046   1.950   8.207 -0.1498  0.2560 -0.1101
 1094TP3     H115101   0.011   2.013   8.143 -1.2154  0.4410  0.6518
 1094TP3     H215102  -0.025   1.937   8.269  0.5944 -0.5750  0.5723
 1095TP3      O15103   1.247   0.662   2.374  0.1526 -0.4014 -0.1350
 1095TP3     H115104   1.182   0.726   2.401 -1.2388 -0.6846 -2.6902
 1095TP3     H215105   1.229   0.585   2.427  0.8247  0.7406  1.8173
 1096TP3      O15106   3.985   1.627   1.119  0.6116 -0.1341 -0.0727
 1096TP3     H115107   3.983   1.683   1.042 -3.4552  0.0241  0.0465
 1096TP3     H215108   4.003   1.687   1.192  0.3315  0.3696 -0.4143
 1097TP3      O15109   3.901   3.425   3.341  0.3302 -0.0580 -0.1727
 1097TP3     H115110   3.989   3.462   3.344  0.6306 -0.8776  1.5923
 1097TP3     H215111   3.853   3.482   3.280  1.4371  1.7580  0.6103
 1098TP3      O15112   0.744   4.178   1.613  0.0631 -0.1861 -0.3924
 1098TP3     H115113   0.815   4.205   1.555  0.5185 -1.3057 -0.3538
 1098TP3     H215114   0.740   4.083   1.604 -2.0639 -0.0715 -1.1468
 1099TP3      O15115   5.300   4.165   1.790 -0.0876 -0.0970 -0.1350
 1099TP3     H115116   5.214   4.193   1.821 -0.5103 -0.9264 -0.5393
 1099TP3     H215117   5.284   4.134   1.701  0.3141 -1.8168  0.3715
 1100TP3      O15118   0.331   3.377   9.956 -0.4206 -0.0262  0.9590
 1100TP3     H115119   0.311   3.469   9.941  2.1545  0.7762  2.2009
 1100TP3     H215120   0.377   3.349   9.877  0.5124  0.2899  1.3882
 1101TP3      O15121   1.327   1.332   9.308  0.2198  0.0165 -0.2497
 1101TP3     H115122   1.262   1.395   9.275  0.0429  0.0035  0.0798
 1101TP3     H215123   1.391   1.327   9.237 -0.5235 -0.5403 -0.9003
 1102TP3      O15124   3.917   0.417   8.436  0.1771 -0.3500  0.2752
 1102TP3     H115125   3.871   0.344   8.396  2.4327 -1.8941  0.4068
 1102TP3     H215126   3.905   0.405   8.530  0.6168 -0.6157  0.2999
 1103TP3      O15127   3.433   4.704   0.373  0.1100  0.4984 -0.1482
 1103TP3     H115128   3.449   4.738   0.461  0.0500  0.7951 -0.2499
 1103TP3     H215129   3.380   4.626   0.386 -0.0609  0.6495  0.0683
 1104TP3      O15130   0.643   2.272   7.944 -0.3814  0.0941  0.1156
 1104TP3     H115131   0.549   2.252   7.943 -0.1624 -0.9663  0.3496
 1104TP3     H215132   0.647   2.366   7.961 -1.3655 -0.3169  2.9589
 1105TP3      O15133   2.530   0.921   8.218 -0.1794 -0.2332 -0.1692
 1105TP3     H115134   2.490   1.002   8.186  1.1478  0.3610 -0.3626
 1105TP3     H215135   2.497   0.853   8.159 -1.7741  0.0669  0.3594
 1106TP3      O15136   0.384   0.823   7.365 -0.4540  0.0716 -0.4758
 1106TP3     H115137   0.296   0.800   7.336 -1.3204  1.4865  0.9384
 1106TP3     H215138   0.431   0.846   7.284 -1.1429 -1.3816 -1.3088
 1107TP3      O15139   3.039   2.168   8.388  0.0502 -0.0917 -0.0591
 1107TP3     H115140   3.019   2.195   8.298 -3.5124 -2.9398 -0.2571
 1107TP3     H215141   3.120   2.118   8.381  0.1997  0.3230 -1.5420
 1108TP3      O15142   4.647   3.389   7.653 -0.2009  0.3183 -0.0594
 1108TP3     H115143   4.626   3.412   7.744  2.7041  0.5677  0.5979
 1108TP3     H215144   4.629   3.295   7.648  0.0398  0.2176  0.8952
 1109TP3      O15145   2.183   1.691   1.137 -0.0366  0.4168 -0.7558
 1109TP3     H115146   2.262   1.685   1.191 -0.8192  0.0074  0.3411
 1109TP3     H215147   2.182   1.609   1.087  0.1150  0.3339 -0.6220
 1110TP3      O15148   0.169   1.859   7.282  0.9081 -0.5464  0.0291
 1110TP3     H115149   0.164   1.895   7.371  0.0684 -2.6179  0.8404
 1110TP3     H215150   0.224   1.921   7.234  0.3353  1.2689  1.6554
 1111TP3      O15151   2.952   1.540   1.241  0.2335 -0.2647  0.0947
 1111TP3     H115152   2.862   1.547   1.273  0.3610 -0.2209  0.4451
 1111TP3     H215153   2.945   1.490   1.159 -0.0283 -0.8834  0.4876
 1112TP3      O15154   1.109   2.394   7.799  0.1138 -0.1421  0.1766
 1112TP3     H115155   1.028   2.355   7.832 -1.0573  1.8515 -0.2837
 1112TP3     H215156   1.122   2.473   7.851  0.9043  0.3921 -0.8015
 1113TP3      O15157   0.670   2.357   8.981  0.1473  0.0640 -0.2360
 1113TP3     H115158   0.740   2.360   9.047  0.2774  0.4881 -0.3942
 1113TP3     H215159   0.712   2.322   8.903 -0.7842 -3.7485  0.8697
 1114TP3      O15160   3.736   3.128   6.764 -0.6218 -1.0711 -0.1638
 1114TP3     H115161   3.814   3.138   6.819 -0.8266 -0.4488  0.0195
 1114TP3     H215162   3.744   3.040   6.727  0.1362 -1.0353 -0.0985
 1115TP3      O15163   4.460   4.781   1.192 -0.0960  0.1670 -0.4781
 1115TP3     H115164   4.375   4.797   1.152 -0.8855 -1.0794  0.6606
 1115TP3     H215165   4.455   4.692   1.226  1.6655  0.0797 -0.3907
 1116TP3      O15166   3.204   4.847   8.084 -0.0249  0.6525 -0.1846
 1116TP3     H115167   3.131   4.904   8.109 -2.2979 -1.8154 -0.9456
 1116TP3     H215168   3.192   4.833   7.990  2.1678  1.1849 -0.5658
 1117TP3      O15169   2.272   4.968   8.118 -0.2024  0.1457 -0.5225
 1117TP3     H115170   2.185   5.006   8.106 -0.1786  0.0057 -1.1453
 1117TP3     H215171   2.305   4.954   8.029  0.4102  0.0916 -0.2896
 1118TP3      O15172   3.072   1.610   9.587  0.1738 -0.1706  0.4674
 1118TP3     H115173   3.051   1.614   9.494  1.2201 -0.0129  0.2374
 1118TP3     H215174   3.167   1.599   9.590 -0.2106 -3.8733  1.4350
 1119TP3      O15175   5.041   3.469   6.875  0.4522 -0.3371  0.1621
 1119TP3     H115176   4.946   3.467   6.863  0.6577  0.6088 -1.9234
 1119TP3     H215177   5.063   3.381   6.907 -0.9661 -1.0426 -0.7397
 1120TP3      O15178   3.004   4.630   0.474 -0.1095 -0.1677  0.1734
 1120TP3     H115179   2.989   4.717   0.511 -1.6366  0.5550 -2.0434
 1120TP3     H215180   2.965   4.634   0.387  2.7074 -2.0519 -1.2615
 1121TP3      O15181   3.190   3.606   7.747  0.0142  0.6249 -0.0167
 1121TP3     H115182   3.213   3.555   7.669 -2.0448  1.5726 -1.2826
 1121TP3     H215183   3.171   3.539   7.813 -3.4134 -0.3915 -1.8711
 1122TP3      O15184   3.325   2.148   9.538  0.2025  0.0500 -0.1059
 1122TP3     H115185   3.270   2.069   9.533  0.1876  0.1245 -1.2829
 1122TP3     H215186   3.406   2.124   9.493  0.5776  0.3948  0.3841
 1123TP3      O15187   3.157   0.130   7.971  0.3049  0.0517 -0.0576
 1123TP3     H115188   3.178   0.194   8.039 -1.3324 -1.4793  1.9646
 1123TP3     H215189   3.225   0.063   7.980 -1.1118 -1.2345  1.5979
 1124TP3      O15190   1.278   0.521   9.333 -0.4961 -0.5409 -0.3362
 1124TP3     H115191   1.253   0.443   9.284 -2.3007 -0.5284  0.5386
 1124TP3     H215192   1.298   0.586   9.265  0.2862 -1.5165 -1.0616
 1125TP3      O15193   3.365   2.840   8.816  0.4726 -0.0660 -0.3486
 1125TP3     H115194   3.372   2.821   8.723 -0.3705 -0.7906 -0.2756
 1125TP3     H215195   3.383   2.756   8.858 -3.5692 -0.8398 -0.0126
 1126TP3      O15196   1.146   2.194   8.960 -0.1846  0.2920  0.3341
 1126TP3     H115197   1.122   2.103   8.944  0.4467 -0.0267  1.1544
 1126TP3     H215198   1.205   2.216   8.888  0.5665 -0.3068  0.7562
 1127TP3      O15199   3.140   0.752   1.113  0.4247  0.4500 -0.3629
 1127TP3     H115200   3.139   0.785   1.023  2.5694  1.2005 -0.1267
 1127TP3     H215201   3.130   0.830   1.167 -3.0563 -0.2027  0.0690
 1128TP3      O15202   3.972   3.881   7.797  0.2367 -0.3276 -0.4443
 1128TP3     H115203   3.981   3.817   7.868  0.7147  0.4268  0.1890
 1128TP3     H215204   3.917   3.837   7.732  0.1720 -1.2024  0.1851
 1129TP3      O15205   3.568   0.419   9.803  0.5645 -0.2367  0.1328
 1129TP3     H115206   3.574   0.420   9.708  0.9024  0.6120  0.1568
 1129TP3     H215207   3.524   0.502   9.825  2.8985  0.8566  0.8610
 1130TP3      O15208   3.392   3.146   7.649 -0.2592  0.3241 -0.1896
 1130TP3     H115209   3.394   3.166   7.555 -0.2149 -1.0879 -0.4943
 1130TP3     H215210   3.366   3.054   7.653 -0.1184  0.3424  1.1831
 1131TP3      O15211   4.274   1.038   7.160  0.3133 -0.4689 -0.1986
 1131TP3     H115212   4.356   0.994   7.139 -0.1521 -1.2199 -0.4608
 1131TP3     H215213   4.279   1.055   7.254  0.3472 -1.4137 -0.0225
 1132TP3      O15214   3.813   3.024   0.102  0.4797  0.1014  0.4065
 1132TP3     H115215   3.798   2.931   0.119  0.8213 -0.3266 -1.5293
 1132TP3     H215216   3.748   3.068   0.156 -1.5163 -1.3763 -0.6812
 1133TP3      O15217   0.666   3.876   8.167 -0.4061 -0.3483 -0.0157
 1133TP3     H115218   0.742   3.903   8.115  0.6132 -0.2730  1.4864
 1133TP3     H215219   0.590   3.904   8.115  0.5612 -1.4684 -2.0947
 1134TP3      O15220   2.422   2.250   8.168 -0.2385  0.0010 -0.5449
 1134TP3     H115221   2.462   2.253   8.255  0.6637 -0.9423 -0.9335
 1134TP3     H215222   2.456   2.328   8.123  1.2265 -0.8430 -0.9054
 1135TP3      O15223   4.703   4.385   8.254  0.7981  0.4901  0.2803
 1135TP3     H115224   4.689   4.349   8.341  0.4941  0.4165  0.2006
 1135TP3     H215225   4.731   4.310   8.201  0.3347  0.3956  0.1578
 1136TP3      O15226   0.127   0.892   7.611  0.1614  0.3600 -0.1360
 1136TP3     H115227   0.041   0.851   7.606  0.6047 -0.5204 -0.7679
 1136TP3     H215228   0.185   0.822   7.639  1.0297  0.3941 -1.7758
 1137TP3      O15229   3.084   2.766   0.300 -0.0709  0.0044  0.0423
 1137TP3     H115230   3.159   2.708   0.308  0.4377  0.7564  0.8008
 1137TP3     H215231   3.010   2.714   0.330  0.4656 -0.0858  1.2455
 1138TP3      O15232   2.035   0.439   9.104  0.5817  0.4616 -1.0388
 1138TP3     H115233   1.971   0.372   9.078 -0.1366  1.0922 -0.9310
 1138TP3     H215234   2.038   0.499   9.029 -0.0866  1.2531 -0.4407
 1139TP3      O15235   3.191   2.430   8.580  0.4411 -0.3470 -0.2431
 1139TP3     H115236   3.246   2.428   8.501  1.2427 -0.6047  0.3211
 1139TP3     H215237   3.175   2.523   8.596 -0.0266 -0.3084 -0.9225
 1140TP3      O15238   0.593   2.289   9.471  0.4244  0.3360 -0.0901
 1140TP3     H115239   0.675   2.247   9.494  0.3013 -0.6934 -1.4532
 1140TP3     H215240   0.608   2.382   9.487  1.2063 -0.0487  1.4978
 1141TP3      O15241   4.280   2.446   1.347 -0.3172  0.2093  0.1244
 1141TP3     H115242   4.251   2.457   1.438 -1.2145 -2.1029  0.1651
 1141TP3     H215243   4.276   2.534   1.310 -0.1329  1.1600  2.2560
 1142TP3      O15244   3.349   5.246   7.979  0.0437  0.2322  0.3918
 1142TP3     H115245   3.307   5.177   7.927 -1.4354  0.8759  0.6980
 1142TP3     H215246   3.339   5.216   8.069  0.2980  0.3647  0.4639
 1143TP3      O15247   0.500   0.912   8.598 -0.1473 -0.3171 -0.4845
 1143TP3     H115248   0.594   0.918   8.582  0.0462  0.6290  0.8690
 1143TP3     H215249   0.469   1.003   8.596 -1.2748 -0.7176 -2.2176
 1144TP3      O15250   1.163   2.886   8.370  0.2901  0.0224  0.3757
 1144TP3     H115251   1.107   2.864   8.445  1.0359  0.7752  1.1599
 1144TP3     H215252   1.209   2.804   8.351 -1.0687 -0.5977 -0.2696
 1145TP3      O15253   1.462   2.978   0.764  0.1540  0.0152 -0.0667
 1145TP3     H115254   1.496   3.064   0.740 -0.3069  0.0609 -0.5654
 1145TP3     H215255   1.371   2.995   0.791  0.1096 -0.2946 -0.0162
 1146TP3      O15256   0.582   0.003   0.085  0.3678  0.3924  0.0702
 1146TP3     H115257   0.505   0.037   0.130  0.3280 -0.1881  0.4477
 1146TP3     H215258   0.635   0.081   0.066  0.1103  0.7002  0.5991
 1147TP3      O15259   2.728   4.763   0.160 -0.3775  0.1233 -0.1162
 1147TP3     H115260   2.650   4.772   0.106 -0.4882 -0.4520 -0.0528
 1147TP3     H215261   2.793   4.820   0.118 -0.6986  0.2748 -0.4080
 1148TP3      O15262   1.110   4.317   6.739  0.5343 -0.1690 -0.0466
 1148TP3     H115263   1.022   4.282   6.757  0.5695 -1.3279 -1.9620
 1148TP3     H215264   1.168   4.265   6.795  0.1666 -0.3908  0.1328
 1149TP3      O15265   4.727   1.052   1.962  0.2900  0.4569 -0.2321
 1149TP3     H115266   4.726   1.117   2.032  0.2103 -0.7175  0.8596
 1149TP3     H215267   4.687   0.974   2.000  1.2396 -0.5390 -1.2324
 1150TP3      O15268   1.084   0.091   0.096 -0.2416  0.0935 -0.2362
 1150TP3     H115269   1.141   0.143   0.041  0.3184 -0.2995 -0.0296
 1150TP3     H215270   1.021   0.153   0.131  1.9950  1.1260  2.1029
 1151TP3      O15271   0.914   4.786   8.037  0.0310  0.1462  0.5494
 1151TP3     H115272   0.859   4.858   8.006  0.3506  0.7331  1.3453
 1151TP3     H215273   0.852   4.716   8.057 -0.4392  0.8457  1.5443
 1152TP3      O15274   4.337   0.898   8.821 -0.2951 -0.9777  0.1775
 1152TP3     H115275   4.334   0.993   8.804  0.0456 -0.9090  0.4831
 1152TP3     H215276   4.373   0.860   8.741  0.9241 -0.7003  0.5842
 1153TP3      O15277   2.672   2.927   7.475  0.5323 -0.2396  0.6693
 1153TP3     H115278   2.656   2.982   7.551  2.4611 -0.9792  1.6562
 1153TP3     H215279   2.615   2.851   7.487  0.5121 -0.1472  1.1555
 1154TP3      O15280   0.595   5.118   8.678  0.2011 -0.0640 -0.2051
 1154TP3     H115281   0.517   5.157   8.718  0.5741 -0.4011  0.8716
 1154TP3     H215282   0.562   5.042   8.630 -0.0957 -0.3773  0.4976
 1155TP3      O15283   0.134   0.901   0.886  0.0502  0.4430 -0.2672
 1155TP3     H115284   0.057   0.943   0.924 -0.8952 -0.4157 -1.2164
 1155TP3     H215285   0.205   0.921   0.948 -0.6330  2.3750 -0.0892
 1156TP3      O15286   4.133   3.139   8.306  0.4445 -0.0451 -0.0046
 1156TP3     H115287   4.164   3.062   8.353  0.5183 -0.4534 -0.7309
 1156TP3     H215288   4.191   3.146   8.230  0.7368  0.9927  0.3018
 1157TP3      O15289   0.441   2.603   8.529 -0.2407  0.1077 -0.0365
 1157TP3     H115290   0.513   2.625   8.588 -0.1263  0.0596 -0.1563
 1157TP3     H215291   0.370   2.575   8.586 -0.7694  1.8702  0.1785
 1158TP3      O15292   5.126   2.700   7.084  0.3722  0.3345  0.1174
 1158TP3     H115293   5.128   2.677   7.177  1.9405  0.4397  0.1216
 1158TP3     H215294   5.110   2.617   7.039 -0.5235  0.3045  0.4715
 1159TP3      O15295   0.610   3.630   7.248  0.3573 -0.6628  0.1024
 1159TP3     H115296   0.612   3.582   7.165  0.0349 -0.0335 -0.2737
 1159TP3     H215297   0.601   3.722   7.223  1.3775 -0.3582  0.8089
 1160TP3      O15298   1.804   0.524   7.687  0.3859 -0.4294  0.1928
 1160TP3     H115299   1.835   0.470   7.615  2.3471 -1.2667  1.6135
 1160TP3     H215300   1.839   0.611   7.669  1.4707 -0.7958  0.4509
 1161TP3      O15301   0.145   1.665   9.170  0.9555  0.0639 -0.0386
 1161TP3     H115302   0.153   1.636   9.261 -1.0549  0.0209  0.1313
 1161TP3     H215303   0.210   1.612   9.123 -0.6324 -2.6851  0.7359
 1162TP3      O15304   0.049   3.417   8.523  0.3033  0.4500  0.4945
 1162TP3     H115305   0.087   3.358   8.589 -0.0713 -0.0059  0.3058
 1162TP3     H215306   0.122   3.473   8.496  0.3813  0.8686  1.5395
 1163TP3      O15307   1.033   4.696   7.813 -0.2354  0.3419  0.3697
 1163TP3     H115308   0.984   4.743   7.880 -0.5856  1.2496 -0.5131
 1163TP3     H215309   1.093   4.762   7.778 -2.1274  0.7087 -2.2853
 1164TP3      O15310   0.318   4.408   7.098 -0.1739 -0.0432  0.9021
 1164TP3     H115311   0.381   4.480   7.099 -1.0275  0.7326  0.1351
 1164TP3     H215312   0.365   4.336   7.055 -0.5114  1.2278 -1.7215
 1165TP3      O15313   1.756   3.853   7.081 -0.8783  0.0774  0.1881
 1165TP3     H115314   1.714   3.859   6.996 -3.1058 -1.7174  1.0944
 1165TP3     H215315   1.769   3.759   7.095 -1.1453  0.2939  2.0960
 1166TP3      O15316   1.384   4.407   7.247  0.0463 -0.0164 -0.1847
 1166TP3     H115317   1.468   4.434   7.283 -0.7448 -0.3980  2.0185
 1166TP3     H215318   1.406   4.342   7.180  1.5081  0.3063 -0.0340
 1167TP3      O15319   2.725   0.422  10.097  0.2819  0.4168  0.3593
 1167TP3     H115320   2.695   0.427  10.006  0.9842  0.5464  0.1372
 1167TP3     H215321   2.803   0.368  10.094  1.0260  1.4547  0.7064
 1168TP3      O15322   3.097   0.805   8.998  0.0067 -0.1228  0.3368
 1168TP3     H115323   3.131   0.845   8.918  0.2141 -0.0915  0.4401
 1168TP3     H215324   3.023   0.752   8.969  0.3864 -0.4988  0.0551
 1169TP3      O15325   1.760   3.596   0.131  0.1019 -0.9177 -0.1534
 1169TP3     H115326   1.793   3.613   0.043  0.1040 -0.1675 -0.0108
 1169TP3     H215327   1.667   3.578   0.119 -0.2592  0.8626 -0.1331
 1170TP3      O15328   3.025   2.554   7.715  0.1356  0.1427  0.3788
 1170TP3     H115329   2.994   2.479   7.664  0.0762 -0.0517  0.6984
 1170TP3     H215330   3.015   2.526   7.806 -0.0473  0.6050  0.4982
 1171TP3      O15331   2.116   2.138   9.872  0.4290  0.3328  0.3948
 1171TP3     H115332   2.196   2.086   9.868 -0.8129 -1.5993 -0.0540
 1171TP3     H215333   2.049   2.077   9.903 -0.8707  1.9180  0.7634
 1172TP3      O15334   2.395   4.692   2.691  0.3034 -0.1336 -0.6245
 1172TP3     H115335   2.386   4.724   2.602 -0.9617 -2.0328 -1.2263
 1172TP3     H215336   2.470   4.633   2.688  1.3414  1.1473 -0.0159
 1173TP3      O15337   1.780   2.603   0.318  0.1508 -0.3824 -0.2091
 1173TP3     H115338   1.724   2.579   0.391  0.1417 -1.6546 -0.6087
 1173TP3     H215339   1.804   2.694   0.334 -1.0512 -0.2013  0.5886
 1174TP3      O15340   2.201   3.070   0.378 -0.2600 -0.4133  0.5562
 1174TP3     H115341   2.181   3.134   0.446  1.8406  2.2050 -1.1382
 1174TP3     H215342   2.273   3.019   0.414 -0.0941  0.0321  0.8679
 1175TP3      O15343   2.922   0.259   8.723 -0.8688 -0.7995  1.0111
 1175TP3     H115344   2.849   0.198   8.732 -2.0218  0.5677  1.2256
 1175TP3     H215345   2.917   0.288   8.631 -0.9876 -0.2515  1.1850
 1176TP3      O15346   3.513   0.749   7.983 -0.2336  0.1404  0.0314
 1176TP3     H115347   3.453   0.799   8.037  0.4957 -0.4231  1.3968
 1176TP3     H215348   3.573   0.708   8.046  0.6809 -0.4553 -1.2097
 1177TP3      O15349   4.231   3.197   8.697  0.5006 -0.1534 -0.3208
 1177TP3     H115350   4.182   3.120   8.669  0.2985  0.0598 -0.5564
 1177TP3     H215351   4.230   3.193   8.793  2.2139 -1.5325 -0.3243
 1178TP3      O15352   0.730   2.804   9.367 -0.1591  0.0201  0.1886
 1178TP3     H115353   0.767   2.783   9.281  0.6971 -1.2939  0.8545
 1178TP3     H215354   0.806   2.826   9.421 -0.6438  0.3688  0.7303
 1179TP3      O15355   1.293   3.696  10.070  0.6894 -0.7629 -0.5694
 1179TP3     H115356   1.209   3.651  10.077  1.4194 -2.0724 -0.0943
 1179TP3     H215357   1.325   3.674   9.983  0.9600 -1.0175 -0.4076
 1180TP3      O15358   2.003   2.040   7.502 -0.4709  0.1061 -0.3447
 1180TP3     H115359   1.913   2.029   7.472 -1.2473  1.4087  1.4116
 1180TP3     H215360   2.020   2.134   7.495  0.6239 -0.0764 -0.2893
 1181TP3      O15361   1.894   0.511   7.948 -0.1799  0.4423  0.1812
 1181TP3     H115362   1.818   0.475   7.993 -0.3622  0.7377  0.1125
 1181TP3     H215363   1.870   0.509   7.856  0.4408 -0.7519  0.0313
 1182TP3      O15364   2.559   4.390   0.376 -0.1386  0.0194  0.6411
 1182TP3     H115365   2.494   4.339   0.326  0.3879 -1.4185  1.3969
 1182TP3     H215366   2.525   4.390   0.466 -0.3919  1.4501  0.5542
 1183TP3      O15367   3.240   1.061   8.554 -0.1764 -0.0282 -0.1462
 1183TP3     H115368   3.200   1.126   8.497  1.0189 -1.0606 -2.2430
 1183TP3     H215369   3.334   1.074   8.542  0.0985 -0.0717  1.8463
 1184TP3      O15370   1.195   4.011   7.780 -0.9004 -0.1707  0.5089
 1184TP3     H115371   1.220   4.056   7.699 -1.1467 -0.7084  0.1313
 1184TP3     H215372   1.275   3.966   7.807 -0.9819 -0.4749  0.2434
 1185TP3      O15373   2.202   0.256   9.331  0.5024 -0.7640  0.0343
 1185TP3     H115374   2.199   0.288   9.421  1.9976 -0.1474 -0.1240
 1185TP3     H215375   2.147   0.317   9.282  0.3200 -0.6407  0.3899
 1186TP3      O15376   3.007   3.903   7.616 -0.4717 -0.0387 -0.6740
 1186TP3     H115377   2.927   3.950   7.640 -0.9219 -0.9819 -0.2834
 1186TP3     H215378   3.032   3.857   7.696  0.1485 -0.1874 -0.9564
 1187TP3      O15379   1.569   0.159   9.010 -0.1848 -0.3944  0.0760
 1187TP3     H115380   1.535   0.105   9.082 -1.1200 -0.8983 -0.7241
 1187TP3     H215381   1.525   0.124   8.932  0.8702  0.1040 -0.7465
 1188TP3      O15382   4.628   3.395   7.940  0.5598  0.0629  0.6128
 1188TP3     H115383   4.632   3.304   7.968 -1.1299 -0.3025 -0.2660
 1188TP3     H215384   4.596   3.443   8.016  0.6029 -0.2038  0.7976
 1189TP3      O15385   0.486   3.986   0.044  0.0432 -0.1947 -0.3335
 1189TP3     H115386   0.534   4.005   0.124 -0.7302  1.0670 -0.1569
 1189TP3     H215387   0.475   3.891   0.045 -1.8296 -0.0119  2.1654
 1190TP3      O15388   4.669   3.554   9.560 -0.3035  0.4893 -0.1342
 1190TP3     H115389   4.667   3.536   9.466  0.3719  0.1755 -0.0952
 1190TP3     H215390   4.650   3.469   9.601  0.5506  0.3729  0.0249
 1191TP3      O15391   0.572   3.614   0.382  0.5266  0.3451 -0.4875
 1191TP3     H115392   0.546   3.645   0.468  1.0694  0.7563 -0.4712
 1191TP3     H215393   0.495   3.628   0.327 -0.2285 -1.0113  0.1931
 1192TP3      O15394   2.743   3.009   6.868 -0.1101 -0.0643 -0.1792
 1192TP3     H115395   2.837   3.014   6.853 -0.3084  0.1734 -1.3834
 1192TP3     H215396   2.718   2.924   6.830 -0.3190 -0.3126  0.5044
 1193TP3      O15397   1.389   5.062   7.585  0.1090  0.3039  0.0510
 1193TP3     H115398   1.351   5.068   7.498 -1.6745 -0.3049  0.7646
 1193TP3     H215399   1.453   5.134   7.589 -1.5232  1.8514 -0.9142
 1194TP3      O15400   2.336   1.711   9.362 -0.1714 -0.2601 -0.5568
 1194TP3     H115401   2.317   1.749   9.448 -2.9443  0.7398 -1.5398
 1194TP3     H215402   2.416   1.755   9.333  1.3218 -1.3043  1.8949
 1195TP3      O15403   3.457   4.695   7.171  0.2789  0.3408 -0.2421
 1195TP3     H115404   3.544   4.657   7.187  0.7158  1.3902 -0.1235
 1195TP3     H215405   3.434   4.664   7.083 -0.7245 -2.7554  1.0310
 1196TP3      O15406   3.874   3.199   9.072  0.2106 -0.0253 -0.0275
 1196TP3     H115407   3.860   3.108   9.096 -1.3800  0.8513  2.4902
 1196TP3     H215408   3.803   3.247   9.114  1.2926  2.4610 -0.9063
 1197TP3      O15409   3.699   4.099   0.438 -0.1039 -0.5234 -0.0432
 1197TP3     H115410   3.650   4.179   0.419  0.7690 -0.1742 -0.8909
 1197TP3     H215411   3.775   4.129   0.489  0.8853 -0.6223 -1.4218
 1198TP3      O15412   0.600   5.051   0.181 -0.2499  0.3451  0.2701
 1198TP3     H115413   0.688   5.036   0.214 -0.3980 -0.5057  0.2986
 1198TP3     H215414   0.597   5.144   0.159  0.8902  0.2119 -0.4567
 1199TP3      O15415   3.155   1.580  10.046  0.6989 -0.5072  0.5064
 1199TP3     H115416   3.097   1.514  10.084 -1.2669  0.4954 -0.6728
 1199TP3     H215417   3.167   1.644  10.116  0.1340 -0.5792  0.6794
 1200TP3      O15418   3.358   4.780   1.348  0.4600 -0.1678 -0.1179
 1200TP3     H115419   3.281   4.777   1.404  0.9083 -1.8921  0.4229
 1200TP3     H215420   3.356   4.698   1.300  0.6082  0.8636 -1.9441
 1201TP3      O15421   4.273   4.144   1.430  0.2118 -0.1257  0.5787
 1201TP3     H115422   4.236   4.122   1.516 -2.0432  0.7274 -0.1379
 1201TP3     H215423   4.199   4.177   1.380  2.0497  2.1827 -0.7454
 1202TP3      O15424   1.839   0.300   6.977 -0.3687  0.1027  0.2902
 1202TP3     H115425   1.891   0.250   7.040  0.3548  0.8843  0.3177
 1202TP3     H215426   1.774   0.346   7.031  0.5907  1.1918  0.5264
 1203TP3      O15427   4.267   2.265   9.335  0.0584 -0.3767  0.1826
 1203TP3     H115428   4.275   2.173   9.358 -1.5632 -0.7328 -0.5822
 1203TP3     H215429   4.356   2.292   9.312  1.0633 -1.0124  3.0016
 1204TP3      O15430   4.933   5.082   8.194  0.5813  0.1170  0.2673
 1204TP3     H115431   5.021   5.090   8.233  1.2911  1.2972 -1.5343
 1204TP3     H215432   4.881   5.149   8.238  1.0782  0.6562  0.0483
 1205TP3      O15433   4.179   5.126   7.571  0.4527 -0.3576  0.3743
 1205TP3     H115434   4.182   5.221   7.558  5.1925 -0.3828  0.5642
 1205TP3     H215435   4.154   5.091   7.486  1.1205  0.9778 -0.3875
 1206TP3      O15436   1.242   0.815   1.556 -0.1130 -0.3932  0.7163
 1206TP3     H115437   1.156   0.778   1.571 -0.0466  0.3081  2.9381
 1206TP3     H215438   1.300   0.768   1.617  0.5873  0.9549  1.1080
 1207TP3      O15439   2.158   1.279   7.790  0.0827  0.2314  0.2410
 1207TP3     H115440   2.155   1.186   7.767  1.1414 -0.1454  1.5541
 1207TP3     H215441   2.238   1.311   7.748 -2.0350  1.3901 -3.0980
 1208TP3      O15442   2.616   4.339   6.238 -0.0898 -0.1918  0.5926
 1208TP3     H115443   2.548   4.399   6.206 -1.4489 -1.1398  1.6298
 1208TP3     H215444   2.624   4.359   6.331  2.1839  0.9602  0.1647
 1209TP3      O15445   2.296   1.413   0.375  0.4830 -0.7360 -0.1259
 1209TP3     H115446   2.347   1.335   0.352  1.2034  0.1895 -1.7752
 1209TP3     H215447   2.326   1.480   0.313 -0.0494  0.8757  1.3225
 1210TP3      O15448   0.790   2.775   7.169 -0.0981 -0.2992 -0.0274
 1210TP3     H115449   0.846   2.706   7.133 -0.8672 -0.3850 -1.0765
 1210TP3     H215450   0.794   2.846   7.105 -0.0457  0.2707  0.5996
 1211TP3      O15451   5.034   4.719   9.439 -0.0939  0.2315 -0.0875
 1211TP3     H115452   4.978   4.643   9.428  2.1174 -1.5467  0.4556
 1211TP3     H215453   5.087   4.721   9.359 -0.7555  1.7651 -0.5128
 1212TP3      O15454   3.915   5.176   1.854 -0.1068 -0.4324  0.1375
 1212TP3     H115455   3.841   5.167   1.794  0.1530  0.8633 -0.4080
 1212TP3     H215456   3.882   5.144   1.938 -0.6719 -1.6629 -0.5393
 1213TP3      O15457   4.134   3.994   9.911  0.4402  0.4480  0.0135
 1213TP3     H115458   4.184   3.990   9.829  0.0403 -1.1674 -0.1600
 1213TP3     H215459   4.046   4.021   9.884  0.3994  0.2585 -0.0414
 1214TP3      O15460   2.358   0.523   8.011 -0.3285  0.1614 -0.1497
 1214TP3     H115461   2.278   0.564   7.978 -0.8458 -1.0455 -0.4190
 1214TP3     H215462   2.401   0.487   7.933  0.4167  0.6853  0.0087
 1215TP3      O15463   3.547   2.113   9.731  0.1389 -0.3130  0.1007
 1215TP3     H115464   3.594   2.030   9.738  0.1465 -0.6594 -3.2352
 1215TP3     H215465   3.455   2.087   9.729  0.0362 -0.0523  1.0607
 1216TP3      O15466   0.367   2.248   8.677 -0.3976 -0.8398  0.1013
 1216TP3     H115467   0.371   2.343   8.688 -0.1014 -1.1393  2.8147
 1216TP3     H215468   0.454   2.223   8.648 -1.1965 -0.0251 -3.2242
 1217TP3      O15469   3.437   1.312   8.743 -0.0693 -0.0796 -0.2181
 1217TP3     H115470   3.429   1.383   8.806  2.5630  0.5548 -0.5142
 1217TP3     H215471   3.347   1.290   8.719 -1.0004  1.3357  1.8812
 1218TP3      O15472   0.530   4.587   7.085  0.4529 -0.0480 -0.1227
 1218TP3     H115473   0.511   4.658   7.023  0.0020 -0.6471 -0.6810
 1218TP3     H215474   0.603   4.539   7.045 -1.2014 -1.6870 -1.2403
 1219TP3      O15475   3.080   0.318   8.477 -0.2697  0.0413  1.0783
 1219TP3     H115476   3.001   0.367   8.455  0.1048 -0.6262 -2.1003
 1219TP3     H215477   3.060   0.228   8.449  0.8109 -0.5940  2.3205
 1220TP3      O15478   1.575   3.004   9.333 -0.3088  0.1401  0.4143
 1220TP3     H115479   1.641   2.953   9.380 -0.3983  1.9932  2.6842
 1220TP3     H215480   1.619   3.033   9.253  0.6463 -1.0851  0.4892
 1221TP3      O15481   0.510   3.862   7.129  0.0852 -0.4936  0.8839
 1221TP3     H115482   0.499   3.951   7.163  0.6074 -0.2941  0.5404
 1221TP3     H215483   0.424   3.841   7.091  0.3604  0.4267 -0.3127
 1222TP3      O15484   2.177   2.456   8.141 -0.2886 -0.0641 -0.0744
 1222TP3     H115485   2.127   2.378   8.118 -1.7963  0.2441  2.1033
 1222TP3     H215486   2.265   2.423   8.160 -0.7399 -1.1531  0.1455
 1223TP3      O15487   3.555   4.316   9.346  0.1367  0.1197  0.0059
 1223TP3     H115488   3.583   4.235   9.303  1.1417  0.4666  0.0060
 1223TP3     H215489   3.608   4.385   9.305  0.2352  0.6080  0.9488
 1224TP3      O15490   4.436   2.177   1.391  0.3524  0.0638  0.4481
 1224TP3     H115491   4.366   2.242   1.401  1.0474  1.0072 -0.6538
 1224TP3     H215492   4.503   2.222   1.338  0.5272 -1.7820 -0.9563
 1225TP3      O15493   4.222   3.186   7.341 -0.1946  0.5395 -0.1602
 1225TP3     H115494   4.279   3.216   7.413 -0.8206 -0.1056  0.6144
 1225TP3     H215495   4.176   3.111   7.378 -0.7977  0.4388 -1.1292
 1226TP3      O15496   1.597   1.743   7.748 -0.1328 -0.0007  0.2310
 1226TP3     H115497   1.577   1.778   7.835 -0.8808  1.4073 -0.4810
 1226TP3     H215498   1.521   1.767   7.695  0.4510 -0.5770 -0.8843
 1227TP3      O15499   1.475   3.993   7.702 -0.2679  0.3968 -1.3623
 1227TP3     H115500   1.569   3.987   7.721  0.0030  0.5619 -2.5817
 1227TP3     H215501   1.463   4.084   7.673 -1.0107  0.6851 -0.1583
 1228TP3      O15502   3.455   2.186   8.338  0.4886 -0.0187  0.0548
 1228TP3     H115503   3.433   2.279   8.333  0.2037 -0.0688  0.3780
 1228TP3     H215504   3.524   2.175   8.273  1.5443  0.7147  1.0157
 1229TP3      O15505   3.893   4.693   7.988  0.1195 -0.0682 -0.4404
 1229TP3     H115506   3.902   4.716   8.081  1.3418  0.6523 -0.7266
 1229TP3     H215507   3.960   4.745   7.944 -1.5037  0.7969 -1.9308
 1230TP3      O15508   4.685   0.667   7.540  0.2733 -0.0826 -0.2118
 1230TP3     H115509   4.665   0.739   7.599 -0.4411 -0.3004 -0.1922
 1230TP3     H215510   4.747   0.705   7.477  2.0506 -0.1885  1.4158
 1231TP3      O15511   2.734   3.040  10.079 -0.6506 -0.0090  0.0343
 1231TP3     H115512   2.711   3.031   9.986  0.5200  1.5292 -0.4274
 1231TP3     H215513   2.650   3.057  10.122 -1.0139  0.9298 -0.9905
 1232TP3      O15514   4.811   0.099   8.564  0.3377 -0.1646 -0.0085
 1232TP3     H115515   4.779   0.090   8.654  2.3312 -4.1231  0.4118
 1232TP3     H215516   4.769   0.179   8.532 -3.9811 -1.0799  2.9015
 1233TP3      O15517   2.874   3.905   8.926 -0.1446  0.1495  0.3335
 1233TP3     H115518   2.946   3.959   8.957  1.9022 -1.5545 -1.2835
 1233TP3     H215519   2.908   3.863   8.847 -2.9547 -0.6286 -0.5222
 1234TP3      O15520   0.903   2.005   7.832  0.0317 -0.0420  0.7081
 1234TP3     H115521   0.904   1.977   7.740 -1.5462 -2.0947  1.2517
 1234TP3     H215522   0.986   2.050   7.845  1.2528 -1.6733 -1.1560
 1235TP3      O15523   4.008   5.070   0.139  0.1532 -0.0520 -0.1024
 1235TP3     H115524   3.957   5.076   0.059 -0.6525 -3.0063  0.1447
 1235TP3     H215525   4.099   5.084   0.112 -0.3531  1.2824 -1.1385
 1236TP3      O15526   0.760   3.479   7.801 -0.0960 -0.4006 -0.0622
 1236TP3     H115527   0.847   3.452   7.831  0.0292 -0.4804 -0.4902
 1236TP3     H215528   0.710   3.397   7.799 -0.5788 -0.1640  1.4742
 1237TP3      O15529   0.996   2.204   8.246  0.3815  0.5538 -0.1854
 1237TP3     H115530   1.068   2.161   8.291  0.9523 -0.0041 -1.6146
 1237TP3     H215531   0.917   2.161   8.281  0.7821  0.4305  0.5830
 1238TP3      O15532   0.702   1.813   7.332 -0.1222 -0.0840 -0.2495
 1238TP3     H115533   0.673   1.860   7.253  1.3893 -0.2116 -0.8970
 1238TP3     H215534   0.701   1.721   7.307  0.7372 -0.0974 -0.2506
 1239TP3      O15535   3.831   1.076   0.727 -0.1428 -0.5733 -0.6577
 1239TP3     H115536   3.780   0.995   0.722 -0.8050 -0.0575 -2.7751
 1239TP3     H215537   3.922   1.047   0.728 -0.3903 -1.3878  0.3394
 1240TP3      O15538   0.681   2.632   8.692 -0.1696  0.2998  0.3810
 1240TP3     H115539   0.746   2.586   8.745  0.4207  1.3484  0.5913
 1240TP3     H215540   0.723   2.715   8.671 -0.3944 -0.1103 -1.7621
 1241TP3      O15541   1.140   0.192   8.986  0.1038  0.0750 -0.6528
 1241TP3     H115542   1.048   0.169   8.996  0.0862 -0.9266 -2.8275
 1241TP3     H215543   1.187   0.109   8.992  0.7051  0.3525 -1.3362
 1242TP3      O15544   1.655   4.263   6.944  0.6823 -0.5791  0.7110
 1242TP3     H115545   1.706   4.305   7.013  0.5536 -0.1778  0.5635
 1242TP3     H215546   1.571   4.243   6.986  0.4170  0.1346  0.5291
 1243TP3      O15547   5.034   1.939   6.996 -0.1517 -0.8286  0.3943
 1243TP3     H115548   4.989   1.969   6.917 -0.3597 -0.4835  0.6400
 1243TP3     H215549   5.112   1.894   6.963 -0.0917 -0.4463  0.0004
 1244TP3      O15550   0.784   0.215   8.760 -0.3350  0.1123 -0.4050
 1244TP3     H115551   0.738   0.292   8.794 -1.7798  0.3488 -2.7539
 1244TP3     H215552   0.865   0.250   8.723  0.7182 -0.0078  1.6801
 1245TP3      O15553   1.800   5.176   9.024 -0.5494 -0.1709 -0.1595
 1245TP3     H115554   1.823   5.100   9.077  1.4374 -0.3369 -1.1999
 1245TP3     H215555   1.799   5.249   9.085  0.8085 -0.5080  0.2744
 1246TP3      O15556   4.278   3.413   7.016 -0.3364 -0.0069 -0.6603
 1246TP3     H115557   4.238   3.425   6.930  1.6037  0.0330 -1.5824
 1246TP3     H215558   4.360   3.461   7.011 -0.5901  0.7034  1.5142
 1247TP3      O15559   3.337   0.358   7.791  0.2426 -0.4576  0.4076
 1247TP3     H115560   3.313   0.271   7.758 -2.5221 -0.3375  2.0234
 1247TP3     H215561   3.367   0.342   7.881 -1.9950  0.4497  1.3399
 1248TP3      O15562   2.148   2.798   9.090  0.4248 -0.0693  0.7267
 1248TP3     H115563   2.147   2.708   9.057 -0.3148  0.7203 -1.5026
 1248TP3     H215564   2.059   2.830   9.075  0.1657  0.4933  3.1641
 1249TP3      O15565   1.414   4.601   0.821 -0.2372 -0.4997 -0.1120
 1249TP3     H115566   1.347   4.597   0.889 -1.7944 -2.0980 -1.6851
 1249TP3     H215567   1.486   4.649   0.861 -0.9727 -1.7247  2.8131
 1250TP3      O15568   4.354   2.582   9.137  0.2950 -0.2162 -0.0216
 1250TP3     H115569   4.399   2.614   9.059  0.8160  1.5133  0.9579
 1250TP3     H215570   4.421   2.535   9.186  0.4254  0.2315  0.2362
 1251TP3      O15571   2.459   0.826   7.170  0.7452 -0.0787 -0.0626
 1251TP3     H115572   2.401   0.843   7.245  0.9670 -0.8356  0.2902
 1251TP3     H215573   2.492   0.738   7.186  0.2250 -0.5348 -1.4224
 1252TP3      O15574   2.582   5.277   6.724 -0.4192  0.2530 -0.2549
 1252TP3     H115575   2.575   5.371   6.704 -2.3956  0.3123  0.6401
 1252TP3     H215576   2.520   5.263   6.795 -1.3780 -2.0650 -1.5240
 1253TP3      O15577   3.884   4.016   9.355 -0.0659  0.4280  0.7051
 1253TP3     H115578   3.817   4.029   9.421  0.3023 -0.6373  1.2919
 1253TP3     H215579   3.875   3.924   9.328  1.5469  0.0977  1.2294
 1254TP3      O15580   1.626   3.290   9.540 -0.2395 -0.2680 -0.5158
 1254TP3     H115581   1.698   3.239   9.504 -1.0253  0.0847 -2.6933
 1254TP3     H215582   1.649   3.381   9.523 -0.5957 -0.0901 -0.0692
 1255TP3      O15583   0.948   0.606   0.920 -0.1313  0.0387  0.4482
 1255TP3     H115584   0.973   0.568   1.004 -1.5004 -0.7847  0.4977
 1255TP3     H215585   0.927   0.697   0.941 -1.4647 -0.4209  1.2075
 1256TP3      O15586   0.982   5.027   6.807 -0.2756  0.4849  0.3533
 1256TP3     H115587   1.046   5.005   6.874  0.1695  2.7824  0.7408
 1256TP3     H215588   0.898   4.997   6.843  0.1917  0.0897  1.1306
 1257TP3      O15589   2.170   0.858   0.104  0.0563 -0.7893  0.1134
 1257TP3     H115590   2.174   0.861   0.199  1.3710 -0.6953  0.0598
 1257TP3     H215591   2.204   0.772   0.081  1.8520  0.0288 -0.3697
 1258TP3      O15592   4.810   2.773   9.039 -0.2118 -0.0338  0.1175
 1258TP3     H115593   4.717   2.752   9.050 -0.3958  0.8989  0.3757
 1258TP3     H215594   4.855   2.690   9.053 -1.1343 -0.8726 -1.8618
 1259TP3      O15595   1.495   3.841   8.250  0.6595  0.1898  0.2712
 1259TP3     H115596   1.518   3.751   8.271 -0.4096 -0.2994 -0.6074
 1259TP3     H215597   1.574   3.877   8.210  0.5170 -0.9350 -1.0889
 1260TP3      O15598   0.842   2.149   0.522  0.2952 -0.2613  0.6651
 1260TP3     H115599   0.933   2.134   0.548  0.0993 -1.2842  0.8128
 1260TP3     H215600   0.829   2.243   0.533  1.1299 -0.2097  1.3069
 1261TP3      O15601   0.463   0.419   0.569  0.3117  0.2023 -0.1659
 1261TP3     H115602   0.408   0.365   0.511 -1.3254  2.0514 -0.3728
 1261TP3     H215603   0.537   0.362   0.590 -0.8445 -1.7743 -1.2117
 1262TP3      O15604   0.523   1.354   9.745  0.4896  0.4760  0.5557
 1262TP3     H115605   0.603   1.400   9.719 -0.4292  0.3662 -2.6701
 1262TP3     H215606   0.453   1.418   9.732 -0.3169 -0.4704  0.2121
 1263TP3      O15607   0.750   4.947   0.516  0.0085 -0.0964  0.4492
 1263TP3     H115608   0.656   4.933   0.531 -0.0789  0.4889  0.4602
 1263TP3     H215609   0.778   5.003   0.589 -0.0120  1.1994 -0.5250
 1264TP3      O15610   0.332   0.728   7.717 -0.2669  0.5911 -0.2585
 1264TP3     H115611   0.327   0.692   7.805 -1.2344 -0.1772 -0.6130
 1264TP3     H215612   0.423   0.713   7.690  0.3955  2.0897  1.1159
 1265TP3      O15613   1.054   4.339   7.021  0.0756 -0.6671 -0.2025
 1265TP3     H115614   0.975   4.334   6.967  0.8081 -1.9217 -1.1879
 1265TP3     H215615   1.113   4.275   6.982  1.8268  0.7125  0.1248
 1266TP3      O15616   1.558   0.218   7.202 -0.0919  0.1571  0.9580
 1266TP3     H115617   1.506   0.193   7.278 -0.9607  0.0236  0.3378
 1266TP3     H215618   1.503   0.194   7.127  0.9464 -0.1458  0.2833
 1267TP3      O15619   0.174   1.431   7.294 -0.1874 -0.1960 -0.4983
 1267TP3     H115620   0.081   1.452   7.280 -0.1274  0.3828  0.0120
 1267TP3     H215621   0.221   1.497   7.243  0.0060  1.1309  1.3740
 1268TP3      O15622   1.393   4.521   6.716  0.0649  0.0688 -0.0481
 1268TP3     H115623   1.393   4.441   6.664 -0.5465  0.2323 -0.3049
 1268TP3     H215624   1.343   4.499   6.795  1.5009 -0.3528  0.7498
 1269TP3      O15625   3.440   1.055   8.266  0.4729 -0.3309 -0.5623
 1269TP3     H115626   3.457   1.027   8.356  0.9811 -0.2853 -0.6435
 1269TP3     H215627   3.473   1.145   8.263  0.6410 -0.4015 -0.8452
 1270TP3      O15628   1.452   3.351   0.437 -0.1151 -0.2638 -0.1143
 1270TP3     H115629   1.432   3.385   0.349  1.3512  2.7543  0.6563
 1270TP3     H215630   1.367   3.341   0.478 -0.7014  0.7079 -1.0513
 1271TP3      O15631   3.776   3.710   7.718 -0.3542 -0.1233  0.4004
 1271TP3     H115632   3.720   3.723   7.641 -0.0044 -0.2271  0.1256
 1271TP3     H215633   3.818   3.625   7.702 -0.4552 -0.2529  0.8174
 1272TP3      O15634   2.719   0.859   8.693 -0.0893 -0.0758 -0.1084
 1272TP3     H115635   2.813   0.851   8.678 -0.1581 -0.0750 -0.5449
 1272TP3     H215636   2.684   0.889   8.609 -0.7439 -2.1359 -0.5954
 1273TP3      O15637   3.290   4.027   9.412  0.6522 -0.1459  0.4458
 1273TP3     H115638   3.299   4.054   9.503  0.6134 -0.6425  0.6023
 1273TP3     H215639   3.220   3.962   9.413  0.6489 -0.1493  0.0636
 1274TP3      O15640   1.020   4.851  10.007 -0.5993  0.4603 -0.2144
 1274TP3     H115641   1.007   4.758  10.022  1.4391  0.2191  0.1773
 1274TP3     H215642   0.936   4.891  10.029 -0.9237 -1.0787  1.4525
 1275TP3      O15643   1.529   2.110   8.467  0.8249 -1.1311 -0.1915
 1275TP3     H115644   1.611   2.157   8.457  0.2760 -0.1621 -0.1712
 1275TP3     H215645   1.530   2.077   8.557 -0.0923  1.3573  0.7739
 1276TP3      O15646   5.252   3.295   0.727 -0.7472  0.1915 -0.0815
 1276TP3     H115647   5.241   3.389   0.737 -3.2699  0.0088 -0.7809
 1276TP3     H215648   5.304   3.285   0.647  1.8192  1.0336  1.4470
 1277TP3      O15649   0.687   0.897   9.020 -0.2944 -0.2198  0.0512
 1277TP3     H115650   0.676   0.942   9.103 -1.2399 -0.3998  0.0298
 1277TP3     H215651   0.738   0.958   8.966  0.3439 -0.1212  0.7662
 1278TP3      O15652   2.414   1.307   7.917  0.3488 -0.8104  0.1451
 1278TP3     H115653   2.496   1.357   7.923 -0.2893  0.8248 -3.0987
 1278TP3     H215654   2.422   1.259   7.834 -1.8831 -0.7469 -0.1249
 1279TP3      O15655   1.947   3.205   9.783 -0.1312  0.4634  0.0001
 1279TP3     H115656   1.969   3.253   9.862  1.7295 -0.1627 -0.1259
 1279TP3     H215657   2.000   3.126   9.786 -0.1213  0.3641 -1.8064
 1280TP3      O15658   1.744   4.073   7.719 -0.4200 -0.0559 -0.2848
 1280TP3     H115659   1.802   4.099   7.790  1.2315  0.8873 -1.9330
 1280TP3     H215660   1.723   4.154   7.673 -1.1002 -0.7026 -1.1468
 1281TP3      O15661   4.852   4.498   9.465 -0.4640 -0.1211 -0.1089
 1281TP3     H115662   4.843   4.406   9.441 -1.5158 -0.1275  0.2998
 1281TP3     H215663   4.813   4.546   9.391 -0.2867 -0.0160 -0.1345
 1282TP3      O15664   0.585   0.185   7.828 -0.3421  0.2628 -0.6297
 1282TP3     H115665   0.639   0.193   7.749  1.5233  0.4350  0.6459
 1282TP3     H215666   0.565   0.092   7.835  4.4416 -0.7294  1.8697
 1283TP3      O15667   3.377   1.015   9.758  0.1102 -0.3595 -0.0561
 1283TP3     H115668   3.419   1.099   9.776  0.2023  0.0290 -2.0627
 1283TP3     H215669   3.296   1.037   9.713 -0.3407 -1.3095  0.2771
 1284TP3      O15670   4.192   1.044   7.867  0.0277  0.0405 -0.2814
 1284TP3     H115671   4.260   0.998   7.917 -0.0420 -0.9308 -1.0546
 1284TP3     H215672   4.134   1.081   7.933  2.0043  1.9827  0.4383
 1285TP3      O15673   5.083   3.119   7.686  0.1097 -0.2220  0.3399
 1285TP3     H115674   5.095   3.126   7.781  0.2923  1.5668  0.1902
 1285TP3     H215675   5.004   3.171   7.668 -1.3900 -2.5838 -0.1889
 1286TP3      O15676   3.011   3.383   7.230 -0.4766 -0.0120  0.4260
 1286TP3     H115677   2.929   3.409   7.186 -1.2182 -1.3067  1.0257
 1286TP3     H215678   3.054   3.466   7.251 -1.3746  0.6720 -0.3930
 1287TP3      O15679   2.235   4.749   7.598  0.5395  0.1429 -0.1031
 1287TP3     H115680   2.314   4.742   7.545  0.7433 -1.7821  0.4175
 1287TP3     H215681   2.164   4.721   7.540  0.2958  1.4260 -0.4300
 1288TP3      O15682   4.559   4.993   0.447  0.1059 -0.6463 -0.1908
 1288TP3     H115683   4.654   4.998   0.436  0.1432 -0.8380  0.0294
 1288TP3     H215684   4.533   5.080   0.474  0.3807 -0.9157  0.9638
 1289TP3      O15685   2.318   1.828   7.732  0.3425  0.2794  0.2249
 1289TP3     H115686   2.234   1.859   7.766  0.4114  0.9989 -0.2498
 1289TP3     H215687   2.332   1.745   7.777  0.2063  0.9867  1.6056
 1290TP3      O15688   1.006   2.798   7.976  0.0921 -0.3215  0.3441
 1290TP3     H115689   1.063   2.726   8.004  0.2530  0.5161  2.2818
 1290TP3     H215690   1.039   2.874   8.024 -0.9505  0.7605 -0.6136
 1291TP3      O15691   2.478   2.450   8.012 -0.0384 -0.4680 -0.6056
 1291TP3     H115692   2.566   2.484   8.023  0.2243 -0.6942 -2.0098
 1291TP3     H215693   2.444   2.494   7.934 -2.4978  2.3535  1.9073
 1292TP3      O15694   1.613   4.017   0.090  0.6469  0.3630  0.0958
 1292TP3     H115695   1.689   4.055   0.046  0.6064  1.1813  0.7265
 1292TP3     H215696   1.552   3.996   0.019  1.6370 -0.7171 -0.4555
 1293TP3      O15697   5.031   4.807   8.111 -0.1854  0.5649  0.0211
 1293TP3     H115698   5.089   4.845   8.045  0.0965  1.4936  0.8019
 1293TP3     H215699   4.975   4.879   8.139  0.4269  0.4477  1.5984
 1294TP3      O15700   4.984   1.454   8.568 -0.4398 -0.9297 -0.0794
 1294TP3     H115701   5.061   1.409   8.533 -0.6316 -1.6168  0.3617
 1294TP3     H215702   5.017   1.502   8.644 -0.3917 -0.9801 -0.0684
 1295TP3      O15703   3.601   1.599   8.689  0.1044 -0.9005 -0.1930
 1295TP3     H115704   3.655   1.535   8.737  1.9370  0.1025 -0.8638
 1295TP3     H215705   3.527   1.616   8.747  0.7756 -1.9237  0.9883
 1296TP3      O15706   0.499   5.235   7.808 -0.0687 -0.2294 -0.4520
 1296TP3     H115707   0.422   5.236   7.751 -0.8743  0.3729  0.6333
 1296TP3     H215708   0.552   5.162   7.774  0.1405  0.9638 -2.8113
 1297TP3      O15709   1.130   2.758   7.491 -0.6140  0.1469 -0.4100
 1297TP3     H115710   1.117   2.666   7.471  3.7140 -0.3746 -1.2938
 1297TP3     H215711   1.142   2.761   7.586 -1.4038 -0.1086 -0.3031
 1298TP3      O15712   4.794   0.639   9.266 -0.1861  0.0606  0.1975
 1298TP3     H115713   4.833   0.556   9.296  0.6997  1.2209  2.3946
 1298TP3     H215714   4.800   0.635   9.171  1.3792 -1.6956  0.3311
 1299TP3      O15715   2.348   3.618   7.315 -0.4323  1.0260 -0.1400
 1299TP3     H115716   2.298   3.605   7.234  0.5534 -0.6613 -0.4988
 1299TP3     H215717   2.439   3.601   7.290  0.0298  1.6704  1.0586
 1300TP3      O15718   2.753   1.333   1.678 -0.5998 -0.1952 -0.0499
 1300TP3     H115719   2.698   1.315   1.602 -1.1473 -0.7874  0.4786
 1300TP3     H215720   2.693   1.325   1.753  0.4840 -2.2423  0.6434
 1301TP3      O15721   0.131   3.785   7.787 -0.2738  0.8675  0.3111
 1301TP3     H115722   0.198   3.735   7.833 -0.3495  0.8777  0.4325
 1301TP3     H215723   0.169   3.804   7.702 -0.4073  0.2174  0.0959
 1302TP3      O15724   2.575   0.307   2.819 -0.0818  0.3535 -1.1154
 1302TP3     H115725   2.480   0.295   2.819 -0.0275 -0.2035  0.2681
 1302TP3     H215726   2.597   0.327   2.910  1.2933 -0.9436 -1.1322
 1303TP3      O15727   1.417   0.765   8.235  0.0793  0.0161 -0.1183
 1303TP3     H115728   1.427   0.769   8.330 -0.0014  0.4153 -0.1231
 1303TP3     H215729   1.354   0.834   8.214 -1.3907 -1.3579 -0.2615
 1304TP3      O15730   3.342   5.192   7.301 -0.0675 -0.0721  0.1687
 1304TP3     H115731   3.410   5.226   7.242 -0.8916  2.4891  0.6142
 1304TP3     H215732   3.270   5.168   7.242  0.6432 -1.4198 -0.1781
 1305TP3      O15733   3.919   0.090   7.968  0.0170  0.1221  0.0786
 1305TP3     H115734   3.929   0.089   7.873  0.3374  1.2185  0.0989
 1305TP3     H215735   3.876   0.007   7.988  1.1427 -0.7195 -0.8913
 1306TP3      O15736   1.083   5.177   7.784  0.7114 -0.4160  0.8361
 1306TP3     H115737   1.027   5.188   7.707 -0.6694  0.7000  1.9904
 1306TP3     H215738   1.093   5.265   7.820  0.0648 -1.1220  2.8073
 1307TP3      O15739   0.920   2.999   0.106 -0.1592  0.0937 -0.1195
 1307TP3     H115740   0.883   2.961   0.027 -0.2672  0.1529 -0.0980
 1307TP3     H215741   0.844   3.013   0.163 -0.2521  1.2631 -0.5070
 1308TP3      O15742   1.223   4.575   8.118 -0.3922 -0.2452  0.5251
 1308TP3     H115743   1.170   4.527   8.054  0.7131  0.8615 -1.2518
 1308TP3     H215744   1.230   4.663   8.083  3.3661 -0.5697  0.2272
 1309TP3      O15745   2.503   0.868   9.438  0.2950 -0.1013 -0.3530
 1309TP3     H115746   2.560   0.803   9.479  1.0957  1.3060  0.8024
 1309TP3     H215747   2.456   0.819   9.370  1.0318 -1.8305  0.3566
 1310TP3      O15748   1.458   1.576   0.671 -0.0032  0.2258  0.1629
 1310TP3     H115749   1.548   1.554   0.695  0.7091  0.1834 -2.4170
 1310TP3     H215750   1.446   1.666   0.702  1.3296  0.6518 -0.5443
 1311TP3      O15751   3.242   2.024   8.233  0.1233  0.1948 -0.6146
 1311TP3     H115752   3.321   2.053   8.278  0.5918 -0.5557 -0.9366
 1311TP3     H215753   3.274   1.975   8.157 -0.6293 -1.0700 -0.1349
 1312TP3      O15754   3.916   1.402   7.871  0.1862  0.0165  0.2628
 1312TP3     H115755   3.939   1.382   7.780  0.6532 -0.8905  0.5824
 1312TP3     H215756   3.998   1.433   7.910 -0.3099  1.7003  0.0267
 1313TP3      O15757   1.317   4.465   6.954  0.0285  0.2017 -0.3165
 1313TP3     H115758   1.250   4.484   7.020  0.2350  1.4276 -0.4535
 1313TP3     H215759   1.325   4.369   6.956  0.5959  0.2543  2.0079
 1314TP3      O15760   2.593   2.246   8.373  0.1583 -0.7268 -0.0619
 1314TP3     H115761   2.585   2.225   8.467 -1.5479 -1.1226 -0.2831
 1314TP3     H215762   2.633   2.168   8.335  1.6477 -0.2440  0.4457
 1315TP3      O15763   2.145   0.589   7.845 -0.0191 -0.7540 -0.3871
 1315TP3     H115764   2.073   0.539   7.884 -0.7554  1.2436  0.9125
 1315TP3     H215765   2.122   0.597   7.753  1.5195 -5.1707 -1.2445
 1316TP3      O15766   0.639   1.096   9.700  0.2513 -0.7305  0.8687
 1316TP3     H115767   0.704   1.135   9.641 -0.7770  0.8050  0.7039
 1316TP3     H215768   0.584   1.170   9.726  0.4518 -1.4761  3.4621
 1317TP3      O15769   1.274   3.130   8.382  0.0621 -0.0271 -0.2347
 1317TP3     H115770   1.310   3.147   8.295 -2.1925 -0.5283 -1.3068
 1317TP3     H215771   1.251   3.037   8.381 -0.0768 -0.0188  0.8683
 1318TP3      O15772   1.975   4.061   7.450  0.0905 -0.3046  0.1508
 1318TP3     H115773   2.068   4.071   7.471  0.5638 -0.5350 -1.7336
 1318TP3     H215774   1.974   4.008   7.371 -1.6345  0.0380 -0.0781
 1319TP3      O15775   4.293   0.830   9.298  0.1166 -0.0637  0.0506
 1319TP3     H115776   4.312   0.757   9.239 -1.6314  0.2476 -0.9214
 1319TP3     H215777   4.290   0.906   9.241 -0.3958  0.4201  0.7246
 1320TP3      O15778   3.492   4.149   8.138  0.7142 -0.7485  0.0191
 1320TP3     H115779   3.529   4.215   8.197  0.7056 -0.5956 -0.1485
 1320TP3     H215780   3.521   4.176   8.051 -0.7922  0.0572 -0.2556
 1321TP3      O15781   2.205   4.814   0.612  0.4054  0.6604  0.4511
 1321TP3     H115782   2.196   4.765   0.694  0.8063  0.5523  0.4267
 1321TP3     H215783   2.297   4.841   0.610  0.2254  1.2903  0.3959
 1322TP3      O15784   3.280   4.596   7.376 -0.2812 -0.0267 -0.0278
 1322TP3     H115785   3.217   4.536   7.337  1.4101 -0.9164 -1.4821
 1322TP3     H215786   3.335   4.624   7.302  0.9858  0.7657  1.1792
 1323TP3      O15787   3.219   2.979   8.982 -0.3863  0.1641 -0.1548
 1323TP3     H115788   3.200   3.072   8.969  2.4948  0.6180 -1.2696
 1323TP3     H215789   3.257   2.950   8.900 -0.7559 -1.9074  0.3774
 1324TP3      O15790   3.213   3.181   9.999  0.3084  0.2863  0.3346
 1324TP3     H115791   3.210   3.086  10.010 -0.5885  0.0686 -1.5423
 1324TP3     H215792   3.306   3.202   9.996  0.5154 -0.4666  1.1810
 1325TP3      O15793   2.311   2.816   8.630  0.1930 -0.3124 -0.1689
 1325TP3     H115794   2.297   2.779   8.543 -1.0413  1.2919 -0.6669
 1325TP3     H215795   2.378   2.884   8.617 -0.8992  0.7990 -0.1227
 1326TP3      O15796   1.120   3.270   2.057 -0.1622 -0.7291  0.2772
 1326TP3     H115797   1.069   3.305   2.130 -1.0140 -2.0630  0.3216
 1326TP3     H215798   1.088   3.317   1.980 -0.0425 -0.1325  0.5831
 1327TP3      O15799   2.808   3.996   7.962 -0.1381  0.2003 -0.3001
 1327TP3     H115800   2.874   3.932   7.935 -0.1800 -0.7863  1.8182
 1327TP3     H215801   2.785   4.042   7.881  2.2698 -0.2426 -1.2869
 1328TP3      O15802   0.892   1.757   7.066 -0.0000  0.7335 -0.0246
 1328TP3     H115803   0.966   1.810   7.035  0.1936  0.1167 -0.6277
 1328TP3     H215804   0.847   1.730   6.986  0.6883 -1.1529  0.2000
 1329TP3      O15805   3.151   4.569   9.746 -0.4743 -0.1675 -0.1294
 1329TP3     H115806   3.162   4.480   9.781 -0.4524  0.4119  1.3901
 1329TP3     H215807   3.060   4.574   9.720 -1.0765  0.0765  1.9125
 1330TP3      O15808   2.319   3.490   8.340 -0.3321  0.1093 -0.6619
 1330TP3     H115809   2.242   3.540   8.368 -0.2212  0.4106 -0.8875
 1330TP3     H215810   2.303   3.471   8.247 -1.6277 -2.6022  0.0552
 1331TP3      O15811   5.113   1.007   8.792 -0.2347 -0.0244  0.5965
 1331TP3     H115812   5.043   1.021   8.728 -0.0362 -0.6870  0.2265
 1331TP3     H215813   5.145   0.919   8.773 -0.3037 -0.3024  1.7281
 1332TP3      O15814   0.341   1.672   7.453  0.1365 -0.2120 -0.0838
 1332TP3     H115815   0.322   1.657   7.361 -1.3697 -0.4317  0.2359
 1332TP3     H215816   0.421   1.622   7.470 -1.1219 -2.4823 -0.6156
 1333TP3      O15817   3.882   3.174   7.277 -0.3033  0.0462 -0.1195
 1333TP3     H115818   3.948   3.198   7.212  0.6093 -1.0643  0.3763
 1333TP3     H215819   3.924   3.107   7.330 -0.9176  1.1657  1.8208
 1334TP3      O15820   0.283   3.924   2.030  0.0154  0.0606 -0.0751
 1334TP3     H115821   0.362   3.920   1.975 -0.2101  3.1615 -0.6933
 1334TP3     H215822   0.215   3.883   1.977  0.7317 -0.8004 -0.3571
 1335TP3      O15823   4.091   0.279   8.667  0.6017 -0.6221  0.2708
 1335TP3     H115824   4.097   0.191   8.629  2.3358 -0.9443  1.2094
 1335TP3     H215825   4.141   0.334   8.607  1.3311 -0.6883  0.8120
 1336TP3      O15826   1.937   4.994   8.162  0.6761 -0.3773  0.2178
 1336TP3     H115827   1.997   5.054   8.119 -0.0501 -0.3018 -0.7057
 1336TP3     H215828   1.859   4.995   8.107  0.1519 -1.1285  0.9388
 1337TP3      O15829   0.992   4.407   6.294  0.5045 -0.6967 -0.0630
 1337TP3     H115830   1.039   4.345   6.349  0.3737  0.7918  1.7707
 1337TP3     H215831   0.900   4.383   6.302  0.4991 -0.5696  0.2672
 1338TP3      O15832   3.096   1.188   7.590 -0.3185  0.2922  0.6579
 1338TP3     H115833   3.088   1.130   7.666  1.1326 -1.1232 -0.2425
 1338TP3     H215834   3.172   1.154   7.542 -1.1429  1.2583 -1.3626
 1339TP3      O15835   1.159   1.040   0.449 -0.7069  0.4052  0.4560
 1339TP3     H115836   1.158   0.960   0.501 -0.5430  1.2884  1.8692
 1339TP3     H215837   1.198   1.015   0.366 -0.0503 -0.8402  1.1260
 1340TP3      O15838   0.319   1.450   7.782 -0.2427  0.1237  1.0781
 1340TP3     H115839   0.415   1.444   7.788 -0.3365 -0.5558  1.9995
 1340TP3     H215840   0.297   1.398   7.705  0.0863 -0.2040  1.2007
 1341TP3      O15841   4.708   2.951   8.182 -0.0500 -0.9088 -0.1688
 1341TP3     H115842   4.716   2.860   8.155 -1.8472 -1.3628  0.7255
 1341TP3     H215843   4.775   2.963   8.249 -0.7487 -1.9976  0.7432
 1342TP3      O15844   1.829   2.919   9.810 -0.3833 -0.1167  0.1441
 1342TP3     H115845   1.828   2.990   9.874 -0.1203 -0.5643  0.6548
 1342TP3     H215846   1.914   2.927   9.766 -0.8871  0.6777 -0.7158
 1343TP3      O15847   4.502   2.625   7.471 -0.3188  0.2460  0.1968
 1343TP3     H115848   4.573   2.679   7.505  0.0642 -0.7652  1.0534
 1343TP3     H215849   4.424   2.681   7.475  0.2771  1.0858  0.0284
 1344TP3      O15850   2.433   2.945   7.993  0.0457  0.3532  0.0228
 1344TP3     H115851   2.397   3.004   7.926 -0.0785  0.8218  0.4932
 1344TP3     H215852   2.430   2.859   7.952  0.8071  0.7568 -0.9102
 1345TP3      O15853   3.938   1.552   9.148  0.2497  0.2657 -0.2542
 1345TP3     H115854   3.919   1.544   9.241  2.0926 -0.1555  0.1147
 1345TP3     H215855   3.894   1.477   9.108  0.2499 -0.0992  0.4149
 1346TP3      O15856   1.735   0.160   7.727 -0.0577 -0.3058  0.0180
 1346TP3     H115857   1.696   0.169   7.641 -0.8905 -0.4843  0.3766
 1346TP3     H215858   1.775   0.073   7.727  0.0595 -0.2517 -0.2324
 1347TP3      O15859   4.313   3.225   9.495 -0.5685  0.8196  0.4047
 1347TP3     H115860   4.384   3.163   9.513 -1.7949 -0.2991  1.5819
 1347TP3     H215861   4.250   3.210   9.566 -1.4543  2.5875  0.0266
 1348TP3      O15862   3.119   2.136   7.613 -0.0311  0.6084 -0.4868
 1348TP3     H115863   3.168   2.081   7.552 -1.9147  1.4247 -2.8273
 1348TP3     H215864   3.186   2.188   7.658  1.4931 -0.9936 -0.8488
 1349TP3      O15865   4.562   3.105   9.231 -0.0043 -0.7993 -0.3273
 1349TP3     H115866   4.484   3.160   9.238  0.1384 -0.6308 -0.0387
 1349TP3     H215867   4.624   3.158   9.180 -1.0073 -1.9806 -2.8552
 1350TP3      O15868   3.215   0.838  10.131  0.4713  0.3816 -0.0779
 1350TP3     H115869   3.273   0.861  10.058 -0.9307  2.7702 -0.4811
 1350TP3     H215870   3.272   0.793  10.193  1.7285 -1.6080 -2.5640
 1351TP3      O15871   2.267   4.992   2.243  0.1581  0.4436  0.8803
 1351TP3     H115872   2.281   5.075   2.289  2.2762  1.1456 -0.9278
 1351TP3     H215873   2.301   4.926   2.303 -0.4654  0.9804  1.8480
 1352TP3      O15874   3.596   3.846   6.789  0.1587  0.2122 -0.6362
 1352TP3     H115875   3.559   3.849   6.877  1.5949  0.2868 -0.0213
 1352TP3     H215876   3.690   3.836   6.803  0.3249 -0.4894 -2.1716
 1353TP3      O15877   2.715   4.817   7.657  0.0412  0.2222 -0.2057
 1353TP3     H115878   2.725   4.829   7.562 -0.1155  1.9039 -0.0359
 1353TP3     H215879   2.778   4.749   7.679 -0.4798 -0.7533 -1.6381
 1354TP3      O15880   3.778   0.066   8.385 -0.1354 -0.1765  0.3149
 1354TP3     H115881   3.862   0.059   8.340 -0.6902  0.4019 -0.8399
 1354TP3     H215882   3.721   0.004   8.339 -1.0214  1.2379 -0.5617
 1355TP3      O15883   2.233   4.973   8.469 -0.4043 -0.4095 -0.4155
 1355TP3     H115884   2.305   5.020   8.429  0.2603 -1.1938 -0.1548
 1355TP3     H215885   2.194   5.035   8.531  0.3838 -0.1795 -0.1559
 1356TP3      O15886   5.171   2.985   8.196 -0.0255  0.2262 -0.0087
 1356TP3     H115887   5.178   3.081   8.190  0.2870  0.1756 -0.4637
 1356TP3     H215888   5.211   2.953   8.115  1.3903 -0.3589  0.9042
 1357TP3      O15889   0.307   2.419   2.004 -0.2850  0.3063  0.6347
 1357TP3     H115890   0.212   2.417   2.001 -0.2381 -0.4632 -1.4933
 1357TP3     H215891   0.329   2.512   2.004 -1.0263  0.5234 -1.4908
 1358TP3      O15892   3.557   4.208   7.412  0.5553  0.2467  0.4614
 1358TP3     H115893   3.518   4.128   7.448 -0.0187  0.1769 -0.2940
 1358TP3     H215894   3.511   4.279   7.457 -0.3695  0.1631 -0.3379
 1359TP3      O15895   3.648   5.115   7.777 -0.9747 -0.3115 -0.3373
 1359TP3     H115896   3.724   5.113   7.836 -1.0481 -1.8493 -0.2801
 1359TP3     H215897   3.622   5.207   7.775  0.4394  0.1213  0.2286
 1360TP3      O15898   2.739   4.480   6.757 -0.0912 -0.0945 -0.9195
 1360TP3     H115899   2.797   4.533   6.812 -1.8630 -0.8969  1.8006
 1360TP3     H215900   2.760   4.390   6.778 -1.5778 -0.4072 -0.7063
 1361TP3      O15901   4.133   0.629   0.302 -0.6095  0.3150 -0.1135
 1361TP3     H115902   4.141   0.722   0.319  0.6404  0.3406 -0.8198
 1361TP3     H215903   4.106   0.623   0.210  2.9555 -0.0860 -1.2002
 1362TP3      O15904   4.801   3.145   9.544 -0.1257  0.1660  0.4576
 1362TP3     H115905   4.880   3.199   9.548 -0.6488  1.0868 -1.2547
 1362TP3     H215906   4.824   3.072   9.487  0.4946 -1.3357  2.5573
 1363TP3      O15907   3.441   3.474   9.458 -0.0189  0.7060 -0.7677
 1363TP3     H115908   3.526   3.452   9.498 -0.2257 -0.5289 -0.9811
 1363TP3     H215909   3.455   3.459   9.365 -0.5917  0.0634 -0.7544
 1364TP3      O15910   3.125   3.054   8.523 -0.5238 -0.1251  0.1426
 1364TP3     H115911   3.039   3.038   8.486 -1.6106 -3.1198  3.7077
 1364TP3     H215912   3.111   3.125   8.586 -0.0225  0.4768 -0.4116
 1365TP3      O15913   1.830   3.561   1.764  0.3061  0.1741  0.1815
 1365TP3     H115914   1.779   3.557   1.683  0.8436  1.8268 -0.2807
 1365TP3     H215915   1.769   3.594   1.830  0.0341 -0.5569  0.2908
 1366TP3      O15916   4.369   1.011   1.522 -0.3539  0.0249  0.3362
 1366TP3     H115917   4.420   0.930   1.514 -1.5981 -0.7425  0.1574
 1366TP3     H215918   4.396   1.047   1.607  2.3439  0.9287 -0.8431
 1367TP3      O15919   1.409   3.229   9.228 -0.1140 -0.2704  0.7270
 1367TP3     H115920   1.404   3.311   9.279  2.1110  0.9821 -0.9972
 1367TP3     H215921   1.450   3.167   9.288  0.6096  0.6167  1.1700
 1368TP3      O15922   2.296   4.604   7.821 -0.4273  0.1302  0.0780
 1368TP3     H115923   2.227   4.538   7.825  0.7287 -1.1244 -0.4479
 1368TP3     H215924   2.267   4.665   7.753 -0.7854 -0.6603 -0.4800
 1369TP3      O15925   0.284   1.761   8.710 -0.3400  0.1526  0.0327
 1369TP3     H115926   0.268   1.697   8.780 -0.4604 -0.8249 -0.8788
 1369TP3     H215927   0.215   1.826   8.721 -0.0729  0.2584  1.1170
 1370TP3      O15928   1.208   1.045   7.022 -0.1058  0.3031  0.2424
 1370TP3     H115929   1.141   1.047   6.953 -0.3831  1.7325  0.5515
 1370TP3     H215930   1.229   1.137   7.037  1.1680 -0.0964  0.8944
 1371TP3      O15931   5.079   0.924   0.007 -0.1781 -0.6654  0.0628
 1371TP3     H115932   5.068   0.836   0.042 -1.3629 -0.3114  0.6257
 1371TP3     H215933   5.042   0.981   0.075  0.9484  0.2873 -0.1175
 1372TP3      O15934   1.907   1.334   7.714  0.0610 -0.5089 -0.5385
 1372TP3     H115935   1.998   1.323   7.741  0.1688  1.0969 -0.2179
 1372TP3     H215936   1.896   1.274   7.640  1.2776 -0.9399 -0.3705
 1373TP3      O15937   1.948   1.126   9.961 -0.7348 -0.1596  0.5474
 1373TP3     H115938   2.020   1.075   9.997  0.4834  0.6667 -0.6887
 1373TP3     H215939   1.876   1.063   9.954  0.6074 -1.6290 -0.5302
 1374TP3      O15940   0.323   3.829   7.568 -0.0148  0.3807 -0.4717
 1374TP3     H115941   0.409   3.800   7.540  0.3016  0.9023 -0.0506
 1374TP3     H215942   0.268   3.822   7.490  0.3398 -0.2143 -0.6693
 1375TP3      O15943   1.391   4.471   8.815 -0.3225 -0.0464 -0.0373
 1375TP3     H115944   1.385   4.383   8.777 -0.5969 -0.2296  0.4301
 1375TP3     H215945   1.300   4.494   8.835 -0.1995  0.1456  0.2938
 1376TP3      O15946   1.791   0.087   8.561  0.1080 -0.0392 -0.0049
 1376TP3     H115947   1.821   0.058   8.647 -1.3742 -0.1515  0.4857
 1376TP3     H215948   1.845   0.037   8.499  2.6304  1.5458  0.8202
 1377TP3      O15949   4.563   4.453   8.032 -0.3491  0.0007  0.0957
 1377TP3     H115950   4.599   4.449   8.120 -0.5363 -2.0503  0.0924
 1377TP3     H215951   4.614   4.523   7.989  0.2193  0.5232  1.5867
 1378TP3      O15952   5.167   4.868   1.189 -0.2201 -0.2063  0.8525
 1378TP3     H115953   5.206   4.931   1.249 -1.7549  0.6878  0.9387
 1378TP3     H215954   5.173   4.784   1.235  2.9290 -0.3801  0.2252
 1379TP3      O15955   4.147   1.854   6.786  0.4364  0.2556  0.1908
 1379TP3     H115956   4.225   1.826   6.835  0.2562  0.0444  0.3587
 1379TP3     H215957   4.074   1.826   6.841  0.1947 -1.7662 -1.1370
 1380TP3      O15958   2.589   3.226   1.158  0.1558  0.4418 -0.6629
 1380TP3     H115959   2.662   3.220   1.220 -1.4116  1.4730  1.3710
 1380TP3     H215960   2.600   3.150   1.101  1.6496 -0.5895  0.9187
 1381TP3      O15961   1.794   2.477   8.472  0.4063  0.2246 -0.0895
 1381TP3     H115962   1.768   2.520   8.553  1.0302 -0.2618  0.3856
 1381TP3     H215963   1.783   2.543   8.404 -2.2420 -0.0516  0.0527
 1382TP3      O15964   1.907   1.997   9.392  0.4720  0.0780  0.3259
 1382TP3     H115965   1.947   1.913   9.414  0.4262  0.4814  2.0069
 1382TP3     H215966   1.955   2.061   9.444 -0.4556  0.9190  0.1663
 1383TP3      O15967   0.457   4.524   8.614 -0.0781 -0.5858  0.5214
 1383TP3     H115968   0.535   4.469   8.627  1.8577  2.3508  1.9531
 1383TP3     H215969   0.463   4.590   8.683 -4.8572 -1.3359  1.8387
 1384TP3      O15970   1.109   0.800   8.481  0.3945  1.0004 -0.3546
 1384TP3     H115971   1.186   0.801   8.425  1.2536  0.9875  0.7958
 1384TP3     H215972   1.144   0.798   8.570 -0.9329  1.7398  0.2073
 1385TP3      O15973   2.093   3.246   7.301 -0.5410  0.4109 -0.8181
 1385TP3     H115974   2.013   3.286   7.267  0.7161  0.9295 -3.2938
 1385TP3     H215975   2.161   3.270   7.238  1.4535 -0.5680  0.8788
 1386TP3      O15976   1.447   0.083   6.983 -0.0212  0.2243  0.0141
 1386TP3     H115977   1.401   0.023   6.925  0.9664  0.2582 -0.8217
 1386TP3     H215978   1.534   0.092   6.944  0.1731  1.3965  0.6946
 1387TP3      O15979   1.806   4.424   9.612  0.1893  0.0399  0.1814
 1387TP3     H115980   1.777   4.333   9.612  0.3700 -0.0176  0.5498
 1387TP3     H215981   1.786   4.455   9.524 -1.2396  0.0887  0.5036
 1388TP3      O15982   0.209   4.299   7.658  0.5150 -0.0737 -0.0047
 1388TP3     H115983   0.275   4.365   7.636  0.5395 -0.2648 -0.5242
 1388TP3     H215984   0.125   4.342   7.641  0.4418  0.7822  2.3843
 1389TP3      O15985   3.245   4.985   8.853  0.9991 -0.3564  0.5260
 1389TP3     H115986   3.193   4.909   8.878 -1.2896  1.4940  1.5549
 1389TP3     H215987   3.221   5.053   8.915 -0.0472  2.4424 -2.7823
 1390TP3      O15988   3.180   0.428   6.834 -0.1037  0.1549  0.9373
 1390TP3     H115989   3.103   0.444   6.887 -0.8003 -0.0456  0.0060
 1390TP3     H215990   3.201   0.512   6.794 -1.9654 -0.5018 -1.5781
 1391TP3      O15991   3.676   3.911   7.068 -0.5835 -0.3190 -0.2149
 1391TP3     H115992   3.717   3.831   7.104 -0.1932 -0.1273 -0.2315
 1391TP3     H215993   3.588   3.883   7.043 -1.0624 -0.3246  1.4146
 1392TP3      O15994   4.852   0.122   8.021  0.4000 -0.1965  0.3228
 1392TP3     H115995   4.773   0.159   8.061  0.3967 -0.2866  0.4007
 1392TP3     H215996   4.923   0.176   8.056  0.3034  0.3769 -0.3475
 1393TP3      O15997   1.427   4.987   9.985 -0.6761  0.2602  0.3260
 1393TP3     H115998   1.355   5.050   9.998 -1.0506 -0.3409  1.1878
 1393TP3     H215999   1.489   5.006  10.055  0.1577  0.9701 -0.5892
 1394TP3      O16000   2.958   3.121   9.518  0.5030  0.2350  0.1246
 1394TP3     H116001   2.907   3.040   9.524  0.9876 -0.1398 -0.7102
 1394TP3     H216002   3.047   3.094   9.543  1.0277  0.1450 -1.7597
 1395TP3      O16003   4.770   4.984   8.568 -0.1191  0.1304  0.6307
 1395TP3     H116004   4.817   4.901   8.564  1.3778  1.0372 -1.2106
 1395TP3     H216005   4.698   4.973   8.505  0.6106  0.5197 -0.2920
 1396TP3      O16006   3.378   4.940   6.623  0.5624 -0.4935 -0.0581
 1396TP3     H116007   3.436   4.981   6.559  2.2511  1.0180  2.3287
 1396TP3     H216008   3.310   5.006   6.639  0.9527 -0.2873  0.7558
 1397TP3      O16009   5.116   4.315   7.378  0.8260  0.1626 -0.2844
 1397TP3     H116010   5.114   4.377   7.450 -1.7650 -0.3624  0.1454
 1397TP3     H216011   5.147   4.233   7.418 -2.4281 -0.6539  0.7469
 1398TP3      O16012   1.292   3.447   7.931 -0.3183 -0.1026 -0.1733
 1398TP3     H116013   1.259   3.494   8.007 -0.8723 -1.4227  0.4228
 1398TP3     H216014   1.250   3.361   7.936 -0.1969 -0.2830 -1.8480
 1399TP3      O16015   2.986   2.208   9.633  0.3355 -0.6300 -0.1091
 1399TP3     H116016   2.934   2.133   9.603  0.2304 -0.1718 -1.0953
 1399TP3     H216017   2.963   2.279   9.573  0.8468  0.0382  0.4786
 1400TP3      O16018   2.110   3.704   1.892  0.9336  0.0072 -0.0148
 1400TP3     H116019   2.046   3.637   1.915  0.4715  0.0252 -1.1875
 1400TP3     H216020   2.097   3.773   1.956  0.6350 -0.5381  0.5145
 1401TP3      O16021   1.439   2.295   0.885  0.3214 -0.4277 -0.4050
 1401TP3     H116022   1.373   2.253   0.940  0.6104 -1.9093 -1.1619
 1401TP3     H216023   1.503   2.330   0.947 -0.8595  0.5096  0.3081
 1402TP3      O16024   2.960   3.011   7.836 -0.3458 -0.2982  0.2490
 1402TP3     H116025   3.015   3.086   7.815 -1.4353  0.6011  0.5356
 1402TP3     H216026   2.994   2.940   7.782  0.7056  0.3905 -0.0091
 1403TP3      O16027   2.704   3.444  10.080 -0.2213  0.5412 -0.0673
 1403TP3     H116028   2.693   3.374  10.014 -0.3926 -0.5924  1.1390
 1403TP3     H216029   2.666   3.521  10.039 -2.3364 -0.6590 -0.4534
 1404TP3      O16030   3.669   2.718   0.449  0.0269  0.0060 -0.6855
 1404TP3     H116031   3.757   2.689   0.425  0.5728  2.0969 -1.3768
 1404TP3     H216032   3.682   2.771   0.528 -0.9988 -1.9349  0.8308
 1405TP3      O16033   2.881   2.932   0.138  0.1177  0.0104 -0.4337
 1405TP3     H116034   2.831   2.938   0.056  0.0031  1.2871 -0.2720
 1405TP3     H216035   2.971   2.951   0.112  0.1265  0.1358 -0.3103
 1406TP3      O16036   5.230   4.021   1.125  0.1256 -0.0238 -0.4428
 1406TP3     H116037   5.161   3.964   1.159 -0.0682  0.0791 -0.6708
 1406TP3     H216038   5.222   4.102   1.176  0.5872 -0.3013  0.0854
 1407TP3      O16039   0.031   4.773  10.138 -0.0016 -0.4181 -0.0064
 1407TP3     H116040   0.126   4.787  10.137 -0.0853  0.1356 -0.5959
 1407TP3     H216041   0.021   4.679  10.154  0.6810 -0.8417 -2.0082
 1408TP3      O16042   2.206   5.054   0.014 -0.4211 -0.5912 -0.0734
 1408TP3     H116043   2.115   5.035   0.036 -0.0967  0.5437  2.5318
 1408TP3     H216044   2.249   4.969   0.011 -1.5554 -1.1376 -1.3999
 1409TP3      O16045   2.872   3.389   8.856 -0.4065 -0.5188  0.1890
 1409TP3     H116046   2.865   3.425   8.944 -0.7952  3.8615 -1.4951
 1409TP3     H216047   2.784   3.356   8.837 -1.2375  1.6261  0.2256
 1410TP3      O16048   4.814   3.117   7.799  0.4355 -1.1417  0.0461
 1410TP3     H116049   4.846   3.042   7.850  2.2226 -1.1729 -1.1072
 1410TP3     H216050   4.821   3.191   7.859  0.9062 -1.4781  0.4085
 1411TP3      O16051   1.420   1.682   8.914 -0.5760  0.0998  0.4233
 1411TP3     H116052   1.337   1.715   8.881  0.8409  0.7634 -2.7177
 1411TP3     H216053   1.453   1.625   8.844  0.6801 -1.7502  2.4562
 1412TP3      O16054   4.242   0.488   8.556 -0.0293  0.2578  0.5544
 1412TP3     H116055   4.269   0.425   8.489 -1.3928  0.3130 -0.0594
 1412TP3     H216056   4.231   0.570   8.510  1.2069  0.8320  1.2613
 1413TP3      O16057   1.674   0.320   8.486 -0.1280  0.3839  0.1838
 1413TP3     H116058   1.713   0.247   8.533  0.1003 -0.6814 -1.6280
 1413TP3     H216059   1.745   0.383   8.476  0.1878  0.0137  0.0879
 1414TP3      O16060   4.663   4.301   9.104  0.3239  0.0365  0.3923
 1414TP3     H116061   4.627   4.325   9.019  2.7604 -1.4598 -1.1350
 1414TP3     H216062   4.746   4.350   9.109  0.0021  0.4428  2.1044
 1415TP3      O16063   5.193   3.542   8.272  0.9152  0.5697  0.0318
 1415TP3     H116064   5.266   3.562   8.214 -0.0475 -2.1458 -2.1854
 1415TP3     H216065   5.235   3.508   8.352  2.1534  2.0126  0.0175
 1416TP3      O16066   3.184   1.725   1.797 -0.5218  0.7318  0.0019
 1416TP3     H116067   3.117   1.765   1.852 -2.6974 -0.3688 -1.7530
 1416TP3     H216068   3.135   1.676   1.732  2.0463 -1.9126 -0.0227
 1417TP3      O16069   1.925   1.748   6.907 -0.7868 -0.1788  0.0760
 1417TP3     H116070   2.020   1.751   6.894 -0.5260  0.2678  1.8930
 1417TP3     H216071   1.905   1.655   6.911 -0.2577 -0.2693  0.7368
 1418TP3      O16072   3.028   0.390   8.949 -0.4543  0.2424 -0.0511
 1418TP3     H116073   2.950   0.366   8.899 -0.7298  0.5457  0.2337
 1418TP3     H216074   3.007   0.475   8.986 -0.8827 -0.6898  1.9041
 1419TP3      O16075   2.614   0.066   7.756  0.0162 -0.5791 -0.5327
 1419TP3     H116076   2.619   0.134   7.690 -1.9355  1.8927  1.7534
 1419TP3     H216077   2.688   0.083   7.814  0.6724 -1.6171 -1.0637
 1420TP3      O16078   3.205   0.498   0.432  0.0275  0.1963 -0.0732
 1420TP3     H116079   3.134   0.462   0.485 -1.6822  0.0645 -2.3744
 1420TP3     H216080   3.231   0.578   0.478  0.4945 -1.3500  2.4197
 1421TP3      O16081   1.368   0.034   7.292  0.2359  0.1049  0.0627
 1421TP3     H116082   1.293   0.038   7.352  0.6196 -1.8216  0.7060
 1421TP3     H216083   1.331   0.009   7.208 -0.2399  2.3269 -0.4253
 1422TP3      O16084   2.058   1.307   9.750  0.2465  0.7002 -0.1646
 1422TP3     H116085   1.998   1.261   9.809 -0.5100  1.7844 -0.0736
 1422TP3     H216086   2.023   1.289   9.663  0.1480  0.8124 -0.1489
 1423TP3      O16087   3.221   3.912   7.313  0.0238 -0.0335 -0.1186
 1423TP3     H116088   3.210   3.846   7.245 -0.8893 -2.5561  2.3965
 1423TP3     H216089   3.140   3.964   7.310 -1.4990 -2.2510  1.2077
 1424TP3      O16090   3.400   3.340   8.706 -0.0438  0.0797 -0.8298
 1424TP3     H116091   3.494   3.328   8.690 -0.4769 -2.5276 -1.6111
 1424TP3     H216092   3.387   3.306   8.794  0.1645  2.9005  0.3385
 1425TP3      O16093   0.747   4.256   7.433 -0.2393  0.0107  0.3046
 1425TP3     H116094   0.823   4.298   7.472 -1.0552 -0.7486  2.8247
 1425TP3     H216095   0.750   4.281   7.341  1.5512  2.1778  0.9103
 1426TP3      O16096   3.940   2.163   0.376  0.2435  0.3308 -0.2808
 1426TP3     H116097   4.033   2.174   0.399  0.2411  0.4912 -0.3514
 1426TP3     H216098   3.915   2.081   0.420  0.1752  0.7580  0.4789
 1427TP3      O16099   1.692   0.960   0.577 -0.0085  0.0525 -0.0457
 1427TP3     H116100   1.689   0.882   0.632  1.8440  0.7245  1.0265
 1427TP3     H216101   1.646   1.027   0.628 -1.6555 -0.3133 -0.9928
 1428TP3      O16102   0.968   1.761   8.073  0.1504  0.3170  0.0764
 1428TP3     H116103   0.882   1.803   8.074 -0.1185 -0.2409  1.5587
 1428TP3     H216104   0.974   1.720   7.987 -0.5722  1.3439 -0.4749
 1429TP3      O16105   3.371   5.263   0.444 -0.0837 -0.0455  0.0308
 1429TP3     H116106   3.351   5.196   0.378  0.1062 -0.0292 -0.0450
 1429TP3     H216107   3.323   5.340   0.415  0.4686  0.1339 -0.4108
 1430TP3      O16108   3.897   2.478   2.173  0.2000 -0.4393 -0.0875
 1430TP3     H116109   3.915   2.478   2.079 -0.9868 -0.7828 -0.3225
 1430TP3     H216110   3.856   2.563   2.190 -3.0046 -1.8165 -0.5796
 1431TP3      O16111   3.039   4.878   7.794  0.3048  0.1532  0.7580
 1431TP3     H116112   2.986   4.824   7.852 -0.0576  0.3031  0.5704
 1431TP3     H216113   3.053   4.824   7.717 -0.4814  0.5064  0.3597
 1432TP3      O16114   2.443   4.388   9.281 -0.5542 -0.3190  0.1885
 1432TP3     H116115   2.407   4.300   9.294 -0.7420 -0.2495  0.1453
 1432TP3     H216116   2.484   4.410   9.365  0.1709 -0.7580 -0.0495
 1433TP3      O16117   0.271   0.560   0.183 -0.3422  0.0099  0.5870
 1433TP3     H116118   0.338   0.564   0.114 -1.0485  0.5051 -0.0791
 1433TP3     H216119   0.300   0.624   0.248 -0.0163  0.0164  0.4378
 1434TP3      O16120   0.395   4.460   0.493 -0.2835 -0.3665 -0.6484
 1434TP3     H116121   0.446   4.399   0.439  1.1967  0.2021  0.1058
 1434TP3     H216122   0.430   4.546   0.472  1.6600 -0.2804  2.6402
 1435TP3      O16123   2.867   4.579   9.985 -0.1625  0.0584 -0.3438
 1435TP3     H116124   2.853   4.549  10.075 -0.6220 -0.9298 -0.7267
 1435TP3     H216125   2.783   4.617   9.960 -0.0289  0.3490 -0.3453
 1436TP3      O16126   2.625   4.105   6.605 -0.1402 -0.2554 -0.5670
 1436TP3     H116127   2.542   4.066   6.578  0.2486 -1.4113 -0.1033
 1436TP3     H216128   2.691   4.039   6.585  0.1823 -1.1363  3.0710
 1437TP3      O16129   2.668   4.923   8.766 -0.6296 -0.4026 -0.2207
 1437TP3     H116130   2.693   4.899   8.856  1.4753  1.3408 -0.2991
 1437TP3     H216131   2.745   4.900   8.713 -0.9542  0.7710 -1.2132
 1438TP3      O16132   3.810   3.050   9.716 -0.5760  0.1708 -0.1860
 1438TP3     H116133   3.818   3.061   9.810 -1.2107  2.5525 -0.3568
 1438TP3     H216134   3.817   2.956   9.701 -1.5878 -0.3435  2.3487
 1439TP3      O16135   3.051   1.858   7.772  0.5533  0.1000 -0.8068
 1439TP3     H116136   3.133   1.809   7.777  0.9539  0.7363 -0.9398
 1439TP3     H216137   3.073   1.943   7.810 -0.4691 -0.2623  0.5878
 1440TP3      O16138   0.357   3.726   0.061  0.0630  0.9983 -0.4599
 1440TP3     H116139   0.383   3.634   0.057 -0.3571  0.9076 -1.0198
 1440TP3     H216140   0.341   3.742   0.154 -1.1407  0.1575 -0.5286
 1441TP3      O16141   1.532   5.302   8.168  0.2954  0.4779 -0.0903
 1441TP3     H116142   1.525   5.292   8.073 -0.2767  1.8357 -0.1993
 1441TP3     H216143   1.484   5.228   8.203 -0.1634  0.4058 -0.8614
 1442TP3      O16144   2.013   0.244   7.795 -0.0044 -0.0322 -0.3105
 1442TP3     H116145   1.920   0.247   7.816 -0.1151 -0.1091 -0.7894
 1442TP3     H216146   2.021   0.294   7.713  0.6330  1.5202  0.6724
 1443TP3      O16147   0.078   4.879   1.754  0.5199  0.3875  0.6473
 1443TP3     H116148   0.028   4.846   1.829  0.8138  0.4505  0.8739
 1443TP3     H216149   0.149   4.815   1.742  0.7926  0.6654  0.7682
 1444TP3      O16150   2.624   0.227   8.310 -0.1255 -0.2502  0.0831
 1444TP3     H116151   2.553   0.218   8.246  0.6342 -0.9847 -0.6540
 1444TP3     H216152   2.613   0.153   8.369 -0.2245 -0.1239  0.2255
 1445TP3      O16153   4.432   3.536   8.723 -0.2217 -0.0519  0.1003
 1445TP3     H116154   4.487   3.483   8.666 -1.1428 -1.2988  0.3491
 1445TP3     H216155   4.440   3.496   8.809 -2.2617 -0.8656 -0.0527
 1446TP3      O16156   4.493   2.582   8.063  0.1321 -0.0166  0.5187
 1446TP3     H116157   4.570   2.542   8.023  0.0513 -0.3307  0.6746
 1446TP3     H216158   4.431   2.593   7.991  1.0409  1.9993  0.0177
 1447TP3      O16159   4.179   4.601   7.111  0.1466 -0.0691  0.2136
 1447TP3     H116160   4.188   4.519   7.160  0.4493 -0.4652 -0.4894
 1447TP3     H216161   4.105   4.646   7.151 -2.3555 -2.3227 -1.6965
 1448TP3      O16162   1.315   3.597   0.590  0.2139 -0.0176  0.2570
 1448TP3     H116163   1.228   3.612   0.626  0.4622 -0.1998  0.9453
 1448TP3     H216164   1.300   3.561   0.503 -0.3948 -0.1140  0.4050
 1449TP3      O16165   1.938   4.116   9.040  0.1005  0.3640 -0.2395
 1449TP3     H116166   1.963   4.194   8.991  1.3064  0.2856  0.2332
 1449TP3     H216167   2.002   4.050   9.014  0.2534  0.0883  0.8212
 1450TP3      O16168   1.378   3.356   8.669  0.1689  0.4656  0.3336
 1450TP3     H116169   1.436   3.389   8.600  0.1976 -0.5651 -0.1602
 1450TP3     H216170   1.321   3.429   8.691  0.7068  1.0523 -0.2105
 1451TP3      O16171   4.293   4.377   0.109  0.0395 -0.3446  0.4128
 1451TP3     H116172   4.295   4.413   0.021  0.3634 -0.0255  0.5501
 1451TP3     H216173   4.207   4.401   0.144 -0.6468 -1.6650 -0.3121
 1452TP3      O16174   2.922   5.102   7.562  0.2727 -0.2688 -0.1026
 1452TP3     H116175   2.942   5.012   7.585  0.9396 -0.0549  0.1708
 1452TP3     H216176   2.874   5.137   7.637 -1.0214 -0.7369 -0.6962
 1453TP3      O16177   2.981   4.251   8.059 -0.2682 -0.5740  0.5323
 1453TP3     H116178   3.075   4.263   8.043 -0.0341 -1.0204  1.5459
 1453TP3     H216179   2.959   4.168   8.018 -0.5420  0.2224 -0.9793
 1454TP3      O16180   1.743   1.978   9.753  0.5463  0.2495 -0.2604
 1454TP3     H116181   1.790   2.059   9.737  1.7445 -0.0643  1.4765
 1454TP3     H216182   1.781   1.944   9.835 -1.3422 -1.0063  0.1365
 1455TP3      O16183   0.582   0.293   8.479  0.2905 -0.6340 -0.5106
 1455TP3     H116184   0.602   0.374   8.432 -0.2561 -0.6427 -0.7505
 1455TP3     H216185   0.540   0.322   8.560 -2.1298 -0.7828 -1.6944
 1456TP3      O16186   3.796   4.756   6.810  0.3916  0.2668 -0.1265
 1456TP3     H116187   3.707   4.789   6.810 -0.6679 -2.4620 -0.7515
 1456TP3     H216188   3.814   4.734   6.901  0.3733  0.6913 -0.0219
 1457TP3      O16189   0.620   1.409   8.923 -0.0758 -0.4072  0.9029
 1457TP3     H116190   0.681   1.445   8.858 -1.2616 -0.8153 -0.4700
 1457TP3     H216191   0.620   1.473   8.994  0.0819  0.8258 -0.1867
 1458TP3      O16192   0.838   0.659   3.152  0.2305  0.3515 -0.2136
 1458TP3     H116193   0.929   0.661   3.124 -0.3348  1.1306 -2.0556
 1458TP3     H216194   0.835   0.717   3.229  1.1573  0.7857 -0.5077
 1459TP3      O16195   1.248   2.664   1.397  0.2636 -0.4154 -0.2735
 1459TP3     H116196   1.317   2.730   1.398 -0.2761  0.1943 -1.7252
 1459TP3     H216197   1.181   2.700   1.339 -0.8877 -1.3902  0.4182
 1460TP3      O16198   2.843   4.247   7.461 -1.0923 -0.3505 -0.1771
 1460TP3     H116199   2.845   4.340   7.485  0.8665  0.2158 -2.2725
 1460TP3     H216200   2.750   4.227   7.449 -1.4545  1.7682 -1.1654
 1461TP3      O16201   0.551   3.294   9.309  0.1288 -0.2446 -0.0378
 1461TP3     H116202   0.502   3.227   9.355  0.8038 -0.4869  0.3334
 1461TP3     H216203   0.508   3.376   9.334 -0.9467 -0.5527 -0.8117
 1462TP3      O16204   1.312   3.977   8.728 -0.4042  0.4538  0.3316
 1462TP3     H116205   1.382   3.943   8.671 -0.5763 -1.4372  1.1911
 1462TP3     H216206   1.272   4.048   8.678 -0.0206 -0.6444 -1.5869
 1463TP3      O16207   5.296   3.881   9.761  0.0797 -0.1511  0.5319
 1463TP3     H116208   5.230   3.950   9.749 -0.2306 -0.2791  1.4778
 1463TP3     H216209   5.278   3.846   9.848 -0.5245 -2.2164 -0.3861
 1464TP3      O16210   1.974   3.225   7.806  0.0044  0.2799  1.0778
 1464TP3     H116211   2.046   3.241   7.867  0.1911 -0.5654  1.0848
 1464TP3     H216212   2.011   3.239   7.719  0.2534 -0.3953  1.0674
 1465TP3      O16213   4.051   0.643   8.352  0.1024  0.0531  0.0482
 1465TP3     H116214   4.022   0.706   8.418  3.2072 -0.1534  1.6708
 1465TP3     H216215   4.008   0.561   8.377 -1.2053  0.6997 -0.0397
 1466TP3      O16216   1.328   4.008   0.783 -0.1373  0.5377  0.0247
 1466TP3     H116217   1.250   3.977   0.736 -1.9488  1.0904  2.5724
 1466TP3     H216218   1.319   4.104   0.783  1.0353  0.6593 -0.4338
 1467TP3      O16219   3.201   2.620   9.551  0.6533  0.8561 -0.6282
 1467TP3     H116220   3.224   2.608   9.459 -3.7774  1.3085 -1.8714
 1467TP3     H216221   3.262   2.563   9.598 -0.0183 -3.0176 -4.1421
 1468TP3      O16222   4.816   4.574   1.241  0.5021 -0.2438  0.3305
 1468TP3     H116223   4.759   4.524   1.184 -0.2978  2.7909 -1.6567
 1468TP3     H216224   4.771   4.574   1.326 -0.3943 -1.2563 -0.1392
 1469TP3      O16225   0.066   3.643   0.442 -0.0343 -0.3664 -0.4114
 1469TP3     H116226  -0.013   3.643   0.495  0.4876  1.4248  0.4023
 1469TP3     H216227   0.049   3.709   0.374  0.3025 -0.8244 -0.9503
 1470TP3      O16228   1.303   4.769  10.067 -0.2878  0.6445  0.2803
 1470TP3     H116229   1.210   4.788  10.055 -0.5328 -0.7577 -0.1650
 1470TP3     H216230   1.348   4.850  10.042 -1.4277  1.6767  1.4611
 1471TP3      O16231   2.121   3.905   0.429 -0.3768  0.7007 -0.2877
 1471TP3     H116232   2.071   3.884   0.507  1.1209 -1.6483  0.0867
 1471TP3     H216233   2.202   3.944   0.462 -0.2843  0.8805 -0.7202
 1472TP3      O16234   3.653   4.929   8.450  0.3562 -0.1213  0.2956
 1472TP3     H116235   3.644   4.853   8.392  0.9401 -0.2732  0.4001
 1472TP3     H216236   3.572   4.979   8.437 -0.9760 -1.8246  1.7611
 1473TP3      O16237   0.315   4.231   8.271 -0.4398  0.8423  0.1939
 1473TP3     H116238   0.330   4.176   8.348 -1.4439  0.7427  0.3253
 1473TP3     H216239   0.314   4.320   8.305 -0.3843  0.8335  0.2182
 1474TP3      O16240   5.058   2.002   2.796 -0.1378 -0.1129 -0.0184
 1474TP3     H116241   4.987   1.967   2.742  1.1586 -3.5819  0.4318
 1474TP3     H216242   5.119   2.039   2.732 -2.0463  2.5054 -0.4327
 1475TP3      O16243   3.024   2.473   1.770  0.1663  0.2371 -0.1057
 1475TP3     H116244   3.091   2.429   1.822  0.1022  1.0254  0.6492
 1475TP3     H216245   2.942   2.431   1.795  0.2143  0.1825 -0.0411
 1476TP3      O16246   1.557   0.441   1.902  0.7412 -0.6883 -0.2063
 1476TP3     H116247   1.594   0.450   1.814 -1.2494 -0.1463 -1.0194
 1476TP3     H216248   1.509   0.358   1.900 -0.3854 -0.0530 -0.0554
 1477TP3      O16249   2.775   1.012   9.358  0.9256  0.5956  0.5196
 1477TP3     H116250   2.861   0.998   9.318  0.9609  1.5008  0.2712
 1477TP3     H216251   2.718   0.948   9.316  1.4755  0.0150  0.6603
 1478TP3      O16252   2.986   3.374   6.622  0.6493  0.2007  0.4719
 1478TP3     H116253   2.937   3.373   6.704  0.0345  0.5331  0.1055
 1478TP3     H216254   3.002   3.467   6.604  1.6378  0.0916  0.7186
 1479TP3      O16255   4.532   0.401   8.313  0.3358  0.5123 -0.7005
 1479TP3     H116256   4.505   0.419   8.223 -0.0815  1.4175 -0.3994
 1479TP3     H216257   4.456   0.361   8.354 -0.0394  1.6418 -0.2851
 1480TP3      O16258   2.337   4.287   8.072  0.2215 -0.3712  0.6711
 1480TP3     H116259   2.281   4.359   8.100  0.3268  0.1249 -0.3831
 1480TP3     H216260   2.379   4.256   8.152 -2.2273 -1.3301  1.6131
 1481TP3      O16261   1.906   3.982   8.654  0.3251 -0.1315  0.0157
 1481TP3     H116262   1.866   4.030   8.582  2.3803  0.0486 -1.0473
 1481TP3     H216263   1.984   4.034   8.676  0.7124 -1.1768  1.1219
 1482TP3      O16264   1.553   2.568   8.881  0.2898 -0.4919  0.0719
 1482TP3     H116265   1.492   2.627   8.838  1.9887  1.1036 -0.1975
 1482TP3     H216266   1.638   2.613   8.878  1.2457 -2.0844  1.5622
 1483TP3      O16267   3.331   2.215   7.774 -0.1472  0.0332 -0.4114
 1483TP3     H116268   3.359   2.154   7.843 -2.5265  0.7057  1.2244
 1483TP3     H216269   3.410   2.232   7.724  1.0656 -2.6005  0.5046
 1484TP3      O16270   2.938   2.527   8.871 -0.5601 -0.0204 -0.7044
 1484TP3     H116271   2.972   2.534   8.960 -2.1358 -0.2134 -0.0706
 1484TP3     H216272   2.983   2.452   8.833 -0.3824 -0.3456  0.1624
 1485TP3      O16273   4.225   1.950   7.622  0.6754 -0.5008  0.4322
 1485TP3     H116274   4.274   2.031   7.606  0.3338 -0.2250  0.7715
 1485TP3     H216275   4.196   1.922   7.535  0.0089  0.2429  0.4061
 1486TP3      O16276   4.382   3.858   7.329 -0.0975 -0.0621  0.0961
 1486TP3     H116277   4.374   3.793   7.260 -0.7870 -0.3659  0.4565
 1486TP3     H216278   4.400   3.940   7.282 -1.8163 -0.0259 -0.5473
 1487TP3      O16279   3.432   4.588   6.885 -0.5001 -0.3855 -0.3256
 1487TP3     H116280   3.339   4.585   6.909 -0.5165  0.4069 -0.2887
 1487TP3     H216281   3.440   4.521   6.817 -1.0407 -0.6535 -0.1352
 1488TP3      O16282   4.265   3.532   0.625 -0.3406 -0.1421 -0.3027
 1488TP3     H116283   4.231   3.517   0.537 -0.9411 -1.1575  0.0859
 1488TP3     H216284   4.202   3.488   0.683  0.0383  0.5204  0.6304
 1489TP3      O16285   4.610   0.094   8.187  0.3208 -0.1972 -0.1495
 1489TP3     H116286   4.696   0.075   8.225  0.7328  1.7639 -0.0669
 1489TP3     H216287   4.553   0.107   8.263  0.6715  1.6363 -0.1917
 1490TP3      O16288   1.142   0.788   8.773  0.4385  0.5260  0.0135
 1490TP3     H116289   1.092   0.868   8.755 -0.7092 -0.3615 -0.8283
 1490TP3     H216290   1.102   0.752   8.851 -0.0425 -0.0183 -0.4787
 1491TP3      O16291   4.796   0.416   0.979 -0.5880  0.5268 -0.2485
 1491TP3     H116292   4.735   0.361   0.929 -1.5716 -0.1014  1.5860
 1491TP3     H216293   4.743   0.490   1.007  0.1373  1.2225 -0.7060
 1492TP3      O16294   3.604   1.279   9.254 -0.1506 -0.1813  0.2166
 1492TP3     H116295   3.558   1.327   9.323  0.6178 -0.3025  0.8290
 1492TP3     H216296   3.554   1.297   9.174  0.5393  2.2516  0.2965
 1493TP3      O16297   2.669   0.467   8.698  0.1366  0.4191  0.1683
 1493TP3     H116298   2.685   0.425   8.614  0.2935  2.1395 -0.6934
 1493TP3     H216299   2.693   0.401   8.763  3.0397  0.1127 -1.1218
 1494TP3      O16300   0.166   3.500   7.537  0.9344  0.1885 -0.6119
 1494TP3     H116301   0.165   3.553   7.617 -3.1976 -0.1546 -0.2934
 1494TP3     H216302   0.158   3.563   7.466  1.6041  0.3252 -0.5624
 1495TP3      O16303   2.494   1.132   9.974  0.2411 -0.3967 -0.4380
 1495TP3     H116304   2.526   1.106  10.061 -0.1588 -0.7366 -0.3904
 1495TP3     H216305   2.419   1.188   9.991  1.2916  1.0662 -0.5410
 1496TP3      O16306   0.049   3.225   8.939 -0.6406 -0.0929 -0.5156
 1496TP3     H116307  -0.043   3.209   8.961 -0.7067  2.3267  1.2039
 1496TP3     H216308   0.094   3.222   9.024  0.6884 -0.2224 -1.2209
 1497TP3      O16309   3.524   1.788   8.297 -0.1548 -0.1025  0.3276
 1497TP3     H116310   3.606   1.781   8.248 -0.1465  1.1454  0.1483
 1497TP3     H216311   3.547   1.840   8.374 -0.6511 -0.2276  0.5603
 1498TP3      O16312   3.160   0.126   0.764  0.1457  0.1868  0.2493
 1498TP3     H116313   3.212   0.146   0.686 -0.9338  3.4809  0.2767
 1498TP3     H216314   3.221   0.141   0.837  0.7129 -1.3975  0.1197
 1499TP3      O16315   2.651   3.120   9.666  0.4062  0.2967  0.5768
 1499TP3     H116316   2.603   3.153   9.590  1.7888 -2.1056 -1.3961
 1499TP3     H216317   2.711   3.055   9.631  1.5655 -0.4086  3.6633
 1500TP3      O16318   5.283   2.306   9.161  0.0243 -0.3699  0.4421
 1500TP3     H116319   5.314   2.233   9.215  0.8603  0.2329  0.7822
 1500TP3     H216320   5.321   2.290   9.075 -0.0701 -0.5224  0.4292
 1501TP3      O16321   0.125   5.267  10.105 -0.1556  0.0090 -0.2736
 1501TP3     H116322   0.077   5.185  10.096  1.8302 -1.1539 -0.6872
 1501TP3     H216323   0.182   5.269  10.027  1.1625  0.8343  0.6887
 1502TP3      O16324   4.862   3.863   9.125 -0.3556  0.2044  0.1487
 1502TP3     H116325   4.815   3.919   9.188  1.1026  2.1728 -0.4702
 1502TP3     H216326   4.833   3.895   9.039  0.7693  0.2739 -0.2133
 1503TP3      O16327   2.808   0.591   7.155 -0.2039  0.2338 -0.5027
 1503TP3     H116328   2.715   0.588   7.176  0.1629  2.8617  1.7925
 1503TP3     H216329   2.829   0.685   7.150  2.4593 -0.2944 -0.2325
 1504TP3      O16330   3.841   2.794   9.680  0.0181  0.3776 -0.7029
 1504TP3     H116331   3.757   2.750   9.693  0.8302 -0.6911  0.9973
 1504TP3     H216332   3.855   2.790   9.585 -2.5838  1.9970 -1.2060
 1505TP3      O16333   0.481   4.054   7.332 -0.0012  0.7215  0.0631
 1505TP3     H116334   0.439   4.139   7.331 -0.4152  0.5176 -0.2006
 1505TP3     H216335   0.540   4.056   7.408 -0.3892  1.0502  0.3525
 1506TP3      O16336   3.161   3.645   0.922 -0.0018 -0.2245 -0.6203
 1506TP3     H116337   3.066   3.656   0.931 -0.2878 -3.0111  0.2627
 1506TP3     H216338   3.178   3.657   0.828 -1.2942 -0.1449 -0.8528
 1507TP3      O16339   3.116   4.710   7.581  0.2324  0.2017 -0.2119
 1507TP3     H116340   3.150   4.777   7.522  1.3466  2.9343  3.3666
 1507TP3     H216341   3.188   4.647   7.590  1.5539  1.8445  1.1838
 1508TP3      O16342   1.897   2.243   9.739  0.4225  0.1242  0.4767
 1508TP3     H116343   1.914   2.242   9.644  0.2106 -0.8094  0.4399
 1508TP3     H216344   1.983   2.230   9.779  0.5477  0.7693  0.4162
 1509TP3      O16345   2.923   3.711   0.217  0.2881 -0.2658  0.8571
 1509TP3     H116346   2.884   3.645   0.275 -1.4377 -0.3032 -0.3349
 1509TP3     H216347   2.923   3.791   0.269  0.8526 -0.8110  1.7175
 1510TP3      O16348   1.993   2.834   7.818  0.2136 -0.1479 -0.5168
 1510TP3     H116349   2.010   2.845   7.724 -1.1817  0.0549 -0.7627
 1510TP3     H216350   2.073   2.796   7.853  0.6944 -0.3529 -1.8237
 1511TP3      O16351   4.797   2.694   8.121  0.3931 -0.1985  0.2585
 1511TP3     H116352   4.763   2.626   8.179  0.5311  0.8314  1.5710
 1511TP3     H216353   4.891   2.675   8.116  0.1209 -1.2906 -1.0033
 1512TP3      O16354   5.230   2.029   8.550  0.4569 -0.4419 -0.5454
 1512TP3     H116355   5.181   1.973   8.490 -0.8883  0.6236 -0.4417
 1512TP3     H216356   5.251   2.107   8.498  0.6216 -0.1790 -0.0819
 1513TP3      O16357   3.222   2.585   8.921  0.7087 -0.0583  0.4361
 1513TP3     H116358   3.166   2.662   8.917  1.2542  0.2712 -1.9114
 1513TP3     H216359   3.233   2.567   9.014 -2.5746  0.3729  0.9561
 1514TP3      O16360   4.108   4.168   7.253  0.7175  0.0871 -0.1443
 1514TP3     H116361   4.016   4.149   7.235  0.3437  1.8071 -0.0585
 1514TP3     H216362   4.155   4.109   7.194 -0.4352 -0.5076 -0.4927
 1515TP3      O16363   1.890   4.374   8.876  0.3459 -0.1627  0.0356
 1515TP3     H116364   1.908   4.398   8.785  0.2272  0.5354  0.1884
 1515TP3     H216365   1.796   4.390   8.887  0.3795 -0.1522  0.3037
 1516TP3      O16366   2.430   4.396   8.477 -0.1136  0.1977 -0.2127
 1516TP3     H116367   2.444   4.306   8.446  1.2346  0.0826  0.6772
 1516TP3     H216368   2.511   4.441   8.457  0.5083  0.3286  2.3641
 1517TP3      O16369   3.253   1.941   7.142  0.0246 -0.3797 -0.1636
 1517TP3     H116370   3.328   1.939   7.082 -0.5088 -2.5578 -0.8002
 1517TP3     H216371   3.179   1.966   7.087 -0.1534 -0.6713 -0.0589
 1518TP3      O16372   1.180   0.086   8.145 -0.1956  0.4999 -0.4600
 1518TP3     H116373   1.205  -0.005   8.130 -0.9205  0.6253 -2.5720
 1518TP3     H216374   1.156   0.089   8.238  0.5850 -1.2672 -0.1856
 1519TP3      O16375   4.392   1.406   0.095 -0.3493  0.0204 -0.1030
 1519TP3     H116376   4.360   1.493   0.121  2.3268  0.6846  1.0756
 1519TP3     H216377   4.353   1.347   0.160 -0.1989  0.6701  0.5966
 1520TP3      O16378   0.557   0.033   8.135  0.4704  0.1838  0.1395
 1520TP3     H116379   0.640   0.011   8.178  0.6585 -1.4011 -0.9752
 1520TP3     H216380   0.571   0.012   8.043 -0.0544  3.1823 -0.6783
 1521TP3      O16381   1.117   3.760   7.635 -0.4220  0.6704  0.0880
 1521TP3     H116382   1.190   3.747   7.695  2.5452  0.1170 -3.4198
 1521TP3     H216383   1.099   3.672   7.600 -0.2968  1.3353 -1.7322
 1522TP3      O16384   2.777   0.869   0.674  0.4585 -0.6381  0.0132
 1522TP3     H116385   2.738   0.940   0.622 -0.0651 -0.5930  0.4537
 1522TP3     H216386   2.868   0.896   0.687  0.4781 -0.4442 -0.5109
 1523TP3      O16387   4.961   3.303   8.372  0.4837 -0.1924  0.0267
 1523TP3     H116388   4.877   3.334   8.339  0.5133 -1.5567 -1.3650
 1523TP3     H216389   4.992   3.374   8.428 -2.2193 -0.2272  1.6896
 1524TP3      O16390   4.926   3.422   7.600 -0.1609 -0.3141  0.0312
 1524TP3     H116391   4.830   3.427   7.605 -0.5570 -4.2398 -1.3949
 1524TP3     H216392   4.953   3.400   7.689 -0.7971 -1.1438  0.0307
 1525TP3      O16393   4.986   4.499   7.224  0.2538  0.8552  0.2607
 1525TP3     H116394   4.980   4.570   7.288  0.6935  1.1797 -0.0584
 1525TP3     H216395   5.020   4.425   7.274  0.2707  1.0089  0.4795
 1526TP3      O16396   3.687   5.179   9.500  0.6825  0.2811 -0.2660
 1526TP3     H116397   3.597   5.146   9.506  0.7815 -0.1685 -1.2214
 1526TP3     H216398   3.703   5.187   9.406  3.0009 -3.4064 -0.2951
 1527TP3      O16399   3.522   4.859   6.832  0.0019 -0.6093  0.0797
 1527TP3     H116400   3.482   4.777   6.861 -1.7495  0.2547  0.1843
 1527TP3     H216401   3.458   4.897   6.772  0.4046  1.0943  0.6976
 1528TP3      O16402   3.586   3.419   7.568  0.1071  0.1727 -0.1603
 1528TP3     H116403   3.516   3.429   7.634  1.7479  2.1872  1.3568
 1528TP3     H216404   3.573   3.494   7.510  0.5441  0.1287 -0.3109
 1529TP3      O16405   1.270   3.863   8.096  0.1888 -0.1028  0.0125
 1529TP3     H116406   1.270   3.862   8.000 -0.4365 -1.8332  0.0090
 1529TP3     H216407   1.361   3.852   8.120  0.4476  1.1138 -0.3751
 1530TP3      O16408   1.267   3.086   0.345 -0.2546  0.2631 -0.2668
 1530TP3     H116409   1.246   3.153   0.281  0.4236 -0.1354 -0.9101
 1530TP3     H216410   1.283   3.134   0.426 -1.5874  0.7335 -0.2677
 1531TP3      O16411   4.772   3.313   8.835 -0.7158 -0.0142  0.7404
 1531TP3     H116412   4.808   3.244   8.780 -1.3167 -0.1630  0.5428
 1531TP3     H216413   4.704   3.354   8.782 -0.4906  0.6089  0.9230
 1532TP3      O16414   4.541   1.778   7.692 -0.9934  0.2382  0.3386
 1532TP3     H116415   4.571   1.830   7.767  0.4338  0.6319 -0.4922
 1532TP3     H216416   4.603   1.705   7.688  0.5389  1.6217 -2.0329
 1533TP3      O16417   0.431   2.561   8.270 -0.3359  0.0287 -0.4426
 1533TP3     H116418   0.400   2.474   8.297  1.2868 -0.2070  0.7227
 1533TP3     H216419   0.448   2.606   8.353  1.3861  0.5227 -1.0457
 1534TP3      O16420   4.868   3.703   7.466 -0.1166 -0.6193 -0.0499
 1534TP3     H116421   4.942   3.654   7.431 -0.6879 -1.9191  0.5120
 1534TP3     H216422   4.792   3.647   7.449 -0.6456 -0.4104  1.5113
 1535TP3      O16423   0.421   3.079   9.427  0.0698 -0.3157 -0.3364
 1535TP3     H116424   0.375   3.046   9.350  0.6371 -1.0226 -0.3776
 1535TP3     H216425   0.440   3.000   9.478  0.3088  0.0820  0.1894
 1536TP3      O16426   1.542   0.027   0.348 -0.3828  0.0199  0.4833
 1536TP3     H116427   1.512  -0.063   0.363  2.0756 -0.7743  0.8330
 1536TP3     H216428   1.478   0.064   0.287 -0.6374 -2.4263 -0.7764
 1537TP3      O16429   0.330   3.553   8.166 -0.2784 -0.0378 -0.0984
 1537TP3     H116430   0.403   3.492   8.176  0.1677  0.5793  0.4480
 1537TP3     H216431   0.303   3.572   8.256  1.9526  3.4144 -0.0852
 1538TP3      O16432   3.005   3.697   7.408  0.3193  0.4392 -0.1277
 1538TP3     H116433   3.039   3.783   7.433  1.4175  1.0008 -3.3336
 1538TP3     H216434   3.078   3.637   7.426  0.5052  0.5877 -0.3757
 1539TP3      O16435   2.108   2.142   9.543  0.3943  0.5647  0.3377
 1539TP3     H116436   2.157   2.165   9.463  0.7044  1.9864  0.9133
 1539TP3     H216437   2.166   2.170   9.614 -0.1873 -0.0653  1.0584
 1540TP3      O16438   4.405   0.119   7.749 -0.4267  0.1178 -0.1816
 1540TP3     H116439   4.459   0.131   7.671 -0.9018 -0.9264 -0.6754
 1540TP3     H216440   4.422   0.197   7.802  1.3154 -0.0424 -0.4815
 1541TP3      O16441   1.503   3.706   9.358  0.4848  0.1627 -0.2173
 1541TP3     H116442   1.411   3.691   9.335  0.8010 -1.3859 -0.5396
 1541TP3     H216443   1.550   3.693   9.276  0.9316  1.8283 -0.2502
 1542TP3      O16444   4.383   2.884   0.066  0.4378 -0.6709  0.6324
 1542TP3     H116445   4.320   2.884  -0.005  0.4378 -0.3291  0.6323
 1542TP3     H216446   4.466   2.907   0.025  0.4787 -0.6821  0.7075
 1543TP3      O16447   1.108   4.798   0.793  0.0380 -0.2824  0.2955
 1543TP3     H116448   1.103   4.784   0.887  0.9268 -0.3561  0.3307
 1543TP3     H216449   1.098   4.893   0.783  1.4047 -0.0971  0.5735
 1544TP3      O16450   0.286   1.810   1.568 -0.0918  0.4269  0.3482
 1544TP3     H116451   0.318   1.720   1.569 -2.2237 -0.3558 -0.0463
 1544TP3     H216452   0.314   1.846   1.653 -0.8534 -1.2036  1.3095
 1545TP3      O16453   3.942   5.215   0.744  0.2152  0.0557 -0.5131
 1545TP3     H116454   4.021   5.188   0.790 -0.3354 -1.1069 -0.2145
 1545TP3     H216455   3.873   5.160   0.781 -0.8341  1.4475 -0.3627
 1546TP3      O16456   0.014   2.184   9.820 -0.0494  0.0462 -0.0240
 1546TP3     H116457   0.030   2.277   9.838  2.3367 -0.1684 -0.7687
 1546TP3     H216458   0.075   2.163   9.749 -0.8559 -1.9865 -0.1408
 1547TP3      O16459   4.313   4.661   6.869  0.1266  0.0796 -0.0975
 1547TP3     H116460   4.315   4.644   6.963  1.0711 -0.6753 -0.2400
 1547TP3     H216461   4.273   4.582   6.831  1.5929 -0.5187 -0.4839
 1548TP3      O16462   3.971   3.198   9.450 -0.0642 -0.5149 -0.2271
 1548TP3     H116463   3.886   3.163   9.422  0.0253  0.1393 -1.3465
 1548TP3     H216464   4.030   3.123   9.448 -0.2601 -0.6499 -0.9480
 1549TP3      O16465   0.011   0.751   8.561  0.2713 -0.1625 -0.4837
 1549TP3     H116466   0.035   0.697   8.485  1.7720  0.5939 -0.5537
 1549TP3     H216467  -0.067   0.798   8.533 -0.1787 -1.1554 -0.9527
 1550TP3      O16468   4.335   4.222   8.293  0.0888  0.0452  0.2967
 1550TP3     H116469   4.368   4.200   8.206  0.3595 -0.3801  0.5044
 1550TP3     H216470   4.371   4.309   8.311 -0.1809  0.2434 -0.1240
 1551TP3      O16471   0.223   3.938   9.863 -0.4271  0.2684  0.2367
 1551TP3     H116472   0.145   3.911   9.814  0.2241 -2.0985  0.4844
 1551TP3     H216473   0.244   3.864   9.919  1.8632  0.9767  0.3719
 1552TP3      O16474   0.247   0.026   7.494 -0.0863  0.2829  0.5455
 1552TP3     H116475   0.189   0.072   7.554 -1.4526  0.4136 -0.8592
 1552TP3     H216476   0.189  -0.015   7.430  1.2726 -1.0132  0.1164
 1553TP3      O16477   1.365   2.816   8.157 -0.2553 -0.1870  0.0649
 1553TP3     H116478   1.422   2.755   8.111 -1.0351 -1.6581  1.0185
 1553TP3     H216479   1.309   2.761   8.211  0.5953  1.5001  2.7562
 1554TP3      O16480   4.671   2.710   7.775  0.3677 -0.0720  0.1877
 1554TP3     H116481   4.763   2.716   7.749  0.5289 -1.0314  0.5169
 1554TP3     H216482   4.658   2.783   7.835  0.9124  0.0736  0.1299
 1555TP3      O16483   2.655   2.434   7.488 -0.5367 -0.6792  0.4371
 1555TP3     H116484   2.691   2.345   7.483 -1.2060 -0.8552 -1.7160
 1555TP3     H216485   2.716   2.487   7.437  0.1021  0.1934  2.0909
 1556TP3      O16486   2.560   0.018   9.262  0.1094 -0.8180 -0.2071
 1556TP3     H116487   2.655   0.014   9.278  0.1266  0.0174 -0.0747
 1556TP3     H216488   2.522   0.036   9.348  0.0070  1.1159 -0.6353
 1557TP3      O16489   4.423   3.790  10.098 -0.3809  0.3974 -0.2901
 1557TP3     H116490   4.509   3.747  10.101 -0.3692  0.3410 -1.3061
 1557TP3     H216491   4.442   3.877  10.063 -0.6525  0.6223  0.1181
 1558TP3      O16492   3.116   2.417   0.516  0.0480 -0.0776  0.0710
 1558TP3     H116493   3.202   2.378   0.535 -0.3993 -0.8815  0.4587
 1558TP3     H216494   3.079   2.437   0.602  0.3024  1.3042 -0.1178
 1559TP3      O16495   4.561   4.624   7.099  0.0278 -0.4553  0.1709
 1559TP3     H116496   4.533   4.536   7.074  0.8567  0.0123 -2.6264
 1559TP3     H216497   4.649   4.632   7.062  0.3871  1.1645  1.3357
 1560TP3      O16498   0.963   1.021   0.026 -0.3696 -0.5046 -0.4272
 1560TP3     H116499   0.981   1.077   0.102 -0.8093 -2.0064  0.7969
 1560TP3     H216500   0.879   1.051  -0.007  0.2994  0.8425 -0.9816
 1561TP3      O16501   4.502   3.526   8.153 -0.6532  0.2277 -0.0668
 1561TP3     H116502   4.509   3.618   8.128  1.1271 -0.4073 -2.0451
 1561TP3     H216503   4.415   3.518   8.193 -1.2143  2.5277 -0.7702
 1562TP3      O16504   0.248   0.037   0.183 -0.4911  0.1179 -0.0631
 1562TP3     H116505   0.211  -0.009   0.108 -0.8745 -1.2604  0.9404
 1562TP3     H216506   0.303   0.106   0.145 -1.8769  0.4006 -1.5760
 1563TP3      O16507   0.767   1.512   0.184 -0.1244  0.0637 -0.5031
 1563TP3     H116508   0.705   1.539   0.116 -1.0175 -2.8549 -0.8803
 1563TP3     H216509   0.713   1.496   0.261  0.1728 -2.2073 -0.7490
 1564TP3      O16510   4.075   2.501   0.130 -0.0310  0.1001 -0.7034
 1564TP3     H116511   4.003   2.439   0.139  0.2130 -0.0398  0.3175
 1564TP3     H216512   4.089   2.535   0.218  0.9390  0.3636 -0.9527
 1565TP3      O16513   3.833   4.154   7.783  0.1187 -0.2111 -0.3202
 1565TP3     H116514   3.893   4.194   7.846  1.5468  0.2282 -1.9020
 1565TP3     H216515   3.810   4.070   7.821  0.3208  0.3932  1.1553
 1566TP3      O16516   1.848   0.233   7.384  0.6430  0.5619 -0.4074
 1566TP3     H116517   1.868   0.215   7.292  1.0620 -0.6764 -0.0883
 1566TP3     H216518   1.920   0.287   7.415  0.3723  1.1941 -0.8671
 1567TP3      O16519   1.631   5.156   7.395 -0.0357 -0.0884  0.4985
 1567TP3     H116520   1.684   5.190   7.323 -0.7132 -2.4357 -1.1994
 1567TP3     H216521   1.545   5.197   7.383 -0.6845 -1.8198 -1.1953
 1568TP3      O16522   2.832   5.076   9.124  0.3481 -0.3028  0.6701
 1568TP3     H116523   2.854   4.983   9.126  0.8552 -0.1673  1.5307
 1568TP3     H216524   2.833   5.103   9.216  0.9533  0.7262  0.3708
 1569TP3      O16525   3.687   3.020   7.769 -0.1952  0.0979 -0.3509
 1569TP3     H116526   3.729   3.097   7.730 -1.2903  0.2811 -1.1713
 1569TP3     H216527   3.758   2.957   7.779  0.0213 -0.1139 -3.0584
 1570TP3      O16528   2.733   4.338   0.921 -0.6748  0.2279  0.3772
 1570TP3     H116529   2.777   4.318   0.838 -3.0025  1.1295 -1.1112
 1570TP3     H216530   2.738   4.256   0.970  0.7332 -0.3195 -0.6329
 1571TP3      O16531   3.704   1.669   9.246  0.2958 -0.4400  0.2935
 1571TP3     H116532   3.640   1.603   9.275 -0.0679  0.1656  0.8759
 1571TP3     H216533   3.657   1.723   9.183  0.0772  0.3187  1.1009
 1572TP3      O16534   4.166   2.068   0.129 -0.0005 -0.2283  0.7335
 1572TP3     H116535   4.093   2.013   0.159  0.3319 -0.6981  0.6921
 1572TP3     H216536   4.124   2.139   0.081 -0.4663 -0.1415  1.2659
 1573TP3      O16537   1.163   2.002   2.171 -0.3869 -0.3799  0.2101
 1573TP3     H116538   1.134   2.084   2.131 -2.5411 -0.8927  0.6686
 1573TP3     H216539   1.209   2.029   2.250 -0.7313  0.4134  0.1403
 1574TP3      O16540   5.205   2.142   7.505 -0.2100  0.2652  0.4656
 1574TP3     H116541   5.287   2.096   7.525 -0.6444 -1.1631 -0.9060
 1574TP3     H216542   5.201   2.142   7.409 -1.6164  0.6643  0.5185
 1575TP3      O16543   3.096   4.170   7.644  0.0012 -0.2557  0.1212
 1575TP3     H116544   3.042   4.232   7.594  0.0390 -0.1359  0.2268
 1575TP3     H216545   3.069   4.084   7.613 -1.4774 -0.2753  1.3900
 1576TP3      O16546   4.514   4.900   7.752 -0.3757  0.3339 -0.4190
 1576TP3     H116547   4.577   4.971   7.740  1.0263 -0.7595  0.3147
 1576TP3     H216548   4.561   4.822   7.722 -1.4456 -0.4661 -0.0281
 1577TP3      O16549   4.656   5.291   7.394 -0.3302  0.0040  0.7056
 1577TP3     H116550   4.678   5.246   7.313  1.1410  2.2489 -0.2081
 1577TP3     H216551   4.591   5.356   7.368 -0.6390  0.0282  1.5313
 1578TP3      O16552   0.944   3.410   0.252 -0.1020 -0.2259  0.0844
 1578TP3     H116553   0.911   3.483   0.199  1.4412  1.2044  1.0228
 1578TP3     H216554   0.868   3.379   0.301 -1.0519 -0.0834 -1.2741
 1579TP3      O16555   3.710   0.619   8.276  0.3597  0.2171  0.5121
 1579TP3     H116556   3.623   0.578   8.273  1.2029 -1.5577 -0.5516
 1579TP3     H216557   3.766   0.554   8.318  1.5895  0.5158 -0.6166
 1580TP3      O16558   1.606   1.959   1.381 -0.5046 -0.1294  0.0985
 1580TP3     H116559   1.682   1.991   1.332 -1.0415 -0.9963 -1.3611
 1580TP3     H216560   1.642   1.895   1.443  0.0643  0.1572  0.0611
 1581TP3      O16561   0.639   0.312   9.696 -0.3431 -0.6768  0.1926
 1581TP3     H116562   0.611   0.378   9.760  0.3307  0.3902 -0.5977
 1581TP3     H216563   0.603   0.230   9.730 -2.1833  0.2539  0.5823
 1582TP3      O16564   3.743   0.990   7.869 -0.1091  0.1836 -0.1581
 1582TP3     H116565   3.650   0.995   7.848 -0.3330 -1.5852  0.3886
 1582TP3     H216566   3.751   1.037   7.952 -1.0066 -2.0543  1.2399
 1583TP3      O16567   2.917   2.803   7.182 -0.5873  0.6817  0.2431
 1583TP3     H116568   2.971   2.788   7.104  0.0370  1.1103  0.5882
 1583TP3     H216569   2.869   2.883   7.163 -0.5323  0.7146  0.2422
 1584TP3      O16570   0.684   1.019   0.619 -0.2708 -0.0791 -0.4490
 1584TP3     H116571   0.672   1.034   0.713  0.5636  0.3046 -0.3975
 1584TP3     H216572   0.769   0.975   0.613 -0.9769 -1.4025 -0.9081
 1585TP3      O16573   3.425   3.993   6.683 -0.2892 -0.0852  0.0795
 1585TP3     H116574   3.499   3.937   6.707  0.7048  0.6690 -1.1938
 1585TP3     H216575   3.363   3.934   6.639 -1.0176 -0.9649  2.2038
 1586TP3      O16576   0.797   0.549   8.126 -0.4406  0.2805 -0.2996
 1586TP3     H116577   0.873   0.526   8.179 -0.6557  1.9278  0.7674
 1586TP3     H216578   0.780   0.472   8.073  1.6355 -0.2982 -0.1406
 1587TP3      O16579   0.646   2.277   9.874  0.0460 -0.3494 -0.1360
 1587TP3     H116580   0.656   2.338   9.801  2.9062  1.9116  2.0005
 1587TP3     H216581   0.726   2.224   9.872 -0.5300 -1.2532  0.4902
 1588TP3      O16582   2.832   0.415   8.414 -0.4932 -0.2724  0.4223
 1588TP3     H116583   2.823   0.489   8.354 -0.0306 -1.7746 -1.5709
 1588TP3     H216584   2.784   0.344   8.371  1.2861 -1.8508  1.0005
 1589TP3      O16585   3.149   3.624   2.786  0.2372  0.1371 -0.1595
 1589TP3     H116586   3.186   3.707   2.816  0.9675 -0.5881  1.0351
 1589TP3     H216587   3.144   3.571   2.866  0.7513 -1.3138 -1.0775
 1590TP3      O16588   3.795   1.332   9.081 -0.1735  0.6078  0.1871
 1590TP3     H116589   3.745   1.300   9.157  0.2863  1.8596  1.0314
 1590TP3     H216590   3.859   1.263   9.064 -1.4053 -0.4593 -0.1426
 1591TP3      O16591   1.007   3.953   8.545  0.2783  0.2666 -0.0440
 1591TP3     H116592   1.077   3.955   8.480 -0.1874 -2.1522 -0.6703
 1591TP3     H216593   0.934   3.910   8.500  0.3176 -2.4609  2.3860
 1592TP3      O16594   2.798   3.718   0.694  0.5584  0.0396 -0.7358
 1592TP3     H116595   2.755   3.770   0.761  0.3192 -1.5054  0.3408
 1592TP3     H216596   2.736   3.648   0.674  1.6778 -0.9955 -0.6805
 1593TP3      O16597   5.308   0.865   0.667  0.2480 -0.1980 -0.0462
 1593TP3     H116598   5.356   0.868   0.749 -1.3380  0.9445  0.8631
 1593TP3     H216599   5.366   0.906   0.603  0.3947  1.3742  1.0873
 1594TP3      O16600   5.199   1.226   8.969 -0.0311  0.4498  0.2584
 1594TP3     H116601   5.177   1.172   8.893  1.3621 -0.3996  0.4351
 1594TP3     H216602   5.142   1.192   9.039  0.2847 -0.2812  0.1693
 1595TP3      O16603   4.688   1.699   9.303  0.1891 -0.2864 -0.5183
 1595TP3     H116604   4.602   1.714   9.266 -0.3116  0.3306  0.8444
 1595TP3     H216605   4.718   1.786   9.331  1.1425 -0.5284 -0.7618
 1596TP3      O16606   4.785   0.668   7.949 -0.0232  0.6228 -0.3015
 1596TP3     H116607   4.803   0.681   8.042 -1.0349  0.3241 -0.0539
 1596TP3     H216608   4.850   0.603   7.921  0.3918  0.8377  0.1555
 1597TP3      O16609   2.688   4.072   9.248 -0.2973 -0.6636  0.1183
 1597TP3     H116610   2.709   3.988   9.289 -0.2698 -1.0257 -0.6403
 1597TP3     H216611   2.592   4.077   9.254 -0.4213 -1.3938 -1.0849
 1598TP3      O16612   0.132   0.062   9.361 -0.3844  0.3598  0.6368
 1598TP3     H116613   0.102   0.152   9.347 -0.7030  0.3881  1.4955
 1598TP3     H216614   0.201   0.069   9.426  0.1988  0.0742  0.0599
 1599TP3      O16615   3.919   3.396   8.778 -0.5173  0.3009  0.7185
 1599TP3     H116616   3.827   3.383   8.800  0.1184 -2.5333  1.8433
 1599TP3     H216617   3.918   3.423   8.686 -2.5008  1.1127  0.9572
 1600TP3      O16618   3.554   0.528   6.727  0.2727  0.3375  0.2498
 1600TP3     H116619   3.633   0.566   6.766  0.7983  0.5444 -0.9785
 1600TP3     H216620   3.482   0.580   6.763  0.9754  2.4764 -1.3446
 1601TP3      O16621   0.309   4.697   6.902 -0.1129  0.4900  0.1241
 1601TP3     H116622   0.402   4.709   6.886 -0.1711  0.3415 -0.3225
 1601TP3     H216623   0.295   4.732   6.990  0.2942  0.8638  0.0428
 1602TP3      O16624   5.255   0.762   6.984  0.2400  0.2978  0.5928
 1602TP3     H116625   5.218   0.717   6.909 -0.8959  1.5072  0.3967
 1602TP3     H216626   5.326   0.706   7.015  0.4248 -0.4083 -1.1139
 1603TP3      O16627   0.718   4.201   7.895  0.4364 -0.5140 -0.1128
 1603TP3     H116628   0.686   4.238   7.812  1.9190  2.4985  0.5704
 1603TP3     H216629   0.812   4.188   7.881  0.5945 -0.5153  0.9078
 1604TP3      O16630   1.159   0.351   8.076  0.0366  0.1234  0.1866
 1604TP3     H116631   1.147   0.258   8.096 -0.2206  0.4020  1.3304
 1604TP3     H216632   1.101   0.397   8.137 -0.3624  1.0101 -0.8414
 1605TP3      O16633   3.229   1.188   0.987  0.3406 -0.0816  0.4918
 1605TP3     H116634   3.309   1.238   0.970  1.3877 -1.4341  1.2713
 1605TP3     H216635   3.160   1.253   0.992  1.3387  1.0835 -0.5613
 1606TP3      O16636   4.106   4.850   6.781 -0.0477 -0.6143 -0.1965
 1606TP3     H116637   4.029   4.800   6.755  0.1674 -0.5352 -1.0013
 1606TP3     H216638   4.166   4.784   6.816 -0.3748 -0.7107  0.1883
 1607TP3      O16639   1.113   2.139   9.609  1.3655  0.1440  0.8343
 1607TP3     H116640   1.019   2.127   9.620  1.1375  1.1022 -0.0114
 1607TP3     H216641   1.140   2.064   9.555  0.5706  1.3967 -1.3649
 1608TP3      O16642   1.079   4.406   8.526 -0.2468  0.8258  0.1032
 1608TP3     H116643   1.104   4.316   8.547  0.8081  1.0724 -0.0567
 1608TP3     H216644   1.134   4.429   8.451 -0.4428  1.6301  0.2015
 1609TP3      O16645   2.095   1.166   8.028  0.5288 -0.1830 -0.1694
 1609TP3     H116646   2.080   1.229   7.958 -3.6780  0.5055  1.2277
 1609TP3     H216647   2.055   1.205   8.106  1.1045 -2.9181  1.5879
 1610TP3      O16648   4.201   4.997   0.345 -0.4683  0.2426 -0.1620
 1610TP3     H116649   4.114   4.960   0.327  0.0968 -0.7520 -0.8805
 1610TP3     H216650   4.259   4.954   0.282  0.8520 -0.4020  1.4653
 1611TP3      O16651   3.652   1.947   7.653 -0.0627 -0.1840 -0.3589
 1611TP3     H116652   3.745   1.959   7.639 -0.2278  2.2520  0.4761
 1611TP3     H216653   3.647   1.876   7.717  1.0606 -2.4555 -2.6862
 1612TP3      O16654   1.242   1.393   0.077 -0.3713  0.2046  0.5129
 1612TP3     H116655   1.161   1.346   0.098 -0.6894  1.1075  1.3208
 1612TP3     H216656   1.311   1.330   0.094 -0.9318 -0.8766 -1.0126
 1613TP3      O16657   2.604   3.862   8.600 -0.2764  0.0500  0.4119
 1613TP3     H116658   2.690   3.824   8.582  0.4020  1.1885  1.1604
 1613TP3     H216659   2.543   3.812   8.545  0.9929 -0.1028 -0.8846
 1614TP3      O16660   3.849   0.531   8.885  0.1219  0.3446 -0.5883
 1614TP3     H116661   3.855   0.465   8.817 -0.6505  0.0237 -0.3508
 1614TP3     H216662   3.768   0.579   8.866 -0.4732 -0.1951  0.4863
 1615TP3      O16663   2.458   5.221   0.039  0.1854  0.1590  0.1268
 1615TP3     H116664   2.397   5.149   0.022  0.0130  0.3672 -0.1519
 1615TP3     H216665   2.528   5.182   0.091 -1.3644  0.4094  2.4937
 1616TP3      O16666   5.112   1.627   8.741  0.0597 -0.1765 -0.1686
 1616TP3     H116667   5.145   1.642   8.830  1.3222 -1.1710 -0.4394
 1616TP3     H216668   5.191   1.632   8.686 -0.7576  0.7453 -1.2719
 1617TP3      O16669   0.389   2.930   1.106  0.0331  0.5682 -0.2355
 1617TP3     H116670   0.322   2.878   1.150  0.9796  0.3466  0.9898
 1617TP3     H216671   0.359   2.937   1.015 -0.3173 -1.7592 -0.3291
 1618TP3      O16672   2.787   1.643   0.149 -0.0488  0.8822  0.8185
 1618TP3     H116673   2.854   1.615   0.211  1.6640  2.3834 -0.3468
 1618TP3     H216674   2.799   1.587   0.073 -0.9199  0.3437  1.0594
 1619TP3      O16675   2.546   5.263   8.114  0.0843 -0.2525  0.0499
 1619TP3     H116676   2.459   5.300   8.100  0.5430  0.3420 -1.2390
 1619TP3     H216677   2.601   5.304   8.048  1.7743  0.8199  2.0350
 1620TP3      O16678   4.255   2.790   7.500  0.6506  0.3252  0.5025
 1620TP3     H116679   4.199   2.772   7.424 -0.2245 -0.1572  1.2598
 1620TP3     H216680   4.206   2.757   7.575  2.1855 -0.5773  1.1265
 1621TP3      O16681   3.797   4.731   9.696 -0.2345 -0.2193  0.1373
 1621TP3     H116682   3.859   4.668   9.733 -0.2442 -0.6959 -0.6539
 1621TP3     H216683   3.730   4.741   9.764  1.6312  1.6647  1.7344
 1622TP3      O16684   5.001   4.828   7.102 -0.1203 -0.0996 -0.3145
 1622TP3     H116685   4.965   4.915   7.121  0.0741  0.5220 -2.6740
 1622TP3     H216686   5.082   4.825   7.152 -1.1601  0.2381  1.4563
 1623TP3      O16687   0.340   4.072   8.499  0.8485 -0.0914  0.3497
 1623TP3     H116688   0.314   4.119   8.579 -0.0216  1.0306 -0.5613
 1623TP3     H216689   0.416   4.020   8.525  0.5937  0.2727  1.9002
 1624TP3      O16690   2.360   3.665   7.842  0.6662 -0.2820 -0.0598
 1624TP3     H116691   2.328   3.675   7.752 -0.6384 -1.3722  0.2596
 1624TP3     H216692   2.293   3.611   7.885  0.6365  1.2815  1.9181
 1625TP3      O16693   0.679   2.620   3.108 -0.3587  0.2954  0.6355
 1625TP3     H116694   0.651   2.686   3.171  0.6453  0.5820  0.7870
 1625TP3     H216695   0.735   2.560   3.158  1.2962  1.1063 -0.1876
 1626TP3      O16696   1.414   1.062   9.048  0.1298 -0.1512 -0.9143
 1626TP3     H116697   1.454   1.148   9.063  0.9792 -0.0820 -3.3303
 1626TP3     H216698   1.474   1.000   9.087 -0.3809  0.3265  0.6588
 1627TP3      O16699   0.434   3.911   0.489 -0.3695  0.1982 -0.1248
 1627TP3     H116700   0.387   3.994   0.493 -1.2129 -0.2239 -1.0427
 1627TP3     H216701   0.409   3.865   0.569  0.5472  1.0482  0.6695
 1628TP3      O16702   4.591   1.889   0.443 -0.0503 -0.6557 -0.1000
 1628TP3     H116703   4.525   1.950   0.411  0.5545 -0.5608 -1.2095
 1628TP3     H216704   4.584   1.813   0.385  0.0486 -1.1190  0.4863
 1629TP3      O16705   4.210   5.307   0.357 -0.0520  0.6636  0.6270
 1629TP3     H116706   4.223   5.232   0.416 -0.8605  0.1471  0.1611
 1629TP3     H216707   4.268   5.289   0.283  0.4251  0.9538  0.9241
 1630TP3      O16708   4.990   0.498   7.835 -0.0222  0.0145  0.4132
 1630TP3     H116709   5.015   0.413   7.799 -0.8027 -0.0802  0.0904
 1630TP3     H216710   5.045   0.561   7.788 -1.6263 -0.0232 -1.6018
 1631TP3      O16711   2.088   2.612   7.302 -0.3950 -0.4526  0.2800
 1631TP3     H116712   2.096   2.539   7.240 -1.1597 -1.9577  1.9082
 1631TP3     H216713   2.017   2.666   7.266  0.7601 -0.0269 -1.4018
 1632TP3      O16714   5.110   3.544   7.458  0.2321  0.0349  0.3857
 1632TP3     H116715   5.044   3.505   7.516  0.2563 -0.1786  0.2685
 1632TP3     H216716   5.176   3.475   7.446 -0.2457 -0.2556 -0.6593
 1633TP3      O16717   1.408   2.356   2.229  0.0749 -0.5744  0.4697
 1633TP3     H116718   1.492   2.370   2.273 -0.7570 -0.4444  2.0502
 1633TP3     H216719   1.349   2.329   2.299 -1.8493  1.8669 -0.1656
 1634TP3      O16720   4.402   5.284   0.890  0.0953  0.4320  0.1491
 1634TP3     H116721   4.476   5.281   0.830 -1.0866  0.1883 -1.3245
 1634TP3     H216722   4.431   5.235   0.967  0.2871 -2.5444 -1.7415
 1635TP3      O16723   2.607   4.339   7.918 -0.9061 -0.5877  0.1113
 1635TP3     H116724   2.636   4.354   8.008 -1.4876  1.5292 -0.0270
 1635TP3     H216725   2.511   4.346   7.922 -0.9415 -0.5615 -0.6451
 1636TP3      O16726   1.135   1.450   8.607  0.1648  0.5755  0.3054
 1636TP3     H116727   1.210   1.430   8.551  0.6078  2.0893  0.3474
 1636TP3     H216728   1.166   1.433   8.696 -0.0152 -0.2077  0.2285
 1637TP3      O16729   3.968   4.247   7.985  0.6839 -0.2116  0.2220
 1637TP3     H116730   4.030   4.316   8.006  0.4802 -0.4356  1.6078
 1637TP3     H216731   4.001   4.170   8.031  0.0476 -0.6435 -0.0274
 1638TP3      O16732   3.195   4.126  10.080  0.0872  0.5182  0.0386
 1638TP3     H116733   3.290   4.140  10.075 -0.2561  2.6121 -1.3052
 1638TP3     H216734   3.157   4.213  10.063 -2.0768 -0.2536  0.7053
 1639TP3      O16735   3.775   4.913   9.357 -0.3578 -0.0243  0.9788
 1639TP3     H116736   3.819   4.836   9.321 -1.0572 -0.5734  1.2744
 1639TP3     H216737   3.806   4.986   9.304  0.7026 -0.4341  1.0183
 1640TP3      O16738   2.633   4.017   8.984 -0.4271 -0.0077 -0.2863
 1640TP3     H116739   2.684   4.054   9.055  2.0591  1.3488 -2.6741
 1640TP3     H216740   2.693   3.958   8.939 -1.5733  0.0606 -1.9639
 1641TP3      O16741   0.404   2.781   8.890 -0.0814 -0.3997 -0.3956
 1641TP3     H116742   0.439   2.750   8.974  0.1671  0.9687  0.0299
 1641TP3     H216743   0.313   2.803   8.909 -0.0150 -0.0592 -0.4697
 1642TP3      O16744   4.646   1.631   7.240 -0.4206  0.2484 -0.7814
 1642TP3     H116745   4.614   1.703   7.186 -0.6586  0.8068  0.0765
 1642TP3     H216746   4.580   1.623   7.310 -0.3864 -0.7935 -0.8641
 1643TP3      O16747   4.085   2.470   8.274  0.6138 -0.1366 -0.0402
 1643TP3     H116748   4.178   2.495   8.277  0.6688 -0.3458  0.0356
 1643TP3     H216749   4.082   2.387   8.322  0.1933  0.4793  0.9999
 1644TP3      O16750   3.836   2.639   6.702 -0.3616  0.2047  0.2825
 1644TP3     H116751   3.766   2.592   6.746 -1.3161  1.6240  0.3201
 1644TP3     H216752   3.899   2.571   6.677 -2.4202 -1.2901 -1.0181
 1645TP3      O16753   4.653   1.687   1.560 -0.3390 -0.0863  0.2366
 1645TP3     H116754   4.748   1.697   1.567 -0.1315 -0.1357 -2.0190
 1645TP3     H216755   4.639   1.593   1.554 -0.4129 -0.0313 -0.5817
 1646TP3      O16756   4.978   0.587   8.152  0.3686 -0.6208  0.0424
 1646TP3     H116757   5.018   0.501   8.149  1.4338 -0.1830  1.2170
 1646TP3     H216758   4.942   0.594   8.241  1.4003  0.6063  0.3905
 1647TP3      O16759   2.215   3.347   9.453 -0.0801 -0.0208  0.0677
 1647TP3     H116760   2.189   3.421   9.398 -0.4353 -0.3064 -0.1478
 1647TP3     H216761   2.212   3.272   9.395 -1.2192 -0.4493  0.6747
 1648TP3      O16762   1.444   0.254   7.784 -0.1601 -0.1213 -0.3951
 1648TP3     H116763   1.495   0.189   7.736 -0.9796 -1.1160  0.0536
 1648TP3     H216764   1.468   0.338   7.745  0.9703 -0.6858 -0.9272
 1649TP3      O16765   4.133   2.540   8.570 -0.2430  0.6155 -0.0372
 1649TP3     H116766   4.136   2.485   8.492  0.0956 -0.2849  0.6037
 1649TP3     H216767   4.164   2.626   8.541  0.6540  0.0682 -0.7075
 1650TP3      O16768   4.819   3.961   8.863 -0.1687  0.3525  0.2418
 1650TP3     H116769   4.857   4.023   8.800 -0.5634  2.0213  1.6169
 1650TP3     H216770   4.726   3.983   8.866 -0.6395 -1.3946 -0.4512
 1651TP3      O16771   3.884   4.307   1.717 -0.4945 -0.3225 -0.2441
 1651TP3     H116772   3.825   4.239   1.749 -0.9467  0.0132 -0.3563
 1651TP3     H216773   3.944   4.262   1.657  0.0458 -0.8583  0.6964
 1652TP3      O16774   0.561   1.632   8.103  0.4564  0.2492  0.5316
 1652TP3     H116775   0.560   1.720   8.065 -0.8765  1.0471  2.3525
 1652TP3     H216776   0.474   1.621   8.140  0.8365 -1.5856  0.9007
 1653TP3      O16777   0.866   2.882   7.760 -0.9274 -0.2521  0.3815
 1653TP3     H116778   0.886   2.838   7.842  0.5148 -0.1255  0.1153
 1653TP3     H216779   0.936   2.855   7.701 -1.6418  0.1062 -0.6412
 1654TP3      O16780   4.007   4.815   7.169 -0.0063  0.6075  0.0445
 1654TP3     H116781   3.994   4.905   7.140  0.3058  0.4490 -0.5858
 1654TP3     H216782   3.943   4.764   7.120  0.4734  0.3490 -0.3136
 1655TP3      O16783   1.022   1.955   7.275  0.3821 -0.1022 -0.0425
 1655TP3     H116784   0.934   1.980   7.246  0.8270  2.0761  0.3621
 1655TP3     H216785   1.075   1.955   7.195  0.5416  1.0244  0.0593
 1656TP3      O16786   2.962   2.338   7.570  0.0195  0.3166 -0.0564
 1656TP3     H116787   2.878   2.307   7.538  1.0121 -0.3738 -2.0603
 1656TP3     H216788   3.011   2.258   7.591  0.4142  0.6897  0.4574
 1657TP3      O16789   1.098   4.211   6.459 -0.4209 -0.1626 -0.1100
 1657TP3     H116790   1.117   4.276   6.526 -1.2340 -0.7291  0.6804
 1657TP3     H216791   1.076   4.132   6.508 -2.0455 -0.2935 -1.0192
 1658TP3      O16792   0.061   1.292   9.191  0.2337 -0.0788  0.6501
 1658TP3     H116793   0.010   1.306   9.111  2.8192 -0.7520 -1.1694
 1658TP3     H216794   0.065   1.378   9.232 -0.6912  0.3864 -0.1977
 1659TP3      O16795   3.677   3.353   7.287  0.1242  0.4927  0.5719
 1659TP3     H116796   3.752   3.294   7.294 -1.6273 -2.0039 -1.0240
 1659TP3     H216797   3.687   3.395   7.202 -0.9808 -0.8625 -0.2409
 1660TP3      O16798   3.761   2.510   7.236  0.1314  0.3647 -0.1806
 1660TP3     H116799   3.837   2.526   7.179  1.2776 -2.2852  0.5160
 1660TP3     H216800   3.788   2.543   7.322  0.0153  0.5428 -0.2129
 1661TP3      O16801   3.909   3.745   9.248  0.1755  0.6165 -0.0708
 1661TP3     H116802   3.908   3.743   9.344  0.2428 -0.8160 -0.0836
 1661TP3     H216803   3.841   3.683   9.222 -1.9650  3.2695 -0.9783
 1662TP3      O16804   3.918   1.220   7.395 -0.2895  0.1084 -0.3129
 1662TP3     H116805   3.976   1.154   7.357  0.0022  0.0847  0.1749
 1662TP3     H216806   3.887   1.181   7.476 -3.6327 -1.2917 -2.1330
 1663TP3      O16807   4.520   4.033   8.481 -0.0140  0.2219  0.0908
 1663TP3     H116808   4.453   4.077   8.428  0.3945  2.1958  1.1757
 1663TP3     H216809   4.471   3.984   8.546 -0.4404  0.5814  0.0409
 1664TP3      O16810   4.108   4.563   8.726 -0.0769  0.0596  0.3769
 1664TP3     H116811   4.046   4.495   8.751  0.9208 -1.4466 -1.1249
 1664TP3     H216812   4.099   4.630   8.794 -0.8147 -1.7207  2.0849
 1665TP3      O16813   3.302   0.287   9.950  0.0394  0.2119  0.3385
 1665TP3     H116814   3.274   0.358  10.008 -0.1536  0.4769 -0.0775
 1665TP3     H216815   3.388   0.261   9.983  0.2298  0.8234  0.3289
 1666TP3      O16816   2.458   3.318   8.106 -0.6177  0.1731 -0.2424
 1666TP3     H116817   2.549   3.316   8.136 -0.3705 -0.0791 -1.0059
 1666TP3     H216818   2.407   3.297   8.184  0.0470 -0.8850 -0.0834
 1667TP3      O16819   4.554   4.715   0.323 -0.2383 -0.1903  0.1576
 1667TP3     H116820   4.573   4.808   0.338 -0.3858 -0.2856  0.9696
 1667TP3     H216821   4.548   4.707   0.228  1.8893  0.2120 -0.0364
 1668TP3      O16822   0.294   5.101   7.634 -0.4778 -0.4658 -0.0090
 1668TP3     H116823   0.290   5.184   7.587 -2.1049 -0.0684  0.8112
 1668TP3     H216824   0.222   5.049   7.598  0.3965 -1.4598 -0.3632
 1669TP3      O16825   3.904   4.563   8.425  0.3305 -0.3242  0.3805
 1669TP3     H116826   3.949   4.479   8.426  4.0170  1.5826  0.6817
 1669TP3     H216827   3.847   4.560   8.503 -0.1040 -2.7649  0.0025
 1670TP3      O16828   4.679   1.112   8.694 -0.3943 -0.0115 -0.5737
 1670TP3     H116829   4.661   1.200   8.727  1.4532  0.7757 -1.5360
 1670TP3     H216830   4.774   1.111   8.680 -0.5035 -1.8717 -1.3681
 1671TP3      O16831   4.412   5.151   7.857  0.0851  0.7245  0.1871
 1671TP3     H116832   4.394   5.070   7.810  0.2051  0.7941  0.0214
 1671TP3     H216833   4.384   5.220   7.797  1.6181  0.8582 -0.3929
 1672TP3      O16834   3.244   0.678   6.799 -0.1847  0.0297  0.7317
 1672TP3     H116835   3.317   0.707   6.854 -0.9463  0.1648  1.6890
 1672TP3     H216836   3.171   0.732   6.826 -0.5398  0.2008 -0.5459
 1673TP3      O16837   4.680   5.091   7.592 -0.0914  0.2475 -0.2905
 1673TP3     H116838   4.717   5.172   7.556 -1.9864  0.2016 -2.4541
 1673TP3     H216839   4.682   5.029   7.518 -1.7801 -0.6296  0.3810
 1674TP3      O16840   2.663   2.719   6.865  0.0854 -0.0376  0.0259
 1674TP3     H116841   2.604   2.645   6.847  0.3129 -0.0938 -0.5057
 1674TP3     H216842   2.744   2.678   6.894  0.8760 -0.1032 -2.1283
 1675TP3      O16843   0.519   3.508   6.948 -0.1041  0.1783  0.2743
 1675TP3     H116844   0.600   3.481   6.992 -1.7949 -1.4086  2.5213
 1675TP3     H216845   0.541   3.508   6.855  2.0470 -1.7256  0.7304
 1676TP3      O16846   1.511   3.550   1.055  0.8459  0.2715 -0.3665
 1676TP3     H116847   1.472   3.619   1.109  0.4279  2.0202 -2.8248
 1676TP3     H216848   1.473   3.469   1.089 -0.1829  1.4002  1.2730
 1677TP3      O16849   2.531   4.105   0.020  0.5254  0.5292 -0.3010
 1677TP3     H116850   2.467   4.118  -0.049  2.4462  2.1611 -1.8180
 1677TP3     H216851   2.584   4.031  -0.010  0.2372  0.0816  0.2849
 1678TP3      O16852   1.119   3.456   9.014 -0.3773  0.3144  0.2377
 1678TP3     H116853   1.088   3.544   8.994 -0.0553  0.5402  0.7368
 1678TP3     H216854   1.146   3.421   8.929  1.3078  1.4027  0.2990
 1679TP3      O16855   1.834   1.685   9.875 -0.0672  0.0063 -0.1148
 1679TP3     H116856   1.818   1.709   9.784  0.0510  3.0216  0.6354
 1679TP3     H216857   1.777   1.742   9.926  3.2337  1.6436  1.8996
 1680TP3      O16858   4.139   2.716   7.716 -0.4613  0.3076  0.4617
 1680TP3     H116859   4.151   2.743   7.807  1.6098  0.5528  0.1387
 1680TP3     H216860   4.170   2.625   7.714 -1.8739 -0.1965  0.2811
 1681TP3      O16861   3.923   0.112   6.526 -0.4139 -0.3548 -0.6602
 1681TP3     H116862   3.900   0.187   6.472 -1.4965  0.3027  0.6828
 1681TP3     H216863   3.892   0.036   6.476 -3.2219  0.3642 -0.0922
 1682TP3      O16864   3.589   4.678   7.733 -0.0132  0.8143 -0.0006
 1682TP3     H116865   3.552   4.670   7.645 -1.6775 -0.5424  0.7823
 1682TP3     H216866   3.557   4.763   7.764  0.4407  1.2214 -0.6302
 1683TP3      O16867   4.200   4.068   7.792 -0.4627  0.1007  0.1343
 1683TP3     H116868   4.176   4.122   7.716 -1.3078  0.0012  0.3245
 1683TP3     H216869   4.145   3.990   7.784  1.6268 -1.3270 -0.8163
 1684TP3      O16870   3.620   0.127   9.090  0.0892 -0.1442 -0.0967
 1684TP3     H116871   3.622   0.109   8.996  1.3586  1.1968 -0.3444
 1684TP3     H216872   3.660   0.050   9.130 -1.1681 -1.0654 -0.5842
 1685TP3      O16873   1.534   2.710   7.930  0.1197  0.2877 -0.1010
 1685TP3     H116874   1.620   2.694   7.891  0.5269 -1.4600  1.4696
 1685TP3     H216875   1.503   2.624   7.956 -1.7035  1.0190  0.2056
 1686TP3      O16876   4.586   1.824   1.339  0.6574 -0.5875  0.0674
 1686TP3     H116877   4.636   1.905   1.338 -0.8394  0.3689  1.1098
 1686TP3     H216878   4.595   1.790   1.428  1.3608 -1.6233 -0.3887
 1687TP3      O16879   3.336   1.412   6.512 -0.0771  0.3486  0.1542
 1687TP3     H116880   3.363   1.503   6.519  1.3653 -0.2101  2.3426
 1687TP3     H216881   3.415   1.366   6.481 -1.2546  0.0437 -2.5885
 1688TP3      O16882   1.198   0.118   8.423  0.1616  0.1396 -0.1179
 1688TP3     H116883   1.265   0.168   8.377 -0.3925  1.4448  0.4873
 1688TP3     H216884   1.240   0.089   8.503  0.4612 -0.3080 -0.4354
 1689TP3      O16885   0.008   1.061   8.252  0.0707  0.5341  0.1616
 1689TP3     H116886   0.036   1.017   8.333  0.6875  1.4099  0.4298
 1689TP3     H216887   0.051   1.012   8.182  0.5993  0.5804  0.4469
 1690TP3      O16888   4.852   0.418   1.786 -0.1155  0.0764  0.0230
 1690TP3     H116889   4.807   0.335   1.772 -1.5243  0.8665 -0.3018
 1690TP3     H216890   4.897   0.436   1.704 -1.9443  0.8798 -0.8388
 1691TP3      O16891   1.896   1.679   7.206  0.2571  0.2385  0.0697
 1691TP3     H116892   1.813   1.674   7.254 -0.3731 -2.7929 -1.2437
 1691TP3     H216893   1.874   1.654   7.117  2.2795  1.1913 -0.7167
 1692TP3      O16894   1.431   0.784   8.509  0.1852 -0.0039 -0.0520
 1692TP3     H116895   1.387   0.702   8.534  0.7362 -0.4927 -0.6778
 1692TP3     H216896   1.460   0.822   8.592  0.1760 -0.5867  0.2199
 1693TP3      O16897   1.955   5.292  10.084 -0.3547 -0.3815  0.2630
 1693TP3     H116898   1.979   5.199  10.083  0.8028 -0.1379  2.2290
 1693TP3     H216899   2.007   5.329  10.155 -0.1385  1.9660 -1.0665
 1694TP3      O16900   2.898   0.592   1.069 -0.1845 -0.2541 -0.2600
 1694TP3     H116901   2.987   0.612   1.097 -0.1565 -2.2935  1.1695
 1694TP3     H216902   2.844   0.610   1.145 -1.2167  2.2651 -1.5271
 1695TP3      O16903   0.607   0.729   6.898 -0.2935  0.1736  0.4731
 1695TP3     H116904   0.585   0.813   6.858  1.6456  0.3959 -0.1924
 1695TP3     H216905   0.523   0.687   6.914 -1.2990  2.3891  1.1256
 1696TP3      O16906   3.168   1.321   8.704 -0.8178  0.0914 -0.0402
 1696TP3     H116907   3.128   1.346   8.787 -0.8362 -1.4177  0.4065
 1696TP3     H216908   3.141   1.390   8.643  0.4875  2.0604  1.5546
 1697TP3      O16909   4.759   2.398   6.773  0.0336 -0.1989 -0.5742
 1697TP3     H116910   4.794   2.473   6.821  0.1301 -0.3413 -0.4215
 1697TP3     H216911   4.832   2.368   6.719  1.3851 -2.8444  2.5259
 1698TP3      O16912   1.386   4.011   9.793 -0.3463 -0.1000 -0.3771
 1698TP3     H116913   1.412   3.956   9.719 -0.2617  1.7227 -1.7441
 1698TP3     H216914   1.300   4.046   9.768 -2.1978 -2.5845  2.1575
 1699TP3      O16915   2.401   2.874   8.948 -0.5236  0.0691 -0.2873
 1699TP3     H116916   2.359   2.866   8.862  0.2518  0.5024 -0.7210
 1699TP3     H216917   2.351   2.817   9.005 -1.1499 -0.1022 -0.9990
 1700TP3      O16918   1.815   3.613   8.991 -0.3842 -0.2624 -0.1234
 1700TP3     H116919   1.909   3.615   9.007 -0.2785 -0.4210 -0.7260
 1700TP3     H216920   1.798   3.691   8.938 -0.8075  0.5143  1.1155
 1701TP3      O16921   4.089   0.385   2.199 -0.3747  0.0574 -0.2957
 1701TP3     H116922   4.177   0.348   2.194 -0.6295 -0.6178  0.0453
 1701TP3     H216923   4.056   0.380   2.109 -0.5040 -0.8009 -0.2038
 1702TP3      O16924   0.094   2.992   8.614 -0.1374 -0.4144 -0.1555
 1702TP3     H116925   0.104   2.952   8.527 -0.5631 -0.5248 -0.1548
 1702TP3     H216926  -0.001   3.000   8.626 -0.0509  1.0331 -0.3553
 1703TP3      O16927   3.428   1.822   1.454 -0.1860  0.2226 -0.0319
 1703TP3     H116928   3.362   1.823   1.385 -0.9557  1.1732  0.7092
 1703TP3     H216929   3.432   1.913   1.485  1.7060  0.2648 -0.2976
 1704TP3      O16930   3.652   2.358   9.714 -0.1384 -0.3819 -0.0783
 1704TP3     H116931   3.743   2.337   9.738 -0.4436 -0.8180  0.7134
 1704TP3     H216932   3.603   2.279   9.735 -1.1245  0.7276  1.8714
 1705TP3      O16933   2.803   2.362   1.817 -0.0538 -0.0402 -0.2444
 1705TP3     H116934   2.759   2.400   1.893  1.7404  2.1774 -0.2333
 1705TP3     H216935   2.823   2.272   1.842 -0.8606  0.2082  1.3186
 1706TP3      O16936   4.299   1.544   0.672 -0.1758 -0.4041 -0.0960
 1706TP3     H116937   4.340   1.630   0.685 -0.7693 -0.4179  2.0386
 1706TP3     H216938   4.364   1.494   0.623  0.4000  1.0861 -0.8878
 1707TP3      O16939   2.950   4.458   7.645  0.0036  0.5052 -0.0785
 1707TP3     H116940   2.863   4.485   7.673  0.0032 -0.0147  0.4451
 1707TP3     H216941   2.993   4.539   7.619  0.6853  1.3560  3.3662
 1708TP3      O16942   4.419   0.415   0.585 -0.4201  0.3934 -0.2929
 1708TP3     H116943   4.462   0.330   0.570 -0.1055  0.1260  1.9740
 1708TP3     H216944   4.472   0.477   0.536  1.9087 -0.1138  1.5052
 1709TP3      O16945   0.607   0.037   8.466 -0.0797 -0.2800  0.3516
 1709TP3     H116946   0.594   0.130   8.452  0.8780 -0.2981 -0.7962
 1709TP3     H216947   0.523   0.005   8.499  0.1304  1.2831  2.4564
 1710TP3      O16948   3.328   0.586   8.897 -0.0411  0.1297 -0.2378
 1710TP3     H116949   3.273   0.534   8.838 -0.5851 -0.1819  0.5285
 1710TP3     H216950   3.399   0.527   8.920  1.1664  0.8623 -2.0063
 1711TP3      O16951   2.779   1.478  10.095 -0.7257 -0.5153  0.4714
 1711TP3     H116952   2.735   1.441  10.019 -1.0954  0.9210 -0.0237
 1711TP3     H216953   2.869   1.444  10.090  0.0760  1.7916 -2.1974
 1712TP3      O16954   2.164   2.785   1.211 -0.4098  0.1662  0.5853
 1712TP3     H116955   2.168   2.714   1.275  0.0818 -0.3477 -0.0107
 1712TP3     H216956   2.100   2.755   1.146  0.9847 -0.4632 -0.5307
 1713TP3      O16957   1.925   3.857   7.676 -0.2041 -0.7217  0.3518
 1713TP3     H116958   1.990   3.884   7.611  1.7655  1.9344  3.2984
 1713TP3     H216959   1.865   3.932   7.682 -0.2110 -0.8329  1.7761
 1714TP3      O16960   5.015   0.005   9.735  0.2494  0.3157  0.4967
 1714TP3     H116961   4.954   0.072   9.705  0.0151  1.0288  2.4910
 1714TP3     H216962   4.961  -0.074   9.745  0.4795 -0.1547 -1.6140
 1715TP3      O16963   3.170   3.453   0.642  0.5281  0.2053 -0.3360
 1715TP3     H116964   3.139   3.544   0.645 -1.6742 -0.5422  0.4354
 1715TP3     H216965   3.105   3.404   0.692 -0.1156 -2.3284 -3.5039
 1716TP3      O16966   2.167   3.559   0.683 -0.3634 -0.3947 -0.2647
 1716TP3     H116967   2.097   3.606   0.640  0.2956  0.8520 -0.0097
 1716TP3     H216968   2.129   3.529   0.766 -1.1220 -1.3205 -0.9445
 1717TP3      O16969   2.195   3.443   8.780  0.2890 -0.0635 -0.2500
 1717TP3     H116970   2.138   3.435   8.856 -0.3097 -2.1978 -0.8782
 1717TP3     H216971   2.211   3.537   8.771  0.2830  0.2183  2.4213
 1718TP3      O16972   3.552   2.313   0.131  0.1604 -0.4378  0.2454
 1718TP3     H116973   3.619   2.293   0.066  0.1432 -1.5531  0.5648
 1718TP3     H216974   3.592   2.379   0.187 -0.0117  0.9351 -1.1954
 1719TP3      O16975   4.039   0.574   7.645  0.1509 -0.0827  0.3121
 1719TP3     H116976   4.084   0.651   7.681  1.6057 -0.4131 -0.7288
 1719TP3     H216977   3.947   0.590   7.662  0.6181  0.7754  2.2490
 1720TP3      O16978   0.483   1.116   7.968 -0.3086 -0.7012 -0.2751
 1720TP3     H116979   0.572   1.106   8.001 -0.7823 -0.7898  1.0050
 1720TP3     H216980   0.447   1.189   8.019 -1.6905 -2.1075  0.8032
 1721TP3      O16981   4.460   3.779   8.977  0.0712 -0.0046 -0.0903
 1721TP3     H116982   4.453   3.807   9.068 -2.8213 -1.5655  0.2393
 1721TP3     H216983   4.542   3.729   8.973  0.6917  0.8772  1.4207
 1722TP3      O16984   4.411   5.223   0.560 -0.2286  0.3377  0.1060
 1722TP3     H116985   4.451   5.262   0.482 -0.1304  0.7708  0.3683
 1722TP3     H216986   4.473   5.241   0.631 -0.6304  0.5412  0.4130
 1723TP3      O16987   4.317   3.317   7.557 -0.0651 -0.5796 -0.6175
 1723TP3     H116988   4.341   3.273   7.638  1.3360 -0.6719 -1.0719
 1723TP3     H216989   4.340   3.409   7.572 -0.7030 -0.4224 -0.5655
 1724TP3      O16990   2.210   0.846   7.917  0.0919  0.1578  0.0016
 1724TP3     H116991   2.135   0.876   7.968  0.7575 -0.3501  1.3239
 1724TP3     H216992   2.183   0.762   7.881 -0.6275  0.8366 -1.0525
 1725TP3      O16993   1.458   2.515   9.542 -0.1049 -0.1571 -0.4959
 1725TP3     H116994   1.513   2.438   9.554 -1.1718 -0.7685  0.5655
 1725TP3     H216995   1.380   2.497   9.595 -1.1003  0.9090 -1.5706
 1726TP3      O16996   2.440   2.302   7.693 -0.5295 -0.1216 -0.1097
 1726TP3     H116997   2.427   2.209   7.672 -1.3044 -0.4245  1.6384
 1726TP3     H216998   2.355   2.332   7.724  0.3159  0.5398  1.6424
 1727TP3      O16999   1.164   4.134   9.642  0.6249 -0.4505  0.2152
 1727TP3     H117000   1.116   4.070   9.588 -1.2441  1.2959 -0.2490
 1727TP3     H217001   1.244   4.151   9.593  0.9508 -2.1362  0.1411
 1728TP3      O17002   0.113   2.826   7.084 -0.3716 -0.7938 -0.6798
 1728TP3     H117003   0.035   2.787   7.044 -0.9933 -0.8801  0.6168
 1728TP3     H217004   0.095   2.920   7.086  0.2081 -0.6380 -1.7609
 1729TP3      O17005   2.573   2.064   9.492  0.3842  0.1591  0.0298
 1729TP3     H117006   2.597   2.021   9.574  0.8862  1.5347  0.6097
 1729TP3     H217007   2.503   2.125   9.516 -1.1676 -1.1766 -1.0099
 1730TP3      O17008   1.801   0.960   9.767  0.2267 -0.5644 -0.1510
 1730TP3     H117009   1.717   0.915   9.768  0.6827 -1.4050  0.4438
 1730TP3     H217010   1.778   1.052   9.757 -0.8256 -0.6434  1.4167
 1731TP3      O17011   4.752   4.045   7.873 -0.2780  0.4480 -0.3040
 1731TP3     H117012   4.656   4.043   7.865 -0.4259  0.1793  1.4521
 1731TP3     H217013   4.779   3.957   7.846 -0.4777  0.6369 -1.1585
 1732TP3      O17014   2.984   4.283   9.814 -0.1895  1.0517 -0.5388
 1732TP3     H117015   3.042   4.278   9.738  0.0141  0.4993 -0.3566
 1732TP3     H217016   2.950   4.194   9.823 -0.7891  1.2919 -0.4316
 1733TP3      O17017   0.705   3.632   2.149  0.0218 -0.0250  0.2708
 1733TP3     H117018   0.800   3.621   2.147 -0.0482 -0.5453 -0.2653
 1733TP3     H217019   0.686   3.684   2.072 -0.1406 -0.0231  0.3132
 1734TP3      O17020   1.700   3.624   0.589  0.0468  0.4067  0.2067
 1734TP3     H117021   1.666   3.713   0.580 -0.8133  0.0257 -0.3403
 1734TP3     H217022   1.633   3.577   0.638 -0.9288 -0.7185 -2.1330
 1735TP3      O17023   3.683   1.283   2.573  0.6431  0.2847 -0.1281
 1735TP3     H117024   3.707   1.198   2.609 -0.7419  0.0372  0.2467
 1735TP3     H217025   3.587   1.280   2.567  0.6496  1.4575 -1.0024
 1736TP3      O17026   1.324   1.682   9.176 -0.4690  0.3500 -0.0176
 1736TP3     H117027   1.248   1.626   9.190  1.1060 -2.1399 -1.1723
 1736TP3     H217028   1.336   1.683   9.081  2.1105 -0.9154  0.2507
 1737TP3      O17029   1.419   0.648   0.535 -0.2712  0.1454  0.3696
 1737TP3     H117030   1.446   0.582   0.472 -0.3541  0.9406 -0.5197
 1737TP3     H217031   1.405   0.727   0.482 -2.1433  0.3408  1.1179
 1738TP3      O17032   4.656   4.090   9.930  0.2510 -0.1294  0.2282
 1738TP3     H117033   4.635   4.022   9.866  0.2135 -2.4174  2.5865
 1738TP3     H217034   4.572   4.111   9.971  0.6857 -0.6734  1.4175
 1739TP3      O17035   3.369   1.943   7.983 -0.5982  0.1741 -0.2666
 1739TP3     H117036   3.461   1.929   7.958 -1.1240  0.1933 -2.3521
 1739TP3     H217037   3.333   1.855   7.991 -0.4343  0.1682  0.3844
 1740TP3      O17038   0.350   2.800   6.946 -0.1848 -0.7346 -0.2959
 1740TP3     H117039   0.335   2.808   6.852  1.0185  1.2467 -0.3421
 1740TP3     H217040   0.265   2.817   6.985 -0.3643 -0.0925 -0.9629
 1741TP3      O17041   4.578   3.167   8.379  0.0763 -0.2175  0.2712
 1741TP3     H117042   4.572   3.149   8.473 -1.4673  0.4605  0.3164
 1741TP3     H217043   4.608   3.258   8.375  1.0520 -0.5481  0.1003
 1742TP3      O17044   0.422   3.561   1.521 -0.3543 -0.0137 -0.1360
 1742TP3     H117045   0.480   3.585   1.593 -0.6346  0.8885 -0.2097
 1742TP3     H217046   0.390   3.473   1.544  1.5393 -0.8018 -0.4200
 1743TP3      O17047   0.764   1.483   9.731 -0.4890  0.2237 -0.1157
 1743TP3     H117048   0.840   1.450   9.684 -0.3071 -0.9455  0.9876
 1743TP3     H217049   0.800   1.536   9.802 -0.7194  0.5203 -0.2182
 1744TP3      O17050   0.229   1.646   0.840  0.2635  0.8980 -0.5020
 1744TP3     H117051   0.240   1.604   0.925  0.7083 -1.5044 -1.7250
 1744TP3     H217052   0.317   1.672   0.814  0.4181 -0.3070 -1.1979
 1745TP3      O17053   2.710   3.940  10.072 -0.5380  0.1477  0.2716
 1745TP3     H117054   2.789   3.989  10.094  0.5201 -1.4865  0.2281
 1745TP3     H217055   2.737   3.848  10.076 -2.2424 -0.4134 -0.4957
 1746TP3      O17056   5.115   4.082   9.681 -0.4400 -0.1345  0.2651
 1746TP3     H117057   5.162   4.162   9.704 -2.3628  0.8480  0.8567
 1746TP3     H217058   5.039   4.082   9.738 -1.8611 -1.0346 -1.5799
 1747TP3      O17059   2.450   4.740   0.428 -0.1065  0.2210  0.5833
 1747TP3     H117060   2.507   4.680   0.379 -1.2514 -0.8631  0.5391
 1747TP3     H217061   2.434   4.812   0.368 -0.4576 -0.4798 -0.1792
 1748TP3      O17062   1.431   3.645   8.748  0.1912  0.1217  0.0328
 1748TP3     H117063   1.406   3.667   8.838  2.0454  0.9674  0.3715
 1748TP3     H217064   1.519   3.608   8.757 -0.7435 -2.4915 -1.1302
 1749TP3      O17065   1.963   5.055   0.926 -0.3166  0.1255  0.0528
 1749TP3     H117066   1.974   4.960   0.918 -1.0819  0.0680 -0.3705
 1749TP3     H217067   2.047   5.091   0.897  0.5399 -0.4640  1.7073
 1750TP3      O17068   4.272   3.177   8.987  0.2577 -0.0656  0.3990
 1750TP3     H117069   4.239   3.098   9.031  1.8948 -0.3504  1.1430
 1750TP3     H217070   4.258   3.247   9.050 -1.5488  0.3325 -0.4094
 1751TP3      O17071   4.010   2.026   9.794  0.3457  0.0994  0.0659
 1751TP3     H117072   4.051   1.966   9.856 -1.0336  0.1373  1.0349
 1751TP3     H217073   4.018   1.983   9.709  0.3117 -0.9552  0.6004
 1752TP3      O17074   2.467   0.788   1.455  0.4559  0.2757 -0.3229
 1752TP3     H117075   2.552   0.832   1.460  0.4959  0.3146 -1.2713
 1752TP3     H217076   2.477   0.710   1.509  0.9185  0.5710  0.0204
 1753TP3      O17077   1.159   1.010   7.945 -0.1362 -0.3608  0.6659
 1753TP3     H117078   1.109   1.084   7.911 -0.5447  0.2835  2.6007
 1753TP3     H217079   1.190   0.964   7.867 -0.4145  1.4819 -0.5604
 1754TP3      O17080   1.130   5.239   8.785 -0.3148 -0.3634 -0.4804
 1754TP3     H117081   1.130   5.156   8.737 -3.3770  0.4687 -2.0828
 1754TP3     H217082   1.128   5.213   8.877  0.9043 -2.0190 -0.8887
 1755TP3      O17083   2.344   2.044   9.097 -0.1273  0.5269  0.1468
 1755TP3     H117084   2.333   1.963   9.047  1.3590 -0.3209  1.1395
 1755TP3     H217085   2.345   2.113   9.031  1.3122 -0.5276 -0.9573
 1756TP3      O17086   4.991   3.245   0.737  0.2537  0.4136  0.3059
 1756TP3     H117087   5.084   3.263   0.722  0.2542 -0.1959 -0.4241
 1756TP3     H217088   4.960   3.320   0.788  0.8117  1.3232 -0.6796
 1757TP3      O17089   2.066   0.398   7.568  0.2292 -0.1007 -0.3586
 1757TP3     H117090   2.140   0.349   7.532  2.1436  1.4733  1.3315
 1757TP3     H217091   2.098   0.488   7.576 -1.6517  0.4750  1.0430
 1758TP3      O17092   0.698   0.252   9.200 -0.0464  0.3684  0.0934
 1758TP3     H117093   0.695   0.344   9.226  0.9652  0.3827  0.2145
 1758TP3     H217094   0.672   0.205   9.279 -1.3856  0.5756 -0.2168
 1759TP3      O17095   2.002   2.559   0.036 -0.1243 -0.4201  0.3255
 1759TP3     H117096   2.025   2.481  -0.015  1.0120 -1.2194  2.0400
 1759TP3     H217097   1.929   2.598  -0.013  0.0350 -1.9211 -1.1630
 1760TP3      O17098   0.997   0.256   1.524 -0.2406  0.0019  0.0142
 1760TP3     H117099   0.978   0.198   1.597  0.2677 -0.9999 -0.6346
 1760TP3     H217100   1.008   0.198   1.449 -1.0388  1.0286 -0.9246
 1761TP3      O17101   0.038   2.713  10.161 -0.1185  0.0494  0.1465
 1761TP3     H117102   0.093   2.729  10.085  0.0591 -0.5682  0.1481
 1761TP3     H217103   0.034   2.799  10.205  0.2289  0.2754 -0.2542
 1762TP3      O17104   0.794   1.128   7.301 -0.1898  0.4154 -0.7195
 1762TP3     H117105   0.816   1.046   7.346 -0.3818  0.8513  0.1838
 1762TP3     H217106   0.876   1.178   7.302  0.1398 -0.0768 -1.9727
 1763TP3      O17107   2.592   0.681   7.474  0.0859 -0.0411  0.1691
 1763TP3     H117108   2.577   0.665   7.381 -1.5910  1.4585  0.1497
 1763TP3     H217109   2.522   0.633   7.518  1.1432 -1.1159  0.6907
 1764TP3      O17110   0.483   2.492   8.831  0.5323  0.1382 -0.4988
 1764TP3     H117111   0.531   2.465   8.910  1.4425  0.9550 -0.7553
 1764TP3     H217112   0.545   2.549   8.784 -0.7834  1.4062 -0.7242
 1765TP3      O17113   1.396   3.651   9.042  0.0565  0.4210  1.1215
 1765TP3     H117114   1.462   3.598   9.087  0.4500  0.7408  0.9196
 1765TP3     H217115   1.316   3.599   9.049  1.0508 -1.5835 -1.6108
 1766TP3      O17116   0.746   4.165   8.612 -0.1306  0.0422  0.1081
 1766TP3     H117117   0.740   4.151   8.518 -3.1788 -0.5555  0.3297
 1766TP3     H217118   0.705   4.087   8.650  0.5435  0.5462  1.9141
 1767TP3      O17119   1.871   1.093   1.807 -0.1187 -0.3999 -0.6709
 1767TP3     H117120   1.948   1.116   1.756  0.9806  1.6076  1.7527
 1767TP3     H217121   1.905   1.040   1.879 -1.1183 -0.2765 -0.0972
 1768TP3      O17122   3.356   0.109   1.876 -0.0744 -0.4558  0.6217
 1768TP3     H117123   3.406   0.041   1.831  1.6818 -0.4179  2.4194
 1768TP3     H217124   3.303   0.062   1.940  0.4759 -0.2083  1.2646
 1769TP3      O17125   0.805   5.190   1.409 -0.1975 -0.4944 -0.1750
 1769TP3     H117126   0.833   5.127   1.343  1.0608 -1.2068  0.9952
 1769TP3     H217127   0.710   5.192   1.401 -0.0324 -0.1314 -2.3757
 1770TP3      O17128   2.551   4.772   7.147  0.3893  0.0880 -0.2145
 1770TP3     H117129   2.525   4.699   7.091  1.0489 -0.4962  0.2502
 1770TP3     H217130   2.646   4.778   7.138  0.5293 -0.1444  1.0072
 1771TP3      O17131   0.031   0.222   8.177 -0.2877  0.8923  0.3424
 1771TP3     H117132   0.078   0.288   8.126  1.7907 -0.1592  0.8391
 1771TP3     H217133   0.087   0.144   8.174 -1.5930 -0.1387  1.6754
 1772TP3      O17134   3.567   2.041   0.375  0.3565 -0.1896  0.3221
 1772TP3     H117135   3.508   2.117   0.371 -1.3112 -1.4969 -0.0470
 1772TP3     H217136   3.617   2.046   0.293 -0.0019  0.2935  0.1263
 1773TP3      O17137   2.772   3.608   0.402  0.1342  0.2183  0.5994
 1773TP3     H117138   2.803   3.661   0.475 -0.4923  1.4759 -0.0145
 1773TP3     H217139   2.715   3.542   0.441  0.2887  0.5073  1.3081
 1774TP3      O17140   2.894   1.971   8.527  0.2463  0.4509 -0.5257
 1774TP3     H117141   2.962   2.033   8.501 -1.6868  1.6560 -2.9754
 1774TP3     H217142   2.835   1.967   8.452 -1.6825 -1.5717  1.0075
 1775TP3      O17143   1.631   4.507   8.299 -0.2310  0.1385 -0.0977
 1775TP3     H117144   1.655   4.590   8.341  0.0276 -0.6364  1.3026
 1775TP3     H217145   1.598   4.452   8.370  1.3769 -1.6292 -0.6816
 1776TP3      O17146   0.576   0.863   0.057 -0.1902 -0.0131 -0.0908
 1776TP3     H117147   0.553   0.793   0.119 -1.0267  2.0773  2.0250
 1776TP3     H217148   0.629   0.819  -0.010  2.2889 -2.0353  3.0456
 1777TP3      O17149   1.043   1.993   8.764 -0.4244 -0.1693 -0.5215
 1777TP3     H117150   0.948   2.008   8.768 -0.2964  0.3659  0.5237
 1777TP3     H217151   1.078   2.076   8.731 -0.2767 -0.2401 -0.5414
 1778TP3      O17152   1.286   1.350   0.546 -0.6466 -0.0802  0.0731
 1778TP3     H117153   1.193   1.337   0.531 -0.7791 -1.1034  1.6691
 1778TP3     H217154   1.290   1.420   0.612 -0.2598  0.4606 -0.5198
 1779TP3      O17155   4.771   4.679   8.006  0.3448 -0.4518 -0.0145
 1779TP3     H117156   4.864   4.667   8.026  0.4022 -0.5313 -0.3356
 1779TP3     H217157   4.757   4.773   8.014  0.6017 -0.3624 -0.6233
 1780TP3      O17158   4.845   0.648   1.967 -0.0667  0.0340  0.0826
 1780TP3     H117159   4.861   0.569   1.914 -0.1697 -0.2578  0.4809
 1780TP3     H217160   4.928   0.664   2.011  0.6447  1.4868 -1.7539
 1781TP3      O17161   5.152   3.757   0.852 -0.4925  0.1094 -0.3904
 1781TP3     H117162   5.088   3.730   0.918  0.8716  0.3901  1.0841
 1781TP3     H217163   5.152   3.853   0.856 -2.4049  0.2649 -2.7832
 1782TP3      O17164   3.647   0.980   9.149  0.0824 -0.1694  0.2827
 1782TP3     H117165   3.726   0.973   9.203  1.0661  1.8780 -0.8141
 1782TP3     H217166   3.637   1.074   9.135 -1.7630 -0.5055 -0.7689
 1783TP3      O17167   4.532   4.025   1.295 -0.3417  0.1973 -0.1949
 1783TP3     H117168   4.483   4.096   1.252 -0.1702  0.2906 -0.2404
 1783TP3     H217169   4.488   4.013   1.379 -0.9370 -0.2741 -0.5760
 1784TP3      O17170   3.889   2.285   9.822  0.1391 -0.0114 -0.4720
 1784TP3     H117171   3.913   2.194   9.801 -1.1607 -0.5942  0.4741
 1784TP3     H217172   3.940   2.338   9.760  0.8109 -1.3859 -1.1324
 1785TP3      O17173   0.993   1.195   7.818 -0.1358 -0.1986  0.3429
 1785TP3     H117174   1.047   1.241   7.753  1.3379 -1.5064  0.6197
 1785TP3     H217175   0.943   1.264   7.860 -0.1317  0.8189 -1.2924
 1786TP3      O17176   2.997   4.118   1.124 -0.2511  0.0667  0.0861
 1786TP3     H117177   3.033   4.096   1.210  0.0249  0.3789  0.0525
 1786TP3     H217178   3.002   4.213   1.120 -1.6506  0.1541  0.3245
 1787TP3      O17179   0.401   0.242   0.104 -0.0162  1.0212 -0.8854
 1787TP3     H117180   0.454   0.296   0.163 -0.2707  0.0822  0.2402
 1787TP3     H217181   0.413   0.281   0.018  1.1415  1.8469 -0.3669
 1788TP3      O17182   3.151   3.430   0.351  0.3357 -0.0855  0.1106
 1788TP3     H117183   3.143   3.506   0.294 -1.7829  0.3315  0.9177
 1788TP3     H217184   3.175   3.466   0.436 -0.4884 -0.3123  0.4487
 1789TP3      O17185   4.696   4.575   8.726 -0.5345 -0.1553 -0.0327
 1789TP3     H117186   4.641   4.607   8.656  0.8701 -2.3078 -2.2082
 1789TP3     H217187   4.740   4.653   8.761 -3.3951  1.3054  0.4362
 1790TP3      O17188   3.615   4.088   8.535  0.1193 -0.3591 -0.4397
 1790TP3     H117189   3.669   4.030   8.482 -0.1470 -0.6022 -0.4472
 1790TP3     H217190   3.525   4.059   8.519 -0.0647  0.4147 -0.8890
 1791TP3      O17191   0.233   1.836   9.933  0.2032  0.2794 -0.0134
 1791TP3     H117192   0.169   1.894   9.973 -0.8499 -0.8787  0.0226
 1791TP3     H217193   0.263   1.883   9.855  0.9778  1.7826  1.1536
 1792TP3      O17194   4.845   1.798   8.122  0.2262  0.1343  0.2423
 1792TP3     H117195   4.872   1.767   8.035  1.5550 -0.6624  0.9300
 1792TP3     H217196   4.762   1.843   8.106  1.5020  1.8784 -1.7732
 1793TP3      O17197   1.804   5.307   0.768  0.3972 -0.3851  0.6888
 1793TP3     H117198   1.807   5.267   0.854 -3.1110  0.5756  1.3430
 1793TP3     H217199   1.815   5.401   0.784  0.8414 -0.3052 -0.0320
 1794TP3      O17200   2.667   1.317   7.628  0.1900  0.0678 -0.6135
 1794TP3     H117201   2.649   1.378   7.557 -1.1738 -1.5853 -1.7340
 1794TP3     H217202   2.580   1.286   7.656  0.7556 -0.0674  1.0995
 1795TP3      O17203   3.202   2.041   9.274 -0.2880 -0.5625 -0.4324
 1795TP3     H117204   3.108   2.034   9.291 -0.2604  2.6374  1.4332
 1795TP3     H217205   3.208   2.071   9.184 -1.0298 -1.2759 -0.7260
 1796TP3      O17206   2.498   2.954   8.520  0.1603 -0.1729 -0.3984
 1796TP3     H117207   2.521   2.898   8.446  0.5875 -0.8175  0.2193
 1796TP3     H217208   2.579   2.999   8.542  0.4716 -1.2702  0.7711
 1797TP3      O17209   1.326   5.088   7.980  0.1617  0.5246 -0.3085
 1797TP3     H117210   1.277   5.130   7.909 -0.2007  0.2812 -0.2040
 1797TP3     H217211   1.417   5.095   7.953  0.1762  2.1158  0.1028
 1798TP3      O17212   1.067   1.090   1.153  0.1493 -0.5924  0.0596
 1798TP3     H117213   1.041   1.181   1.143  0.5256 -0.7380 -2.3836
 1798TP3     H217214   1.137   1.092   1.218  0.8738  0.9876 -0.7518
 1799TP3      O17215   1.128   1.666   1.131  0.7589 -0.3371  0.3600
 1799TP3     H117216   1.208   1.614   1.128  1.2970  0.4697  0.5574
 1799TP3     H217217   1.097   1.669   1.041  2.5303  1.7781 -0.2119
 1800TP3      O17218   3.406   4.958   9.747 -0.2754  0.0396  0.5516
 1800TP3     H117219   3.427   4.866   9.736 -0.5102  0.2145 -1.4660
 1800TP3     H217220   3.466   4.989   9.814  0.0342 -1.4919  0.9857
 1801TP3      O17221   1.505   4.089   8.043  0.2036  0.1179 -0.3258
 1801TP3     H117222   1.589   4.121   8.078  0.5356 -0.6644 -0.4084
 1801TP3     H217223   1.530   4.019   7.983 -0.4656  0.4390 -0.9731
 1802TP3      O17224   1.889   1.022   7.283  0.4673 -0.3547  0.1460
 1802TP3     H117225   1.856   1.083   7.217 -0.2659 -0.6906  0.2021
 1802TP3     H217226   1.829   0.947   7.280  0.2320 -0.2363  1.4025
 1803TP3      O17227   0.821   2.137   9.557 -0.1569 -0.6458  0.1702
 1803TP3     H117228   0.760   2.091   9.615 -2.3871 -0.5807 -2.0399
 1803TP3     H217229   0.872   2.067   9.516 -2.1718 -1.0898 -1.6770
 1804TP3      O17230   2.514   1.795   9.949 -0.4313  0.2520 -0.2295
 1804TP3     H117231   2.506   1.704   9.921 -0.4829 -0.4122  1.8193
 1804TP3     H217232   2.607   1.815   9.938 -0.4639  0.0302 -0.9164
 1805TP3      O17233   3.339   2.686   0.943 -0.5820 -0.0172 -0.2556
 1805TP3     H117234   3.277   2.748   0.905 -1.1561 -0.7133 -0.4561
 1805TP3     H217235   3.291   2.643   1.014 -0.3141 -0.5128 -0.3693
 1806TP3      O17236   4.109   3.933   8.502 -0.8100 -0.1275  0.5569
 1806TP3     H117237   4.147   3.858   8.548 -0.6352  0.2172  0.9842
 1806TP3     H217238   4.105   4.002   8.569  1.6600  1.1368 -0.5302
 1807TP3      O17239   2.660   2.608   8.829 -0.4650 -0.8062 -0.0662
 1807TP3     H117240   2.674   2.678   8.892 -0.5182 -0.8578  0.0021
 1807TP3     H217241   2.746   2.565   8.822  0.5872  1.5571 -2.8598
 1808TP3      O17242   4.259   1.565   1.493 -0.7132  0.9501 -0.4478
 1808TP3     H117243   4.245   1.471   1.503  0.4349  0.7849 -0.2865
 1808TP3     H217244   4.321   1.571   1.420  0.9951  1.4497  1.0186
 1809TP3      O17245   3.257   2.560   0.306 -0.7737  0.3309  0.0368
 1809TP3     H117246   3.269   2.519   0.391  0.3868  1.2183  0.3006
 1809TP3     H217247   3.279   2.491   0.243 -1.3076 -0.2181  0.4397
 1810TP3      O17248   4.956   2.503   8.287 -0.2637 -0.1565  0.6360
 1810TP3     H117249   4.984   2.588   8.320  0.1170  0.0504 -0.2036
 1810TP3     H217250   5.033   2.448   8.292 -0.6488 -0.6080  1.6732
 1811TP3      O17251   0.585   4.932   9.454  0.2938 -0.6762  0.8456
 1811TP3     H117252   0.643   4.874   9.503 -1.6001 -2.1820  1.3735
 1811TP3     H217253   0.540   4.875   9.392  0.4503  0.7115 -0.5892
 1812TP3      O17254   3.522   1.042   8.524 -0.1248 -0.6552  0.1801
 1812TP3     H117255   3.575   0.984   8.579 -0.5637 -0.3148  0.9787
 1812TP3     H217256   3.547   1.131   8.551  0.2755 -0.4745 -0.7729
 1813TP3      O17257   3.444   2.355   9.948  0.0212 -1.0073  0.0725
 1813TP3     H117258   3.412   2.376   9.861  1.1413  0.6198  0.0243
 1813TP3     H217259   3.367   2.325   9.996 -1.2458  1.1737 -0.5459
 1814TP3      O17260   3.926   0.377   9.085  0.3455 -0.5544 -0.0036
 1814TP3     H117261   3.949   0.444   9.150  1.5574 -2.0598  1.1698
 1814TP3     H217262   3.905   0.426   9.006 -0.3659  1.2848  1.2966
 1815TP3      O17263   1.833   4.749   9.753 -0.2395 -0.1970  0.0229
 1815TP3     H117264   1.776   4.748   9.677  0.2892  1.7811 -0.4329
 1815TP3     H217265   1.778   4.781   9.824  0.0093  0.7331 -0.1915
 1816TP3      O17266   1.310   2.958   9.399 -0.2168 -0.1771 -0.0824
 1816TP3     H117267   1.290   3.047   9.428 -1.5431 -0.7345  0.7498
 1816TP3     H217268   1.400   2.964   9.366  0.6902  0.8771  2.4508
 1817TP3      O17269   2.772   2.599   6.616  0.5514 -0.5026  0.2690
 1817TP3     H117270   2.774   2.646   6.700  0.1509 -0.3897  0.2152
 1817TP3     H217271   2.844   2.637   6.566  0.4011 -0.1370  0.3294
 1818TP3      O17272   3.403   1.506   8.931 -0.0083 -0.0498 -0.4235
 1818TP3     H117273   3.322   1.553   8.914  0.2648  0.9518  0.9933
 1818TP3     H217274   3.429   1.533   9.019  2.7191  0.9260 -1.4604
 1819TP3      O17275   4.173   3.979   8.235  0.5213 -0.3323  0.3145
 1819TP3     H117276   4.171   4.074   8.225 -0.7324 -0.5099 -1.3059
 1819TP3     H217277   4.157   3.964   8.328  0.5140  1.0236  0.5381
 1820TP3      O17278   3.657   3.935   1.354  0.7546 -0.3396 -0.5657
 1820TP3     H117279   3.738   3.938   1.304  0.9182 -1.5608 -0.3820
 1820TP3     H217280   3.665   3.857   1.409 -0.5354 -0.4575 -0.5314
 1821TP3      O17281   5.099   0.849   8.452 -0.7024  0.2725 -0.0378
 1821TP3     H117282   5.089   0.910   8.380 -0.3553 -1.8310 -1.9386
 1821TP3     H217283   5.013   0.807   8.461  0.2779 -2.2456 -1.8767
 1822TP3      O17284   2.430   2.532   9.128  0.2177  0.0475  0.0775
 1822TP3     H117285   2.353   2.487   9.163  0.8167 -1.7721 -0.9054
 1822TP3     H217286   2.411   2.542   9.035  0.8643  0.2367 -0.0305
 1823TP3      O17287   5.147   4.071   8.807  0.5639  0.0597 -0.1988
 1823TP3     H117288   5.224   4.029   8.769  0.4855  1.5715 -2.0963
 1823TP3     H217289   5.107   4.003   8.861  0.7845 -2.0979 -2.6770
 1824TP3      O17290   1.499   0.047   1.155 -0.1059  0.0146 -0.1499
 1824TP3     H117291   1.483   0.118   1.217  2.3733 -0.6719  1.3202
 1824TP3     H217292   1.546  -0.020   1.206 -0.4769 -1.7587 -2.0569
 1825TP3      O17293   0.714   2.410   6.562  0.0689  0.0977  0.6785
 1825TP3     H117294   0.648   2.370   6.506 -0.2717  0.9912  0.4306
 1825TP3     H217295   0.674   2.415   6.648 -1.5419  3.7393 -0.1670
 1826TP3      O17296   2.981   0.979   8.358 -0.1428 -0.5772 -0.3250
 1826TP3     H117297   3.022   0.987   8.444  3.3422 -3.0059 -1.5921
 1826TP3     H217298   3.014   1.054   8.309  1.5683 -1.6153 -0.8270
 1827TP3      O17299   2.047   2.710   8.181  0.5781 -0.6553  0.9790
 1827TP3     H117300   2.096   2.766   8.121 -1.3160  0.8325  0.7393
 1827TP3     H217301   2.087   2.624   8.173  2.0827  0.1530 -0.3907
 1828TP3      O17302   2.774   0.885  10.057 -0.2154  0.2151  0.6262
 1828TP3     H117303   2.743   0.953  10.118 -0.8283  0.6360 -0.1336
 1828TP3     H217304   2.869   0.896  10.055 -0.3714  1.5500 -0.0523
 1829TP3      O17305   2.501   2.164   0.454  0.0539 -0.3844 -0.4654
 1829TP3     H117306   2.510   2.074   0.486  0.4328 -0.0772  0.2811
 1829TP3     H217307   2.541   2.162   0.367  0.0491 -0.9363 -0.4597
 1830TP3      O17308   0.582   3.732   7.496  0.3333 -0.3540 -0.0365
 1830TP3     H117309   0.627   3.809   7.462 -0.7291 -0.6172 -2.1274
 1830TP3     H217310   0.604   3.662   7.434 -0.8764 -1.0772  0.3332
 1831TP3      O17311   1.613   4.730   9.238  0.0526 -0.1475  0.0592
 1831TP3     H117312   1.548   4.792   9.205  0.1477  0.2911  0.6735
 1831TP3     H217313   1.562   4.654   9.266 -0.0452 -0.4295 -0.8899
 1832TP3      O17314   4.648   0.768   2.728 -0.5387  0.1002 -0.0495
 1832TP3     H117315   4.643   0.673   2.724 -0.2315  0.0070  1.5811
 1832TP3     H217316   4.616   0.797   2.642 -0.1115 -1.4758 -0.7652
 1833TP3      O17317   2.711   0.687   9.207 -0.3524  0.2828  0.0693
 1833TP3     H117318   2.712   0.689   9.303  0.9112  1.6994  0.0401
 1833TP3     H217319   2.661   0.765   9.182  0.1103  0.4204 -0.4326
 1834TP3      O17320   0.233   3.887   8.311 -0.0015  0.9770  0.3798
 1834TP3     H117321   0.239   3.962   8.371  0.5870  0.2519  1.2421
 1834TP3     H217322   0.280   3.914   8.233 -0.1586  1.6640  0.5210
 1835TP3      O17323   1.812   2.587   7.368  0.1278  0.1763 -0.4501
 1835TP3     H117324   1.720   2.565   7.382 -0.0965  0.1954 -1.7699
 1835TP3     H217325   1.838   2.533   7.293  0.7390  1.3289 -1.0793
 1836TP3      O17326   5.100   4.071   6.855  0.1002 -0.0197 -0.2193
 1836TP3     H117327   5.140   4.116   6.930  0.3467 -0.2185 -0.2299
 1836TP3     H217328   5.030   4.018   6.894  0.5045 -0.4513 -0.0763
 1837TP3      O17329   2.942   0.214  10.134  1.1702 -0.6032 -0.0492
 1837TP3     H117330   3.034   0.189  10.142  1.7254  0.6019 -2.2873
 1837TP3     H217331   2.905   0.148  10.076  0.4547 -1.4566  1.3661
 1838TP3      O17332   2.036   3.848   2.497 -0.2142 -0.4712  0.3562
 1838TP3     H117333   2.122   3.825   2.462  0.5283  1.2997  0.9778
 1838TP3     H217334   2.051   3.861   2.590 -1.0769  0.2867  0.3886
 1839TP3      O17335   4.204   4.772   2.134 -0.2545 -0.2086 -0.7195
 1839TP3     H117336   4.191   4.719   2.056 -1.8953 -0.2344 -0.4411
 1839TP3     H217337   4.117   4.781   2.173  0.4963 -0.0123  0.9927
 1840TP3      O17338   3.417   0.353   8.084  0.1766 -0.2878 -0.0681
 1840TP3     H117339   3.446   0.431   8.132  0.1201  0.3416 -1.0325
 1840TP3     H217340   3.488   0.290   8.096  0.1074 -0.1738  0.9337
 1841TP3      O17341   0.429   1.748   7.860  0.0620  0.1170 -0.4646
 1841TP3     H117342   0.362   1.693   7.821 -0.1992 -0.8578  1.3048
 1841TP3     H217343   0.472   1.791   7.786 -1.3569 -0.5895 -1.6996
 1842TP3      O17344   1.906   4.509   9.149  0.0462  0.3421 -0.4187
 1842TP3     H117345   1.864   4.487   9.066  0.0811  0.4180 -0.4561
 1842TP3     H217346   1.999   4.516   9.127  0.3330 -1.7463  0.0486
 1843TP3      O17347   2.479   3.346   9.235 -1.0371  0.0387  0.0516
 1843TP3     H117348   2.554   3.393   9.199  1.7173 -3.1674  1.4034
 1843TP3     H217349   2.431   3.315   9.158  0.8966 -0.7180 -0.8771
 1844TP3      O17350   3.320   4.203   9.206  0.4504  0.0969 -0.2201
 1844TP3     H117351   3.312   4.120   9.253 -2.5534  1.5450  2.0650
 1844TP3     H217352   3.385   4.253   9.256  0.3232  0.0737 -0.0292
 1845TP3      O17353   3.380   0.605   9.904 -0.3601  0.1148 -0.0953
 1845TP3     H117354   3.308   0.578   9.962  0.2840  0.1600  0.7232
 1845TP3     H217355   3.410   0.689   9.939  1.9105 -1.2024  1.2379
 1846TP3      O17356   0.372   4.270   2.792 -0.3060  0.2906  0.4079
 1846TP3     H117357   0.428   4.253   2.717  0.0655 -0.6983  0.9029
 1846TP3     H217358   0.430   4.313   2.855 -0.1096 -0.7173  0.9140
 1847TP3      O17359   0.383   3.219   9.680 -0.2384  0.4434 -0.1629
 1847TP3     H117360   0.355   3.303   9.644 -0.5016  0.4007 -0.0572
 1847TP3     H217361   0.408   3.166   9.604 -0.9985  0.2761 -0.2971
 1848TP3      O17362   1.671   3.491   8.734  0.0787  0.2743  0.3461
 1848TP3     H117363   1.738   3.520   8.797  1.0170 -0.6880 -0.1915
 1848TP3     H217364   1.710   3.416   8.690 -1.0828  0.1416 -0.4942
 1849TP3      O17365   1.348   2.924   8.663 -0.2621 -0.0527 -0.5428
 1849TP3     H117366   1.295   2.977   8.604  0.2040 -0.6493 -1.5049
 1849TP3     H217367   1.420   2.982   8.688  0.0025 -0.0764 -1.2415
 1850TP3      O17368   2.823   1.104   2.388  0.1053 -0.0494  0.1623
 1850TP3     H117369   2.840   1.016   2.421  1.4285 -0.2710 -1.0339
 1850TP3     H217370   2.852   1.162   2.458 -1.8233 -0.5614  1.4171
 1851TP3      O17371   1.618   4.511   2.109  0.1697 -0.5639 -0.3086
 1851TP3     H117372   1.705   4.552   2.115 -0.0214 -0.2640  0.4508
 1851TP3     H217373   1.632   4.435   2.052  1.1889 -1.2020  0.7723
 1852TP3      O17374   1.385   2.564   7.612  0.3095  0.2203  0.4303
 1852TP3     H117375   1.372   2.475   7.643  1.3342 -0.6358 -1.5258
 1852TP3     H217376   1.339   2.619   7.676  0.4845 -1.6288  2.1634
 1853TP3      O17377   0.224   4.711   1.156  0.0776 -0.3855  0.0508
 1853TP3     H117378   0.255   4.622   1.168  0.0041 -0.2121  1.6404
 1853TP3     H217379   0.292   4.753   1.103  0.0618 -1.4012 -0.7914
 1854TP3      O17380   3.048   3.131   7.086 -0.2656 -0.1370  0.1397
 1854TP3     H117381   2.964   3.088   7.104 -0.9662  1.5171  0.9589
 1854TP3     H217382   3.039   3.218   7.125  1.6592  0.2366 -0.2005
 1855TP3      O17383   4.904   4.734   7.652  0.0186 -0.3210 -0.3716
 1855TP3     H117384   4.929   4.677   7.724 -0.5019 -0.0174  0.0522
 1855TP3     H217385   4.905   4.822   7.689  0.7091 -0.0511 -0.9912
 1856TP3      O17386   1.127   3.006   9.105 -0.0613 -0.1124  0.1390
 1856TP3     H117387   1.145   2.980   9.015 -0.9654 -2.3799  0.5742
 1856TP3     H217388   1.156   2.932   9.158 -0.0451  0.9651  1.6657
 1857TP3      O17389   4.087   2.341   8.982  0.2703 -0.7581 -0.2699
 1857TP3     H117390   4.016   2.386   8.935  1.2145  0.5699 -0.4669
 1857TP3     H217391   4.095   2.391   9.064  1.0092 -0.8731 -0.2770
 1858TP3      O17392   2.599   4.199   9.506  0.0322 -0.1552  0.8907
 1858TP3     H117393   2.511   4.175   9.537 -0.0103 -0.2645  0.6905
 1858TP3     H217394   2.602   4.294   9.515  0.2912 -0.2583  1.9157
 1859TP3      O17395   2.799   1.685   8.305  0.1457 -0.2792 -0.1175
 1859TP3     H117396   2.710   1.703   8.275  0.3910 -0.8015 -1.1841
 1859TP3     H217397   2.828   1.612   8.251  2.4748  2.1367 -2.2601
 1860TP3      O17398   0.492   0.182   1.301  0.3406  0.6621 -0.0340
 1860TP3     H117399   0.473   0.270   1.335 -1.2646  0.7846 -1.1722
 1860TP3     H217400   0.416   0.161   1.247  0.8552 -1.3116 -0.0272
 1861TP3      O17401   5.292   2.131   1.790  0.8722  0.3968 -0.5094
 1861TP3     H117402   5.197   2.132   1.802  1.1450  1.6018  1.6067
 1861TP3     H217403   5.303   2.116   1.696 -1.4026 -0.1932 -0.7118
 1862TP3      O17404   5.197   4.750   9.638  0.2149 -0.0608  0.1765
 1862TP3     H117405   5.286   4.748   9.603  0.1038 -0.9190 -0.0621
 1862TP3     H217406   5.140   4.743   9.561 -0.0421 -0.5440  0.4038
 1863TP3      O17407   2.138   2.709   0.259 -0.2224 -0.0435  0.3110
 1863TP3     H117408   2.125   2.707   0.354  0.0561 -1.7770  0.3298
 1863TP3     H217409   2.058   2.672   0.223 -1.1357  2.4111 -0.2370
 1864TP3      O17410   4.024   3.750   0.740  0.3735 -0.2276 -0.3501
 1864TP3     H117411   4.056   3.686   0.804 -1.7964 -0.9474  0.0613
 1864TP3     H217412   3.955   3.798   0.787  0.3618  0.8212 -1.4104
 1865TP3      O17413   2.811   1.725   0.755 -0.4543 -0.5894 -0.2182
 1865TP3     H117414   2.828   1.807   0.803 -0.6204 -1.5134  1.4370
 1865TP3     H217415   2.721   1.734   0.724 -0.3222  0.0401 -0.4426
 1866TP3      O17416   2.040   0.166   1.130 -0.5107 -0.2181 -0.0787
 1866TP3     H117417   2.009   0.254   1.151 -1.0431 -0.2353 -0.7701
 1866TP3     H217418   2.135   0.174   1.128 -0.6091  1.1509 -3.4343
 1867TP3      O17419   0.680   2.492   1.867  0.1087  0.6508 -0.3516
 1867TP3     H117420   0.660   2.506   1.774  0.3020  1.7807 -0.2386
 1867TP3     H217421   0.618   2.548   1.913 -0.5082 -0.5072  0.2472
 1868TP3      O17422   1.456   2.541   8.483  0.0357 -0.2063 -0.4768
 1868TP3     H117423   1.490   2.465   8.532 -2.2827  0.4128  2.2117
 1868TP3     H217424   1.520   2.611   8.501 -0.9225  0.0951  1.9918
 1869TP3      O17425   4.265   0.534   0.015  0.1838 -0.2746 -0.4016
 1869TP3     H117426   4.253   0.628   0.033  3.0798  0.0730 -0.1192
 1869TP3     H217427   4.302   0.532  -0.074  2.4427 -0.9835  0.5299
 1870TP3      O17428   2.440   3.150   9.013  0.5718 -1.2229 -0.0608
 1870TP3     H117429   2.531   3.179   9.001  0.1495 -0.1407 -0.6982
 1870TP3     H217430   2.439   3.061   8.977  1.1372 -0.8509 -1.0414
 1871TP3      O17431   3.856   2.612   8.283  0.3771 -0.4594  0.1695
 1871TP3     H117432   3.835   2.611   8.377  2.3252  0.5199  0.6367
 1871TP3     H217433   3.929   2.551   8.275  0.8204  0.1746 -0.5714
 1872TP3      O17434   0.986   3.697   8.974 -0.1837  0.5018 -0.4925
 1872TP3     H117435   1.011   3.749   8.897 -1.6025 -0.3959 -1.6025
 1872TP3     H217436   0.972   3.762   9.043 -0.1312  1.4387 -1.3509
 1873TP3      O17437   3.652   1.893   0.948 -0.3012 -0.8293  0.1809
 1873TP3     H117438   3.667   1.987   0.952 -1.1955 -0.5256 -2.4044
 1873TP3     H217439   3.736   1.856   0.921 -0.1022 -0.7283  0.6526
 1874TP3      O17440   4.735   2.809   7.451  0.0459  0.1684 -0.0231
 1874TP3     H117441   4.830   2.807   7.443  0.2213  0.6694  1.6482
 1874TP3     H217442   4.718   2.883   7.509 -1.3738  0.2280 -0.5096
 1875TP3      O17443   2.997   0.961   0.405 -0.1084 -0.0829  0.2159
 1875TP3     H117444   2.966   0.874   0.379 -0.3048  0.6176 -1.9564
 1875TP3     H217445   2.980   1.017   0.329 -0.2444  1.9318  1.6810
 1876TP3      O17446   2.718   2.896   9.252  0.0909  0.3687 -0.0672
 1876TP3     H117447   2.630   2.866   9.274  0.7629 -0.9588  0.8728
 1876TP3     H217448   2.723   2.889   9.157 -0.8875  0.6848 -0.1466
 1877TP3      O17449   0.518   4.146   9.150  0.4984  0.0208  0.3164
 1877TP3     H117450   0.551   4.219   9.203  2.8770  0.3119 -1.4900
 1877TP3     H217451   0.553   4.068   9.193 -0.1537  0.0681  0.9428
 1878TP3      O17452   1.449   0.443   0.744 -0.5688 -0.7171  0.2131
 1878TP3     H117453   1.451   0.359   0.697  2.4779  0.2525 -1.4947
 1878TP3     H217454   1.417   0.506   0.679  2.4372  0.4074 -0.2241
 1879TP3      O17455   1.031   4.986   9.191 -0.2631  0.2943  0.2870
 1879TP3     H117456   1.089   4.939   9.251  0.1992 -1.4337 -1.4654
 1879TP3     H217457   0.946   4.942   9.200 -0.9380  1.8592  1.7467
 1880TP3      O17458   1.782   3.330   7.551  0.1851  0.0650 -0.7407
 1880TP3     H117459   1.731   3.309   7.473 -1.6818  1.3665  0.0902
 1880TP3     H217460   1.822   3.414   7.531  3.5151 -1.7167 -2.0630
 1881TP3      O17461   5.094   0.625   9.221  0.0209  0.1905  0.3999
 1881TP3     H117462   5.059   0.708   9.189 -0.7638 -0.8932 -1.6672
 1881TP3     H217463   5.046   0.609   9.302  1.5943  2.6926  1.8994
 1882TP3      O17464   2.410   4.202   0.255 -0.0903 -0.4729  0.8253
 1882TP3     H117465   2.327   4.227   0.214 -0.1670 -0.4862  0.9732
 1882TP3     H217466   2.460   4.162   0.184 -0.8337 -1.9473  1.1037
 1883TP3      O17467   2.029   1.628   2.858 -0.1826 -0.2203 -0.4901
 1883TP3     H117468   1.988   1.541   2.858  0.0189 -0.3299  0.5526
 1883TP3     H217469   2.084   1.629   2.780  0.1832 -1.2157 -0.2534
 1884TP3      O17470   4.570   1.210   9.918 -0.4734 -0.6880 -0.1535
 1884TP3     H117471   4.570   1.115   9.929  2.8632 -0.8767 -1.3391
 1884TP3     H217472   4.591   1.245  10.005  1.2328 -1.1796 -0.3512
 1885TP3      O17473   2.392   4.706   8.199  0.1495  0.0966  0.7192
 1885TP3     H117474   2.378   4.799   8.183 -1.4160 -0.0438  1.2005
 1885TP3     H217475   2.431   4.673   8.118 -0.9643  0.8106 -0.1124
 1886TP3      O17476   1.114   2.608   0.496  0.3234 -0.2068 -0.3881
 1886TP3     H117477   1.095   2.699   0.475  2.5982  0.7916  1.5604
 1886TP3     H217478   1.209   2.606   0.509  0.0135 -2.3250  1.9229
 1887TP3      O17479   2.707   3.182   8.993 -0.0916 -0.2143  0.0350
 1887TP3     H117480   2.754   3.123   8.935 -1.4281 -0.5001 -0.7798
 1887TP3     H217481   2.771   3.207   9.059  1.2059 -0.5636 -1.0690
 1888TP3      O17482   0.832   1.162   7.597 -0.0960  0.1103  0.2213
 1888TP3     H117483   0.852   1.085   7.543 -0.0637  0.2353  0.0548
 1888TP3     H217484   0.880   1.147   7.678 -0.5628 -0.3314  0.4236
 1889TP3      O17485   2.392   4.957   7.018  0.2332  0.0184 -0.4465
 1889TP3     H117486   2.430   4.901   7.086 -1.0862  0.0897  0.3828
 1889TP3     H217487   2.389   4.902   6.940  0.8705 -0.3841 -0.1903
 1890TP3      O17488   1.708   4.983   7.578 -0.5608  0.0200  0.5731
 1890TP3     H117489   1.697   5.057   7.518  3.0347  0.9647  0.9347
 1890TP3     H217490   1.642   4.920   7.551 -1.6090  2.0618 -1.8308
 1891TP3      O17491   2.456   2.749   8.219 -0.1865 -0.3197  0.3465
 1891TP3     H117492   2.523   2.698   8.265  0.1505 -0.3069 -0.1319
 1891TP3     H217493   2.504   2.819   8.175 -0.5919  0.1091  0.5805
 1892TP3      O17494   4.555   3.420   9.947 -0.0042  0.3629 -0.0324
 1892TP3     H117495   4.576   3.483  10.016  0.1203  1.2490 -0.8798
 1892TP3     H217496   4.627   3.429   9.884  0.2172 -0.8993  0.0245
 1893TP3      O17497   3.234   5.221   9.354  0.4795 -0.1559  0.5552
 1893TP3     H117498   3.294   5.249   9.285 -0.8008  0.0440 -0.4924
 1893TP3     H217499   3.281   5.151   9.399  0.3345 -2.1532 -2.2095
 1894TP3      O17500   4.371   3.791   8.144 -0.4364 -0.3690 -0.4484
 1894TP3     H117501   4.299   3.853   8.161  0.2730  0.0715  0.9804
 1894TP3     H217502   4.446   3.829   8.189  0.5979 -1.0688 -1.5587
 1895TP3      O17503   1.898   1.634   8.960  0.1852 -0.8167 -0.6277
 1895TP3     H117504   1.827   1.697   8.952  0.4545  0.0629  2.7594
 1895TP3     H217505   1.952   1.647   8.882 -1.2185  1.2804 -1.2711
 1896TP3      O17506   2.556   3.984   1.426  0.1215 -0.0363 -0.4181
 1896TP3     H117507   2.647   3.958   1.441 -0.1873  0.3329  2.2642
 1896TP3     H217508   2.506   3.904   1.442 -0.0730 -0.1997 -1.7437
 1897TP3      O17509   3.712   1.129   9.469  0.1101  0.0252  0.1879
 1897TP3     H117510   3.646   1.072   9.509 -0.3933  0.4239 -0.0727
 1897TP3     H217511   3.668   1.167   9.393  1.0083 -0.6095 -0.6786
 1898TP3      O17512   1.885   0.620   8.951 -0.8167 -0.1206  0.2532
 1898TP3     H117513   1.813   0.680   8.930 -1.6688 -0.5814  1.7690
 1898TP3     H217514   1.875   0.549   8.888 -0.2597  0.9369 -1.0621
 1899TP3      O17515   4.926   5.245   9.278  0.0393  0.0989 -0.1486
 1899TP3     H117516   5.008   5.278   9.241  0.1347  0.3359  0.2628
 1899TP3     H217517   4.950   5.215   9.365 -0.2202 -0.2663 -0.2030
 1900TP3      O17518   3.866   0.073   2.443  0.4852 -0.1190 -0.0312
 1900TP3     H117519   3.937   0.046   2.502  0.5797 -0.8276 -0.4625
 1900TP3     H217520   3.903   0.061   2.355 -0.1089 -0.3213 -0.2537
 1901TP3      O17521   3.332   1.658   2.267  0.1981  0.7512  0.0316
 1901TP3     H117522   3.311   1.637   2.176  0.4457 -0.9775  0.3554
 1901TP3     H217523   3.424   1.632   2.276  0.0957  0.6629  0.8384
 1902TP3      O17524   4.221   1.554   7.144 -0.1855  0.0654  0.4920
 1902TP3     H117525   4.147   1.533   7.087 -1.3811  1.0834  1.6122
 1902TP3     H217526   4.260   1.632   7.105  0.0339 -0.2355  0.1188
 1903TP3      O17527   2.493   5.004   7.438  0.8103  0.1359  0.4657
 1903TP3     H117528   2.443   5.085   7.449  0.1421 -0.4827  1.9766
 1903TP3     H217529   2.515   4.976   7.527  0.4671 -1.7209 -0.0141
 1904TP3      O17530   3.461   1.377   9.479 -0.1070 -0.0501 -0.1286
 1904TP3     H117531   3.402   1.325   9.533 -1.4412  1.2983 -0.2651
 1904TP3     H217532   3.542   1.382   9.530  0.0399 -2.1815 -0.0879
 1905TP3      O17533   0.492   4.900   8.549  0.1372 -0.1875 -0.4097
 1905TP3     H117534   0.433   4.930   8.480  0.1012 -2.9365 -1.6150
 1905TP3     H217535   0.536   4.824   8.512  1.8608 -0.2998  1.7597
 1906TP3      O17536   4.946   4.661   2.618  0.2168 -0.1326  0.0710
 1906TP3     H117537   4.990   4.623   2.543  0.9978  1.6924 -0.4317
 1906TP3     H217538   5.013   4.666   2.686  0.3645  1.0992 -0.1493
 1907TP3      O17539   4.042   4.107   8.921 -0.2891  0.2266 -0.1550
 1907TP3     H117540   4.028   4.012   8.917  0.6811  0.0530  0.3669
 1907TP3     H217541   4.019   4.138   8.833  0.1448 -0.6006 -0.5701
 1908TP3      O17542   0.876   0.131   8.125 -0.0911  0.2688  0.2372
 1908TP3     H117543   0.887   0.037   8.139  1.7317  0.3719 -0.4026
 1908TP3     H217544   0.889   0.170   8.212  0.6195  0.0369  0.2406
 1909TP3      O17545   4.395   0.676   0.312 -0.3739  0.3166 -0.0027
 1909TP3     H117546   4.307   0.639   0.299 -0.5491 -0.0287  1.9395
 1909TP3     H217547   4.430   0.687   0.224 -2.8282  1.5604 -0.8709
 1910TP3      O17548   0.980   3.395   9.519 -0.1290 -0.0558  0.2026
 1910TP3     H117549   0.906   3.342   9.549  1.1417 -1.9627  0.1112
 1910TP3     H217550   0.984   3.468   9.581 -2.8973  0.8413 -0.6039
 1911TP3      O17551   4.353   4.698   8.727 -0.2445  0.6017 -0.4544
 1911TP3     H117552   4.409   4.670   8.654  0.9347 -0.4711  0.8153
 1911TP3     H217553   4.270   4.653   8.712  0.3193 -0.4224 -0.6218
 1912TP3      O17554   0.794   2.089   7.148  0.0023 -0.1000 -0.1400
 1912TP3     H117555   0.706   2.054   7.132  0.1454 -0.4301 -0.2209
 1912TP3     H217556   0.780   2.166   7.203 -0.3335 -0.1985 -0.0864
 1913TP3      O17557   2.454   2.703   1.831 -0.1543  0.3954  0.0869
 1913TP3     H117558   2.515   2.696   1.905  0.7923 -0.4142 -0.7475
 1913TP3     H217559   2.489   2.642   1.766 -1.6413  0.2220 -0.5686
 1914TP3      O17560   2.322   1.084   2.473  0.1943 -0.0832  0.3126
 1914TP3     H117561   2.260   1.142   2.518 -0.4285  1.2201 -2.0890
 1914TP3     H217562   2.269   1.039   2.408  1.0595 -1.9570  0.8751
 1915TP3      O17563   4.616   2.407   1.567 -0.2318  0.6212 -0.1144
 1915TP3     H117564   4.525   2.430   1.589  0.3503  2.2310  0.6997
 1915TP3     H217565   4.619   2.410   1.471 -1.2807 -0.4434 -0.1945
 1916TP3      O17566   0.624   3.039   8.537  0.3084 -0.1553  0.0643
 1916TP3     H117567   0.596   3.025   8.447  0.6096 -1.0357  0.0999
 1916TP3     H217568   0.544   3.061   8.584  0.0961 -0.0480 -0.3452
 1917TP3      O17569   3.863   2.355   0.204  0.2257  0.4462  0.8113
 1917TP3     H117570   3.841   2.331   0.114  1.3204  1.4925  0.2381
 1917TP3     H217571   3.857   2.273   0.254 -1.0356 -0.0128 -0.0795
 1918TP3      O17572   3.754   4.031   8.144  0.0735 -0.4511 -0.2415
 1918TP3     H117573   3.737   3.972   8.071 -0.8940  0.1277 -0.4940
 1918TP3     H217574   3.669   4.072   8.162  1.2326  2.6900 -1.6736
 1919TP3      O17575   4.310   4.388   9.982  0.3303 -0.3599  0.2592
 1919TP3     H117576   4.307   4.301   9.941 -0.6880  0.3149 -1.1223
 1919TP3     H217577   4.403   4.404   9.996  0.4780 -2.1843  1.6536
 1920TP3      O17578   0.285   2.102   8.166  0.1534  0.2990  0.5018
 1920TP3     H117579   0.364   2.050   8.150  1.7997  3.2864 -1.5478
 1920TP3     H217580   0.216   2.037   8.175  2.3111 -2.2980 -0.8101
 1921TP3      O17581   1.360   2.189   8.069 -0.2569 -0.5798 -0.0884
 1921TP3     H117582   1.434   2.141   8.106  0.3143  1.0176  0.9029
 1921TP3     H217583   1.308   2.122   8.023  1.3476 -1.8520 -0.0895
 1922TP3      O17584   3.190   0.176   8.976  0.1601  0.0981 -0.5460
 1922TP3     H117585   3.227   0.189   9.064 -1.9632 -1.7485  0.6683
 1922TP3     H217586   3.128   0.249   8.966 -0.7866 -0.5847  0.1869
 1923TP3      O17587   2.459   3.570   9.741  0.3622 -0.4694 -0.2679
 1923TP3     H117588   2.544   3.573   9.699  1.2344  1.3465  1.5549
 1923TP3     H217589   2.479   3.569   9.835 -1.5382 -3.3381  0.1837
 1924TP3      O17590   0.435   0.378   9.477  0.0673 -0.2180 -0.7932
 1924TP3     H117591   0.409   0.469   9.494 -0.5814 -0.5283 -0.0623
 1924TP3     H217592   0.525   0.373   9.507 -0.6200 -0.3892  1.3327
 1925TP3      O17593   0.895   5.221   9.203 -0.4003  0.2149 -0.1100
 1925TP3     H117594   0.923   5.135   9.234  0.6940  0.7566  0.4327
 1925TP3     H217595   0.800   5.217   9.204 -0.3700 -0.3567  1.6929
 1926TP3      O17596   2.080   3.740   9.191  0.4668  0.2756 -0.4417
 1926TP3     H117597   2.125   3.823   9.206  2.1095 -1.0060  1.9206
 1926TP3     H217598   2.019   3.732   9.265  1.3532 -1.2971  0.1360
 1927TP3      O17599   0.345   2.188   7.434 -0.3031  0.3469  0.2522
 1927TP3     H117600   0.281   2.175   7.364 -1.6806  0.9488  1.3770
 1927TP3     H217601   0.394   2.106   7.437 -0.0990  0.3804 -1.5365
 1928TP3      O17602   2.074   4.440   7.799 -0.1534 -0.4095  0.1909
 1928TP3     H117603   2.011   4.447   7.871  0.0200  1.2926  0.2000
 1928TP3     H217604   2.020   4.445   7.720 -0.1323  0.0346  0.2022
 1929TP3      O17605   2.346   5.075   6.645  0.0627 -0.5560 -0.0845
 1929TP3     H117606   2.349   5.119   6.730  0.2061 -1.2723  0.2911
 1929TP3     H217607   2.438   5.065   6.619 -0.0087  0.4337 -0.7365
 1930TP3      O17608   1.884   2.086   0.078 -0.1140  0.4152 -0.0028
 1930TP3     H117609   1.791   2.069   0.091 -0.1648  0.8650  0.2263
 1930TP3     H217610   1.927   2.031   0.144 -0.1100 -1.3503 -1.4534
 1931TP3      O17611   1.467   3.373   7.452  0.4589 -0.6691  0.4785
 1931TP3     H117612   1.384   3.366   7.406  0.8063 -1.0834 -0.0913
 1931TP3     H217613   1.532   3.343   7.389  1.1797  0.8116  0.4958
 1932TP3      O17614   5.214   0.230   9.552 -0.9951 -0.4951 -0.2422
 1932TP3     H117615   5.122   0.232   9.576 -1.3179 -0.6187 -1.4740
 1932TP3     H217616   5.218   0.270   9.465 -0.0963 -1.8793 -0.8632
 1933TP3      O17617   1.006   0.377   8.716 -0.3647 -0.0007  0.2393
 1933TP3     H117618   1.002   0.436   8.640 -0.3449 -1.2139 -0.7226
 1933TP3     H217619   1.089   0.397   8.758  0.2033 -0.1799 -0.7814
 1934TP3      O17620   2.910   2.621   9.233  0.3261 -0.9245 -0.4145
 1934TP3     H117621   2.953   2.672   9.164 -0.7483  1.0489  0.3346
 1934TP3     H217622   2.929   2.670   9.313  1.0127 -2.8499  0.6133
 1935TP3      O17623   0.963   0.382   2.301  0.4146  0.8673  0.0910
 1935TP3     H117624   1.025   0.312   2.283 -0.9142 -0.0208 -1.1321
 1935TP3     H217625   1.010   0.462   2.278  0.9547  0.1814 -1.2359
 1936TP3      O17626   4.041   0.793   9.822 -0.2575 -0.3167 -0.3108
 1936TP3     H117627   4.065   0.818   9.732 -3.6216 -1.3043 -1.5588
 1936TP3     H217628   4.059   0.870   9.874  0.1524  0.8575 -2.1457
 1937TP3      O17629   0.457   3.748   6.799  0.0071 -0.1162 -0.0442
 1937TP3     H117630   0.389   3.785   6.856 -0.7096 -0.6881 -0.5216
 1937TP3     H217631   0.499   3.681   6.853  0.1207  0.1576  0.2122
 1938TP3      O17632   4.667   3.319   9.699 -0.3014 -1.1274  0.1075
 1938TP3     H117633   4.686   3.269   9.619  0.3314 -1.9015  0.7336
 1938TP3     H217634   4.621   3.258   9.756  0.7348 -1.0974  0.9990
 1939TP3      O17635   4.028   3.602   7.956 -0.0775  0.4877  0.4566
 1939TP3     H117636   3.949   3.548   7.961 -0.1286  0.5823  0.7264
 1939TP3     H217637   4.035   3.642   8.043  1.8340 -1.7206  1.3592
 1940TP3      O17638   4.845   2.204   8.955  1.0033  0.0296  0.2394
 1940TP3     H117639   4.934   2.196   8.921  1.1011 -1.4408  0.7983
 1940TP3     H217640   4.856   2.251   9.038  1.5486 -2.0419  1.3838
 1941TP3      O17641   3.092   0.809   7.763  0.1450 -0.1016  0.3200
 1941TP3     H117642   3.041   0.737   7.728  0.9922 -0.4567 -0.2106
 1941TP3     H217643   3.161   0.767   7.815  0.6616  0.3136 -0.0176
 1942TP3      O17644   3.439   3.749   7.835 -0.5066  0.0707 -0.1739
 1942TP3     H117645   3.389   3.829   7.822 -0.0209  0.3867 -0.1011
 1942TP3     H217646   3.385   3.680   7.795 -0.6713  0.5116 -0.7188
 1943TP3      O17647   2.294   1.833   8.388  0.1921  0.3114  0.3491
 1943TP3     H117648   2.199   1.818   8.386 -0.3568  2.7880  3.5297
 1943TP3     H217649   2.303   1.926   8.412  3.3981 -0.3754  2.1329
 1944TP3      O17650   4.423   2.039   8.365 -0.5095  0.2458 -0.0195
 1944TP3     H117651   4.514   2.063   8.383 -0.5664  0.6160 -0.2165
 1944TP3     H217652   4.398   2.095   8.292 -1.2701  0.9944  0.8121
 1945TP3      O17653   4.793   2.932   9.341 -0.1128  0.2579 -0.3693
 1945TP3     H117654   4.718   2.909   9.286  0.3393 -0.8502 -0.5330
 1945TP3     H217655   4.863   2.949   9.279  0.1610 -0.1284 -0.1663
 1946TP3      O17656   1.401   4.505   9.991  0.7340 -0.5384  1.0980
 1946TP3     H117657   1.355   4.430   9.953  0.5743  0.3151 -0.3949
 1946TP3     H217658   1.332   4.565  10.017  0.9351  0.1174  0.1511
 1947TP3      O17659   4.715   2.393   0.267 -0.1455 -0.0796  0.3226
 1947TP3     H117660   4.718   2.468   0.327  0.2909  0.2726 -0.1346
 1947TP3     H217661   4.801   2.393   0.225 -1.0451  0.7464 -1.5992
 1948TP3      O17662   4.324   2.141   7.376  0.3244  0.6939 -0.3538
 1948TP3     H117663   4.325   2.049   7.347  0.7588 -0.2180  2.3613
 1948TP3     H217664   4.356   2.137   7.466  0.4804  3.5622 -0.2543
 1949TP3      O17665   1.214   3.871   8.367 -0.2435  0.1128  0.3020
 1949TP3     H117666   1.259   3.792   8.395  1.9374  1.1422 -0.1608
 1949TP3     H217667   1.241   3.883   8.276 -1.8452  0.4926 -0.1337
 1950TP3      O17668   1.337   0.754   9.147 -0.0574 -0.3474 -0.4684
 1950TP3     H117669   1.261   0.731   9.094 -0.0914  0.6652 -0.8550
 1950TP3     H217670   1.403   0.781   9.084  0.3960 -0.5506 -0.0865
 1951TP3      O17671   4.561   5.135   8.096  0.3827  0.4938  0.0729
 1951TP3     H117672   4.495   5.136   8.027 -0.2513  0.6373  0.6726
 1951TP3     H217673   4.576   5.227   8.117  1.0637  0.4787 -0.3297
 1952TP3      O17674   1.639   5.276   2.419 -0.2914  0.2097 -0.3485
 1952TP3     H117675   1.671   5.324   2.496 -1.1217  0.6014 -0.2358
 1952TP3     H217676   1.689   5.194   2.418  1.2840  1.1488 -0.6445
 1953TP3      O17677   4.948   0.781   7.704 -0.9238  0.5951  0.5275
 1953TP3     H117678   4.950   0.775   7.800 -1.5258  0.2256  0.5218
 1953TP3     H217679   4.858   0.805   7.684 -0.6953  1.0694  0.0731
 1954TP3      O17680   2.330   5.172   8.812 -0.9152  0.4762  0.1596
 1954TP3     H117681   2.285   5.255   8.817 -1.5437  0.1891 -0.6546
 1954TP3     H217682   2.372   5.161   8.898 -0.9054  1.5748  0.2900
 1955TP3      O17683   3.154   4.857   9.338 -0.0091 -0.1789  0.7153
 1955TP3     H117684   3.221   4.884   9.276 -1.3205 -1.1160 -1.1528
 1955TP3     H217685   3.194   4.784   9.386  0.4993 -0.3975 -0.0261
 1956TP3      O17686   5.151   4.969   9.799  0.8424 -0.1774  0.0248
 1956TP3     H117687   5.088   5.019   9.748  0.9929  0.2952  0.3022
 1956TP3     H217688   5.180   4.899   9.740  1.9038  1.0696 -0.9494
 1957TP3      O17689   4.660   2.706   0.382 -0.1036  0.8796 -0.0899
 1957TP3     H117690   4.732   2.760   0.351  0.0816  0.1509 -0.9527
 1957TP3     H217691   4.638   2.741   0.468  0.7673  1.5914 -0.1591
 1958TP3      O17692   2.279   3.113   9.292 -0.5299 -0.3263  0.1764
 1958TP3     H117693   2.240   3.027   9.303 -1.1862  0.0122  0.5765
 1958TP3     H217694   2.314   3.113   9.203 -0.9642 -0.8299  0.0063
 1959TP3      O17695   0.729   2.486   9.692 -0.0219 -0.5747 -0.3565
 1959TP3     H117696   0.799   2.542   9.725  0.4109 -0.4191 -1.5349
 1959TP3     H217697   0.649   2.537   9.707  0.2066 -0.3522  0.1181
 1960TP3      O17698   0.181   4.811   9.287  0.0944 -0.3030  0.2601
 1960TP3     H117699   0.266   4.797   9.327  1.0959 -0.5484 -1.8685
 1960TP3     H217700   0.186   4.765   9.203 -2.4099 -0.9821  0.4193
 1961TP3      O17701   4.888   2.589   1.168  0.1043  0.0514 -0.0401
 1961TP3     H117702   4.892   2.629   1.082 -1.5751 -1.1435 -0.7000
 1961TP3     H217703   4.977   2.597   1.203  0.7887  0.5559 -1.8620
 1962TP3      O17704   4.951   2.194   8.464  0.1642  0.2857 -0.4230
 1962TP3     H117705   5.010   2.219   8.393  0.7258 -0.9131 -0.3937
 1962TP3     H217706   4.970   2.257   8.534 -1.8471  2.7882 -2.0277
 1963TP3      O17707   4.759   3.213   8.118  0.2319 -0.2556  0.0537
 1963TP3     H117708   4.735   3.127   8.154  0.4703  0.2978  1.5702
 1963TP3     H217709   4.727   3.276   8.183  1.1428  0.7464 -0.4508
 1964TP3      O17710   3.764   1.488   1.097  0.0330  0.5981  0.1638
 1964TP3     H117711   3.846   1.536   1.108  1.4090 -1.6128  0.0788
 1964TP3     H217712   3.762   1.465   1.004 -1.1496  1.4066 -0.0198
 1965TP3      O17713   3.937   4.397   8.860 -1.0451  0.8176 -0.5300
 1965TP3     H117714   3.896   4.391   8.946  2.1186 -0.7350  0.9872
 1965TP3     H217715   3.882   4.343   8.804 -0.5812 -2.1598  1.7057
 1966TP3      O17716   2.805   2.586   7.319  0.3798  0.4197 -0.6118
 1966TP3     H117717   2.733   2.582   7.256  0.7099  1.5320 -1.0637
 1966TP3     H217718   2.860   2.658   7.289  0.9600  0.4629  0.5116
 1967TP3      O17719   2.186   5.209   0.323 -0.6606 -0.1870 -0.2986
 1967TP3     H117720   2.229   5.132   0.287  1.8679  0.8570  0.3536
 1967TP3     H217721   2.189   5.197   0.418 -1.4544  0.0644 -0.2437
 1968TP3      O17722   4.846   3.807   7.742  0.3143 -0.1025 -0.2079
 1968TP3     H117723   4.785   3.764   7.802  0.4005 -0.2307 -0.2118
 1968TP3     H217724   4.850   3.750   7.666  0.0609  0.1561 -0.4186
 1969TP3      O17725   3.247   4.275   7.966 -0.5156 -0.5250 -0.1717
 1969TP3     H117726   3.255   4.357   8.014  1.3617  0.6613 -2.4546
 1969TP3     H217727   3.310   4.216   8.009  0.3231  0.1723 -0.4283
 1970TP3      O17728   0.267   1.900   9.399 -0.3011 -0.3935  0.0863
 1970TP3     H117729   0.328   1.866   9.333 -0.8800 -2.3682  0.5191
 1970TP3     H217730   0.224   1.821   9.434 -0.5742  0.6739  2.2549
 1971TP3      O17731   4.528   1.574   9.651  0.8441  0.0052 -0.3906
 1971TP3     H117732   4.484   1.596   9.569 -1.0619  1.6100  1.0276
 1971TP3     H217733   4.600   1.637   9.657 -0.6921  1.7162  0.4944
 1972TP3      O17734   3.265   4.495   0.434  0.0301 -0.5131  0.1815
 1972TP3     H117735   3.171   4.507   0.447  0.3043  2.8043 -0.3520
 1972TP3     H217736   3.296   4.457   0.516 -1.6400 -0.8475  0.6791
 1973TP3      O17737   3.303   4.286   9.725  0.3397 -0.2788 -0.1275
 1973TP3     H117738   3.302   4.190   9.713  0.9971 -0.1019 -1.8360
 1973TP3     H217739   3.393   4.305   9.750  0.4245 -0.0189 -0.6308
 1974TP3      O17740   0.319   1.058   1.374  0.1835  0.3202 -0.5788
 1974TP3     H117741   0.338   1.135   1.426  1.3832 -2.1811  2.8837
 1974TP3     H217742   0.404   1.029   1.341  0.1063 -0.8881  0.2258
 1975TP3      O17743   4.744   2.668  10.099 -0.0184  0.1357 -0.6458
 1975TP3     H117744   4.828   2.623  10.109  0.4803  0.9430 -1.1236
 1975TP3     H217745   4.679   2.606  10.132  1.0001  0.4414  2.0644
 1976TP3      O17746   3.487   1.413   0.396 -0.0599  0.2856 -0.1865
 1976TP3     H117747   3.394   1.392   0.412 -0.3287  0.1310 -1.8769
 1976TP3     H217748   3.520   1.338   0.346  1.1119  0.1275  0.7980
 1977TP3      O17749   0.500   4.429   0.144  0.0671 -0.2619  0.0354
 1977TP3     H117750   0.469   4.354   0.094 -0.5003 -0.4201  0.6280
 1977TP3     H217751   0.530   4.392   0.227  0.5894  0.0611 -0.0036
 1978TP3      O17752   1.164   0.040   7.474 -0.7508 -0.1691 -0.2464
 1978TP3     H117753   1.134   0.123   7.510 -0.0028  0.5469 -1.2508
 1978TP3     H217754   1.107  -0.026   7.515 -0.9359  0.7667  1.0179
 1979TP3      O17755   2.764   0.166   0.754 -0.4721 -0.3875 -0.1044
 1979TP3     H117756   2.714   0.247   0.762 -0.1743 -0.1315 -0.8412
 1979TP3     H217757   2.745   0.134   0.666  0.2837 -0.5419 -0.2119
 1980TP3      O17758   1.648   2.443   2.315  0.3008  0.3672 -0.4443
 1980TP3     H117759   1.729   2.408   2.278  0.9327  2.5594 -1.2094
 1980TP3     H217760   1.665   2.452   2.408  1.2858  1.6425 -0.7284
 1981TP3      O17761   3.796   1.246   1.776 -0.5653  0.6453 -0.1960
 1981TP3     H117762   3.865   1.263   1.713 -1.0932 -0.6637 -1.1526
 1981TP3     H217763   3.807   1.314   1.843  1.1010  0.9589 -0.7685
 1982TP3      O17764   3.918   2.063   1.636  0.3026 -0.0047 -0.3508
 1982TP3     H117765   3.830   2.047   1.671  1.0172 -2.1413  0.5268
 1982TP3     H217766   3.921   2.013   1.555  0.9345 -0.4879 -0.0328
 1983TP3      O17767   3.515   3.623   1.298 -0.0680  0.7701 -0.1910
 1983TP3     H117768   3.498   3.535   1.333  1.0227  1.2658  1.6417
 1983TP3     H217769   3.462   3.681   1.352 -1.4090  1.1986 -1.9140
 1984TP3      O17770   1.630   1.216   8.052  0.4268 -0.0775  0.1316
 1984TP3     H117771   1.535   1.214   8.066  0.4166  0.3106  0.1144
 1984TP3     H217772   1.667   1.197   8.138  0.3342 -0.3882  0.1053
 1985TP3      O17773   1.810   2.589   8.727 -0.5399  0.1758 -0.2263
 1985TP3     H117774   1.840   2.508   8.768 -0.2892 -0.6598 -1.9846
 1985TP3     H217775   1.887   2.647   8.729 -0.8712  0.5609  1.4938
 1986TP3      O17776   3.073   2.863   9.510 -0.1257 -0.0148  0.4183
 1986TP3     H117777   2.978   2.864   9.527 -0.0789  2.0685  0.7988
 1986TP3     H217778   3.106   2.788   9.559 -1.5768 -0.7676  0.2842
 1987TP3      O17779   4.991   0.532   8.679  0.0107  0.3473  0.3564
 1987TP3     H117780   5.005   0.443   8.648 -0.1970 -0.0401  1.3585
 1987TP3     H217781   4.972   0.522   8.773 -1.9827  1.2827  0.0626
 1988TP3      O17782   2.066   4.660   7.322 -0.0979 -0.4065  0.2530
 1988TP3     H117783   1.974   4.685   7.329 -0.4672 -1.1928 -1.3945
 1988TP3     H217784   2.064   4.564   7.316  0.8079 -0.4098 -0.0687
 1989TP3      O17785   3.029   2.950   6.596  0.3096  0.3363 -0.2221
 1989TP3     H117786   3.066   2.947   6.684 -0.8878  0.2625  0.2941
 1989TP3     H217787   2.985   2.865   6.586  0.9087  0.1259 -1.0998
 1990TP3      O17788   1.113   3.101   9.681 -0.6767 -0.3849  0.1233
 1990TP3     H117789   1.120   3.135   9.770  2.3467  0.3384 -0.3158
 1990TP3     H217790   1.192   3.133   9.637 -1.0235 -2.5186 -2.2017
 1991TP3      O17791   4.567   1.616   9.966  0.3485  0.2632  0.1672
 1991TP3     H117792   4.580   1.651   9.878  1.2327 -1.2552 -0.3115
 1991TP3     H217793   4.497   1.670  10.003  0.3585  1.2688 -1.2596
 1992TP3      O17794   1.650   4.578   6.745  0.5536 -0.2170  0.4095
 1992TP3     H117795   1.667   4.495   6.700  0.4560  0.8410 -1.6307
 1992TP3     H217796   1.556   4.592   6.733  0.7019  0.5393  0.1201
 1993TP3      O17797   4.323   1.666   0.148 -0.0799  0.0631  0.1650
 1993TP3     H117798   4.396   1.703   0.199 -0.6233  1.0828  0.2089
 1993TP3     H217799   4.333   1.706   0.061  0.9031 -1.7471 -0.5742
 1994TP3      O17800   2.393   0.516   7.587  0.4278 -0.0425 -0.3173
 1994TP3     H117801   2.411   0.490   7.497  1.3804  0.2991 -0.2347
 1994TP3     H217802   2.325   0.583   7.580  2.1169  1.6562 -0.9683
 1995TP3      O17803   1.682   3.010   8.459  0.2836  0.2383  0.4596
 1995TP3     H117804   1.641   3.005   8.373 -1.4020  1.8356  1.1162
 1995TP3     H217805   1.776   3.017   8.442 -0.0005 -0.0174 -1.2189
 1996TP3      O17806   1.954   2.674   7.581  0.3517 -0.2676 -0.4332
 1996TP3     H117807   1.897   2.748   7.598 -1.7810 -2.1558  0.8382
 1996TP3     H217808   1.921   2.636   7.499 -1.0102 -2.0436  0.8974
 1997TP3      O17809   4.037   4.828   7.435 -0.7502  0.5609  0.6279
 1997TP3     H117810   4.027   4.842   7.341 -2.2265  0.2268  0.7133
 1997TP3     H217811   4.087   4.748   7.443  0.4252  1.2426  0.1296
 1998TP3      O17812   4.743   1.999   8.827  0.2814  0.2436  0.2197
 1998TP3     H117813   4.803   1.943   8.779  0.9835  0.8844  0.3496
 1998TP3     H217814   4.796   2.072   8.857 -0.5601  0.8220  0.3286
 1999TP3      O17815   4.381   1.288   9.316  0.6651  0.3162  0.5561
 1999TP3     H117816   4.348   1.320   9.400  0.6467  1.3398  0.1525
 1999TP3     H217817   4.323   1.327   9.251 -0.2532 -1.6635  0.1403
 2000TP3      O17818   4.087   3.370   9.098 -0.4505 -0.0285 -0.0282
 2000TP3     H117819   4.023   3.307   9.063 -2.2215  1.4033  0.5978
 2000TP3     H217820   4.087   3.441   9.034 -0.1683  0.3972  0.4492
 2001TP3      O17821   3.066   2.255   8.126 -0.0976  0.0398 -0.1981
 2001TP3     H117822   3.118   2.327   8.088 -0.5983  1.4758  1.7764
 2001TP3     H217823   3.129   2.184   8.136  1.3712  1.5088  1.4584
 2002TP3      O17824   1.363   2.660   8.724 -0.5812  0.1634 -0.1392
 2002TP3     H117825   1.348   2.750   8.698  0.6705  0.5425  0.3794
 2002TP3     H217826   1.388   2.615   8.643 -0.7290  0.3888 -0.3097
 2003TP3      O17827   2.456   0.120   7.275 -0.2723  0.1352 -0.1249
 2003TP3     H117828   2.368   0.098   7.245 -0.6162  1.0823  0.1717
 2003TP3     H217829   2.457   0.216   7.278  1.4790  0.2221 -2.2136
 2004TP3      O17830   4.765   4.983   7.347  0.3587  0.5421  0.0865
 2004TP3     H117831   4.802   4.904   7.308  1.5410  0.2226  1.8067
 2004TP3     H217832   4.806   5.055   7.299 -0.6029  0.1310 -1.3758
 2005TP3      O17833   1.460   4.836   8.669  0.0111  0.0670 -0.5318
 2005TP3     H117834   1.406   4.776   8.618 -1.5344  1.3888 -0.5087
 2005TP3     H217835   1.540   4.787   8.688 -0.6803 -1.5095 -1.5985
 2006TP3      O17836   1.030   2.818   8.591  0.3163 -0.5795  0.5535
 2006TP3     H117837   0.943   2.801   8.627 -0.3051 -2.5956 -1.7549
 2006TP3     H217838   1.087   2.826   8.667 -1.6743 -0.5715  2.0599
 2007TP3      O17839   3.756   0.484   0.916 -0.7411 -0.1005  0.2846
 2007TP3     H117840   3.719   0.461   0.831 -1.4318  2.6096 -0.1784
 2007TP3     H217841   3.850   0.497   0.899 -0.9817  1.0550 -0.2139
 2008TP3      O17842   2.408   4.176   9.948  0.0209 -0.0976 -0.0279
 2008TP3     H117843   2.496   4.208   9.926  0.3728  0.1812  1.6509
 2008TP3     H217844   2.353   4.254   9.948  0.4679  0.2522  2.1097
 2009TP3      O17845   4.445   4.090   9.511 -0.5326  0.0135  0.2374
 2009TP3     H117846   4.507   4.018   9.512 -1.4318 -0.7713  0.0723
 2009TP3     H217847   4.451   4.126   9.422 -0.9921 -0.6641 -0.0753
 2010TP3      O17848   1.616   1.666   0.079 -0.2289 -0.1502  0.0932
 2010TP3     H117849   1.574   1.586   0.113  2.5935 -1.1007  1.4878
 2010TP3     H217850   1.706   1.640   0.060  0.0538  2.0936 -1.8867
 2011TP3      O17851   3.569   3.830   8.771  0.2441 -0.1632  0.7592
 2011TP3     H117852   3.648   3.856   8.724 -0.5319  0.8328 -0.0179
 2011TP3     H217853   3.588   3.849   8.863  0.7849  0.4036  0.5338
 2012TP3      O17854   3.454   3.636   2.720  0.1826 -0.1412 -0.1449
 2012TP3     H117855   3.427   3.570   2.656  0.3390  0.7073 -1.1011
 2012TP3     H217856   3.406   3.613   2.800  0.8665 -1.8938 -0.2159
 2013TP3      O17857   2.945   2.902   9.794  0.0604  0.3661  0.3052
 2013TP3     H117858   2.889   2.878   9.720 -0.3775  0.9319  0.4461
 2013TP3     H217859   2.899   2.869   9.871  0.0655  0.5755  0.3983
 2014TP3      O17860   4.558   2.516   8.505 -0.0519  0.0936 -0.3237
 2014TP3     H117861   4.501   2.482   8.574 -2.0512 -0.8687 -2.3832
 2014TP3     H217862   4.628   2.562   8.552 -0.2190 -2.2633  2.4035
 2015TP3      O17863   4.115   4.131   9.287 -0.3508 -0.2517  0.5857
 2015TP3     H117864   4.036   4.084   9.314 -0.2102 -1.9610 -1.8311
 2015TP3     H217865   4.170   4.064   9.246  1.8078  1.1748  1.0568
 2016TP3      O17866   1.242   3.219   7.557 -0.3722 -0.2638  0.1634
 2016TP3     H117867   1.231   3.312   7.542 -2.2959 -0.4367  0.3693
 2016TP3     H217868   1.335   3.208   7.577 -0.8993  2.2249  4.4544
 2017TP3      O17869   1.105   3.424   2.952 -0.0109  0.7629 -0.3716
 2017TP3     H117870   1.048   3.366   3.004 -0.6890  1.1117 -0.7168
 2017TP3     H217871   1.092   3.511   2.990  0.6083  0.7781 -0.1907
 2018TP3      O17872   4.524   3.807   8.687 -0.1110 -0.4191  0.3404
 2018TP3     H117873   4.579   3.802   8.765  0.9148 -0.7221 -0.3869
 2018TP3     H217874   4.474   3.725   8.688 -0.0974 -0.4261  0.6647
 2019TP3      O17875   0.798   1.222   7.020 -0.0609  0.6541 -0.2383
 2019TP3     H117876   0.800   1.226   7.115  0.7308  0.6918 -0.2559
 2019TP3     H217877   0.706   1.204   6.999 -0.4036  1.5448  0.4913
 2020TP3      O17878   4.627   2.768   2.050 -0.1003  0.7524  0.2668
 2020TP3     H117879   4.672   2.717   1.982 -1.4014  1.2580 -0.9970
 2020TP3     H217880   4.574   2.831   2.001 -2.1334  0.2052  1.6995
 2021TP3      O17881   3.859   1.446  10.001 -0.1391  0.1492  0.1878
 2021TP3     H117882   3.770   1.434   9.968  0.0021 -0.6359  0.0863
 2021TP3     H217883   3.909   1.474   9.924 -0.0853 -0.4018  0.0235
 2022TP3      O17884   1.201   4.829   8.041 -0.3150 -0.4657 -0.3982
 2022TP3     H117885   1.214   4.917   8.005  0.6665 -0.4022  0.1056
 2022TP3     H217886   1.106   4.819   8.045 -0.4340  0.2366 -1.2745
 2023TP3      O17887   1.302   1.080   2.985  0.7106 -0.7620 -0.0547
 2023TP3     H117888   1.370   1.116   2.928  0.3242  0.6117  0.3418
 2023TP3     H217889   1.299   1.139   3.060 -2.2197  0.2840 -0.9481
 2024TP3      O17890   3.959   4.100   0.269 -0.0952 -0.0469  0.2041
 2024TP3     H117891   4.016   4.029   0.241  0.2283  0.1716  0.3057
 2024TP3     H217892   3.955   4.091   0.365  1.5862  1.2950  0.4253
 2025TP3      O17893   4.917   4.157   8.695 -0.4526  0.1665 -0.1691
 2025TP3     H117894   5.002   4.134   8.732 -0.6660 -1.0419 -0.3998
 2025TP3     H217895   4.921   4.252   8.683  0.7164  0.1732  0.1807
 2026TP3      O17896   1.362   2.030   9.893 -0.0683 -0.8542  0.1854
 2026TP3     H117897   1.351   1.995   9.982 -0.6902  1.2206  0.9488
 2026TP3     H217898   1.409   2.112   9.905  0.3312 -0.8250 -1.4693
 2027TP3      O17899   2.352   3.234   1.359 -0.0266 -0.1610 -0.0052
 2027TP3     H117900   2.327   3.313   1.407  2.0228  0.3125  0.3436
 2027TP3     H217901   2.437   3.256   1.319  0.8684 -2.3886  0.5780
 2028TP3      O17902   1.923   4.473   0.625  0.0439  0.3328 -0.2719
 2028TP3     H117903   2.002   4.420   0.618 -0.3011 -0.0666 -1.1425
 2028TP3     H217904   1.945   4.556   0.583  0.1497  0.3987 -0.0888
 2029TP3      O17905   0.783   2.278   2.020  0.4957  0.2501  0.6173
 2029TP3     H117906   0.751   2.345   1.959 -1.4950 -0.3394  0.9822
 2029TP3     H217907   0.763   2.313   2.107  1.7398  0.3099  0.8814
 2030TP3      O17908   3.183   0.393   1.236 -0.1441 -0.2169 -0.1743
 2030TP3     H117909   3.227   0.458   1.182  0.9425 -1.1534 -0.4273
 2030TP3     H217910   3.100   0.377   1.191 -0.5652  1.2242  0.0674
 2031TP3      O17911   0.438   0.373   2.737  0.2442  0.6309  0.2695
 2031TP3     H117912   0.501   0.406   2.801  0.9147  1.7454 -0.9418
 2031TP3     H217913   0.491   0.337   2.667 -0.4604  1.6534 -0.8083
 2032TP3      O17914   4.413   3.863   1.550 -0.1164 -0.5331 -0.1835
 2032TP3     H117915   4.484   3.800   1.562 -0.8317 -1.1895  0.7399
 2032TP3     H217916   4.335   3.817   1.581 -0.5375  1.0543  1.1982
 2033TP3      O17917   3.520   1.213   1.723 -0.1172 -0.2410  0.2236
 2033TP3     H117918   3.507   1.292   1.671 -1.8555 -0.9512 -0.4683
 2033TP3     H217919   3.615   1.203   1.729  0.1220  0.4471 -1.9345
 2034TP3      O17920   2.367   3.999   8.235  0.0882 -0.4641  0.1337
 2034TP3     H117921   2.421   3.920   8.239 -1.0257 -1.1953  0.9286
 2034TP3     H217922   2.380   4.041   8.320 -0.4352 -0.5532  0.2619
 2035TP3      O17923   4.232   0.815   0.074  0.1301  0.5189  0.7988
 2035TP3     H117924   4.321   0.848   0.082  0.1751  0.3317  1.1053
 2035TP3     H217925   4.178   0.894   0.066  0.2601  0.6599  1.2796
 2036TP3      O17926   2.535   1.513   9.867 -0.1765  0.1705  0.1213
 2036TP3     H117927   2.614   1.477   9.826 -0.4321  0.1347 -0.3513
 2036TP3     H217928   2.463   1.470   9.821 -0.4542 -0.8152  1.4910
 2037TP3      O17929   0.144   0.518   2.602 -0.0498 -0.7628 -0.2485
 2037TP3     H117930   0.139   0.606   2.564  0.7384  0.3102  2.0113
 2037TP3     H217931   0.077   0.468   2.555  0.1210  0.7827 -2.2095
 2038TP3      O17932   0.009   0.697   7.921  0.1627 -0.2631 -0.3445
 2038TP3     H117933   0.101   0.714   7.942 -0.2691  1.4969  0.2333
 2038TP3     H217934   0.007   0.605   7.896  1.7915 -0.8022  1.3163
 2039TP3      O17935   5.109   1.869   7.473 -0.2594  0.1917 -0.1435
 2039TP3     H117936   5.183   1.899   7.421  0.7271 -2.3403 -0.2618
 2039TP3     H217937   5.093   1.940   7.536  0.7895  1.7264 -1.5935
 2040TP3      O17938   0.278   2.570   1.571  0.0489  0.4352 -0.3641
 2040TP3     H117939   0.213   2.640   1.564 -0.3677 -0.0245 -1.1995
 2040TP3     H217940   0.228   2.489   1.559  0.7674  0.0754 -1.0247
 2041TP3      O17941   0.705   2.627   0.223  0.0437  0.3161  0.1352
 2041TP3     H117942   0.684   2.684   0.149  1.0484 -0.0102 -0.4111
 2041TP3     H217943   0.794   2.595   0.204 -1.1821 -2.8843 -0.5050
 2042TP3      O17944   4.778   1.335   9.255  0.4764 -0.0523 -0.1967
 2042TP3     H117945   4.684   1.339   9.237  0.6947 -1.1746 -1.7518
 2042TP3     H217946   4.788   1.265   9.319  0.0999  1.2241  1.2936
 2043TP3      O17947   3.177   0.570  10.084  0.4113  0.1819 -0.0217
 2043TP3     H117948   3.163   0.523  10.166 -1.1901  0.1189 -0.3165
 2043TP3     H217949   3.193   0.660  10.110  4.5968 -0.6348  0.6226
 2044TP3      O17950   4.436   1.016   7.417  0.4275 -0.1336 -0.0725
 2044TP3     H117951   4.490   1.075   7.469  1.9917 -2.4389  1.0125
 2044TP3     H217952   4.495   0.985   7.348 -0.3677 -0.4287 -0.6240
 2045TP3      O17953   1.919   4.101   9.813  0.3522  0.3429 -0.4237
 2045TP3     H117954   1.855   4.143   9.756  0.4876  1.9358  0.5532
 2045TP3     H217955   1.867   4.064   9.884  0.4507  0.9789 -0.0210
 2046TP3      O17956   2.400   1.119   9.212  0.2300 -0.0937  0.2488
 2046TP3     H117957   2.307   1.098   9.204 -0.0795  1.7858 -1.3492
 2046TP3     H217958   2.404   1.183   9.283  0.2981 -0.1058  0.2557
 2047TP3      O17959   1.731   1.391   1.214  0.0810  0.1096 -0.0892
 2047TP3     H117960   1.672   1.466   1.208  1.2583  1.1013  0.6106
 2047TP3     H217961   1.778   1.403   1.296  0.5061 -1.2299 -0.1196
 2048TP3      O17962   0.532   2.859   9.559 -0.3820 -0.0068  0.3216
 2048TP3     H117963   0.589   2.817   9.495  0.5208  0.1646  0.9899
 2048TP3     H217964   0.516   2.791   9.625 -0.2047  0.2144  0.5956
 2049TP3      O17965   1.640   4.209   1.333  0.1261 -0.2407  0.1051
 2049TP3     H117966   1.698   4.229   1.260  0.9449 -0.5121  0.6706
 2049TP3     H217967   1.642   4.114   1.341  0.1089 -0.2106  0.5264
 2050TP3      O17968   1.558   3.696   2.599 -0.5377  0.4887 -0.7311
 2050TP3     H117969   1.652   3.686   2.615 -0.8860 -0.9416  0.4663
 2050TP3     H217970   1.532   3.616   2.553 -1.2605  0.6965 -0.6942
 2051TP3      O17971   2.502   4.588   6.660 -0.4756  0.2053 -0.2360
 2051TP3     H117972   2.585   4.575   6.706 -0.0842  1.2493 -0.6449
 2051TP3     H217973   2.513   4.541   6.577 -0.1929  0.5760 -0.4083
 2052TP3      O17974   3.308   0.323   9.509  0.0799  0.0951  0.2619
 2052TP3     H117975   3.244   0.338   9.440 -0.9176 -0.2408  1.0889
 2052TP3     H217976   3.324   0.410   9.546 -0.3970  0.0923  0.4784
 2053TP3      O17977   0.371   0.603   8.860 -0.4117 -0.0877 -0.3360
 2053TP3     H117978   0.355   0.601   8.954 -0.2054 -1.1891 -0.3168
 2053TP3     H217979   0.430   0.677   8.847 -1.4548  0.8567  0.2310
 2054TP3      O17980   3.626   4.595   8.212 -0.2449 -0.4561 -0.4802
 2054TP3     H117981   3.566   4.657   8.254 -1.5156 -2.5100  0.8395
 2054TP3     H217982   3.585   4.576   8.128  0.8898  1.5442 -1.5293
 2055TP3      O17983   4.743   0.023   2.760 -0.2762 -0.0451 -0.8650
 2055TP3     H117984   4.751   0.036   2.665 -0.3928  2.1708 -0.5933
 2055TP3     H217985   4.825   0.058   2.796 -0.6765  0.0693 -0.0583
 2056TP3      O17986   1.913   0.218   9.670  0.1118 -0.4213  0.4833
 2056TP3     H117987   1.993   0.204   9.720  1.1560  2.5209 -0.2413
 2056TP3     H217988   1.860   0.276   9.725 -0.4552 -0.3844 -0.0955
 2057TP3      O17989   0.730   1.108  10.053 -0.0689  0.0900  0.9458
 2057TP3     H117990   0.682   1.186  10.025  0.3173 -0.2573 -0.7516
 2057TP3     H217991   0.668   1.060  10.107 -0.6003  1.1476  1.2805
 2058TP3      O17992   4.156   3.805   9.194 -0.3131 -0.0905  0.3782
 2058TP3     H117993   4.062   3.789   9.192 -0.1937 -0.6796 -1.5377
 2058TP3     H217994   4.181   3.808   9.101  1.8004 -1.3750  0.8979
 2059TP3      O17995   0.511   4.388   7.768  0.0751 -0.0629 -0.5437
 2059TP3     H117996   0.484   4.392   7.860 -0.5889  0.0608 -0.7444
 2059TP3     H217997   0.451   4.447   7.723 -0.9532 -1.7512 -1.4062
 2060TP3      O17998   0.839   1.225   2.150 -0.0102  0.3907 -0.5122
 2060TP3     H117999   0.863   1.296   2.210  3.6722  0.6729 -2.2088
 2060TP3     H218000   0.907   1.226   2.083 -2.3618 -1.8805 -3.0630
 2061TP3      O18001   3.255   4.837   0.183  0.1839 -0.1346 -0.3222
 2061TP3     H118002   3.226   4.773   0.118 -1.0855  0.4799 -0.3754
 2061TP3     H218003   3.265   4.787   0.264  1.8981 -0.9305 -0.9908
 2062TP3      O18004   0.931   1.130   0.303 -0.1106  0.3381  0.3318
 2062TP3     H118005   0.990   1.069   0.347 -1.2641 -1.5286 -0.6554
 2062TP3     H218006   0.917   1.200   0.367 -0.7420 -1.6909  2.4775
 2063TP3      O18007   1.329   3.851   9.188 -0.0405  0.5110  0.1901
 2063TP3     H118008   1.351   3.770   9.142  0.4221  0.4722  0.4761
 2063TP3     H218009   1.351   3.920   9.125  1.4643  0.4990  0.6761
 2064TP3      O18010   0.250   2.135  10.078 -0.2506  0.9393 -0.1067
 2064TP3     H118011   0.278   2.058  10.129 -1.1509  0.2924 -0.5716
 2064TP3     H218012   0.161   2.113  10.049 -1.6782  3.3772  2.2222
 2065TP3      O18013   2.437   3.660   9.258  0.1637 -0.4770  0.2618
 2065TP3     H118014   2.446   3.570   9.227  0.3427 -0.5449  0.5125
 2065TP3     H218015   2.352   3.663   9.300  1.2278 -1.2083  2.5389
 2066TP3      O18016   4.859   0.599   8.451 -0.5846  0.2103  0.1866
 2066TP3     H118017   4.802   0.674   8.468  0.4904  0.6538  1.8676
 2066TP3     H218018   4.907   0.585   8.532 -0.5963 -2.1764 -0.1635
 2067TP3      O18019   1.499   0.611   8.048 -0.1382 -0.4716 -0.3758
 2067TP3     H118020   1.511   0.521   8.078  0.5730 -0.2812 -0.0757
 2067TP3     H218021   1.446   0.653   8.115  1.1509 -0.1426  0.4615
 2068TP3      O18022   2.558   0.647   9.694  0.2526 -0.0342 -0.2133
 2068TP3     H118023   2.549   0.736   9.727 -0.2233 -0.8809  2.0701
 2068TP3     H218024   2.469   0.622   9.668 -0.2748 -0.9594  2.2907
 2069TP3      O18025   2.464   5.088   8.291  0.2989  0.2742  0.5857
 2069TP3     H118026   2.408   5.038   8.231  0.0331 -0.8866  1.7969
 2069TP3     H218027   2.505   5.154   8.235 -2.9456  1.7497 -0.2021
 2070TP3      O18028   1.627   2.301   9.183  0.0234  0.5070 -0.2106
 2070TP3     H118029   1.567   2.227   9.177 -0.5102  0.7921  1.5135
 2070TP3     H218030   1.705   2.273   9.135 -1.3980  0.0768 -2.3402
 2071TP3      O18031   1.480   4.529   1.850  0.1870  0.4306 -0.6758
 2071TP3     H118032   1.545   4.463   1.873 -0.1300 -0.2289 -1.6549
 2071TP3     H218033   1.468   4.519   1.756 -1.3230  0.5323 -0.5067
 2072TP3      O18034   2.881   0.644   7.574 -0.1069 -0.0739 -0.0107
 2072TP3     H118035   2.811   0.691   7.620 -1.2490 -0.3916 -1.3738
 2072TP3     H218036   2.945   0.712   7.552 -0.3161  0.3409  0.6590
 2073TP3      O18037   3.978   2.200   7.184 -0.1691 -0.2005 -0.5904
 2073TP3     H118038   4.018   2.114   7.198 -1.4649 -0.4403  1.9205
 2073TP3     H218039   4.023   2.257   7.245 -3.5870 -0.4902  2.3782
 2074TP3      O18040   5.217   4.038   8.157 -0.5855 -0.4766 -0.8763
 2074TP3     H118041   5.129   4.017   8.126  0.3159 -0.1331 -3.8181
 2074TP3     H218042   5.266   4.058   8.078  2.6626 -2.4237  0.5596
 2075TP3      O18043   1.339   4.074   8.992 -0.9847  0.2534  0.5265
 2075TP3     H118044   1.341   4.026   8.910 -1.6159  0.6140  0.2920
 2075TP3     H218045   1.256   4.123   8.989 -1.3703 -0.2989  1.6873
 2076TP3      O18046   2.564   2.727   7.824 -0.8538 -0.4641  0.1035
 2076TP3     H118047   2.658   2.742   7.835 -0.6879 -0.6268 -1.1125
 2076TP3     H218048   2.557   2.638   7.790 -1.3733  0.0965 -1.2658
 2077TP3      O18049   4.321   2.451   0.879  0.1206  0.5146 -0.4816
 2077TP3     H118050   4.332   2.546   0.883  2.1604  0.3203 -0.7998
 2077TP3     H218051   4.395   2.417   0.929 -0.9453 -0.8902  0.1379
 2078TP3      O18052   0.912   0.874   1.056 -0.1964  0.1489 -0.1008
 2078TP3     H118053   0.888   0.816   1.128  0.8684 -0.4490 -0.2173
 2078TP3     H218054   0.966   0.942   1.096 -2.6550  1.9618  0.3065
 2079TP3      O18055   2.764   4.354   9.031 -0.2916 -0.1605  0.5561
 2079TP3     H118056   2.853   4.362   8.998  0.4467  2.1693  2.9617
 2079TP3     H218057   2.773   4.303   9.112 -1.2592 -0.7645  0.2843
 2080TP3      O18058   4.417   4.243   9.772  0.2324 -0.7412 -0.0353
 2080TP3     H118059   4.488   4.305   9.754 -0.1620  0.0145  0.9718
 2080TP3     H218060   4.435   4.169   9.714  0.9817  0.1053 -0.9013
 2081TP3      O18061   3.413   2.930   8.004 -0.0995 -0.3891 -0.1676
 2081TP3     H118062   3.349   2.997   8.029  0.0133 -0.2844 -0.1598
 2081TP3     H218063   3.494   2.979   7.988 -0.0057 -0.5299 -0.1184
 2082TP3      O18064   1.056   0.257   7.575 -0.4199  0.0107 -0.2770
 2082TP3     H118065   1.045   0.287   7.666 -0.1259 -0.2920 -0.1383
 2082TP3     H218066   0.983   0.297   7.528 -1.3546 -0.9007  0.3557
 2083TP3      O18067   2.278   1.915   9.884  0.2698 -0.4157 -0.2939
 2083TP3     H118068   2.364   1.899   9.922  0.3599  3.3841  1.3655
 2083TP3     H218069   2.217   1.871   9.942  0.7732  1.3231  1.6156
 2084TP3      O18070   0.869   1.388   7.947  0.4039 -0.4238 -0.2945
 2084TP3     H118071   0.839   1.360   8.034  0.1768 -1.8419 -0.8155
 2084TP3     H218072   0.790   1.421   7.904  1.0449  3.0230  1.0519
 2085TP3      O18073   2.066   0.504   8.284 -0.4685  0.1288  0.1004
 2085TP3     H118074   2.095   0.463   8.366  0.6193 -0.9746 -0.8183
 2085TP3     H218075   2.014   0.437   8.240  0.6429 -0.0056 -1.0333
 2086TP3      O18076   3.617   1.612   0.551  0.1283  0.0385  0.0213
 2086TP3     H118077   3.571   1.694   0.536  2.4821  1.2062 -1.0184
 2086TP3     H218078   3.565   1.546   0.505 -1.4841  1.0061  0.4379
 2087TP3      O18079   5.042   0.141   8.402 -0.1252  0.0515  0.4530
 2087TP3     H118080   4.967   0.099   8.443 -0.8368  0.9766  0.1355
 2087TP3     H218081   5.058   0.219   8.456  1.7136 -1.0564  1.5475
 2088TP3      O18082   1.647   0.219   0.157  0.1442 -0.5080 -0.4356
 2088TP3     H118083   1.552   0.222   0.151 -0.0176 -0.7913  1.6224
 2088TP3     H218084   1.673   0.147   0.100 -0.7609  0.3915 -2.0083
 2089TP3      O18085   2.412   1.772   0.915 -0.1796 -0.5264 -0.2062
 2089TP3     H118086   2.464   1.720   0.854  0.0678 -0.6356  0.1006
 2089TP3     H218087   2.343   1.713   0.944  0.2879 -0.7758  0.3855
 2090TP3      O18088   2.001   3.953   0.181  0.0046  0.5310  0.0949
 2090TP3     H118089   2.079   3.959   0.236  0.4626 -1.1743 -0.3376
 2090TP3     H218090   1.949   3.883   0.220 -0.7845  0.9040 -0.2692
 2091TP3      O18091   0.476   1.051   9.311 -0.2023 -0.1562  0.3341
 2091TP3     H118092   0.535   1.110   9.266 -0.6017  0.8451  1.1069
 2091TP3     H218093   0.391   1.065   9.269  0.2757 -2.3672 -1.5077
 2092TP3      O18094   2.398   2.517   9.645  0.4273 -0.1910 -0.0848
 2092TP3     H118095   2.407   2.611   9.631 -0.2199  0.4846  3.5321
 2092TP3     H218096   2.304   2.502   9.652  0.6342 -0.3486  3.3872
 2093TP3      O18097   3.880   4.254   9.089 -0.4572 -0.2862  0.0578
 2093TP3     H118098   3.798   4.245   9.040  1.3429  2.3576 -3.6266
 2093TP3     H218099   3.938   4.189   9.050  0.2779  0.2279  0.2919
 2094TP3      O18100   2.103   1.678   0.339  0.6274  0.4760  0.4032
 2094TP3     H118101   2.196   1.660   0.324  0.3439 -1.5324  0.9851
 2094TP3     H218102   2.092   1.669   0.434 -0.5884 -1.4429  0.1001
 2095TP3      O18103   0.884   2.535   7.380  0.2187  0.2422  0.0604
 2095TP3     H118104   0.929   2.571   7.304  0.8053 -1.0961 -0.2404
 2095TP3     H218105   0.952   2.529   7.447  0.1004 -0.2087  0.1401
 2096TP3      O18106   4.167   4.607  10.009  0.0716 -0.3100  0.1871
 2096TP3     H118107   4.223   4.532   9.987 -0.6007 -1.3622  1.9424
 2096TP3     H218108   4.165   4.608  10.105 -1.2098  0.9987  0.1656
 2097TP3      O18109   1.798   3.410   0.423  0.5495  0.5421 -0.4321
 2097TP3     H118110   1.723   3.468   0.435  0.2131 -0.3649  2.1984
 2097TP3     H218111   1.836   3.437   0.340 -1.6594  2.1783 -0.9587
 2098TP3      O18112   1.430   4.227   2.934  0.0287 -0.0591 -0.5825
 2098TP3     H118113   1.482   4.193   3.006  0.6849  1.0228 -0.5305
 2098TP3     H218114   1.490   4.229   2.860 -0.0750  0.6954 -0.6547
 2099TP3      O18115   4.725   1.565   0.751  0.2566  0.2994 -0.1096
 2099TP3     H118116   4.705   1.472   0.742  0.2876  0.2766  0.0466
 2099TP3     H218117   4.741   1.577   0.845 -2.0387  0.9226  0.2259
 2100TP3      O18118   3.281   1.876   9.498  0.2031  0.4760 -0.3887
 2100TP3     H118119   3.336   1.799   9.513  0.9374  0.8779 -0.9593
 2100TP3     H218120   3.271   1.879   9.402  1.4424  1.9450 -0.4971
 2101TP3      O18121   1.156   4.907   7.726 -0.0365 -0.0155  0.1400
 2101TP3     H118122   1.193   4.922   7.640 -0.5999  0.1304 -0.0799
 2101TP3     H218123   1.155   4.993   7.768 -0.3507  0.0234  0.0541
 2102TP3      O18124   1.564   3.388   8.441 -0.1266  0.0561  0.1896
 2102TP3     H118125   1.528   3.330   8.374 -0.3184  1.1823 -0.6978
 2102TP3     H218126   1.653   3.354   8.456 -0.5990 -1.0987  0.4436
 2103TP3      O18127   2.761   4.164   7.759 -0.1277  0.0351  0.2421
 2103TP3     H118128   2.829   4.210   7.709  0.5511 -0.2621  0.8890
 2103TP3     H218129   2.705   4.234   7.792 -0.5286  0.2424 -0.8503
 2104TP3      O18130   3.014   0.946   9.215  0.3108  0.0694 -0.3481
 2104TP3     H118131   3.097   0.981   9.248 -0.3372  0.6298  0.7045
 2104TP3     H218132   3.040   0.882   9.148  1.5219  1.7508 -1.5207
 2105TP3      O18133   0.068   0.692   9.430  0.9384 -0.0260  0.3211
 2105TP3     H118134  -0.021   0.658   9.442 -0.0020  2.3702  0.4618
 2105TP3     H218135   0.117   0.658   9.505 -0.3280  0.1335  1.2407
 2106TP3      O18136   0.062   1.349   8.768  0.0138 -0.0549  0.0886
 2106TP3     H118137  -0.024   1.345   8.726 -0.1986  0.9729  0.4187
 2106TP3     H218138   0.050   1.300   8.850 -0.6201  1.2022  0.7540
 2107TP3      O18139   2.887   2.327   0.386 -0.7058  0.2734  0.2016
 2107TP3     H118140   2.962   2.377   0.417 -0.3257 -0.1499 -0.0275
 2107TP3     H218141   2.919   2.284   0.306 -1.7524  1.6222 -0.9885
 2108TP3      O18142   1.076   1.764   2.066  0.1665  0.2449  0.0791
 2108TP3     H118143   1.116   1.811   2.139  1.3041  0.2386 -0.5320
 2108TP3     H218144   1.040   1.833   2.010  1.4169  0.3935 -0.5723
 2109TP3      O18145   3.020   4.067   9.103  0.0047 -0.0519  0.3365
 2109TP3     H118146   3.113   4.084   9.087  0.0919 -0.7367  0.0711
 2109TP3     H218147   3.019   3.990   9.161 -0.3862  0.2691  0.7563
 2110TP3      O18148   3.442   0.208   0.112  0.3014  0.5466  0.0219
 2110TP3     H118149   3.482   0.198   0.025 -0.8264 -0.8690 -0.3732
 2110TP3     H218150   3.512   0.187   0.174  1.0489  1.3272 -0.5503
 2111TP3      O18151   0.777   3.800   8.460 -0.1887  0.2422 -0.9691
 2111TP3     H118152   0.706   3.844   8.413  0.1070  0.2234 -1.4296
 2111TP3     H218153   0.797   3.724   8.406  0.5408  0.5344 -1.1069
 2112TP3      O18154   1.453   0.237   8.354  0.2281  0.1384  0.3749
 2112TP3     H118155   1.520   0.277   8.409 -0.4610  0.2152  1.1640
 2112TP3     H218156   1.498   0.165   8.310  1.3584  1.4944 -0.7146
 2113TP3      O18157   0.734   4.096   8.354  0.0440  0.2419  1.0464
 2113TP3     H118158   0.694   4.050   8.280 -1.3542  2.2116  0.5095
 2113TP3     H218159   0.784   4.167   8.314 -0.0698  0.8384  1.9248
 2114TP3      O18160   0.952   2.610   9.797  0.2579  0.1559 -0.6551
 2114TP3     H118161   0.913   2.696   9.811  0.5837  0.1649  0.1850
 2114TP3     H218162   1.046   2.625   9.796  0.2911 -0.0689 -1.3489
 2115TP3      O18163   0.305   4.997   2.246  0.2456 -0.6713 -0.2898
 2115TP3     H118164   0.391   4.983   2.206  0.7401 -2.3262  1.3260
 2115TP3     H218165   0.318   5.068   2.308 -0.0013  0.3263 -1.3492
 2116TP3      O18166   1.573   0.333   9.765 -0.2339 -0.4116 -0.1126
 2116TP3     H118167   1.563   0.270   9.693  0.3234 -0.2324 -0.3491
 2116TP3     H218168   1.495   0.388   9.759 -0.1238 -0.3070 -0.6743
 2117TP3      O18169   4.948   3.230   1.108  0.4507  0.9717 -0.4905
 2117TP3     H118170   5.015   3.284   1.066  1.1820 -0.3452 -1.0422
 2117TP3     H218171   4.990   3.198   1.188  0.5933 -0.1176 -0.9983
 2118TP3      O18172   1.128   2.851   0.321 -0.2284 -0.6461  0.1081
 2118TP3     H118173   1.167   2.933   0.352 -1.7021  0.1527 -0.1193
 2118TP3     H218174   1.048   2.878   0.276 -0.5985 -2.1902 -0.1798
 2119TP3      O18175   2.142   2.424   9.178 -0.1808 -0.0047  0.8526
 2119TP3     H118176   2.110   2.479   9.106  0.4581  2.4123  2.3297
 2119TP3     H218177   2.089   2.345   9.173 -2.3318  1.4317 -0.3688
 2120TP3      O18178   1.590   1.999   0.105 -0.7311 -0.0444 -0.2095
 2120TP3     H118179   1.510   2.051   0.115  0.6143  2.1257 -0.3011
 2120TP3     H218180   1.602   1.990   0.011  0.0450  1.1632 -0.2451
 2121TP3      O18181   0.735   1.816   2.458  0.5395 -0.0683  0.0614
 2121TP3     H118182   0.653   1.780   2.492  1.2109 -0.3079  1.4813
 2121TP3     H218183   0.766   1.751   2.396  0.1007 -0.3833  0.1720
 2122TP3      O18184   1.112   3.114   6.853  0.3232 -0.0687  0.1465
 2122TP3     H118185   1.094   3.174   6.926 -0.9337 -0.6962  0.3500
 2122TP3     H218186   1.154   3.170   6.787 -1.0321  1.0840  0.2508
 2123TP3      O18187   3.696   3.215   0.491  0.3953 -0.3836 -0.1117
 2123TP3     H118188   3.683   3.307   0.512 -1.7477 -0.4107 -1.1327
 2123TP3     H218189   3.679   3.210   0.397  0.9669 -1.7394 -0.1522
 2124TP3      O18190   2.659   0.539   2.309 -0.5115  0.3510 -0.6250
 2124TP3     H118191   2.723   0.502   2.249 -0.2544  1.8475 -1.2876
 2124TP3     H218192   2.649   0.473   2.378  1.0067 -0.2987 -1.0246
 2125TP3      O18193   2.660   2.081   0.246  0.3750  0.3837  0.7720
 2125TP3     H118194   2.622   2.041   0.169  0.9513  1.8573 -0.3084
 2125TP3     H218195   2.718   2.014   0.282 -1.1152 -0.8750  0.8623
 2126TP3      O18196   1.895   0.295   8.192  0.2538  0.3537  0.7026
 2126TP3     H118197   1.841   0.272   8.267 -0.8325 -0.4291 -0.2884
 2126TP3     H218198   1.837   0.282   8.116  2.1430 -1.5915 -0.4875
 2127TP3      O18199   4.028   1.474   9.786 -0.5697  0.3517 -0.3962
 2127TP3     H118200   3.971   1.488   9.710 -0.1105 -0.6125 -0.9261
 2127TP3     H218201   4.085   1.402   9.760  0.3342  0.7523  0.4576
 2128TP3      O18202   1.182   3.071   0.800 -0.4137 -0.4781  0.3491
 2128TP3     H118203   1.128   2.994   0.780 -0.3725 -0.4563  0.1484
 2128TP3     H218204   1.122   3.133   0.842 -0.6100 -0.3453 -0.1272
 2129TP3      O18205   3.664   4.652   1.626 -0.5239  0.1535  0.0155
 2129TP3     H118206   3.678   4.576   1.570  0.6682 -0.4968  1.1927
 2129TP3     H218207   3.569   4.668   1.621 -0.5215 -0.2875 -1.6606
 2130TP3      O18208   3.671   4.866   1.778  0.3947 -0.1401  0.2648
 2130TP3     H118209   3.587   4.858   1.824 -0.1652  1.3590 -0.4788
 2130TP3     H218210   3.674   4.789   1.721 -1.3553  0.7592 -1.0971
 2131TP3      O18211   4.426   3.027   0.286 -0.0655  0.2703 -0.1703
 2131TP3     H118212   4.399   2.970   0.359  0.4494 -1.6268 -1.4304
 2131TP3     H218213   4.431   2.969   0.211  2.1718  1.6774 -1.1413
 2132TP3      O18214   2.231   3.725   0.255 -0.0254  0.4117 -0.5552
 2132TP3     H118215   2.309   3.680   0.287 -0.5612  1.1400  1.8344
 2132TP3     H218216   2.203   3.779   0.328 -2.7143  0.2540 -1.4392
 2133TP3      O18217   2.399   1.121   7.699  0.7900  0.0558 -0.0993
 2133TP3     H118218   2.397   1.104   7.605  2.4114 -1.5375  0.1152
 2133TP3     H218219   2.434   1.040   7.737  0.7011  0.8921  1.8185
 2134TP3      O18220   4.160   4.745   2.993  0.2166 -0.8529  0.4663
 2134TP3     H118221   4.116   4.807   2.935  0.3428 -0.5732  0.6668
 2134TP3     H218222   4.090   4.687   3.024 -0.2612  0.4835  1.9116
 2135TP3      O18223   2.053   3.629   1.590 -0.6399  0.4346 -0.2517
 2135TP3     H118224   2.001   3.623   1.510 -0.9272  4.4784 -0.4872
 2135TP3     H218225   1.994   3.666   1.655  0.7178  1.0383  0.6804
 2136TP3      O18226   2.392   5.249   7.483 -0.3030 -0.0000  0.1622
 2136TP3     H118227   2.411   5.327   7.432  1.7138  0.2018  1.1744
 2136TP3     H218228   2.435   5.264   7.568  0.0668 -2.1501  0.3988
 2137TP3      O18229   5.208   5.285   8.042 -0.0780  0.0655  0.3492
 2137TP3     H118230   5.215   5.234   8.123  0.2781  0.0136  0.2860
 2137TP3     H218231   5.120   5.323   8.046 -0.6887 -1.2710 -0.0323
 2138TP3      O18232   2.205   1.485   8.009  0.2147  0.1283 -0.3086
 2138TP3     H118233   2.238   1.399   7.982  1.8384 -0.4836  3.2610
 2138TP3     H218234   2.140   1.508   7.943  1.8167 -2.5201 -2.9310
 2139TP3      O18235   4.264   2.226   1.799  0.3703 -0.2095  0.1950
 2139TP3     H118236   4.274   2.238   1.893  2.6233  1.1335 -0.1863
 2139TP3     H218237   4.272   2.132   1.786  0.1408 -0.3932  1.3233
 2140TP3      O18238   2.215   0.929   2.290  0.3289 -0.2256 -0.4198
 2140TP3     H118239   2.190   0.856   2.347 -0.2664 -0.8224 -1.4432
 2140TP3     H218240   2.152   0.926   2.218 -0.4760  2.0586  0.1470
 2141TP3      O18241   3.912   0.949   8.838 -0.4682 -0.1864  0.1230
 2141TP3     H118242   3.943   0.873   8.888  1.5768  0.4671 -0.1344
 2141TP3     H218243   3.940   1.025   8.890 -2.6009  0.4172  0.4320
 2142TP3      O18244   0.166   4.490   8.655 -0.6635 -0.1726 -0.2508
 2142TP3     H118245   0.133   4.510   8.568 -0.8301 -1.1207 -0.4151
 2142TP3     H218246   0.252   4.452   8.640 -0.4662  0.1598  0.0329
 2143TP3      O18247   3.565   4.753   9.902 -0.0617  0.4192  0.0506
 2143TP3     H118248   3.525   4.687   9.845  2.1881 -0.5805 -0.4388
 2143TP3     H218249   3.565   4.713   9.989  1.0845 -0.1354 -0.2006
 2144TP3      O18250   0.230   2.963   2.409  0.9106 -0.6550  0.0376
 2144TP3     H118251   0.170   2.900   2.368  2.1345 -0.8261 -1.5410
 2144TP3     H218252   0.200   3.048   2.376  2.4046 -0.8562 -1.9625
 2145TP3      O18253   4.500   0.106   2.657  0.1605  0.1023 -0.0922
 2145TP3     H118254   4.581   0.099   2.708 -1.8672 -0.0616  3.2595
 2145TP3     H218255   4.462   0.190   2.684 -1.5531 -0.5531 -0.3851
 2146TP3      O18256   4.458   0.035   8.480  0.2752  0.0082 -0.7117
 2146TP3     H118257   4.531  -0.026   8.471  0.2051  0.1554 -2.4996
 2146TP3     H218258   4.418   0.013   8.564  1.8364 -0.6626 -0.1323
 2147TP3      O18259   2.798   3.349   1.651 -0.4100  0.1317  0.3354
 2147TP3     H118260   2.735   3.417   1.628 -0.6431  0.4609  1.8605
 2147TP3     H218261   2.838   3.324   1.568 -1.5577  0.9023 -0.4669
 2148TP3      O18262   3.397   0.921   8.956 -0.0079  0.5007 -0.0244
 2148TP3     H118263   3.316   0.959   8.923  0.1884  0.0350 -1.0730
 2148TP3     H218264   3.439   0.992   9.005 -0.9932  0.7719  0.4442
 2149TP3      O18265   3.415   2.555   1.354  1.0315 -0.1524  0.2142
 2149TP3     H118266   3.332   2.591   1.386 -0.4038 -2.3298 -0.9768
 2149TP3     H218267   3.464   2.632   1.323 -1.3262  0.9547 -0.8608
 2150TP3      O18268   1.805   1.014   1.274 -0.0764 -0.4287 -0.5021
 2150TP3     H118269   1.715   1.045   1.289  0.2883  0.6902 -0.5969
 2150TP3     H218270   1.794   0.935   1.221 -1.0068 -0.3062 -0.5056
 2151TP3      O18271   1.059   4.191   9.879 -0.3111 -0.7799  0.1802
 2151TP3     H118272   1.072   4.170   9.787 -2.8570 -2.1810  0.0772
 2151TP3     H218273   1.137   4.240   9.904 -0.4364  1.3456 -3.2347
 2152TP3      O18274   1.669   4.311   6.684  0.7986 -0.2467 -0.6234
 2152TP3     H118275   1.577   4.313   6.658  0.8899  1.8702 -0.8267
 2152TP3     H218276   1.667   4.279   6.775 -0.0520 -1.0909 -0.9319
 2153TP3      O18277   4.152   2.637   0.356  0.1594 -0.2503  0.5025
 2153TP3     H118278   4.195   2.648   0.441 -1.7162  1.6311  1.2783
 2153TP3     H218279   4.222   2.652   0.292  1.1461  0.5222  1.7182
 2154TP3      O18280   2.054   2.585   8.953 -0.2128 -0.0772 -0.0154
 2154TP3     H118281   2.070   2.625   8.868 -0.3096 -1.6321 -0.7684
 2154TP3     H218282   1.962   2.606   8.972 -0.7943 -1.4371 -1.2332
 2155TP3      O18283   0.572   1.734   9.894  0.1974  0.3297  0.2019
 2155TP3     H118284   0.514   1.768   9.825 -1.4682  0.8944  1.8465
 2155TP3     H218285   0.513   1.709   9.965  2.0344  1.8936  2.3605
 2156TP3      O18286   3.606   1.195   0.269 -0.0645  0.1283  0.1570
 2156TP3     H118287   3.579   1.126   0.208 -1.5324 -1.7429  2.8660
 2156TP3     H218288   3.697   1.172   0.291 -0.4527 -0.7619  0.8264
 2157TP3      O18289   0.744   3.953   7.494  0.0457 -0.2441  0.0245
 2157TP3     H118290   0.727   4.046   7.512  0.0804 -0.8468  3.5691
 2157TP3     H218291   0.832   3.937   7.530 -0.9659 -2.1802  1.7567
 2158TP3      O18292   0.301   0.524   8.399 -0.3414 -0.3363  0.4295
 2158TP3     H118293   0.358   0.600   8.404 -1.1329  0.2317  1.0614
 2158TP3     H218294   0.345   0.465   8.338  0.5457  0.3962  0.3438
 2159TP3      O18295   2.791   2.474   1.249  0.4499 -0.4225 -0.2760
 2159TP3     H118296   2.767   2.533   1.321  0.9301  0.5519 -0.8943
 2159TP3     H218297   2.784   2.386   1.286 -2.4357 -0.1133  0.0283
 2160TP3      O18298   2.198   4.902   1.430 -0.0830  0.0382 -0.5595
 2160TP3     H118299   2.128   4.895   1.494 -0.5910 -2.9081 -1.3589
 2160TP3     H218300   2.202   4.995   1.408 -0.7060  0.9088  2.7982
 2161TP3      O18301   3.484   1.327   8.255 -0.6180 -0.4441  0.0247
 2161TP3     H118302   3.473   1.403   8.313  0.3989 -2.1007  2.4549
 2161TP3     H218303   3.567   1.343   8.210 -0.9724  0.4214 -0.3408
 2162TP3      O18304   4.664   2.258   9.800  0.2841 -0.6024 -0.3601
 2162TP3     H118305   4.597   2.257   9.869 -0.0847  0.1608 -0.7022
 2162TP3     H218306   4.614   2.260   9.718  0.7062  0.8580 -0.6021
 2163TP3      O18307   0.289   4.124   0.474  0.0094 -0.0083 -0.0156
 2163TP3     H118308   0.200   4.110   0.506  0.1834 -1.6799 -0.1917
 2163TP3     H218309   0.278   4.159   0.386 -0.4708  1.6113  0.6804
 2164TP3      O18310   2.725   1.468   9.306 -0.0192  0.0154 -0.1198
 2164TP3     H118311   2.651   1.433   9.355 -0.1191 -0.2819 -0.4903
 2164TP3     H218312   2.688   1.497   9.223  0.3859 -0.6772 -0.5409
 2165TP3      O18313   5.068   0.239   8.131 -0.1475 -0.1232 -0.0877
 2165TP3     H118314   5.163   0.233   8.120 -0.0182  0.5518  0.6044
 2165TP3     H218315   5.054   0.216   8.223 -0.6726 -0.3540 -0.2268
 2166TP3      O18316   2.643   1.320   1.421 -0.2269 -1.0517 -0.5617
 2166TP3     H118317   2.577   1.252   1.408  1.3019 -2.7004  0.0235
 2166TP3     H218318   2.660   1.354   1.333 -3.3793  0.9668 -0.5029
 2167TP3      O18319   1.456   1.247   0.141  0.0792 -0.1618 -0.0190
 2167TP3     H118320   1.474   1.261   0.048 -0.4714 -1.4758 -0.3258
 2167TP3     H218321   1.533   1.200   0.173  0.8600  1.4327  0.4907
 2168TP3      O18322   3.459   1.042   7.794  0.4021  0.1093 -0.3283
 2168TP3     H118323   3.417   0.975   7.740 -0.1115 -0.3668  0.6389
 2168TP3     H218324   3.470   1.117   7.736 -0.8379 -0.1359 -0.8832
 2169TP3      O18325   4.266   0.239   1.317 -0.9987 -0.2081  0.6708
 2169TP3     H118326   4.206   0.294   1.266 -1.2020 -0.0465  1.0745
 2169TP3     H218327   4.230   0.151   1.310 -0.6127 -0.3094 -0.0668
 2170TP3      O18328   3.033   0.855   8.036  0.2586 -0.1410 -0.0435
 2170TP3     H118329   2.945   0.859   8.071  0.2722  1.4086 -0.1578
 2170TP3     H218330   3.041   0.932   7.981  0.6966 -1.8118 -2.4066
 2171TP3      O18331   4.190   3.343   1.309  0.3264 -0.3993 -0.5264
 2171TP3     H118332   4.230   3.363   1.394  1.1627  0.2414 -1.0711
 2171TP3     H218333   4.260   3.301   1.259 -0.4153 -1.5810 -0.6098
 2172TP3      O18334   3.894   3.770   1.504  0.0741  0.0602  0.1428
 2172TP3     H118335   3.897   3.681   1.469  0.4209 -0.9038  2.5363
 2172TP3     H218336   3.955   3.819   1.448  2.2373 -1.9055  0.6525
 2173TP3      O18337   1.862   4.204   2.365  0.8928 -0.6285  0.2510
 2173TP3     H118338   1.832   4.114   2.380  2.0783 -1.0975 -0.0981
 2173TP3     H218339   1.783   4.253   2.343 -0.2402 -0.8877  3.5364
 2174TP3      O18340   3.912   4.294  10.046  0.2873  0.1114 -0.6452
 2174TP3     H118341   3.975   4.311  10.117 -1.3442 -0.4299  0.9625
 2174TP3     H218342   3.829   4.328  10.079 -0.8970 -1.8623 -1.5201
 2175TP3      O18343   2.021   3.572   8.123  0.4389  0.0675 -0.1220
 2175TP3     H118344   1.984   3.483   8.128  2.6177 -0.7972  2.2826
 2175TP3     H218345   2.062   3.576   8.037 -3.4378  0.3867 -2.0767
 2176TP3      O18346   0.142   4.148   9.482  0.7733 -0.6338  0.0798
 2176TP3     H118347   0.083   4.079   9.514  0.4771  0.1317  1.2294
 2176TP3     H218348   0.141   4.138   9.387 -1.4534 -0.4555  0.0544
 2177TP3      O18349   0.842   5.241   7.337 -0.1127 -0.6183  0.2692
 2177TP3     H118350   0.822   5.183   7.264  1.4651 -1.6077  0.5904
 2177TP3     H218351   0.846   5.328   7.299 -3.3036 -0.5559 -0.0903
 2178TP3      O18352   3.205   2.406   7.937 -0.6282 -0.3414 -0.4468
 2178TP3     H118353   3.253   2.489   7.946  0.9453 -1.4913  2.4750
 2178TP3     H218354   3.254   2.358   7.869 -0.2353  0.2265 -0.5752
 2179TP3      O18355   2.533   2.932   0.065 -0.0294 -0.3849  0.1449
 2179TP3     H118356   2.569   2.843   0.057  0.1794 -0.5641  2.6380
 2179TP3     H218357   2.441   2.919   0.086 -0.2771  0.0112 -0.6862
 2180TP3      O18358   2.223   2.098   8.317  0.2377  0.1606  0.6300
 2180TP3     H118359   2.255   2.162   8.252  0.4667 -0.2744  0.3151
 2180TP3     H218360   2.145   2.060   8.276 -1.3414  1.9989  1.8470
 2181TP3      O18361   3.552   1.965   2.266 -0.4135  0.1297  0.4122
 2181TP3     H118362   3.610   1.953   2.191 -0.0908  0.5795  0.5813
 2181TP3     H218363   3.612   1.981   2.339 -0.5229 -4.1424  1.5810
 2182TP3      O18364   1.487   4.498   9.273 -0.0736 -0.3721  0.5768
 2182TP3     H118365   1.475   4.439   9.199 -0.1044  0.4544 -0.0845
 2182TP3     H218366   1.400   4.506   9.312 -0.5751  1.1380 -0.8000
 2183TP3      O18367   5.215   4.271   0.768 -0.6435 -0.2774 -0.1818
 2183TP3     H118368   5.290   4.303   0.819 -0.1936 -1.3777 -0.1478
 2183TP3     H218369   5.140   4.319   0.803 -0.2816 -0.7311  1.2506
 2184TP3      O18370   2.987   1.592   0.613  0.2820  0.1362  0.5717
 2184TP3     H118371   2.927   1.651   0.660  0.6957 -0.5294  1.9789
 2184TP3     H218372   3.042   1.555   0.682  0.7611 -1.0534 -0.4353
 2185TP3      O18373   4.628   2.193   2.008 -0.1409 -0.0059  0.0820
 2185TP3     H118374   4.579   2.267   2.044 -0.3727 -0.2571  0.2831
 2185TP3     H218375   4.564   2.123   1.998  0.0574 -0.1473 -0.2087
 2186TP3      O18376   4.740   0.593   9.816 -0.7214  0.3630  0.5947
 2186TP3     H118377   4.681   0.526   9.782  0.9887 -0.7749 -0.1703
 2186TP3     H218378   4.747   0.657   9.745  0.4244 -0.4494 -0.0315
 2187TP3      O18379   2.247   0.920   7.314 -0.4754 -0.1695 -0.3083
 2187TP3     H118380   2.211   0.854   7.374 -1.9851 -0.8333 -1.8846
 2187TP3     H218381   2.314   0.965   7.366 -0.5175 -1.8701  1.3133
 2188TP3      O18382   0.730   3.793   9.790  0.0447  0.1396 -0.2381
 2188TP3     H118383   0.761   3.793   9.700  0.9310 -0.0945  0.0685
 2188TP3     H218384   0.687   3.878   9.801 -0.3687  0.0276 -0.9820
 2189TP3      O18385   2.181   0.753   2.510  0.4713  0.3105  0.1666
 2189TP3     H118386   2.194   0.820   2.577 -1.1441 -0.1104  0.9353
 2189TP3     H218387   2.197   0.670   2.555 -2.8388 -0.1252  0.7328
 2190TP3      O18388   3.048   3.325   2.221  0.1660 -0.1379 -0.2273
 2190TP3     H118389   3.112   3.393   2.198 -0.6665  1.2003  1.3701
 2190TP3     H218390   2.976   3.338   2.159 -1.2784  2.3273  1.8720
 2191TP3      O18391   4.818   0.362   0.672 -0.1377  0.5816 -0.3752
 2191TP3     H118392   4.819   0.325   0.760  0.9714  0.6776 -0.3307
 2191TP3     H218393   4.744   0.319   0.628 -1.4304  1.4275  0.9565
 2192TP3      O18394   4.990   1.795   9.032  0.0951  0.7446  0.5157
 2192TP3     H118395   5.085   1.804   9.020  0.1661  1.2597  1.4668
 2192TP3     H218396   4.977   1.702   9.046  0.6195  0.8465  1.7384
 2193TP3      O18397   0.142   5.139   1.747  0.5697 -0.1936 -0.1422
 2193TP3     H118398   0.121   5.049   1.771  1.3458  0.0919  1.6725
 2193TP3     H218399   0.220   5.160   1.797  1.1990  1.0497 -1.5942
 2194TP3      O18400   1.157   1.770   8.883 -0.5825  0.5645 -0.0869
 2194TP3     H118401   1.116   1.845   8.841 -2.0896 -0.1795  0.0262
 2194TP3     H218402   1.094   1.741   8.949  0.9944  0.6515  1.5202
 2195TP3      O18403   3.652   0.780   2.571 -0.6233 -0.6923 -0.3680
 2195TP3     H118404   3.654   0.875   2.588 -0.4102 -0.9834  1.3129
 2195TP3     H218405   3.622   0.773   2.480 -3.3725  0.8794  0.3668
 2196TP3      O18406   0.961   1.587   1.517 -0.1954  0.1376 -1.1755
 2196TP3     H118407   0.901   1.572   1.590  0.6670  0.8462 -0.2989
 2196TP3     H218408   0.918   1.547   1.441  0.2988 -3.3392  0.2798
 2197TP3      O18409   0.173   5.206   8.335  0.3510  0.0928  0.1882
 2197TP3     H118410   0.220   5.231   8.256  1.0488  0.5762  0.7476
 2197TP3     H218411   0.157   5.288   8.381  0.5610 -0.2455  0.8847
 2198TP3      O18412   3.048   4.077   8.293 -0.2098 -0.5088  0.2275
 2198TP3     H118413   3.142   4.060   8.292 -0.4855 -2.2272 -1.8995
 2198TP3     H218414   3.040   4.165   8.330  2.1654 -0.5903  1.0542
 2199TP3      O18415   5.247   4.624   1.275  0.2188  0.4710 -0.1160
 2199TP3     H118416   5.341   4.640   1.270  0.1291  1.1606  0.4332
 2199TP3     H218417   5.238   4.556   1.342  0.2560  1.0244  0.4545
 2200TP3      O18418   3.595   1.474   9.893 -0.4746  0.0855  0.2416
 2200TP3     H118419   3.595   1.543   9.826 -1.2733 -0.2273 -0.0943
 2200TP3     H218420   3.523   1.416   9.867  1.5255 -2.0715 -0.7040
 2201TP3      O18421   1.963   0.617   0.385  0.3443  0.6361 -0.0660
 2201TP3     H118422   1.974   0.545   0.323 -0.1915  0.3412  0.1830
 2201TP3     H218423   1.874   0.649   0.369  0.7779  1.6279 -0.5854
 2202TP3      O18424   3.715   3.599   9.087 -0.2955 -0.8223 -0.5996
 2202TP3     H118425   3.650   3.669   9.082 -0.4535 -1.0033 -1.1669
 2202TP3     H218426   3.699   3.546   9.009  0.6276 -0.7865 -0.8287
 2203TP3      O18427   2.327   3.068   7.774 -0.3470  0.5292  0.1466
 2203TP3     H118428   2.259   3.044   7.710 -1.7779 -1.0763  2.2258
 2203TP3     H218429   2.310   3.161   7.793 -3.6456 -0.4967  2.5814
 2204TP3      O18430   0.657   3.953   9.281  0.6983 -0.0726 -0.0593
 2204TP3     H118431   0.726   3.914   9.227  1.9886  0.7747  0.9426
 2204TP3     H218432   0.704   4.002   9.348 -0.8313 -1.6002  2.2300
 2205TP3      O18433   4.528   2.871   1.130 -0.1828  0.0197 -0.5981
 2205TP3     H118434   4.567   2.907   1.051 -1.3163  2.0600 -0.2926
 2205TP3     H218435   4.562   2.927   1.200 -1.8617  0.4336 -0.0889
 2206TP3      O18436   4.887   4.231   9.482  0.4822 -0.0964 -0.2726
 2206TP3     H118437   4.977   4.224   9.450  0.6161  0.3587 -0.0032
 2206TP3     H218438   4.895   4.225   9.577  0.3314  0.8896 -0.1877
 2207TP3      O18439   2.940   1.339   8.394  0.0841 -0.3226  0.3757
 2207TP3     H118440   3.025   1.296   8.385  1.3652  2.3591 -0.7851
 2207TP3     H218441   2.892   1.314   8.315  0.4936 -0.3208  0.1251
 2208TP3      O18442   1.237   1.902   2.633 -0.0420 -0.0381  0.3645
 2208TP3     H118443   1.188   1.847   2.694  0.4823 -2.0521 -0.9590
 2208TP3     H218444   1.329   1.887   2.655  0.0665  2.9736  2.2009
 2209TP3      O18445   3.189   0.965   9.572  0.1200  0.6424 -0.0005
 2209TP3     H118446   3.240   0.884   9.576  0.8721  0.9901 -1.8408
 2209TP3     H218447   3.099   0.936   9.561  0.4726  0.0368 -1.4151
 2210TP3      O18448   4.677   0.230  10.071 -0.1551 -0.7994  0.3372
 2210TP3     H118449   4.664   0.150  10.020 -0.5400 -0.7618  0.3785
 2210TP3     H218450   4.767   0.223  10.104  0.7830  0.0832 -1.9320
 2211TP3      O18451   1.295   3.455   8.219  0.0743  0.6810 -0.0112
 2211TP3     H118452   1.367   3.397   8.195 -0.5017 -0.0526 -0.0017
 2211TP3     H218453   1.305   3.469   8.313 -0.2620 -0.0845  0.1440
 2212TP3      O18454   0.682   0.711   2.558  0.1728  0.4610 -0.1022
 2212TP3     H118455   0.762   0.765   2.557  1.1244 -0.8143  2.5760
 2212TP3     H218456   0.622   0.759   2.615  0.8463 -1.0137  1.8900
 2213TP3      O18457   0.935   3.240  10.097 -0.1048 -0.0825 -0.2245
 2213TP3     H118458   0.905   3.180  10.165 -0.9668 -0.3567 -0.8417
 2213TP3     H218459   0.876   3.225  10.024 -0.1014  1.2570 -0.5164
 2214TP3      O18460   0.032   1.017   2.048  0.0548 -0.5444 -0.0330
 2214TP3     H118461   0.032   1.111   2.031  0.9129 -0.6477 -0.6771
 2214TP3     H218462  -0.059   0.996   2.068 -0.1418  0.4248  0.1275
 2215TP3      O18463   2.410   0.442   9.868 -0.4307 -0.4996 -0.3055
 2215TP3     H118464   2.487   0.394   9.838 -1.6711 -2.6439 -0.1579
 2215TP3     H218465   2.378   0.489   9.791  1.0559  0.4832 -0.3389
 2216TP3      O18466   1.409   1.297   7.399  0.0253  0.2430 -0.4843
 2216TP3     H118467   1.442   1.357   7.466 -2.1082 -0.3262  1.1299
 2216TP3     H218468   1.333   1.342   7.362 -1.6517 -1.4596  0.8071
 2217TP3      O18469   4.355   3.248   7.818  0.2459 -0.0870  0.3528
 2217TP3     H118470   4.423   3.216   7.877  0.0851 -1.2879 -0.0993
 2217TP3     H218471   4.289   3.286   7.876 -0.6979 -2.7269  1.0806
 2218TP3      O18472   3.533   4.645   7.471  0.2501  0.2335  0.0489
 2218TP3     H118473   3.443   4.630   7.442  0.2345  0.6248 -0.1027
 2218TP3     H218474   3.587   4.612   7.399  0.2865 -2.2190  1.1209
 2219TP3      O18475   0.934   0.233   8.396 -0.1434 -0.1060  0.3394
 2219TP3     H118476   1.019   0.207   8.430 -0.5327 -0.2451  1.2241
 2219TP3     H218477   0.871   0.194   8.456 -0.8823 -1.0063 -0.9851
 2220TP3      O18478   2.231   0.366   2.313 -0.1240 -0.3140 -0.0892
 2220TP3     H118479   2.241   0.275   2.340  0.2356 -0.3493 -0.3395
 2220TP3     H218480   2.177   0.362   2.234 -0.4844 -0.2746  0.1546
 2221TP3      O18481   2.786   1.965   0.867  0.3990 -0.3896  0.7260
 2221TP3     H118482   2.709   2.020   0.853  0.0409 -1.1204 -0.1795
 2221TP3     H218483   2.860   2.020   0.841  0.1573  0.1756  1.2196
 2222TP3      O18484   4.849   1.626   0.385  0.0148  0.1403  0.0994
 2222TP3     H118485   4.838   1.673   0.468 -1.2718 -0.1375  0.1030
 2222TP3     H218486   4.931   1.660   0.349 -0.0731  1.2104  0.8664
 2223TP3      O18487   0.277   0.860   2.966 -0.4585 -0.1982  0.3684
 2223TP3     H118488   0.329   0.805   2.908 -1.2560 -0.2026 -0.3527
 2223TP3     H218489   0.205   0.891   2.911  0.4294  2.2513  0.5334
 2224TP3      O18490   0.522   4.608   2.676 -0.4088 -0.5662  0.5118
 2224TP3     H118491   0.542   4.553   2.752 -2.3567 -0.8588  0.8357
 2224TP3     H218492   0.426   4.613   2.675 -0.3398  0.6196 -1.0878
 2225TP3      O18493   3.914   1.576   9.515 -0.3856 -0.2195  0.7637
 2225TP3     H118494   3.862   1.496   9.523 -1.4692  0.1631 -2.0133
 2225TP3     H218495   3.881   1.633   9.583 -0.6974 -1.5439  1.7453
 2226TP3      O18496   4.682   0.167   9.652  0.1792  0.4434 -0.4945
 2226TP3     H118497   4.656   0.089   9.700 -0.7595  0.0883 -1.5507
 2226TP3     H218498   4.608   0.186   9.594  1.2258  0.9161 -1.7113
 2227TP3      O18499   3.749   2.957   8.234  0.4961 -0.3493  0.4509
 2227TP3     H118500   3.732   2.907   8.154 -0.2654 -0.0454  0.4187
 2227TP3     H218501   3.757   2.891   8.303 -1.9211 -0.4584  0.6595
 2228TP3      O18502   4.740   4.668   8.337  0.1058  0.3072 -0.1753
 2228TP3     H118503   4.789   4.727   8.279  0.3102 -0.5235 -0.8477
 2228TP3     H218504   4.731   4.587   8.288  0.9956 -0.6923  1.2684
 2229TP3      O18505   3.242   3.921   0.547 -0.6789  0.1411  0.6123
 2229TP3     H118506   3.311   3.888   0.488 -0.9668 -1.0355  0.9243
 2229TP3     H218507   3.288   3.940   0.629 -0.7860 -1.0639  0.9640
 2230TP3      O18508   3.360   4.772   1.941  0.2384 -0.0172  0.1039
 2230TP3     H118509   3.369   4.863   1.968 -0.8982  0.3930 -0.8390
 2230TP3     H218510   3.289   4.738   1.995  0.6835 -0.3550  0.4772
 2231TP3      O18511   1.354   5.260   0.646 -0.3909 -0.0427 -0.3914
 2231TP3     H118512   1.329   5.181   0.599  0.8744 -1.2860  0.9676
 2231TP3     H218513   1.404   5.228   0.722 -1.3547  1.9539  1.1373
 2232TP3      O18514   3.832   4.751   8.263  0.4982  0.0945  0.1683
 2232TP3     H118515   3.759   4.702   8.225  0.6025  0.7775 -0.9677
 2232TP3     H218516   3.868   4.694   8.331  0.5307 -1.3313 -1.0201
 2233TP3      O18517   2.872   0.037   8.431  0.2342  0.1383 -0.0679
 2233TP3     H118518   2.777   0.041   8.439  0.2039 -0.9676  0.1889
 2233TP3     H218519   2.900  -0.018   8.504  1.1505  1.1219  0.3383
 2234TP3      O18520   2.684   3.273   0.448 -0.1330  0.0752  0.3089
 2234TP3     H118521   2.757   3.264   0.387 -0.7950  0.3566 -0.5431
 2234TP3     H218522   2.610   3.234   0.401 -1.2287  2.5989 -0.1119
 2235TP3      O18523   0.343   1.452   9.071 -0.5823  0.7469 -0.2187
 2235TP3     H118524   0.348   1.446   9.166  0.1604 -0.2307 -0.3093
 2235TP3     H218525   0.429   1.421   9.041 -1.4962 -0.8141 -1.2720
 2236TP3      O18526   4.026   1.227   8.044  0.4889 -0.6772 -0.3808
 2236TP3     H118527   3.962   1.291   8.014  0.9617  1.1823  2.3687
 2236TP3     H218528   3.973   1.160   8.088  0.2025 -0.7196 -0.7883
 2237TP3      O18529   0.354   3.631   2.101 -0.4065  0.1159  0.4478
 2237TP3     H118530   0.373   3.712   2.148  0.0694  0.9398 -1.1245
 2237TP3     H218531   0.372   3.652   2.009 -1.4032 -1.4293 -0.1185
 2238TP3      O18532   3.842   0.425   0.191  0.4512  0.1447  0.0286
 2238TP3     H118533   3.930   0.408   0.156  0.4157  1.9364 -1.0015
 2238TP3     H218534   3.793   0.344   0.173  1.0084  0.2904 -2.2823
 2239TP3      O18535   4.219   4.716   1.683 -0.5151  0.2069  0.5378
 2239TP3     H118536   4.252   4.805   1.690 -1.3140  0.4095  1.8246
 2239TP3     H218537   4.208   4.702   1.589  2.6655  0.3113  0.0941
 2240TP3      O18538   1.530   4.269   9.055  0.5207 -0.1355  0.1200
 2240TP3     H118539   1.589   4.223   9.115 -0.7835  0.7084  2.0728
 2240TP3     H218540   1.451   4.216   9.053 -0.1898  0.8962  0.7155
 2241TP3      O18541   1.336   0.451   9.772 -0.0631  0.3640 -0.2279
 2241TP3     H118542   1.301   0.501   9.846 -1.4054 -0.2846 -0.4243
 2241TP3     H218543   1.259   0.416   9.728  0.8448 -1.5611 -0.3220
 2242TP3      O18544   4.234   2.701   9.508  0.2401  0.1435 -0.8889
 2242TP3     H118545   4.296   2.631   9.530  1.7208  1.0155 -2.2377
 2242TP3     H218546   4.172   2.701   9.581  0.5403 -2.2049 -0.5989
 2243TP3      O18547   1.243   4.698   0.335 -0.1412  0.2113  0.0373
 2243TP3     H118548   1.153   4.682   0.364  0.2149 -0.1826  0.9427
 2243TP3     H218549   1.290   4.720   0.415  0.8358 -0.8060 -0.2564
 2244TP3      O18550   0.781   4.423   1.329  0.0953  0.8240  0.1400
 2244TP3     H118551   0.769   4.511   1.293 -1.6682  0.3948 -0.3678
 2244TP3     H218552   0.746   4.364   1.262  2.4117 -0.3667 -0.0792
 2245TP3      O18553   1.133   3.975   9.398  0.6509 -0.2117  0.0621
 2245TP3     H118554   1.203   3.945   9.339  0.8186  0.0743  0.1119
 2245TP3     H218555   1.084   4.039   9.346  1.0244  0.3151  0.3576
 2246TP3      O18556   3.831   5.120   8.024  0.1656 -0.2234 -0.6302
 2246TP3     H118557   3.872   5.110   7.938  0.1210 -4.0423 -0.2890
 2246TP3     H218558   3.903   5.108   8.086 -0.7585 -3.2117 -0.0888
 2247TP3      O18559   0.709   4.602   9.920  0.6042 -0.1278  0.4723
 2247TP3     H118560   0.658   4.660   9.976 -0.5592  0.0203 -0.7156
 2247TP3     H218561   0.653   4.526   9.905  1.1621 -0.4655  0.0551
 2248TP3      O18562   0.260   2.518   8.704  0.0032 -0.5174 -0.1957
 2248TP3     H118563   0.185   2.538   8.761 -0.8388  0.7798 -1.7154
 2248TP3     H218564   0.335   2.516   8.763 -0.5509  2.7535  0.7435
 2249TP3      O18565   4.276   1.969   7.889  0.0055 -0.1965 -0.5725
 2249TP3     H118566   4.370   1.976   7.872  0.0910  2.8624  0.7044
 2249TP3     H218567   4.238   1.950   7.803  1.8589 -2.9563 -0.8599
 2250TP3      O18568   0.238   4.401   0.751 -0.6069 -0.8290 -0.1366
 2250TP3     H118569   0.213   4.491   0.769 -0.1824 -0.7718  0.1758
 2250TP3     H218570   0.286   4.404   0.669  1.5865 -0.3983  1.1136
 2251TP3      O18571   1.000   1.661   9.676 -0.3231 -0.1499  1.3801
 2251TP3     H118572   1.051   1.590   9.636  3.2391  3.1363 -0.2578
 2251TP3     H218573   0.968   1.712   9.601  1.3369  2.6831  2.5140
 2252TP3      O18574   0.424   0.468   8.636  0.2864 -0.0210  0.3891
 2252TP3     H118575   0.357   0.475   8.567 -1.7739 -0.1655  2.3020
 2252TP3     H218576   0.376   0.489   8.717  1.7238 -3.5932  2.2649
 2253TP3      O18577   1.177   5.177   9.029 -0.0250  0.9168  0.4182
 2253TP3     H118578   1.130   5.119   9.088 -0.2063  0.8091  0.1677
 2253TP3     H218579   1.267   5.144   9.029 -0.1486  0.5753  0.2000
 2254TP3      O18580   2.037   0.714   8.099  0.4044 -0.1606 -0.0615
 2254TP3     H118581   1.977   0.664   8.043  1.0877  0.1059 -1.0476
 2254TP3     H218582   2.064   0.652   8.167 -0.7250 -0.3793  0.2067
 2255TP3      O18583   3.069   0.709   1.916  0.2395 -0.3823  0.4173
 2255TP3     H118584   3.050   0.671   1.830  3.3726 -0.3785 -0.3212
 2255TP3     H218585   3.059   0.635   1.977 -0.0102 -0.8683 -0.2042
 2256TP3      O18586   1.993   1.358   9.038 -0.1365 -0.5618 -0.2262
 2256TP3     H118587   2.068   1.342   8.981  0.3704  0.2850  0.1833
 2256TP3     H218588   1.940   1.422   8.991 -0.4764 -0.9799 -0.4091
 2257TP3      O18589   1.356   1.924   7.773 -0.0183  0.0084 -0.0057
 2257TP3     H118590   1.304   2.004   7.771 -0.5629 -0.3722 -2.1020
 2257TP3     H218591   1.330   1.880   7.854 -0.3471  1.5213  0.7312
 2258TP3      O18592   3.430   3.887   8.527 -0.1668  0.5192  0.1289
 2258TP3     H118593   3.453   3.865   8.617  0.7936  0.2994 -0.1669
 2258TP3     H218594   3.340   3.855   8.517 -0.2877  0.5628  1.0093
 2259TP3      O18595   1.163   4.518   7.660  0.2265  0.3907 -0.2837
 2259TP3     H118596   1.248   4.530   7.701  1.0653  1.5288 -2.3065
 2259TP3     H218597   1.107   4.584   7.702  0.6200  0.3974  0.2340
 2260TP3      O18598   1.445   1.208   2.130 -0.5176 -0.7057 -0.5443
 2260TP3     H118599   1.437   1.217   2.225 -0.3586 -0.0159 -0.5932
 2260TP3     H218600   1.535   1.178   2.116 -0.1472  0.3815 -0.5463
 2261TP3      O18601   3.867   3.669   9.516  0.4120 -0.0526 -0.2373
 2261TP3     H118602   3.792   3.715   9.554  1.3894  2.6597 -1.4452
 2261TP3     H218603   3.942   3.699   9.567  0.9962 -0.7030 -0.7102
 2262TP3      O18604   2.120   1.640   8.224 -0.6645  0.3353 -0.2151
 2262TP3     H118605   2.031   1.643   8.189 -0.1536 -1.8906 -1.8319
 2262TP3     H218606   2.168   1.585   8.163  1.6503  0.8613  1.0594
 2263TP3      O18607   1.746   1.999   0.367 -0.7592 -0.1312 -0.3369
 2263TP3     H118608   1.779   1.982   0.455 -1.7641  2.9784  0.7174
 2263TP3     H218609   1.749   2.095   0.359 -0.0122 -0.3831 -3.9621
 2264TP3      O18610   0.092   3.101   1.163  0.0295  0.0331  0.1157
 2264TP3     H118611   0.097   3.177   1.221  0.6706 -0.3729  0.5957
 2264TP3     H218612   0.058   3.136   1.081 -0.7382  0.6435  0.6789
 2265TP3      O18613   4.614   0.810   2.016 -0.7384  0.0084 -0.3900
 2265TP3     H118614   4.554   0.775   1.950  0.6159  0.0837 -1.6865
 2265TP3     H218615   4.701   0.782   1.987  0.0299  1.4898  0.4306
 2266TP3      O18616   0.252   1.113   9.134  0.5933 -0.0052  0.0007
 2266TP3     H118617   0.183   1.178   9.149  1.7038  1.3008 -0.3615
 2266TP3     H218618   0.234   1.079   9.046 -0.8730 -1.3098  0.7930
 2267TP3      O18619   3.328   4.442   8.768  0.5258 -0.3029  0.2710
 2267TP3     H118620   3.289   4.357   8.783 -1.0150  0.6389  1.7100
 2267TP3     H218621   3.254   4.500   8.749  1.6322  0.4954 -1.8934
 2268TP3      O18622   3.770   1.030   2.643 -0.4690 -0.1523 -0.4581
 2268TP3     H118623   3.852   1.008   2.598 -1.2227 -0.5626 -1.6373
 2268TP3     H218624   3.797   1.048   2.733  0.6771 -2.0882 -0.3816
 2269TP3      O18625   0.830   1.450   0.563 -0.2498 -0.1023 -0.6280
 2269TP3     H118626   0.886   1.493   0.627 -0.9605  0.6359 -0.4901
 2269TP3     H218627   0.878   1.371   0.538 -0.0591 -0.5130  0.9679
 2270TP3      O18628   4.595   2.066   0.952 -0.6207  0.3106  0.5660
 2270TP3     H118629   4.526   2.002   0.933  0.0519 -0.3440  0.2747
 2270TP3     H218630   4.661   2.016   0.999  0.8350  0.2819 -1.4265
 2271TP3      O18631   3.015   0.583   1.692 -0.2895 -0.1563 -0.5185
 2271TP3     H118632   2.920   0.589   1.696 -0.3526 -1.6370  1.4466
 2271TP3     H218633   3.032   0.506   1.639 -0.2899 -1.5612  1.4590
 2272TP3      O18634   3.586   1.169   8.938 -0.3718 -0.4999  0.0267
 2272TP3     H118635   3.613   1.095   8.884  0.2544  0.0706 -0.4506
 2272TP3     H218636   3.566   1.238   8.875  0.0492  0.0655  0.5141
 2273TP3      O18637   4.972   4.235   0.156 -0.4285  0.2177  0.4218
 2273TP3     H118638   5.017   4.313   0.189  0.4790 -0.2263  0.2515
 2273TP3     H218639   5.042   4.179   0.123 -1.2140 -0.0014 -0.8783
 2274TP3      O18640   1.080   1.733   3.202 -0.0192 -0.3529  0.1765
 2274TP3     H118641   1.035   1.817   3.209  1.2333  0.2494  1.4996
 2274TP3     H218642   1.013   1.668   3.223 -0.7142  0.4016  0.3266
 2275TP3      O18643   0.197   2.203   1.249 -0.1329 -0.0461 -0.1963
 2275TP3     H118644   0.224   2.205   1.157 -0.5167  2.2367 -0.2895
 2275TP3     H218645   0.278   2.194   1.298  0.1031 -0.9612 -0.7474
 2276TP3      O18646   4.252   1.856   9.453 -0.1114 -0.1836 -0.2206
 2276TP3     H118647   4.239   1.766   9.422 -0.0168 -0.3555  0.2424
 2276TP3     H218648   4.286   1.903   9.376  0.5193 -0.7081 -0.2649
 2277TP3      O18649   3.909   0.040   7.665 -0.1587  0.1948 -0.0515
 2277TP3     H118650   3.979   0.057   7.602 -0.5639  1.5873 -0.1468
 2277TP3     H218651   3.836   0.094   7.635 -0.1909  1.2790  1.8765
 2278TP3      O18652   0.607   3.963   0.289 -0.2672 -0.0221 -0.0851
 2278TP3     H118653   0.541   3.936   0.352 -1.1729  0.3634 -0.8525
 2278TP3     H218654   0.677   4.001   0.342 -1.2449  0.7694  0.6475
 2279TP3      O18655   1.563   1.172   1.304 -0.1919 -0.2197  0.7703
 2279TP3     H118656   1.529   1.155   1.392  1.2435  0.5320  1.4889
 2279TP3     H218657   1.630   1.239   1.317  1.5021 -1.5801 -0.6003
 2280TP3      O18658   4.201   3.788   8.886 -0.2271  0.3224  0.1981
 2280TP3     H118659   4.209   3.695   8.864 -0.9851  0.5049 -0.9284
 2280TP3     H218660   4.291   3.817   8.901 -0.0476 -0.7495  1.2486
 2281TP3      O18661   0.115   2.441   8.481  0.2166  0.0446 -0.0984
 2281TP3     H118662   0.160   2.442   8.565 -0.0887  0.3882  0.0608
 2281TP3     H218663   0.174   2.392   8.423 -0.3408 -1.6656  0.7368
 2282TP3      O18664   1.902   0.702   8.417 -0.2046 -0.1612 -0.1304
 2282TP3     H118665   1.974   0.682   8.357  0.3200  0.2823  0.3443
 2282TP3     H218666   1.824   0.666   8.374  0.2858 -0.5636 -0.6911
 2283TP3      O18667   2.688   1.764   1.469 -0.3372  0.2147 -0.1567
 2283TP3     H118668   2.665   1.721   1.551 -0.3291  0.4493 -0.0310
 2283TP3     H218669   2.660   1.703   1.401  0.7179 -0.5070  0.0476
 2284TP3      O18670   2.624   0.947   2.791  0.2582  0.6000  0.3707
 2284TP3     H118671   2.559   0.936   2.722 -0.9143  1.4435  1.3420
 2284TP3     H218672   2.618   0.867   2.843 -1.1848  1.4039  1.4513
 2285TP3      O18673   4.928   3.680   9.622 -0.3283  0.1012  0.5043
 2285TP3     H118674   4.989   3.696   9.549 -0.4083  2.8052  0.9735
 2285TP3     H218675   4.850   3.644   9.580 -0.0511  0.8353 -0.6670
 2286TP3      O18676   5.040   0.842   9.057  0.3825 -0.2139 -0.0193
 2286TP3     H118677   5.093   0.819   8.981 -0.2914  0.5544 -0.7450
 2286TP3     H218678   5.097   0.899   9.110 -0.2480  2.0006 -1.6372
 2287TP3      O18679   0.420   4.183   7.012  0.5838  0.5208 -0.1541
 2287TP3     H118680   0.341   4.129   7.007  0.5192  0.2501  2.9484
 2287TP3     H218681   0.477   4.148   6.944 -1.3303 -0.3183 -1.3894
 2288TP3      O18682   0.101   0.814   1.687  0.0787  0.7090 -0.4372
 2288TP3     H118683   0.143   0.854   1.612  2.3982  0.4024  0.6624
 2288TP3     H218684   0.039   0.880   1.719  1.3211  2.0244 -0.7477
 2289TP3      O18685   1.792   4.703   7.345 -0.0162 -0.7241  0.1507
 2289TP3     H118686   1.755   4.616   7.357 -0.9583 -0.4068 -0.4013
 2289TP3     H218687   1.745   4.739   7.270  1.2589 -0.2267 -0.4231
 2290TP3      O18688   0.324   4.990   8.383 -0.0119 -0.0100  0.2290
 2290TP3     H118689   0.311   4.914   8.326  1.1266 -0.1482  0.1482
 2290TP3     H218690   0.270   5.059   8.343  0.1033 -0.3520 -0.5375
 2291TP3      O18691   1.004   3.843   7.905  0.1889 -0.5768 -0.6738
 2291TP3     H118692   0.917   3.869   7.874 -0.0235 -1.2132 -0.6171
 2291TP3     H218693   1.060   3.917   7.883 -0.5646  0.2603  0.2100
 2292TP3      O18694   0.559   2.200   1.298 -0.0426 -0.0068  0.1842
 2292TP3     H118695   0.523   2.287   1.313 -1.1169 -0.7050  1.8157
 2292TP3     H218696   0.653   2.214   1.288 -0.4137  1.5395 -1.5151
 2293TP3      O18697   1.300   0.580   7.146 -0.2826  0.6651  0.5266
 2293TP3     H118698   1.391   0.598   7.170 -0.6090  3.1583 -0.0126
 2293TP3     H218699   1.298   0.486   7.130  2.1002  0.5009  0.9988
 2294TP3      O18700   4.263   0.401   0.996 -0.2721 -0.0754 -0.1312
 2294TP3     H118701   4.227   0.326   0.950 -0.2075 -0.2329  0.0735
 2294TP3     H218702   4.209   0.410   1.075  1.1974 -1.3700  1.0551
 2295TP3      O18703   4.388   2.015  10.084 -0.4257 -0.5532  0.5853
 2295TP3     H118704   4.306   2.033  10.130 -0.5573  0.8576 -0.1915
 2295TP3     H218705   4.424   2.101  10.063  0.8991 -1.1692  0.2926
 2296TP3      O18706   3.953   5.207   2.750 -0.1228 -0.4337  0.0654
 2296TP3     H118707   3.936   5.197   2.844  0.6356 -0.0142  0.2519
 2296TP3     H218708   3.869   5.191   2.709 -0.3058 -1.3535  0.7760
 2297TP3      O18709   3.266   4.889   7.178 -0.0056 -0.0895  0.4952
 2297TP3     H118710   3.179   4.852   7.163 -0.0212 -0.4810  1.5039
 2297TP3     H218711   3.326   4.816   7.161  0.2731  0.7195 -2.2112
 2298TP3      O18712   2.345   4.870   1.141  0.2729 -0.1366  0.1845
 2298TP3     H118713   2.295   4.870   1.223 -0.4302  0.0948 -0.2370
 2298TP3     H218714   2.410   4.801   1.153 -1.3238 -1.7104  0.0406
 2299TP3      O18715   3.540   0.908   1.917  0.2741 -0.0900 -0.1119
 2299TP3     H118716   3.569   0.831   1.867  1.6865 -0.0415  0.5997
 2299TP3     H218717   3.447   0.917   1.895  0.7391 -0.3499 -2.3440
 2300TP3      O18718   5.116   2.769   1.581  0.4504 -0.3926  0.3366
 2300TP3     H118719   5.127   2.674   1.581  0.4025 -0.4424 -2.2545
 2300TP3     H218720   5.199   2.803   1.546 -0.1965  0.3779 -0.4888
 2301TP3      O18721   1.366   3.698   9.791 -0.4750  0.0304 -0.1112
 2301TP3     H118722   1.437   3.754   9.758 -0.8610  0.6893  0.1646
 2301TP3     H218723   1.400   3.609   9.781  0.5026  0.3458  0.2831
 2302TP3      O18724   2.004   3.313   2.295  0.2596 -0.6058  0.2997
 2302TP3     H118725   2.021   3.223   2.324 -0.1034 -0.4041  1.1426
 2302TP3     H218726   1.978   3.359   2.374 -0.3966  0.0410 -0.2870
 2303TP3      O18727   3.926   2.794   0.282 -0.0160 -0.1876 -0.4545
 2303TP3     H118728   4.001   2.741   0.309  0.6591  0.7789 -0.4170
 2303TP3     H218729   3.893   2.750   0.204  1.5604  0.2764 -1.3996
 2304TP3      O18730   4.948   1.045   1.776 -0.0032 -0.2967 -0.0908
 2304TP3     H118731   4.941   1.121   1.719  0.7347 -0.2152 -0.0718
 2304TP3     H218732   4.875   1.055   1.838  1.1057  1.2907  0.9798
 2305TP3      O18733   2.823   3.702   8.550 -0.1039  0.1918 -0.4719
 2305TP3     H118734   2.848   3.671   8.637 -0.1557 -1.8814 -1.1929
 2305TP3     H218735   2.870   3.785   8.541 -2.9339  2.3300  2.9852
 2306TP3      O18736   1.121   0.016   1.652 -0.0834 -0.7103  0.4223
 2306TP3     H118737   1.112   0.018   1.556  0.6283 -0.8234  0.3553
 2306TP3     H218738   1.062  -0.055   1.679 -0.9384 -0.1168  0.1438
 2307TP3      O18739   3.701   2.934   0.621  0.4425  0.1963  0.3197
 2307TP3     H118740   3.610   2.961   0.628  0.1257 -1.1064  1.1802
 2307TP3     H218741   3.739   2.997   0.559 -0.6325  1.7438  1.1995
 2308TP3      O18742   0.382   4.129   8.912 -0.1483  0.3027  0.4044
 2308TP3     H118743   0.436   4.147   8.989  2.2963 -0.0691 -1.1773
 2308TP3     H218744   0.437   4.075   8.855 -1.5864  1.2386 -1.9777
 2309TP3      O18745   5.181   0.745   2.726  0.0539 -0.4238 -0.2294
 2309TP3     H118746   5.089   0.750   2.752  0.0951  1.2603 -0.3187
 2309TP3     H218747   5.180   0.709   2.638 -0.2564 -3.8789  1.1132
 2310TP3      O18748   2.855   3.087   8.438 -0.1534 -0.4506 -0.1691
 2310TP3     H118749   2.799   3.162   8.457  0.2467 -0.9153  3.1248
 2310TP3     H218750   2.807   3.038   8.371 -2.5963  0.3297  0.9670
 2311TP3      O18751   4.543   1.382   9.132  0.0058  0.4510 -0.4837
 2311TP3     H118752   4.532   1.477   9.137  0.5638  0.4584  0.7932
 2311TP3     H218753   4.490   1.347   9.204  0.5234 -0.1350 -0.3717
 2312TP3      O18754   3.014   2.248   2.689 -0.0180 -0.2922 -0.3235
 2312TP3     H118755   3.062   2.321   2.650  1.2966 -1.1402 -0.2845
 2312TP3     H218756   2.997   2.189   2.617  0.6377 -0.8863  0.0053
 2313TP3      O18757   3.914   4.736   0.662  0.2788  0.4721 -0.3986
 2313TP3     H118758   3.870   4.715   0.744  0.1326  0.6096 -0.4413
 2313TP3     H218759   4.008   4.728   0.681  0.2467  0.5750 -0.2007
 2314TP3      O18760   2.781   1.087   7.705 -0.4251  0.6904  0.4258
 2314TP3     H118761   2.779   1.173   7.664 -4.2564  0.6197  0.2342
 2314TP3     H218762   2.745   1.028   7.638  0.2346 -0.6971  1.2652
 2315TP3      O18763   3.052   3.839   9.241 -0.0235  0.0001  0.0649
 2315TP3     H118764   3.117   3.773   9.263 -0.6185 -0.6363 -0.0463
 2315TP3     H218765   2.974   3.812   9.290 -0.8868 -0.5529 -1.5881
 2316TP3      O18766   0.666   1.566   9.121  0.1076  0.1843 -0.0750
 2316TP3     H118767   0.599   1.632   9.140  0.5498  0.8613 -0.8352
 2316TP3     H218768   0.737   1.586   9.182 -0.2267 -0.2994  0.4736
 2317TP3      O18769   4.586   1.694   0.255 -0.2080  0.6571  0.2254
 2317TP3     H118770   4.654   1.651   0.306  0.0455  0.3419 -0.3806
 2317TP3     H218771   4.597   1.661   0.166 -1.4961  0.1798  0.2279
 2318TP3      O18772   0.402   2.416   1.352  0.1543 -0.0542  0.2080
 2318TP3     H118773   0.400   2.449   1.262 -0.2700  0.7353  0.5004
 2318TP3     H218774   0.378   2.491   1.405 -1.1620 -0.9096  0.8650
 2319TP3      O18775   0.057   2.332   1.440 -0.1944 -0.1537 -0.0846
 2319TP3     H118776   0.124   2.292   1.385 -0.4427  0.0242 -0.5194
 2319TP3     H218777   0.017   2.258   1.486 -0.8569 -0.4469 -1.1162
 2320TP3      O18778   4.628   1.387  10.124  0.7740 -0.2808  0.8512
 2320TP3     H118779   4.552   1.383  10.182  0.0038 -1.4764 -0.1890
 2320TP3     H218780   4.613   1.465  10.071  0.1808 -0.5904  0.5530
 2321TP3      O18781   2.930   4.054  10.137 -0.1157  0.0781  0.0584
 2321TP3     H118782   2.990   4.063  10.063 -0.4389  0.9315 -0.0988
 2321TP3     H218783   2.980   4.005  10.202  0.4278 -0.0252 -0.4289
 2322TP3      O18784   1.469   0.019   7.643  0.4788  0.5431 -0.8601
 2322TP3     H118785   1.376   0.042   7.632  0.1759  0.5528  1.5668
 2322TP3     H218786   1.515   0.075   7.580 -1.0944  1.0106 -1.6297
 2323TP3      O18787   2.740   0.087   8.771 -0.0332  0.7176 -0.3065
 2323TP3     H118788   2.673   0.029   8.734  2.0887 -0.0357 -3.1051
 2323TP3     H218789   2.796   0.029   8.823 -0.5751  1.0888  0.7221
 2324TP3      O18790   2.050   4.754   3.039 -0.2609 -0.1012  0.1847
 2324TP3     H118791   2.104   4.701   2.980 -0.4394  0.5654 -0.5775
 2324TP3     H218792   2.044   4.701   3.119  0.2080 -0.8847 -0.2881
 2325TP3      O18793   0.997   1.015   8.723  0.2431 -0.3353 -0.6536
 2325TP3     H118794   1.043   1.054   8.797 -0.1506 -0.4392 -0.3505
 2325TP3     H218795   1.012   1.075   8.650 -1.8994  1.3543  0.2563
 2326TP3      O18796   0.114   4.058   0.914  0.0667  0.2568  0.3856
 2326TP3     H118797   0.144   4.136   0.960  0.5758 -0.5368  1.3970
 2326TP3     H218798   0.078   4.002   0.982 -0.9540 -0.0912 -0.4343
 2327TP3      O18799   0.934   1.756   9.045 -0.4850 -0.2595 -0.0231
 2327TP3     H118800   0.929   1.736   9.138 -1.5735 -0.4903 -0.1184
 2327TP3     H218801   0.899   1.844   9.037  0.1140 -0.0312 -0.1492
 2328TP3      O18802   2.624   4.367   7.349 -0.2603  0.1220  0.2270
 2328TP3     H118803   2.663   4.417   7.278  0.3385 -0.9613 -0.2125
 2328TP3     H218804   2.575   4.297   7.306  0.1150 -0.5468  0.8706
 2329TP3      O18805   4.450   3.267   2.229 -0.1070  0.1068  0.3311
 2329TP3     H118806   4.459   3.290   2.322 -0.9039  2.0204 -0.0469
 2329TP3     H218807   4.505   3.330   2.183  0.0939 -0.6851 -0.5283
 2330TP3      O18808   3.709   1.044   7.571 -0.3619  0.4465  0.1746
 2330TP3     H118809   3.741   0.991   7.644  0.4186 -0.4288 -0.7796
 2330TP3     H218810   3.680   0.980   7.506  2.4969  1.1067 -1.8573
 2331TP3      O18811   3.971   0.062   9.889  0.0290 -0.1344 -0.6908
 2331TP3     H118812   3.894   0.044   9.835  0.3076 -1.2944 -0.6981
 2331TP3     H218813   4.033  -0.007   9.867  1.2041  0.9788 -0.9138
 2332TP3      O18814   2.857   0.696   8.981  0.6602 -0.1022  0.2149
 2332TP3     H118815   2.798   0.691   8.906  0.8024 -2.3849  0.2036
 2332TP3     H218816   2.802   0.674   9.056  1.0641 -0.3278  0.4486
 2333TP3      O18817   1.211   5.200   7.065  0.1789  0.1591 -0.2269
 2333TP3     H118818   1.237   5.215   6.974  0.8443 -0.6530 -0.1740
 2333TP3     H218819   1.165   5.116   7.065  0.8610 -0.2242  0.3075
 2334TP3      O18820   4.495   2.395   2.931  0.2116 -0.2560  0.4442
 2334TP3     H118821   4.535   2.444   3.002 -0.8766  1.3251 -0.0010
 2334TP3     H218822   4.535   2.431   2.852  0.8055 -1.4204  0.2100
 2335TP3      O18823   1.497   3.455   9.754 -0.1759  0.1398 -0.6110
 2335TP3     H118824   1.529   3.367   9.774  1.4603  1.0408  0.8271
 2335TP3     H218825   1.550   3.482   9.678  1.0249  0.8038  0.4465
 2336TP3      O18826   1.202   0.453  10.151 -0.2553  0.2642  0.4098
 2336TP3     H118827   1.235   0.542  10.138 -1.2070  0.7088  0.9051
 2336TP3     H218828   1.264   0.397  10.105  0.4915  1.1661  0.2957
 2337TP3      O18829   1.411   5.023   1.077  0.2329  0.0580 -0.2162
 2337TP3     H118830   1.450   5.029   1.164  2.0096 -1.1449 -0.8890
 2337TP3     H218831   1.467   5.078   1.022  1.3300 -2.0435 -1.2855
 2338TP3      O18832   4.182   0.986   1.821 -0.2181 -0.4471  0.0434
 2338TP3     H118833   4.110   0.995   1.884 -0.4741  2.0997 -0.5820
 2338TP3     H218834   4.138   0.990   1.735  0.6780  1.5228 -0.3495
 2339TP3      O18835   4.271   2.939   1.299 -0.3321 -0.1119  0.0608
 2339TP3     H118836   4.312   2.856   1.275 -0.3870 -0.0024 -0.4157
 2339TP3     H218837   4.228   2.969   1.219 -2.8404 -1.0933  0.9888
 2340TP3      O18838   4.557   2.419   1.297 -0.2194  0.1680 -0.0711
 2340TP3     H118839   4.470   2.455   1.316  0.0430  0.1992  1.1006
 2340TP3     H218840   4.555   2.400   1.204 -1.6827 -0.3430  0.0547
 2341TP3      O18841   0.106   4.896   0.984  0.2037 -0.0882  0.1558
 2341TP3     H118842   0.017   4.861   0.977 -1.6465  3.9776  2.1628
 2341TP3     H218843   0.140   4.856   1.064  0.0171 -1.2541 -0.3317
 2342TP3      O18844   4.663   3.381   0.963  0.1587 -0.4008 -0.1551
 2342TP3     H118845   4.681   3.365   0.870 -0.4322  0.4524 -0.4153
 2342TP3     H218846   4.746   3.360   1.007  0.0942 -1.9347 -0.7403
 2343TP3      O18847   3.982   5.068   1.582 -0.2230 -0.4975  0.1544
 2343TP3     H118848   3.962   4.975   1.569 -2.4862 -0.2289  1.4200
 2343TP3     H218849   4.053   5.069   1.646 -0.7987 -1.3404  0.8156
 2344TP3      O18850   3.218   0.656   2.965  0.4466 -0.2396 -0.0328
 2344TP3     H118851   3.228   0.561   2.972 -2.3267 -0.7240 -1.9005
 2344TP3     H218852   3.185   0.684   3.050 -0.5307 -1.2204 -0.0913
 2345TP3      O18853   3.718   0.526   7.541 -0.1229 -0.0158 -0.1998
 2345TP3     H118854   3.687   0.602   7.591  0.2934  0.7045 -1.0399
 2345TP3     H218855   3.688   0.542   7.452 -1.1726 -1.4849 -0.1377
 2346TP3      O18856   4.350   4.507   8.301  0.1117  0.0047  0.7185
 2346TP3     H118857   4.275   4.566   8.311 -0.9088 -1.1407 -0.0178
 2346TP3     H218858   4.394   4.538   8.222  0.3632  0.6134  1.0921
 2347TP3      O18859   0.344   2.001   0.314  0.0967 -0.3113  0.0354
 2347TP3     H118860   0.358   2.004   0.409 -0.4616 -2.7158  0.2477
 2347TP3     H218861   0.388   2.078   0.280  2.3385 -0.6683  2.0174
 2348TP3      O18862   4.140   4.684   8.306  0.4396 -0.3009 -0.5270
 2348TP3     H118863   4.074   4.615   8.293  1.0183 -0.8751 -0.4620
 2348TP3     H218864   4.103   4.741   8.372  1.1980 -2.1711  1.5673
 2349TP3      O18865   3.257   2.351   1.501  0.5426  0.1819  0.5134
 2349TP3     H118866   3.266   2.369   1.595  0.8548  0.5783  0.4077
 2349TP3     H218867   3.346   2.339   1.470  0.4585  0.3025  0.2189
 2350TP3      O18868   3.938   4.328   9.438  0.1742 -0.4255 -0.0702
 2350TP3     H118869   3.908   4.324   9.529 -1.0164 -0.3181 -0.4530
 2350TP3     H218870   3.975   4.241   9.422 -0.5229 -0.7801  0.2086
 2351TP3      O18871   0.666   2.095   7.740  0.2237 -0.0349 -0.2640
 2351TP3     H118872   0.657   2.167   7.802  0.0249 -0.0892 -0.2318
 2351TP3     H218873   0.756   2.064   7.753  0.0727 -0.2645  0.2299
 2352TP3      O18874   3.805   4.320   8.218 -0.2200  0.1849 -0.3298
 2352TP3     H118875   3.824   4.278   8.134  2.7142 -1.9917  1.3434
 2352TP3     H218876   3.853   4.402   8.215 -1.3923  0.8661 -1.3416
 2353TP3      O18877   0.548   1.926   7.154  0.5849  0.1611 -0.6030
 2353TP3     H118878   0.499   1.879   7.086 -0.1788 -1.1305  0.8130
 2353TP3     H218879   0.486   1.992   7.186  0.2429 -0.5627  0.2327
 2354TP3      O18880   4.059   4.571   9.764 -0.0420 -0.3084 -0.2912
 2354TP3     H118881   4.073   4.477   9.752 -0.7938 -0.4092 -0.4160
 2354TP3     H218882   4.089   4.588   9.853 -0.9946 -0.8922  0.1483
 2355TP3      O18883   4.946   1.119   8.600 -0.0358 -0.1282 -0.7121
 2355TP3     H118884   4.988   1.204   8.593  1.5213 -0.7840  0.3659
 2355TP3     H218885   4.961   1.078   8.515 -2.0767  1.2218 -1.7545
 2356TP3      O18886   3.381   0.593   1.128 -0.3136  0.7862 -0.2707
 2356TP3     H118887   3.306   0.644   1.159  1.5023  2.2322  1.9145
 2356TP3     H218888   3.405   0.636   1.045 -0.2441  2.0370  0.3804
 2357TP3      O18889   1.887   0.399   1.200 -0.0396  0.1826 -0.0628
 2357TP3     H118890   1.794   0.420   1.199 -0.0304  0.3589  1.7371
 2357TP3     H218891   1.932   0.484   1.204  0.1374  0.0400  1.1772
 2358TP3      O18892   4.541   2.335   1.017  0.4251 -0.1478 -0.2431
 2358TP3     H118893   4.602   2.385   0.962 -0.0657  0.5188 -0.1931
 2358TP3     H218894   4.559   2.244   0.996  2.3791 -0.0362  0.7287
 2359TP3      O18895   0.711   4.422   8.646  0.2917  0.7892  0.4484
 2359TP3     H118896   0.704   4.326   8.644  2.3639  0.6207  0.1998
 2359TP3     H218897   0.793   4.439   8.692 -0.2196  2.4766  0.7743
 2360TP3      O18898   2.132   1.604   9.882  0.8127 -0.1210  0.2468
 2360TP3     H118899   2.060   1.543   9.865  0.6335  0.4716 -1.2090
 2360TP3     H218900   2.095   1.668   9.943  0.3887 -0.3627  0.2409
 2361TP3      O18901   2.945   2.447   9.491  0.3217 -0.2202 -0.2154
 2361TP3     H118902   2.988   2.476   9.571 -1.3531 -0.6912  0.8728
 2361TP3     H218903   3.015   2.443   9.426  1.7475 -0.1407  1.2972
 2362TP3      O18904   2.225   3.222   1.886 -0.4814 -0.5423 -0.5976
 2362TP3     H118905   2.221   3.225   1.981  1.5692  4.7039 -0.5750
 2362TP3     H218906   2.141   3.258   1.858 -0.9026 -1.6714 -0.8253
 2363TP3      O18907   0.031   1.540   1.371 -0.3280 -0.2350 -0.1304
 2363TP3     H118908  -0.053   1.505   1.341  0.1474 -1.1142 -0.4636
 2363TP3     H218909   0.021   1.635   1.364 -1.1834 -0.3418 -0.4742
 2364TP3      O18910   3.857   1.713   0.303 -0.0375  0.1228 -0.2890
 2364TP3     H118911   3.782   1.715   0.243  1.9814  2.0769 -2.8974
 2364TP3     H218912   3.926   1.669   0.253  0.7130 -1.3595  1.9557
 2365TP3      O18913   2.226   2.631   7.707  0.5204  0.2285  0.0371
 2365TP3     H118914   2.147   2.635   7.654  0.6756  0.9701 -0.1480
 2365TP3     H218915   2.297   2.617   7.644  0.6070  0.2054  0.1381
 2366TP3      O18916   4.792   5.037   1.974 -0.2506  0.8098 -0.2293
 2366TP3     H118917   4.858   4.971   1.996  0.0901  0.4636 -2.1895
 2366TP3     H218918   4.715   5.012   2.024  0.1075 -0.6570 -0.3969
 2367TP3      O18919   3.655   0.062   0.895  0.4907 -0.6219  0.3196
 2367TP3     H118920   3.672  -0.030   0.874  0.0529 -0.7250  0.4110
 2367TP3     H218921   3.731   0.090   0.947  0.4724 -1.0255  0.5657
 2368TP3      O18922   0.204   1.689   7.690 -0.3443 -0.1883  0.5926
 2368TP3     H118923   0.225   1.598   7.709  0.2133 -0.4260 -1.0700
 2368TP3     H218924   0.232   1.702   7.599  1.7390  2.2716  1.5042
 2369TP3      O18925   2.836   4.966  10.110  0.0226 -0.2843  0.2953
 2369TP3     H118926   2.870   4.918  10.034  0.8207  0.3603  0.2313
 2369TP3     H218927   2.907   4.962  10.174 -1.2551 -2.1738  1.6116
 2370TP3      O18928   5.230   1.683   0.423  0.1099 -0.5756 -0.2877
 2370TP3     H118929   5.307   1.659   0.371 -0.4229 -0.8346 -0.9690
 2370TP3     H218930   5.214   1.606   0.479  0.4434 -0.4552 -0.0264
 2371TP3      O18931   1.449   0.951   8.783  0.4047  0.1578  0.6926
 2371TP3     H118932   1.381   0.884   8.793  0.3599 -0.1275 -1.3211
 2371TP3     H218933   1.458   0.989   8.871 -0.9813 -1.1125  1.4155
 2372TP3      O18934   1.779   2.972   1.938 -0.0019  0.2073 -0.1504
 2372TP3     H118935   1.820   3.043   1.987  0.7111 -0.9234  0.9202
 2372TP3     H218936   1.701   2.950   1.988 -0.1206  0.1189 -0.3740
 2373TP3      O18937   1.851   2.840  10.145 -0.1653  0.2967  0.1522
 2373TP3     H118938   1.778   2.785  10.117 -1.1263  1.2503  0.7578
 2373TP3     H218939   1.817   2.888  10.220  0.9991  0.9650  0.2600
 2374TP3      O18940   1.129   0.626   7.954 -0.0294 -0.0958  0.3159
 2374TP3     H118941   1.206   0.648   7.901  0.4412  0.9385  1.4038
 2374TP3     H218942   1.156   0.551   8.007 -0.0529 -0.2762  0.0722
 2375TP3      O18943   3.012   2.387   9.167 -0.1620  0.7327 -0.2256
 2375TP3     H118944   3.069   2.355   9.236  0.3143  1.2426 -0.3762
 2375TP3     H218945   2.944   2.437   9.212 -0.6525 -0.1063 -0.0276
 2376TP3      O18946   3.904   0.132   7.335  0.1445  0.3001 -0.0009
 2376TP3     H118947   3.878   0.063   7.274 -2.6788 -0.1996  1.6629
 2376TP3     H218948   3.878   0.213   7.292  1.5136  0.2121 -1.0257
 2377TP3      O18949   0.334   2.535   6.669  0.0137 -0.4652 -0.2112
 2377TP3     H118950   0.252   2.510   6.712 -0.6470 -1.4359 -1.9939
 2377TP3     H218951   0.334   2.631   6.673 -0.7161 -0.4842  0.6756
 2378TP3      O18952   0.410   3.386   7.478 -0.1006 -0.0818 -0.3702
 2378TP3     H118953   0.372   3.469   7.506 -1.0417 -0.3214 -0.9079
 2378TP3     H218954   0.504   3.402   7.477 -0.2121  0.7050  0.4069
 2379TP3      O18955   1.817   4.592   7.919 -0.6165  0.0147 -0.1823
 2379TP3     H118956   1.799   4.634   7.835 -1.4865 -2.5211 -1.3265
 2379TP3     H218957   1.736   4.601   7.969  0.0272  1.8559  0.5389
 2380TP3      O18958   1.587   0.220   7.498  0.0010 -0.2118 -0.6903
 2380TP3     H118959   1.535   0.291   7.461  2.1600  0.8101 -1.9225
 2380TP3     H218960   1.670   0.224   7.449  0.7738 -2.5260  0.3691
 2381TP3      O18961   4.127   2.549  10.033  0.2555  0.3159 -0.6327
 2381TP3     H118962   4.213   2.590  10.041  0.0584  0.6437 -0.2154
 2381TP3     H218963   4.086   2.562  10.119 -0.4693  0.7287 -1.0395
 2382TP3      O18964   5.256   2.658   9.358  0.6074  0.1831  0.2150
 2382TP3     H118965   5.247   2.574   9.401 -0.1989  0.1804  0.0412
 2382TP3     H218966   5.167   2.692   9.352  0.9359  1.0866  0.3600
 2383TP3      O18967   4.054   4.213   1.252  0.3971  0.0673 -0.0105
 2383TP3     H118968   4.044   4.132   1.201  2.8924  0.2387 -0.8649
 2383TP3     H218969   4.066   4.281   1.186  1.8130  0.5748  0.7438
 2384TP3      O18970   3.434   3.979   7.503 -0.4276  0.1709 -0.6339
 2384TP3     H118971   3.392   3.989   7.589 -0.2810  0.4408 -0.5951
 2384TP3     H218972   3.366   3.938   7.449  0.1184 -1.7908  0.1223
 2385TP3      O18973   2.653   4.309   9.889  0.2803  0.0036 -0.0748
 2385TP3     H118974   2.733   4.278   9.847  0.9537 -0.3136  1.4327
 2385TP3     H218975   2.682   4.351   9.970 -1.1078 -0.6722  0.7957
 2386TP3      O18976   2.628   2.394   9.710 -0.6363  0.3869 -0.2748
 2386TP3     H118977   2.555   2.449   9.685  0.3457  0.7095 -2.6330
 2386TP3     H218978   2.704   2.435   9.668 -0.0052 -3.1159 -2.7985
 2387TP3      O18979   4.367   1.224   7.683  0.1574 -0.0322  0.8396
 2387TP3     H118980   4.315   1.160   7.732 -0.6656  0.6392  0.8528
 2387TP3     H218981   4.310   1.300   7.674 -1.7641 -1.8818 -5.6640
 2388TP3      O18982   3.826   1.975   8.415  0.2368 -0.3819 -0.3145
 2388TP3     H118983   3.837   1.988   8.509 -0.1213  0.1498 -0.3445
 2388TP3     H218984   3.759   2.039   8.390  0.4359 -0.4251 -0.9542
 2389TP3      O18985   2.450   4.893   9.119 -0.4355 -0.3293 -0.3406
 2389TP3     H118986   2.444   4.975   9.069 -1.2839 -0.8108 -1.0285
 2389TP3     H218987   2.388   4.834   9.077  0.3379 -1.4111  0.0133
 2390TP3      O18988   5.130   4.617   2.812  0.1004 -0.1497  0.5741
 2390TP3     H118989   5.091   4.575   2.889 -1.9272  0.8927  0.1420
 2390TP3     H218990   5.216   4.646   2.842 -0.5161 -0.0942  2.3628
 2391TP3      O18991   5.259   4.327   9.783  0.4368  0.0018 -0.1241
 2391TP3     H118992   5.298   4.363   9.703 -0.1915  0.6366 -0.1480
 2391TP3     H218993   5.232   4.403   9.833 -0.4673 -0.4285  0.0452
 2392TP3      O18994   0.723   0.487   2.708  0.6122 -0.3346 -0.0871
 2392TP3     H118995   0.691   0.575   2.727  1.6535  0.3638 -1.5720
 2392TP3     H218996   0.785   0.498   2.637 -0.2674 -2.4391 -1.2234
 2393TP3      O18997   5.128   3.988   2.665 -0.9252 -0.1711 -0.1482
 2393TP3     H118998   5.145   3.894   2.668  0.0882  0.0631  2.5946
 2393TP3     H218999   5.214   4.028   2.671 -1.4556  0.9477  0.0549
 2394TP3      O19000   4.549   1.051   0.597  0.0951  0.1579 -0.1693
 2394TP3     H119001   4.487   1.002   0.650  0.1619 -0.0986 -0.3243
 2394TP3     H219002   4.495   1.096   0.531  0.0290  0.3405  0.0094
 2395TP3      O19003   4.560   3.835   9.454 -0.3045  1.3274  0.1772
 2395TP3     H119004   4.551   3.867   9.364 -1.4856  0.9609  0.1528
 2395TP3     H219005   4.586   3.744   9.444 -1.0352  1.1131  0.1926
 2396TP3      O19006   4.633   3.572   7.471 -0.5481 -0.0574 -0.3482
 2396TP3     H119007   4.550   3.549   7.429 -0.0795 -1.4510 -0.5278
 2396TP3     H219008   4.648   3.502   7.535 -0.7851  1.5429  1.5170
 2397TP3      O19009   0.663   3.448   8.631 -0.7349 -0.0370 -0.4329
 2397TP3     H119010   0.685   3.401   8.551 -0.8764 -0.6551 -0.1119
 2397TP3     H219011   0.735   3.511   8.643 -1.3112  0.8557 -1.6714
 2398TP3      O19012   3.630   1.731   7.428  0.2933  0.0814 -0.4854
 2398TP3     H119013   3.664   1.816   7.400  0.4425 -0.4871 -2.0500
 2398TP3     H219014   3.637   1.675   7.351  0.2132 -1.3702  0.5381
 2399TP3      O19015   2.573   4.233   8.268 -0.0267 -0.0054 -0.0055
 2399TP3     H119016   2.604   4.143   8.259 -1.4464 -0.4279 -0.8007
 2399TP3     H219017   2.652   4.287   8.257  0.9315 -1.1557  1.0895
 2400TP3      O19018   4.824   2.767   0.957 -0.5376 -0.1558  0.2344
 2400TP3     H119019   4.870   2.847   0.982  1.3717 -0.5632 -1.7878
 2400TP3     H219020   4.740   2.796   0.922 -1.8181  0.6237  3.7464
 2401TP3      O19021   3.964   0.026   9.290  0.0051  0.9972  0.2440
 2401TP3     H119022   3.871   0.009   9.281  0.3654 -0.5703 -0.5731
 2401TP3     H219023   3.990   0.064   9.206  0.5552 -0.6614 -0.3378
 2402TP3      O19024   3.312   0.640   7.838 -0.3484 -0.8959 -0.4848
 2402TP3     H119025   3.343   0.550   7.828  0.6581 -0.5250 -0.7242
 2402TP3     H219026   3.381   0.685   7.886 -0.1191  0.1454 -1.7505
 2403TP3      O19027   2.948   1.297   9.324  0.3031  0.8858 -0.1539
 2403TP3     H119028   2.950   1.254   9.238  0.4593  1.3458 -0.3838
 2403TP3     H219029   2.860   1.334   9.329  0.5002  1.3939 -0.3864
 2404TP3      O19030   0.792   3.739   8.723  0.5831 -0.0570 -0.3458
 2404TP3     H119031   0.819   3.748   8.632 -0.8844 -0.3026 -0.8156
 2404TP3     H219032   0.741   3.817   8.741  1.0685  0.1063  0.3437
 2405TP3      O19033   1.544   0.927   7.966 -0.3310  0.1325  0.1419
 2405TP3     H119034   1.590   0.947   8.047  0.8814 -3.4625  0.4122
 2405TP3     H219035   1.535   0.832   7.965 -2.0154  0.2213 -3.0410
 2406TP3      O19036   2.473   1.452  10.126 -0.0952 -0.2091 -0.6719
 2406TP3     H119037   2.394   1.405  10.102 -0.1987 -0.7636  0.7215
 2406TP3     H219038   2.508   1.485  10.043 -1.5140 -0.3782 -1.3373
 2407TP3      O19039   3.410   5.229   9.150  0.1101  0.4053 -0.4126
 2407TP3     H119040   3.445   5.306   9.105  0.6561  0.6387  0.4082
 2407TP3     H219041   3.484   5.192   9.197 -0.4793  0.2230  0.3858
 2408TP3      O19042   0.524   3.008   9.020  0.0022  1.1191 -0.3154
 2408TP3     H119043   0.459   3.025   9.089 -0.7819 -0.0181 -0.7580
 2408TP3     H219044   0.492   2.928   8.977  2.0787  0.1421 -0.0884
 2409TP3      O19045   3.503   1.808   3.027 -0.2176 -0.0028 -0.2729
 2409TP3     H119046   3.421   1.767   3.002 -1.0437  1.7114 -0.4315
 2409TP3     H219047   3.494   1.900   3.000  0.4324  0.9769  2.6639
 2410TP3      O19048   2.910   5.227   8.903 -0.1087 -0.3683  0.3713
 2410TP3     H119049   3.002   5.220   8.928 -0.0941  1.2357  0.8184
 2410TP3     H219050   2.862   5.184   8.974  0.2581 -0.7195  0.4076
 2411TP3      O19051   3.097   3.394   9.295  0.2404  0.0069 -0.0733
 2411TP3     H119052   3.179   3.364   9.255  2.1334 -0.8195  4.2168
 2411TP3     H219053   3.063   3.318   9.341 -0.8450  1.4395  1.5540
 2412TP3      O19054   0.373   2.878   7.871  0.0478 -0.0266  0.2166
 2412TP3     H119055   0.462   2.862   7.840 -0.0363 -1.3016  0.6188
 2412TP3     H219056   0.381   2.877   7.967 -0.2926  0.5325  0.2576
 2413TP3      O19057   0.471   3.973   7.773 -0.5999  0.0538 -0.3464
 2413TP3     H119058   0.502   4.053   7.731 -0.5147 -0.5277 -1.4266
 2413TP3     H219059   0.408   3.936   7.710  1.5495 -2.2417 -1.2329
 2414TP3      O19060   4.014   1.028   9.302  0.0984  0.4201 -0.0284
 2414TP3     H119061   3.998   0.992   9.389 -1.6313 -1.1631 -0.9790
 2414TP3     H219062   4.106   1.053   9.304  0.6307 -1.4843  1.5930
 2415TP3      O19063   1.782   2.576   9.085 -0.1425  0.2203 -0.7881
 2415TP3     H119064   1.688   2.554   9.085 -0.4303  1.4207  0.1084
 2415TP3     H219065   1.812   2.555   9.173  0.2542  0.6035 -0.8299
 2416TP3      O19066   2.692   1.238   2.651  0.2606 -0.3844  0.5751
 2416TP3     H119067   2.740   1.155   2.656  0.4186 -0.3761 -0.5643
 2416TP3     H219068   2.761   1.304   2.641  0.0614 -0.2926 -0.2404
 2417TP3      O19069   2.311   1.441   9.755  0.2533 -0.7246  0.7507
 2417TP3     H119070   2.262   1.518   9.784 -0.5217 -1.8668  2.5479
 2417TP3     H219071   2.246   1.385   9.714  1.0263  0.0576 -1.6237
 2418TP3      O19072   1.341   5.175  10.161 -0.1666  0.3236 -0.2205
 2418TP3     H119073   1.369   5.155  10.250 -0.1386  0.3776 -0.2174
 2418TP3     H219074   1.268   5.236  10.172  0.6821  1.3632 -0.2682
 2419TP3      O19075   4.403   2.076   2.258  0.1784  0.1544  0.4459
 2419TP3     H119076   4.381   2.158   2.213  0.7867  0.4959  0.7647
 2419TP3     H219077   4.325   2.021   2.248 -0.4578  0.9941  0.7251
 2420TP3      O19078   2.348   4.174   9.647 -0.1438 -0.1975  0.3011
 2420TP3     H119079   2.321   4.204   9.734 -2.4482  0.5969 -0.6363
 2420TP3     H219080   2.310   4.087   9.639 -0.4188 -0.0360 -0.1390
 2421TP3      O19081   2.987   3.020   0.971  0.3965  0.0954 -0.3748
 2421TP3     H119082   2.976   3.115   0.978 -1.1471 -0.0944 -0.2125
 2421TP3     H219083   2.974   2.988   1.060  0.2353 -0.3453 -0.5579
 2422TP3      O19084   2.575   0.358   1.790 -0.3103  0.2065 -0.2423
 2422TP3     H119085   2.665   0.326   1.795  0.2693  1.7081 -1.0384
 2422TP3     H219086   2.566   0.419   1.864 -0.9895 -0.6726  0.4229
 2423TP3      O19087   1.705   0.276   7.990  0.9861 -0.2098  0.0736
 2423TP3     H119088   1.686   0.225   7.911 -2.0073 -0.8440  1.1737
 2423TP3     H219089   1.620   0.301   8.025  2.3136  2.2100  1.7613
 2424TP3      O19090   1.870   2.845   9.137 -0.3555 -0.2956  0.2843
 2424TP3     H119091   1.820   2.764   9.142  0.3373 -0.7731 -0.2560
 2424TP3     H219092   1.833   2.891   9.061 -0.1230 -0.5503  0.0124
 2425TP3      O19093   2.605   2.616   8.555 -0.6076  0.7817  0.4124
 2425TP3     H119094   2.545   2.547   8.583 -0.0659  0.3941  0.6106
 2425TP3     H219095   2.623   2.666   8.635 -0.8455  1.0420  0.3070
 2426TP3      O19096   0.388   4.646   7.859  0.1863  0.3732 -0.1125
 2426TP3     H119097   0.453   4.613   7.920 -0.6503  0.2634  0.7229
 2426TP3     H219098   0.314   4.671   7.913 -0.7903 -0.2574 -1.1314
 2427TP3      O19099   0.985   3.121   3.383  0.0969 -0.1474 -0.1034
 2427TP3     H119100   1.048   3.166   3.440 -0.8098  1.4262 -0.3142
 2427TP3     H219101   1.033   3.047   3.348  1.3307  0.0909  1.0375
 2428TP3      O19102   4.580   4.293   7.667 -0.3319  0.2314  0.0244
 2428TP3     H119103   4.498   4.277   7.621 -0.0299 -0.1350 -0.3910
 2428TP3     H219104   4.594   4.214   7.719 -0.1845  0.2480  0.0096
 2429TP3      O19105   4.953   3.512   8.823  0.4056 -0.0833  0.6215
 2429TP3     H119106   4.916   3.425   8.812 -3.1231  1.4720 -0.1836
 2429TP3     H219107   4.918   3.543   8.907  2.4856  0.1857  1.4296
 2430TP3      O19108   1.039   1.466   2.316  0.2956  0.1166 -0.7308
 2430TP3     H119109   1.090   1.465   2.236 -0.7206 -3.4037 -1.4507
 2430TP3     H219110   0.952   1.497   2.289 -0.6539 -3.0195 -1.5023
 2431TP3      O19111   0.015   4.568   8.863  0.5995  0.0065  0.1662
 2431TP3     H119112  -0.049   4.498   8.874 -3.2043  2.6319 -3.4785
 2431TP3     H219113   0.073   4.536   8.794 -0.0978 -0.2534 -0.3078
 2432TP3      O19114   4.190   1.427   7.638 -0.0997  0.1114  0.2177
 2432TP3     H119115   4.224   1.516   7.653 -0.3968  0.2531  0.0393
 2432TP3     H219116   4.194   1.415   7.544 -0.1486 -0.0298  0.2334
 2433TP3      O19117   3.894   0.343   0.539  0.2322 -0.1002  0.3395
 2433TP3     H119118   3.963   0.407   0.519  1.4042 -1.5116 -0.1802
 2433TP3     H219119   3.941   0.269   0.578 -0.7133 -1.9472 -1.9490
 2434TP3      O19120   2.951   4.770   2.578 -0.4490 -0.1426 -0.1336
 2434TP3     H119121   3.037   4.805   2.556 -0.5484  0.1134 -0.1215
 2434TP3     H219122   2.969   4.687   2.622 -0.2110 -0.1189 -0.1866
 2435TP3      O19123   0.398   0.590   1.211  0.1385  0.4923 -0.3014
 2435TP3     H119124   0.322   0.569   1.157 -0.2096 -0.6055  0.6096
 2435TP3     H219125   0.473   0.555   1.162 -0.2767 -1.4445  0.4048
 2436TP3      O19126   2.942   0.332   1.146 -0.5812 -0.1589 -0.3860
 2436TP3     H119127   2.931   0.252   1.095  0.3451  0.0028 -0.8410
 2436TP3     H219128   2.919   0.403   1.086 -0.3044 -0.0168 -0.3235
 2437TP3      O19129   0.004   0.292   0.536  0.3770 -0.9036 -0.8370
 2437TP3     H119130  -0.067   0.337   0.582  2.1342 -0.6193  1.6897
 2437TP3     H219131   0.053   0.361   0.492  1.3355 -0.6384  0.6124
 2438TP3      O19132   1.871   5.041   2.479  0.0388  0.0335 -0.5081
 2438TP3     H119133   1.923   4.995   2.545 -0.3089  0.1569 -0.1453
 2438TP3     H219134   1.932   5.104   2.440 -0.2678  1.3755  1.0965
 2439TP3      O19135   4.375   1.735   2.744  0.4573  0.1283  0.5907
 2439TP3     H119136   4.392   1.806   2.682  0.2906 -1.2521 -1.0460
 2439TP3     H219137   4.416   1.658   2.705 -3.5126 -1.7539 -0.0726
 2440TP3      O19138   0.159   4.647   0.817  0.1481  0.5580  0.3702
 2440TP3     H119139   0.065   4.657   0.835  0.0070  0.2389 -0.1561
 2440TP3     H219140   0.202   4.712   0.872 -0.4054  0.8692  0.4352
 2441TP3      O19141   3.418   1.833   0.247 -0.1590  0.2100 -0.0282
 2441TP3     H119142   3.463   1.908   0.287 -0.3726  0.7727 -0.8432
 2441TP3     H219143   3.481   1.761   0.255  0.1550  0.5424  0.5120
 2442TP3      O19144   1.739   4.985   2.883 -0.0817 -0.1971 -0.1245
 2442TP3     H119145   1.752   5.071   2.923 -1.4770  0.7919 -1.7339
 2442TP3     H219146   1.826   4.959   2.853 -0.1606  2.2704 -2.7603
 2443TP3      O19147   2.254   0.475   2.949  0.2607 -0.4158 -0.5500
 2443TP3     H119148   2.295   0.407   2.895  0.2328 -1.3380  0.5748
 2443TP3     H219149   2.313   0.486   3.023 -0.1511  0.1922 -0.3121
 2444TP3      O19150   3.906   3.908   1.214  0.2014  0.0521 -0.2313
 2444TP3     H119151   3.881   3.824   1.174 -0.3277 -0.8264  1.9175
 2444TP3     H219152   3.984   3.934   1.165 -0.1708 -1.2051 -1.5595
 2445TP3      O19153   1.600   2.961   8.202  0.5085 -0.6586 -0.8254
 2445TP3     H119154   1.650   2.941   8.123 -1.8128  0.1790 -2.5747
 2445TP3     H219155   1.516   2.916   8.189 -0.0633 -0.1191  0.9276
 2446TP3      O19156   0.145   4.980   0.148  1.1245 -0.0482 -0.3542
 2446TP3     H119157   0.073   4.921   0.126  1.3732 -0.5238  0.0844
 2446TP3     H219158   0.116   5.023   0.229  1.5831 -0.6756  0.1465
 2447TP3      O19159   3.305   5.122   7.571 -0.1365 -0.1453 -0.4404
 2447TP3     H119160   3.312   5.167   7.487 -2.0272 -0.3373 -0.7340
 2447TP3     H219161   3.236   5.056   7.557  1.3840 -1.9842  0.4706
 2448TP3      O19162   0.616   1.500   7.825  0.1590 -0.4098  0.5327
 2448TP3     H119163   0.628   1.571   7.762 -0.8959  0.1316  0.9439
 2448TP3     H219164   0.577   1.542   7.901 -0.6000 -1.4632  0.7243
 2449TP3      O19165   3.275   2.123   0.457 -0.2279 -0.2074  0.4708
 2449TP3     H119166   3.229   2.065   0.518  1.1710 -0.4007  1.3685
 2449TP3     H219167   3.308   2.194   0.511 -0.2861  0.4250 -0.3148
 2450TP3      O19168   0.648   2.323   0.964  0.3534 -0.8149  0.2378
 2450TP3     H119169   0.619   2.235   0.987 -3.6078  0.5884  1.0389
 2450TP3     H219170   0.619   2.336   0.874 -2.0284  0.7321  1.1589
 2451TP3      O19171   2.416   2.146   1.056 -0.2646  0.5528 -0.0259
 2451TP3     H119172   2.474   2.217   1.084 -1.4051  1.8831 -0.9519
 2451TP3     H219173   2.399   2.165   0.963 -1.6756 -0.1720  0.0782
 2452TP3      O19174   2.934   1.140   1.656  0.3384  0.4975 -0.3799
 2452TP3     H119175   2.874   1.214   1.667 -0.5581 -0.0782 -1.3813
 2452TP3     H219176   2.972   1.128   1.743  0.1261  1.8266 -0.0948
 2453TP3      O19177   4.437   1.270   2.504  0.2516 -0.1130 -1.1479
 2453TP3     H119178   4.522   1.258   2.545 -0.6465 -0.4767  0.6503
 2453TP3     H219179   4.425   1.365   2.498  0.1108 -0.0424  0.0695
 2454TP3      O19180   3.978   1.001   2.458 -0.0846  0.4658 -0.0032
 2454TP3     H119181   4.061   1.031   2.422 -0.5394  2.4427  0.5241
 2454TP3     H219182   3.930   0.967   2.383  0.0451  2.0538 -0.8205
 2455TP3      O19183   3.191   0.463   8.671 -0.2205  0.1446  0.3138
 2455TP3     H119184   3.174   0.386   8.616  0.2632  0.5310 -0.3894
 2455TP3     H219185   3.114   0.518   8.659  0.7269  1.1061 -1.5077
 2456TP3      O19186   0.765   3.429   9.258  0.2183  0.0958  0.3671
 2456TP3     H119187   0.836   3.381   9.300  1.2269  0.9457 -0.3195
 2456TP3     H219188   0.687   3.379   9.277  1.2420 -1.7862 -0.2744
 2457TP3      O19189   4.441   5.125   1.133  0.4708 -0.0221 -0.0236
 2457TP3     H119190   4.425   5.040   1.174  0.9896 -0.5750 -0.9440
 2457TP3     H219191   4.517   5.160   1.180 -0.4617  0.4527  1.1309
 2458TP3      O19192   0.143   4.615   8.052 -0.2975 -0.2691  0.0755
 2458TP3     H119193   0.079   4.631   7.982 -0.2562  1.4230  0.4136
 2458TP3     H219194   0.091   4.588   8.127 -0.5394  0.1815  0.0707
 2459TP3      O19195   5.215   4.641   9.884 -0.0981 -0.0619 -0.1021
 2459TP3     H119196   5.225   4.720   9.937  1.0305  0.4709 -1.0779
 2459TP3     H219197   5.198   4.674   9.796  0.3445 -0.9147 -0.5091
 2460TP3      O19198   5.123   0.837   7.231 -0.0744  0.2233  0.2460
 2460TP3     H119199   5.147   0.760   7.283  0.6167  0.6212  0.5217
 2460TP3     H219200   5.165   0.822   7.146 -0.7023 -0.1405  0.0015
 2461TP3      O19201   3.121   1.850   9.730  0.0233 -0.2096 -0.1939
 2461TP3     H119202   3.175   1.883   9.658 -0.1586  2.2337  0.7445
 2461TP3     H219203   3.042   1.816   9.687 -0.3263  1.7349 -1.1247
 2462TP3      O19204   1.214   0.951   8.208  0.3227  0.2635 -0.6112
 2462TP3     H119205   1.164   0.974   8.129 -0.6919 -0.1497 -0.0946
 2462TP3     H219206   1.168   0.996   8.279  0.0832 -0.9462  0.0068
 2463TP3      O19207   2.795   2.882   9.531  0.0207 -0.0164  1.0512
 2463TP3     H119208   2.771   2.919   9.447  3.3750 -2.3638 -1.0659
 2463TP3     H219209   2.770   2.790   9.525  2.0296 -0.6497  1.8242
 2464TP3      O19210   3.280   2.335   1.782 -0.3160 -0.2501  0.2727
 2464TP3     H119211   3.287   2.248   1.822 -0.5919 -0.3930  0.0089
 2464TP3     H219212   3.295   2.395   1.855 -0.6618 -0.5117  0.5640
 2465TP3      O19213   3.111   5.219   0.058 -0.1162 -0.2388  0.1721
 2465TP3     H119214   3.098   5.213  -0.037 -0.3138 -1.0405  0.2494
 2465TP3     H219215   3.022   5.213   0.094 -0.1609  1.3347  0.3483
 2466TP3      O19216   0.298   0.639   9.563 -0.0184 -0.1015  0.4804
 2466TP3     H119217   0.345   0.631   9.646 -1.1792  0.4569  1.2075
 2466TP3     H219218   0.347   0.705   9.514  2.1629 -2.2660 -0.3481
 2467TP3      O19219   0.564   0.768   8.822  0.6159  0.1214 -0.0400
 2467TP3     H119220   0.535   0.833   8.758  1.5443 -0.5088 -1.1269
 2467TP3     H219221   0.601   0.819   8.894  0.1940  0.8127 -0.3129
 2468TP3      O19222   2.154   1.725   0.615 -0.5390  0.0478  0.0604
 2468TP3     H119223   2.201   1.806   0.595 -0.2053  0.0905  0.9627
 2468TP3     H219224   2.223   1.663   0.639 -0.8120 -0.4346 -0.4056
 2469TP3      O19225   3.810   2.536   1.265 -0.2306 -0.2556  0.5387
 2469TP3     H119226   3.903   2.539   1.246 -0.6049 -0.0436 -1.3512
 2469TP3     H219227   3.791   2.619   1.309  0.2412  0.2222 -0.1663
 2470TP3      O19228   1.023   2.473   8.216  0.2673  0.0926  0.2313
 2470TP3     H119229   1.018   2.381   8.241  0.9471 -0.0084  0.0195
 2470TP3     H219230   0.935   2.507   8.230  0.0330 -0.5719  0.3824
 2471TP3      O19231   1.639   1.813  10.013  0.5691 -0.0722  0.0155
 2471TP3     H119232   1.616   1.774  10.098  0.1951  0.6468  0.2474
 2471TP3     H219233   1.559   1.803   9.961  0.2904  0.8797  0.2577
 2472TP3      O19234   0.903   4.418   0.259 -0.3505  0.2009  0.2025
 2472TP3     H119235   0.971   4.410   0.192 -0.0601  0.6506  0.4345
 2472TP3     H219236   0.904   4.511   0.282 -2.8141  0.7354 -1.6377
 2473TP3      O19237   1.000   3.995   0.351  0.7557 -0.4870 -0.3194
 2473TP3     H119238   1.080   4.012   0.303  0.4643 -1.0017 -0.9940
 2473TP3     H219239   0.931   4.002   0.285  0.2666 -0.2900  0.2074
 2474TP3      O19240   2.710   4.763   0.740 -0.0468 -0.2285 -0.0814
 2474TP3     H119241   2.697   4.796   0.829  1.6879  1.4491 -0.4237
 2474TP3     H219242   2.622   4.739   0.711 -0.6412 -0.8555  2.0833
 2475TP3      O19243   0.432   1.808   9.687 -0.1995  0.0157  0.5417
 2475TP3     H119244   0.486   1.767   9.619  0.3942  0.8907  0.4803
 2475TP3     H219245   0.405   1.892   9.649  0.3323  0.6168  1.4832
 2476TP3      O19246   2.898   1.181   9.061 -0.7964  0.5507  0.0516
 2476TP3     H119247   2.805   1.163   9.076 -0.8257 -0.1266 -0.9446
 2476TP3     H219248   2.933   1.100   9.026  0.3459  0.5650  1.1104
 2477TP3      O19249   3.720   2.479   7.773 -1.0565 -0.1084  0.6024
 2477TP3     H119250   3.776   2.405   7.754 -0.6017  0.1697  0.8548
 2477TP3     H219251   3.720   2.485   7.869  0.5772  1.4763  0.5301
 2478TP3      O19252   3.281   2.091   1.886 -0.1521 -0.6187 -0.0339
 2478TP3     H119253   3.197   2.104   1.930  0.1787 -0.8876  0.6851
 2478TP3     H219254   3.324   2.022   1.937  1.4728  1.1084  0.9926
 2479TP3      O19255   4.325   4.305   0.541 -0.1591 -0.6725  0.5359
 2479TP3     H119256   4.366   4.386   0.513  1.4679 -2.3153 -2.0051
 2479TP3     H219257   4.392   4.259   0.591  0.1795 -2.0322 -1.1081
 2480TP3      O19258   1.744   2.480   2.562  0.0209 -0.4589 -0.0160
 2480TP3     H119259   1.752   2.476   2.657  1.6023 -0.7424 -0.1378
 2480TP3     H219260   1.834   2.470   2.530 -0.3941  0.3860 -1.5149
 2481TP3      O19261   3.677   0.852   0.192 -0.4027 -0.0837 -0.0480
 2481TP3     H119262   3.645   0.819   0.276 -0.3359 -1.4847 -0.5615
 2481TP3     H219263   3.732   0.781   0.158  0.1496  0.7660 -0.9463
 2482TP3      O19264   3.136   4.692  10.154 -0.0697  0.2312 -0.0367
 2482TP3     H119265   3.173   4.729  10.073 -1.5847  1.3754 -0.2157
 2482TP3     H219266   3.052   4.656  10.127  0.3933 -1.3619  0.6042
 2483TP3      O19267   1.011   3.288   2.711  0.0378  0.2662  0.7279
 2483TP3     H119268   1.045   3.254   2.628 -0.8370  0.3788  0.3234
 2483TP3     H219269   1.056   3.236   2.778 -2.0206 -2.4520  0.1225
 2484TP3      O19270   2.537   0.627   2.715  0.2809 -0.1149  0.0336
 2484TP3     H119271   2.502   0.646   2.628  1.0458  0.5756 -0.1290
 2484TP3     H219272   2.632   0.633   2.705  0.3385  1.1050  1.1831
 2485TP3      O19273   0.439   5.121   3.248 -0.4973 -0.1055 -0.0045
 2485TP3     H119274   0.350   5.128   3.213 -0.4819 -0.5797 -0.1321
 2485TP3     H219275   0.438   5.177   3.326 -1.1567 -0.8249  0.5045
 2486TP3      O19276   2.906   0.182   9.783  0.0808 -0.0434  0.6707
 2486TP3     H119277   2.987   0.131   9.781  0.6143  0.8214 -1.5389
 2486TP3     H219278   2.836   0.118   9.771  0.6940 -0.3684 -1.2635
 2487TP3      O19279   0.075   4.475   0.207 -0.1136  0.1580  0.0965
 2487TP3     H119280   0.083   4.505   0.116  0.5774 -0.6217 -0.1033
 2487TP3     H219281   0.058   4.555   0.257  0.1473  0.6745 -0.6341
 2488TP3      O19282   4.814   4.839   1.275 -0.1824 -0.3121 -0.3856
 2488TP3     H119283   4.807   4.867   1.184 -0.7026 -0.2056 -0.3165
 2488TP3     H219284   4.812   4.743   1.271 -1.1832 -0.2991 -0.4190
 2489TP3      O19285   3.902   2.536   0.435  0.3648 -0.2003  0.4302
 2489TP3     H119286   3.983   2.570   0.397  0.0377  0.6700  0.5035
 2489TP3     H219287   3.869   2.474   0.369  0.1953  0.7375 -0.3837
 2490TP3      O19288   3.763   0.816   0.915 -0.1480 -0.5969  0.1032
 2490TP3     H119289   3.763   0.773   0.830 -1.2526 -1.2990  0.4524
 2490TP3     H219290   3.675   0.802   0.950 -0.3603  1.4264  0.4870
 2491TP3      O19291   1.542   0.844   2.272  0.2393  0.0172 -0.0372
 2491TP3     H119292   1.519   0.899   2.346 -0.7099 -0.6611  0.1778
 2491TP3     H219293   1.608   0.894   2.224  1.3449  0.1684  1.6099
 2492TP3      O19294   1.365   0.195   0.162 -1.1338  0.1217  0.4138
 2492TP3     H119295   1.292   0.242   0.201 -1.0758  1.4326 -0.9982
 2492TP3     H219296   1.348   0.199   0.067  0.6572  0.2584  0.0802
 2493TP3      O19297   3.235   3.303   9.609 -0.1382 -0.1196 -0.1916
 2493TP3     H119298   3.328   3.315   9.625  0.0452 -1.8245  0.0590
 2493TP3     H219299   3.215   3.216   9.644 -1.8023  0.1987 -0.3086
 2494TP3      O19300   3.162   3.965   0.137 -0.3632 -0.5295 -0.5013
 2494TP3     H119301   3.194   4.020   0.066  0.0769  0.2415  0.2804
 2494TP3     H219302   3.151   4.025   0.211  1.9463 -1.7736  0.9197
 2495TP3      O19303   0.795   4.672   8.625  0.4443 -0.4775 -0.6212
 2495TP3     H119304   0.724   4.615   8.594 -0.2439 -0.0996  0.2240
 2495TP3     H219305   0.861   4.612   8.658 -0.7060 -0.7913  1.1853
 2496TP3      O19306   0.674   4.773   9.670  0.2089 -0.3410 -0.3083
 2496TP3     H119307   0.640   4.856   9.706 -0.9525 -1.1419  0.4909
 2496TP3     H219308   0.732   4.740   9.738 -0.1867 -0.7255 -0.1603
 2497TP3      O19309   1.259   0.739   0.984 -0.5334  0.2975  0.2870
 2497TP3     H119310   1.214   0.654   0.987  0.4617 -0.2121  1.1874
 2497TP3     H219311   1.251   0.773   1.073  2.1625 -0.5156  0.9037
 2498TP3      O19312   2.256   1.889   9.576 -0.3458 -0.2245  0.1819
 2498TP3     H119313   2.268   1.886   9.671 -1.2432 -1.2861  0.2894
 2498TP3     H219314   2.258   1.982   9.554  1.0370 -0.0335  1.0794
 2499TP3      O19315   1.270   5.047   0.507 -0.2501 -0.2651  0.0086
 2499TP3     H119316   1.201   5.100   0.469  0.6789 -0.2723 -1.7107
 2499TP3     H219317   1.341   5.049   0.443  0.7402 -1.5588  1.0266
 2500TP3      O19318   1.249   4.550   9.397  0.1805  0.1737 -0.6864
 2500TP3     H119319   1.162   4.511   9.386  0.4142 -0.7933  0.7711
 2500TP3     H219320   1.244   4.594   9.482  1.4160 -0.6721 -0.1751
 2501TP3      O19321   1.573   1.621   1.109 -0.2036 -0.4863 -0.5226
 2501TP3     H119322   1.524   1.683   1.162 -0.4402 -1.9754  1.0569
 2501TP3     H219323   1.641   1.674   1.067 -0.3764  0.8442  0.8172
 2502TP3      O19324   4.620   2.926   0.838  0.4184 -0.2197  0.3557
 2502TP3     H119325   4.704   2.971   0.841  0.5150 -0.3591 -0.2785
 2502TP3     H219326   4.556   2.995   0.853  0.5265  0.2776 -1.3544
 2503TP3      O19327   1.125   2.015   0.543  0.4094  0.1995 -0.8021
 2503TP3     H119328   1.131   2.035   0.636 -0.5553  0.0022 -0.6932
 2503TP3     H219329   1.216   2.010   0.514  0.8253 -2.7588  0.7942
 2504TP3      O19330   1.952   1.189   1.405 -0.7885  0.1131 -0.2025
 2504TP3     H119331   1.891   1.124   1.370 -0.9718 -0.7248  1.6235
 2504TP3     H219332   1.895   1.262   1.432 -0.8746 -0.1976  0.4592
 2505TP3      O19333   0.809   0.551   3.390  0.2288  0.4262 -0.5127
 2505TP3     H119334   0.837   0.555   3.299 -0.3856  1.2568 -0.6660
 2505TP3     H219335   0.836   0.635   3.428  1.8855 -0.5234  0.4894
 2506TP3      O19336   3.933   1.897   0.050 -0.3199 -0.0116 -0.2174
 2506TP3     H119337   3.908   1.898  -0.043  0.4427 -3.6790 -0.5686
 2506TP3     H219338   3.959   1.806   0.066  0.8088  0.8553  3.2864
 2507TP3      O19339   2.465   2.563   1.591  0.3760  0.6717  0.2945
 2507TP3     H119340   2.524   2.603   1.528  1.4731  0.6087  1.2484
 2507TP3     H219341   2.429   2.487   1.546  2.7725 -0.5940  0.4237
 2508TP3      O19342   2.651   3.749   1.041  0.5331 -0.5496 -0.2717
 2508TP3     H119343   2.577   3.705   0.999  1.6404 -1.1060 -1.6767
 2508TP3     H219344   2.641   3.729   1.134 -0.4571 -1.5549 -0.5793
 2509TP3      O19345   3.074   3.702   0.643  0.0409  0.1240  0.2452
 2509TP3     H119346   3.124   3.776   0.610  0.4852 -0.5620 -0.6305
 2509TP3     H219347   2.985   3.736   0.652  0.2412  0.7661 -0.1428
 2510TP3      O19348   2.855   0.410   2.198  0.2515  0.5548 -0.0577
 2510TP3     H119349   2.918   0.375   2.261 -0.7203 -2.6542 -0.7609
 2510TP3     H219350   2.902   0.412   2.115 -0.2231 -0.9038 -0.3829
 2511TP3      O19351   4.342   1.827   1.658 -0.3087  0.7015  0.3351
 2511TP3     H119352   4.342   1.772   1.580 -1.1288 -0.1646  0.9197
 2511TP3     H219353   4.375   1.912   1.629 -2.2367  0.9235 -1.3462
 2512TP3      O19354   0.341   4.275   7.368 -0.8709 -0.3952  0.2572
 2512TP3     H119355   0.332   4.344   7.302  0.5598 -0.9998 -0.5916
 2512TP3     H219356   0.293   4.308   7.444  1.1824  2.2979  0.4594
 2513TP3      O19357   3.627   2.412   9.038 -0.1975  0.0627 -0.5666
 2513TP3     H119358   3.558   2.424   8.973 -1.7700 -0.5078  0.9492
 2513TP3     H219359   3.640   2.500   9.074 -1.7308 -0.2006  0.6876
 2514TP3      O19360   3.125   3.447   7.954 -0.0327  0.1579  0.2778
 2514TP3     H119361   3.160   3.406   8.033 -0.9808  0.0557  0.6560
 2514TP3     H219362   3.031   3.449   7.968 -0.0127  2.3828  0.2234
 2515TP3      O19363   0.556   0.771   7.546  0.8084  0.6036  0.3167
 2515TP3     H119364   0.584   0.857   7.578  2.4343  0.2889 -0.1877
 2515TP3     H219365   0.525   0.788   7.457  0.3793  0.7992  0.5047
 2516TP3      O19366   3.150   4.766   8.972  0.1045  0.0409 -0.3975
 2516TP3     H119367   3.103   4.719   8.903  0.0237 -0.1885 -0.1852
 2516TP3     H219368   3.211   4.701   9.008  1.5094  0.6871 -1.5381
 2517TP3      O19369   4.289   2.123   8.989  0.1529 -0.4623 -0.2432
 2517TP3     H119370   4.222   2.185   8.958  0.6410  0.4388  0.4482
 2517TP3     H219371   4.372   2.164   8.965  0.4877 -0.6937  0.5017
 2518TP3      O19372   2.835   3.787   1.480 -0.3252  0.8043 -0.3724
 2518TP3     H119373   2.804   3.818   1.566  0.2280  0.7201 -0.1416
 2518TP3     H219374   2.930   3.791   1.487 -0.2288 -1.3821 -0.1957
 2519TP3      O19375   2.840   0.241   9.131 -0.1910  0.4836 -0.6656
 2519TP3     H119376   2.907   0.308   9.145 -0.1571  0.8346 -2.3541
 2519TP3     H219377   2.858   0.175   9.197  1.2097  1.0559 -0.4489
 2520TP3      O19378   3.095   3.295   1.032  0.2067  0.1500  0.2301
 2520TP3     H119379   3.059   3.340   0.955 -0.0713  0.2982  0.4466
 2520TP3     H219380   3.166   3.352   1.061 -0.1110  0.4207  0.4722
 2521TP3      O19381   4.989   4.671   9.035  0.2583 -0.0475  0.6340
 2521TP3     H119382   4.905   4.673   8.990 -0.1901 -0.8059  1.4388
 2521TP3     H219383   5.052   4.700   8.968 -0.7162  1.1802  0.2398
 2522TP3      O19384   2.752   4.893   2.730  0.4017 -0.5025 -0.4237
 2522TP3     H119385   2.797   4.820   2.686 -0.6586 -2.0143  0.9458
 2522TP3     H219386   2.763   4.874   2.823 -0.4377  0.7719 -0.0711
 2523TP3      O19387   1.037   3.582   2.703 -0.5659 -0.0341 -0.4651
 2523TP3     H119388   1.046   3.500   2.752  1.1318  0.4423  0.0321
 2523TP3     H219389   1.089   3.567   2.623  1.3932  1.2519  0.5346
 2524TP3      O19390   0.001   4.199   9.117 -0.5279  0.5121 -0.0845
 2524TP3     H119391   0.044   4.139   9.056 -2.5148 -1.6020  0.5335
 2524TP3     H219392   0.069   4.262   9.141  1.5243 -1.3395 -0.9451
 2525TP3      O19393   0.852   5.004   0.277  0.3562 -0.0381 -0.3754
 2525TP3     H119394   0.812   4.964   0.355  0.1509  1.0643  0.0927
 2525TP3     H219395   0.888   5.087   0.309  2.5912 -0.7840 -0.8931
 2526TP3      O19396   2.134   0.057   7.622  0.0276 -0.1193 -0.0324
 2526TP3     H119397   2.180   0.129   7.579  0.0012 -0.3388 -0.4313
 2526TP3     H219398   2.058   0.099   7.663 -0.0685  0.0622 -0.3882
 2527TP3      O19399   4.536   3.948   0.324  0.0179 -0.3955  0.3179
 2527TP3     H119400   4.497   4.026   0.284 -1.2840 -2.6394 -3.0286
 2527TP3     H219401   4.623   3.976   0.351  0.0173  1.9480 -1.8475
 2528TP3      O19402   3.469   2.158   9.119  0.1460  0.7344  0.8653
 2528TP3     H119403   3.429   2.161   9.032 -0.7485  0.1911  1.2538
 2528TP3     H219404   3.490   2.250   9.138  1.4494  0.7173 -0.4166
 2529TP3      O19405   2.963   0.621   8.599  0.0668  0.1018  0.1115
 2529TP3     H119406   2.891   0.559   8.587 -0.1006  0.2704  0.2485
 2529TP3     H219407   2.989   0.644   8.510 -0.5866  0.6654  0.0641
 2530TP3      O19408   2.305   0.943   8.480  0.5309  0.8232 -0.6569
 2530TP3     H119409   2.273   0.923   8.392 -0.9637  0.0598  0.0476
 2530TP3     H219410   2.366   0.872   8.500 -0.9393 -0.3150 -0.1504
 2531TP3      O19411   1.439   1.590   2.615  0.3406  1.0093 -0.4834
 2531TP3     H119412   1.494   1.524   2.656 -0.9487 -0.4575 -1.0678
 2531TP3     H219413   1.488   1.672   2.626  2.3853 -0.1622 -0.5419
 2532TP3      O19414   2.914   4.600   1.497  0.0268  0.2850 -0.3783
 2532TP3     H119415   2.869   4.679   1.469  0.2540 -0.1513 -2.0288
 2532TP3     H219416   2.846   4.547   1.539 -0.3601  0.8922 -0.2453
 2533TP3      O19417   3.065   0.049   7.607 -0.2566  0.0868  0.0418
 2533TP3     H119418   3.156   0.040   7.636 -0.4897  2.9066  1.8933
 2533TP3     H219419   3.035  -0.040   7.595  2.4964 -0.9349  0.2332
 2534TP3      O19420   4.847   1.090   9.068 -0.4403 -0.4448  0.0120
 2534TP3     H119421   4.913   1.115   9.132 -1.0696  0.5939  0.2739
 2534TP3     H219422   4.887   1.020   9.017  0.6538 -0.1848  0.5145
 2535TP3      O19423   1.921   1.158   7.520  0.3725 -0.5346  0.1406
 2535TP3     H119424   1.985   1.110   7.574  0.6372 -0.2068  0.1236
 2535TP3     H219425   1.910   1.104   7.443  0.3411 -0.7837  0.3180
 2536TP3      O19426   2.111   2.195   1.297  0.0084  0.1206  0.0260
 2536TP3     H119427   2.107   2.099   1.292 -1.3219  0.1805 -0.1721
 2536TP3     H219428   2.034   2.220   1.346  2.2665  0.9053  3.3272
 2537TP3      O19429   2.740   0.429   7.786 -0.5088  0.2316 -0.1721
 2537TP3     H119430   2.769   0.441   7.696 -0.9987  0.9946 -0.2348
 2537TP3     H219431   2.821   0.414   7.835 -0.2788 -0.6073 -0.8003
 2538TP3      O19432   2.384   0.765   0.510  0.5998 -0.2923 -0.3783
 2538TP3     H119433   2.393   0.689   0.452 -0.7037 -0.9343  0.2480
 2538TP3     H219434   2.315   0.818   0.469  1.2315  0.3645 -0.6026
 2539TP3      O19435   3.989   3.788   2.872  0.4165  0.4272 -0.6908
 2539TP3     H119436   4.048   3.766   2.801 -0.2323 -0.6291 -0.9242
 2539TP3     H219437   3.928   3.852   2.835 -0.9156 -1.3172 -1.5890
 2540TP3      O19438   5.260   4.068   7.871 -0.0109 -0.5171  0.4581
 2540TP3     H119439   5.248   4.020   7.789 -0.5183  0.2657  0.0765
 2540TP3     H219440   5.354   4.088   7.873 -0.0430 -0.3145 -0.0522
 2541TP3      O19441   4.756   0.454   0.123 -0.0316 -0.1337  0.0292
 2541TP3     H119442   4.704   0.397   0.067 -0.1957 -0.7275  0.7812
 2541TP3     H219443   4.844   0.416   0.121  0.1378  0.2714 -0.4098
 2542TP3      O19444   3.863   3.767   9.894  0.6334  0.1048 -0.2630
 2542TP3     H119445   3.928   3.750   9.826 -0.1485  0.4932 -1.1143
 2542TP3     H219446   3.840   3.860   9.883 -0.3798 -0.1378 -0.2422
 2543TP3      O19447   4.852   1.014   9.728  0.0847  0.2765 -0.4765
 2543TP3     H119448   4.859   1.011   9.633  0.6815 -0.4234 -0.4074
 2543TP3     H219449   4.842   0.923   9.755 -0.4206  0.5002  0.1068
 2544TP3      O19450   3.660   0.933   8.744  0.0087  0.1672  0.0831
 2544TP3     H119451   3.749   0.948   8.777 -0.2566 -0.8582  1.3160
 2544TP3     H219452   3.631   0.853   8.789 -1.4743  0.3957 -0.4356
 2545TP3      O19453   4.196   0.116   0.022  0.0399 -1.2780  0.1330
 2545TP3     H119454   4.157   0.032  -0.000 -1.1507 -1.9180  4.2053
 2545TP3     H219455   4.262   0.095   0.089  0.4729  0.8893  0.4280
 2546TP3      O19456   3.325   5.060   1.525  0.1096 -0.0301  0.7034
 2546TP3     H119457   3.281   4.985   1.485 -1.7411  1.0967  0.6055
 2546TP3     H219458   3.410   5.064   1.481 -0.1042 -1.5612  0.1223
 2547TP3      O19459   4.036   1.006   7.280 -0.0177  0.2409  0.5911
 2547TP3     H119460   4.123   1.034   7.250  0.8793 -0.6082  2.3158
 2547TP3     H219461   4.053   0.927   7.331 -2.3033 -2.5091 -2.7147
 2548TP3      O19462   3.650   3.480   8.857  0.4867  0.2939 -0.0012
 2548TP3     H119463   3.656   3.560   8.805 -1.2417  0.1029 -0.5362
 2548TP3     H219464   3.615   3.415   8.796  1.0868 -0.6581  0.6612
 2549TP3      O19465   5.266   5.223   2.489 -0.6598  0.2007  0.3569
 2549TP3     H119466   5.274   5.227   2.584  0.6112 -1.2346  0.3393
 2549TP3     H219467   5.355   5.209   2.458 -1.0396  0.8490 -1.0627
 2550TP3      O19468   1.897   2.464   9.368 -0.1334 -0.2451 -0.2824
 2550TP3     H119469   1.980   2.420   9.348  0.3826  0.5441  0.0710
 2550TP3     H219470   1.842   2.396   9.407  1.0538 -0.3274  1.3105
 2551TP3      O19471   0.854   5.242   1.942 -0.4360  0.4642  0.2889
 2551TP3     H119472   0.896   5.158   1.928 -0.8305 -0.1267  2.5020
 2551TP3     H219473   0.806   5.259   1.861 -0.0198 -1.2341 -0.3231
 2552TP3      O19474   4.455   4.283   9.269 -0.1669 -0.0123  0.2271
 2552TP3     H119475   4.462   4.358   9.328  0.1312 -1.6408  2.2969
 2552TP3     H219476   4.521   4.300   9.202 -0.0128  1.5196  0.7399
 2553TP3      O19477   2.608   1.877   0.082  0.6549  0.3443 -0.0412
 2553TP3     H119478   2.667   1.810   0.116  1.3452 -0.0753 -1.9913
 2553TP3     H219479   2.583   1.845  -0.004 -2.7767  0.3199  0.9061
 2554TP3      O19480   3.058   4.570   0.731  0.6504 -0.1390 -0.2067
 2554TP3     H119481   3.055   4.605   0.642  0.8581  1.0989  0.2620
 2554TP3     H219482   3.148   4.540   0.742  1.0336  1.0926  0.0941
 2555TP3      O19483   3.019   0.599   2.467 -0.0501 -0.1542  0.3571
 2555TP3     H119484   3.007   0.632   2.378 -0.2182  0.4534  0.6038
 2555TP3     H219485   3.102   0.636   2.495  0.6049 -1.3432  0.0088
 2556TP3      O19486   2.817   5.227   0.060 -0.0571  0.3668  0.2025
 2556TP3     H119487   2.780   5.288  -0.004 -1.2110  1.7649  2.1360
 2556TP3     H219488   2.818   5.142   0.015 -1.6235  1.1528 -1.3744
 2557TP3      O19489   4.645   0.741   1.616  0.3707 -0.0270 -0.3930
 2557TP3     H119490   4.676   0.652   1.604  0.8157 -0.0291  0.6737
 2557TP3     H219491   4.708   0.796   1.570  3.0243  0.1030  3.1436
 2558TP3      O19492   3.792   4.470   9.244  0.0672  0.4644  0.5323
 2558TP3     H119493   3.813   4.394   9.190 -2.0942  0.4830 -0.3982
 2558TP3     H219494   3.827   4.449   9.331  2.3599 -0.1588 -0.5291
 2559TP3      O19495   1.773   1.665   0.354 -0.0706  0.5440  0.1557
 2559TP3     H119496   1.866   1.667   0.332 -0.4764 -1.9133 -2.0584
 2559TP3     H219497   1.760   1.578   0.392 -1.6443  0.4848 -0.4922
 2560TP3      O19498   2.371   3.105   8.242 -0.2083  0.1423 -0.3263
 2560TP3     H119499   2.460   3.120   8.273 -0.3446 -2.1585  1.2988
 2560TP3     H219500   2.377   3.023   8.193 -1.6670 -0.6712  0.8421
 2561TP3      O19501   3.424   0.586   8.267  0.1296  0.2708 -0.0863
 2561TP3     H119502   3.422   0.606   8.360  2.1513 -0.1161  0.0404
 2561TP3     H219503   3.375   0.659   8.227  1.0934  1.5842  1.0719
 2562TP3      O19504   3.714   0.655   1.368  0.4684  0.1682  0.6801
 2562TP3     H119505   3.782   0.600   1.328  0.8874  0.9434  0.3328
 2562TP3     H219506   3.641   0.594   1.383  0.3468 -0.1681 -1.1523
 2563TP3      O19507   2.468   1.368   8.187 -0.5932  0.2295  0.0206
 2563TP3     H119508   2.410   1.320   8.129 -0.2543 -2.4519  1.8387
 2563TP3     H219509   2.556   1.336   8.164 -0.4714 -0.9515  2.0623
 2564TP3      O19510   0.713   0.595   0.556  0.0301 -0.7283 -0.0102
 2564TP3     H119511   0.675   0.676   0.521 -0.1098 -0.3607  0.9778
 2564TP3     H219512   0.639   0.536   0.565 -0.0026 -0.6752  0.0718
 2565TP3      O19513   2.979   2.141   0.818  0.8387  0.2589 -0.1137
 2565TP3     H119514   3.003   2.230   0.792  0.7622  0.5410  0.7663
 2565TP3     H219515   2.987   2.142   0.914  1.4446 -0.8521 -0.1509
 2566TP3      O19516   3.992   5.006   8.246 -0.2284  0.0295  0.5885
 2566TP3     H119517   3.989   4.919   8.207  1.6759  0.2606 -0.1223
 2566TP3     H219518   3.981   4.990   8.340 -0.0263 -0.9715  0.4510
 2567TP3      O19519   3.833   3.810   8.637 -0.2203  0.1207  0.0916
 2567TP3     H119520   3.873   3.730   8.603 -0.7581 -0.1826  0.1659
 2567TP3     H219521   3.822   3.866   8.560 -1.1491 -0.4412 -0.1878
 2568TP3      O19522   1.801   1.190   7.090 -0.0514  0.4333  0.0163
 2568TP3     H119523   1.752   1.197   7.008 -2.7251  0.4232  1.5360
 2568TP3     H219524   1.765   1.260   7.145  1.6908  0.4381  1.1920
 2569TP3      O19525   3.350   2.109   8.827 -0.0970  0.2614 -0.3482
 2569TP3     H119526   3.256   2.124   8.830 -0.4357 -1.7076 -0.5633
 2569TP3     H219527   3.367   2.084   8.736  0.5520  0.2120 -0.2136
 2570TP3      O19528   4.506   0.892   9.755  0.3784 -0.0205  0.4549
 2570TP3     H119529   4.465   0.900   9.668  0.8874 -0.9661  0.1163
 2570TP3     H219530   4.566   0.966   9.760 -2.3943  2.2433  1.5516
 2571TP3      O19531   0.406   2.530   7.796  0.0890  0.5934  0.1533
 2571TP3     H119532   0.398   2.444   7.755 -0.2508  0.5196  0.3807
 2571TP3     H219533   0.466   2.517   7.869  2.1450  1.0972 -1.4024
 2572TP3      O19534   4.380   3.431   0.903  0.3712  0.2011  0.3361
 2572TP3     H119535   4.470   3.425   0.934  0.2857 -1.5081  0.3088
 2572TP3     H219536   4.329   3.380   0.967 -0.5083  0.8067  0.1241
 2573TP3      O19537   2.055   2.403   8.579 -0.1969 -0.2673 -0.2508
 2573TP3     H119538   2.078   2.310   8.574 -1.9477 -0.9090  2.5670
 2573TP3     H219539   1.979   2.412   8.521 -2.1909 -1.3592  2.1508
 2574TP3      O19540   3.542   4.688   0.843  0.0875  0.3543 -0.4688
 2574TP3     H119541   3.470   4.691   0.906  0.2109 -0.2857 -0.2931
 2574TP3     H219542   3.507   4.729   0.764 -0.5608 -0.2081 -0.4753
 2575TP3      O19543   3.899   0.610   1.138 -0.0882  0.3511 -0.0375
 2575TP3     H119544   3.918   0.700   1.163  2.1316  0.4420 -1.8456
 2575TP3     H219545   3.860   0.616   1.051  1.6385 -0.4908 -0.9027
 2576TP3      O19546   4.969   2.194   9.384 -0.4599  0.4603 -0.1208
 2576TP3     H119547   5.026   2.164   9.455 -0.1825  0.5603 -0.2990
 2576TP3     H219548   4.971   2.123   9.320 -0.5159  0.4734 -0.1358
 2577TP3      O19549   2.205   5.166   9.912 -0.0448  0.3036  0.8307
 2577TP3     H119550   2.183   5.130   9.998 -1.0384 -0.6437  0.1966
 2577TP3     H219551   2.145   5.240   9.901 -0.8070 -0.3694  0.4148
 2578TP3      O19552   2.084   4.326   0.382  0.3694 -0.6218  0.2954
 2578TP3     H119553   2.162   4.368   0.419  0.8025 -1.5737  0.4751
 2578TP3     H219554   2.106   4.313   0.290 -0.4797  1.2085 -0.1788
 2579TP3      O19555   2.805   5.003   1.681 -0.1531 -0.2158  0.0447
 2579TP3     H119556   2.800   4.943   1.607 -1.7839 -0.0803  0.0282
 2579TP3     H219557   2.731   4.978   1.737  0.1208  0.7159  0.8355
 2580TP3      O19558   4.731   2.411   0.772  0.0424  0.1930 -0.2820
 2580TP3     H119559   4.757   2.496   0.735  0.7221  0.0670 -0.0985
 2580TP3     H219560   4.796   2.349   0.737  0.6036  0.0462  1.0009
 2581TP3      O19561   4.350   1.500   1.221  0.3839 -0.7887 -0.0505
 2581TP3     H119562   4.285   1.438   1.189  0.5438  0.3376 -2.7040
 2581TP3     H219563   4.395   1.530   1.143  3.5744 -0.9160  1.6565
 2582TP3      O19564   3.928   3.583  10.133  0.0803  0.1392  0.1382
 2582TP3     H119565   4.000   3.642  10.110  1.4716 -1.6488 -0.1690
 2582TP3     H219566   3.867   3.590  10.060  0.1932  1.2445  0.1394
 2583TP3      O19567   4.449   1.127   8.092  0.0629  0.3295  0.1512
 2583TP3     H119568   4.406   1.042   8.095  0.9208 -0.1641 -1.0274
 2583TP3     H219569   4.493   1.135   8.177 -1.8002  0.5618  1.1084
 2584TP3      O19570   4.168   3.352   8.028  0.4230 -0.2273  0.2519
 2584TP3     H119571   4.203   3.374   8.114  0.1797  0.6045  0.1416
 2584TP3     H219572   4.130   3.434   7.995 -2.1911 -1.2209  0.6258
 2585TP3      O19573   2.131   0.076   0.131  0.2946 -0.6373  0.0068
 2585TP3     H119574   2.159   0.000   0.183 -0.3269 -1.2345 -0.5357
 2585TP3     H219575   2.067   0.121   0.187  2.2199  0.7026  1.2334
 2586TP3      O19576   3.324   3.200   0.403  0.2844  0.2864  0.2813
 2586TP3     H119577   3.252   3.257   0.374  0.6148  0.5023 -0.1177
 2586TP3     H219578   3.357   3.161   0.322  0.7758  0.3736  0.4415
 2587TP3      O19579   2.146   2.927  10.015 -0.6695 -1.2687 -0.3970
 2587TP3     H119580   2.081   2.933  10.085  0.6922 -2.4453  1.0087
 2587TP3     H219581   2.227   2.959  10.056 -0.1789 -0.5216 -1.9024
 2588TP3      O19582   4.001   1.415   8.779 -0.3080 -0.1263 -0.1610
 2588TP3     H119583   4.048   1.354   8.835 -0.0216 -1.3118 -1.6600
 2588TP3     H219584   4.069   1.467   8.737 -0.5448  1.1700  1.0127
 2589TP3      O19585   2.081   2.191   8.026  0.3236  0.6613  0.0643
 2589TP3     H119586   2.161   2.144   8.003  0.6988  0.6654  1.3152
 2589TP3     H219587   2.064   2.248   7.952  1.5257  0.7069 -0.1776
 2590TP3      O19588   0.837   2.779   3.321 -0.6323 -0.1762 -0.1592
 2590TP3     H119589   0.747   2.801   3.299 -0.6938  0.9337  1.0992
 2590TP3     H219590   0.889   2.818   3.251 -1.1579 -1.3708 -1.2354
 2591TP3      O19591   1.612   5.087   8.462  0.1822 -0.1543  0.1240
 2591TP3     H119592   1.705   5.061   8.459  0.2207 -0.1202  0.8194
 2591TP3     H219593   1.609   5.154   8.531 -0.4327 -0.4820  0.4149
 2592TP3      O19594   0.825   1.669   1.969  0.6833 -0.0354 -0.6879
 2592TP3     H119595   0.804   1.599   2.031  1.2405  0.1442 -0.2864
 2592TP3     H219596   0.844   1.744   2.024  0.5501  0.3042 -1.1041
 2593TP3      O19597   1.750   4.499   9.367 -0.3139 -0.0230 -0.5279
 2593TP3     H119598   1.665   4.471   9.332 -0.3160 -0.3029 -0.3029
 2593TP3     H219599   1.805   4.508   9.290 -0.1821 -1.0979 -0.5770
 2594TP3      O19600   0.955   4.731   9.640  0.1281  0.4228 -0.1615
 2594TP3     H119601   0.948   4.806   9.699 -2.7487 -0.3930  0.6107
 2594TP3     H219602   0.994   4.662   9.695 -0.2334  0.3979  0.0659
 2595TP3      O19603   0.301   1.180   2.090 -0.4820 -0.3119 -0.3376
 2595TP3     H119604   0.382   1.230   2.103 -0.8923  0.0880  0.7043
 2595TP3     H219605   0.315   1.098   2.137 -0.6005 -0.3368 -0.3457
 2596TP3      O19606   4.902   4.137   2.367  0.1993  0.1661  0.0676
 2596TP3     H119607   4.924   4.159   2.458  0.2021 -0.1306  0.1392
 2596TP3     H219608   4.813   4.101   2.372  0.3729 -0.2714  0.0141
 2597TP3      O19609   0.004   0.464   1.740  0.4179 -0.2622 -0.1143
 2597TP3     H119610   0.010   0.528   1.810  0.9615  1.0548 -1.3403
 2597TP3     H219611   0.011   0.379   1.784 -0.8161  0.4950  1.5703
 2598TP3      O19612   2.858   3.123   9.238  0.1835  0.3452 -0.2457
 2598TP3     H119613   2.878   3.128   9.331  1.3906  2.8765 -0.6137
 2598TP3     H219614   2.797   3.049   9.231 -1.8080  1.6019  2.8499
 2599TP3      O19615   1.122   0.693   9.621 -0.1364  0.0324 -0.7415
 2599TP3     H119616   1.192   0.715   9.559 -0.1183  1.2252 -0.3218
 2599TP3     H219617   1.111   0.599   9.613  0.4466  0.0608 -1.9498
 2600TP3      O19618   2.472   0.571   1.904 -0.4455 -0.4748 -0.3503
 2600TP3     H119619   2.380   0.557   1.878 -0.8851  2.1440 -0.3272
 2600TP3     H219620   2.467   0.599   1.995  0.6419 -3.1426  0.5938
 2601TP3      O19621   3.943   4.865   1.932  0.7164  0.2626 -0.3241
 2601TP3     H119622   3.898   4.848   1.849  0.0718 -1.3588  0.3381
 2601TP3     H219623   3.909   4.798   1.992  3.2273 -0.3606  0.4794
 2602TP3      O19624   1.126   5.065   1.457  0.3459  0.0316 -0.0392
 2602TP3     H119625   1.215   5.069   1.493  0.3236 -1.4629  0.2265
 2602TP3     H219626   1.138   5.067   1.362  0.5518  1.4899 -0.0004
 2603TP3      O19627   2.119   1.616   8.518 -0.6306  0.5546  0.1049
 2603TP3     H119628   2.179   1.542   8.528 -0.9676  0.4118  1.1389
 2603TP3     H219629   2.124   1.639   8.425  0.2828 -0.0827 -0.0112
 2604TP3      O19630   0.593   0.077   9.817  0.4428  0.4553 -0.2529
 2604TP3     H119631   0.607   0.009   9.752  2.4229 -2.8346  3.4341
 2604TP3     H219632   0.511   0.053   9.860  1.4669 -0.0138  1.4783
 2605TP3      O19633   1.665   4.583  10.006 -0.5779  0.0378  0.2210
 2605TP3     H119634   1.582   4.548   9.973 -1.5179  0.8383  1.6653
 2605TP3     H219635   1.671   4.671   9.968 -0.1419 -0.2121 -0.2886
 2606TP3      O19636   5.166   5.227   8.509 -1.1354 -0.5178 -0.2661
 2606TP3     H119637   5.218   5.235   8.589  0.3596 -0.9398 -1.1752
 2606TP3     H219638   5.164   5.315   8.473 -0.9537 -0.5147 -0.2737
 2607TP3      O19639   4.258   0.539   1.340  0.3454 -0.4101 -0.4666
 2607TP3     H119640   4.171   0.513   1.311 -0.4816  1.1599  0.5656
 2607TP3     H219641   4.243   0.613   1.399  2.4223  0.4039 -0.9196
 2608TP3      O19642   4.200   4.779   1.412  0.7590  0.2484  0.2838
 2608TP3     H119643   4.169   4.821   1.332  1.2612  0.7341  0.3399
 2608TP3     H219644   4.262   4.712   1.382 -2.6026 -2.8854 -0.0454
 2609TP3      O19645   4.092   2.777   8.176 -0.4757  0.0700  0.4738
 2609TP3     H119646   4.015   2.730   8.209 -1.5480  1.9783  0.7135
 2609TP3     H219647   4.131   2.817   8.254  0.2881 -0.1885  0.2318
 2610TP3      O19648   2.725   4.717   9.643 -0.0045  0.0646 -0.0178
 2610TP3     H119649   2.768   4.710   9.558 -0.8292 -0.2340 -0.4265
 2610TP3     H219650   2.760   4.644   9.694  0.6864  0.4021 -0.0175
 2611TP3      O19651   3.217   1.628   7.788  0.2220 -0.2047 -0.3165
 2611TP3     H119652   3.248   1.569   7.858  1.7334  1.0211  0.0686
 2611TP3     H219653   3.276   1.611   7.715  1.0552  1.2774  0.0048
 2612TP3      O19654   3.993   4.170   8.622 -0.3569 -0.4740 -0.1132
 2612TP3     H119655   4.047   4.234   8.575  0.0970 -0.0336  0.9810
 2612TP3     H219656   3.903   4.193   8.598 -0.1866  0.4243  0.0667
 2613TP3      O19657   0.150   5.138   0.385  0.4736 -0.0235  0.1683
 2613TP3     H119658   0.189   5.151   0.472  1.5107  0.5808 -0.3836
 2613TP3     H219659   0.196   5.200   0.328  0.4106 -1.0299 -1.0023
 2614TP3      O19660   0.411   2.067   0.594  0.2043 -0.8235  0.3026
 2614TP3     H119661   0.379   2.061   0.684  1.3153 -1.6156  0.6400
 2614TP3     H219662   0.400   2.160   0.572  0.9786 -0.4086  1.6317
 2615TP3      O19663   1.536   4.322   0.002  0.3538 -0.0750  0.6462
 2615TP3     H119664   1.507   4.385  -0.064 -0.4110 -2.0338 -0.9054
 2615TP3     H219665   1.611   4.365   0.044  1.1451  1.0130 -1.8019
 2616TP3      O19666   3.633   3.228   0.224  0.3675 -0.1357  0.6667
 2616TP3     H119667   3.612   3.305   0.171  0.9179 -0.6461 -0.3286
 2616TP3     H219668   3.566   3.164   0.201 -0.6450  0.3532  2.2020
 2617TP3      O19669   1.771   1.826   8.645  0.2949  0.3872  0.0424
 2617TP3     H119670   1.722   1.813   8.727 -0.1193  1.9855  0.0537
 2617TP3     H219671   1.860   1.797   8.666 -0.1031 -0.4167  0.6783
 2618TP3      O19672   3.309   0.568   9.627 -0.1108 -0.2435 -0.2229
 2618TP3     H119673   3.215   0.579   9.613 -0.3462  0.5215  1.8370
 2618TP3     H219674   3.324   0.600   9.716  1.7429 -2.3880  0.2885
 2619TP3      O19675   4.905   4.857   9.907  0.1875 -0.3245 -0.2919
 2619TP3     H119676   4.875   4.804   9.834 -1.8473  1.5674 -0.8962
 2619TP3     H219677   4.983   4.902   9.874  1.4600 -2.2550 -0.0277
 2620TP3      O19678   3.935   3.599   8.503 -0.4700 -0.1682 -0.9007
 2620TP3     H119679   4.019   3.555   8.492 -0.3950 -1.1237  2.7772
 2620TP3     H219680   3.872   3.541   8.460  0.2451 -1.5752 -0.0900
 2621TP3      O19681   0.977   0.791   9.357  0.4402 -0.4112  0.1729
 2621TP3     H119682   0.945   0.702   9.342 -0.6754 -0.1340  0.8405
 2621TP3     H219683   0.978   0.800   9.452 -1.4365  0.9636  0.1019
 2622TP3      O19684   3.085   1.044   1.232 -0.7430  0.5286  0.0730
 2622TP3     H119685   3.149   1.106   1.197 -1.2850 -0.6715 -3.1862
 2622TP3     H219686   3.001   1.073   1.196 -0.9856 -2.1172 -1.6222
 2623TP3      O19687   3.438   3.626   1.887 -0.2736  0.7165 -0.1972
 2623TP3     H119688   3.476   3.658   1.969 -0.8259 -0.1266  0.3948
 2623TP3     H219689   3.348   3.657   1.889 -0.5208  0.0137 -0.0934
 2624TP3      O19690   0.985   1.769   0.120  0.3418  0.1612  0.1799
 2624TP3     H119691   0.954   1.841   0.175  0.5279 -0.1692  0.7198
 2624TP3     H219692   0.921   1.700   0.133 -0.3707  0.5792 -1.1067
 2625TP3      O19693   3.747   4.302   8.634 -0.4753 -0.0797 -0.6670
 2625TP3     H119694   3.706   4.256   8.560 -2.0972 -0.6026  0.5139
 2625TP3     H219695   3.720   4.393   8.622 -0.1842 -0.0446 -1.0791
 2626TP3      O19696   1.765   0.804   2.749  0.6569 -0.4256 -0.1263
 2626TP3     H119697   1.795   0.740   2.684  1.1918 -0.5391  0.2241
 2626TP3     H219698   1.669   0.795   2.749  0.7244 -1.1993 -0.1139
 2627TP3      O19699   3.678   0.326   9.269  0.1764  0.7648 -0.1842
 2627TP3     H119700   3.768   0.340   9.237  0.6721 -1.1353  0.3722
 2627TP3     H219701   3.639   0.267   9.205  0.2702 -0.7838  1.1600
 2628TP3      O19702   2.175   4.463   1.818 -0.1077 -0.7646  0.6641
 2628TP3     H119703   2.174   4.516   1.738 -0.7008 -1.2931  0.3115
 2628TP3     H219704   2.090   4.419   1.819 -0.5099  0.0110  2.1198
 2629TP3      O19705   4.272   2.489   7.566  0.3963 -0.0956  0.1658
 2629TP3     H119706   4.350   2.490   7.621  0.5549 -2.3770  0.0435
 2629TP3     H219707   4.208   2.439   7.617 -1.1139  2.0085  0.3999
 2630TP3      O19708   2.180   4.907   8.804 -0.1654 -0.1371  0.0057
 2630TP3     H119709   2.223   4.846   8.864 -0.0969  0.8818  1.0135
 2630TP3     H219710   2.238   4.983   8.800  0.7966 -0.9615 -2.8962
 2631TP3      O19711   4.518   0.131   9.160  0.0385 -0.1584 -0.5225
 2631TP3     H119712   4.452   0.117   9.228  2.4376  0.4804  2.0406
 2631TP3     H219713   4.575   0.053   9.165  0.4825  0.0924 -1.5106
 2632TP3      O19714   1.521   0.123   9.563 -0.1065  0.6941 -0.1124
 2632TP3     H119715   1.613   0.105   9.545 -0.0717 -0.6640  1.3144
 2632TP3     H219716   1.480   0.037   9.565 -0.8642  1.0696  2.0101
 2633TP3      O19717   0.459   0.388  10.058 -0.1926  0.3560 -0.2744
 2633TP3     H119718   0.451   0.480  10.084 -0.4051  0.1281  0.4778
 2633TP3     H219719   0.399   0.379   9.984 -2.7734  0.0195  1.8013
 2634TP3      O19720   1.256   0.987   2.135 -0.6488  0.0302 -0.0491
 2634TP3     H119721   1.320   1.047   2.096 -1.0978 -0.2666 -1.2662
 2634TP3     H219722   1.254   1.011   2.227  2.1019 -0.7624  0.2515
 2635TP3      O19723   3.406   3.313   0.690 -0.3441 -0.4150 -0.7789
 2635TP3     H119724   3.444   3.291   0.605 -0.5340  0.2516 -1.0409
 2635TP3     H219725   3.337   3.376   0.669 -0.0824  0.0996 -0.0813
 2636TP3      O19726   1.807   1.550   9.511 -0.3882 -0.0489 -0.0436
 2636TP3     H119727   1.722   1.586   9.536  0.0980 -0.2683  1.9367
 2636TP3     H219728   1.857   1.627   9.483 -1.1099  0.1237 -0.8859
 2637TP3      O19729   2.405   3.856   9.069  0.3186 -0.1586  0.2229
 2637TP3     H119730   2.484   3.894   9.029  0.7205 -1.3080 -0.0801
 2637TP3     H219731   2.439   3.793   9.132 -0.3532 -0.0340  0.7088
 2638TP3      O19732   4.920   2.565   0.671  0.0771  0.1635  0.3437
 2638TP3     H119733   4.989   2.513   0.629 -0.5362 -1.7056  1.5775
 2638TP3     H219734   4.957   2.653   0.676  1.9144 -0.5419 -0.0824
 2639TP3      O19735   0.955   0.385   0.502  0.3618  0.0731  0.1134
 2639TP3     H119736   0.990   0.457   0.554  1.8711  0.3817 -1.2948
 2639TP3     H219737   0.894   0.427   0.441  0.0386 -0.0544  0.3444
 2640TP3      O19738   0.700   5.055   7.663  0.1745 -0.0923  1.0241
 2640TP3     H119739   0.724   4.962   7.659  1.6039  0.2689  0.7649
 2640TP3     H219740   0.777   5.097   7.703 -0.1764  1.0748  0.4826
 2641TP3      O19741   1.657   2.925   0.156 -0.1827 -0.2386 -0.0877
 2641TP3     H119742   1.569   2.888   0.153 -0.9420  1.2595  1.9916
 2641TP3     H219743   1.645   3.011   0.198  2.0164  0.7677 -1.4162
 2642TP3      O19744   5.203   1.193   0.295 -0.1145 -0.0310  0.0701
 2642TP3     H119745   5.276   1.221   0.350  0.6531 -2.4219  0.3459
 2642TP3     H219746   5.226   1.225   0.208  0.8098  0.0454  0.3258
 2643TP3      O19747   1.239   0.247   2.167  0.2197 -0.7594  0.1988
 2643TP3     H119748   1.199   0.178   2.114  1.2515 -1.7779  0.6986
 2643TP3     H219749   1.299   0.200   2.225  1.2937  0.6174  0.2262
 2644TP3      O19750   4.700   1.366   0.352  0.4315 -0.3050  0.2901
 2644TP3     H119751   4.762   1.433   0.380 -0.2074 -0.0267  1.0633
 2644TP3     H219752   4.734   1.334   0.268  1.3807  0.1392  0.5085
 2645TP3      O19753   1.022   5.002   9.795  0.3011 -0.4086 -0.0564
 2645TP3     H119754   1.002   5.092   9.820  1.0379 -0.1238 -0.4711
 2645TP3     H219755   1.040   4.957   9.878  0.0422 -0.1478  0.1393
 2646TP3      O19756   3.130   1.061   0.643 -0.4714 -0.1360  0.1642
 2646TP3     H119757   3.062   1.108   0.692 -1.5801 -1.1210 -0.3839
 2646TP3     H219758   3.084   1.031   0.564  0.6812 -0.5901 -0.3339
 2647TP3      O19759   2.433   1.390   1.685 -0.0937  0.0831  0.0374
 2647TP3     H119760   2.418   1.299   1.660 -0.3255 -0.2710  1.4152
 2647TP3     H219761   2.492   1.385   1.760  0.9796  1.1379 -0.7262
 2648TP3      O19762   0.819   0.948   9.801  0.0102 -0.2356 -0.4185
 2648TP3     H119763   0.749   0.996   9.758 -1.1344 -2.5670 -1.2368
 2648TP3     H219764   0.828   0.867   9.751  2.0847 -0.7805  0.7369
 2649TP3      O19765   3.975   2.201   0.725  0.0032  0.6836  0.3437
 2649TP3     H119766   3.969   2.142   0.649 -1.0646  1.8779 -0.5227
 2649TP3     H219767   4.059   2.179   0.766  0.5890  0.0022 -1.1804
 2650TP3      O19768   0.490   4.149   1.806  0.2628  0.7540  0.0923
 2650TP3     H119769   0.405   4.194   1.810 -0.0860  0.0834  0.3067
 2650TP3     H219770   0.553   4.218   1.785 -0.5780  0.9668 -1.8388
 2651TP3      O19771   1.028   1.874   1.301  0.0764 -0.0066  0.0727
 2651TP3     H119772   0.999   1.833   1.383 -2.2509 -0.5274 -0.9788
 2651TP3     H219773   1.089   1.811   1.263 -0.0606 -0.4879  0.6445
 2652TP3      O19774   1.575   4.804   0.942 -0.6092 -0.3590  0.5295
 2652TP3     H119775   1.650   4.814   1.001 -0.3885  0.4629  0.1200
 2652TP3     H219776   1.535   4.891   0.939  0.7089  0.2110 -2.2860
 2653TP3      O19777   3.955   1.338   2.534  0.5081 -0.5829 -0.2888
 2653TP3     H119778   3.973   1.305   2.445  0.8953 -0.4593 -0.2565
 2653TP3     H219779   3.866   1.307   2.553  0.1440  0.0081 -1.0062
 2654TP3      O19780   2.109   3.994   9.275  0.4301 -0.1268  0.6084
 2654TP3     H119781   2.123   3.987   9.181  1.8169 -0.3038  0.8300
 2654TP3     H219782   2.111   4.088   9.293  1.2920 -0.1486  0.6336
 2655TP3      O19783   4.583   1.291   2.782 -0.5961 -0.1710 -0.3736
 2655TP3     H119784   4.584   1.245   2.865  0.0942  2.5745  1.1854
 2655TP3     H219785   4.663   1.262   2.737 -0.2227 -0.5739  0.5488
 2656TP3      O19786   2.589   4.470   9.495 -0.0195 -0.4620 -0.1702
 2656TP3     H119787   2.682   4.490   9.483  0.0893 -0.9379 -0.1042
 2656TP3     H219788   2.565   4.516   9.575  0.7565 -2.3438  1.1572
 2657TP3      O19789   4.022   2.977   7.423 -0.1093  0.2994  0.2576
 2657TP3     H119790   4.043   2.893   7.382 -1.1296 -0.6595  1.6762
 2657TP3     H219791   4.027   2.960   7.517  2.0875  2.4421  0.5774
 2658TP3      O19792   4.147   4.110   2.593 -0.2975 -0.8111  0.0180
 2658TP3     H119793   4.168   4.102   2.686  0.9566 -1.6055 -0.3310
 2658TP3     H219794   4.052   4.100   2.590 -0.1652 -2.5612  1.0390
 2659TP3      O19795   5.127   0.578   7.362  0.0736 -0.1734 -0.1367
 2659TP3     H119796   5.063   0.533   7.418  0.1345  0.0307  0.0975
 2659TP3     H219797   5.140   0.519   7.288 -0.3295 -0.2507 -0.1469
 2660TP3      O19798   2.564   1.882   8.428 -0.4621 -0.5106  0.0303
 2660TP3     H119799   2.488   1.860   8.374  0.2286 -0.2950 -1.0456
 2660TP3     H219800   2.534   1.869   8.518 -1.0948 -2.5608 -0.4578
 2661TP3      O19801   3.982   0.973   1.608  0.3755 -0.5782 -0.0304
 2661TP3     H119802   3.900   0.925   1.598 -0.6305  0.9318  0.8000
 2661TP3     H219803   3.968   1.055   1.561  0.7670  0.4106  1.5301
 2662TP3      O19804   4.417   2.773   8.536 -0.1118  0.3262  0.5355
 2662TP3     H119805   4.473   2.834   8.583 -0.4193  1.4806 -0.5618
 2662TP3     H219806   4.473   2.698   8.516  0.3271  0.3389  1.6967
 2663TP3      O19807   1.081   1.554   1.819 -0.1103  0.2973 -0.3728
 2663TP3     H119808   1.039   1.613   1.881 -2.4238 -0.8933 -0.7701
 2663TP3     H219809   1.127   1.490   1.874 -0.4165  0.4774  0.0912
 2664TP3      O19810   1.469   4.026   2.093 -0.1195  0.6194  0.2543
 2664TP3     H119811   1.379   4.056   2.082 -0.6831 -1.1484 -0.1652
 2664TP3     H219812   1.485   4.029   2.187 -0.3287  1.7263  0.2577
 2665TP3      O19813   5.145   3.209   6.935  0.4142  0.6551  0.6585
 2665TP3     H119814   5.124   3.116   6.928  0.3248  0.7162  0.0702
 2665TP3     H219815   5.236   3.216   6.906 -0.4927  1.1479 -2.2824
 2666TP3      O19816   1.554   0.814   9.753 -0.0822  0.5583 -0.2577
 2666TP3     H119817   1.464   0.840   9.775 -0.7827 -1.2719 -0.8750
 2666TP3     H219818   1.544   0.755   9.679  1.4327 -1.7131  1.2865
 2667TP3      O19819   3.444   5.308   0.692 -0.1321 -0.1337  0.2279
 2667TP3     H119820   3.539   5.320   0.693 -0.1276 -0.2277  0.7710
 2667TP3     H219821   3.424   5.290   0.600  0.4324 -0.5368  0.1794
 2668TP3      O19822   2.028   4.788   0.922  0.0288 -0.7945  0.3329
 2668TP3     H119823   1.961   4.720   0.925  1.5731 -2.3439  0.4169
 2668TP3     H219824   2.111   4.740   0.918  1.0905  1.0892 -0.7915
 2669TP3      O19825   3.686   1.902   1.230  0.0145 -0.1017  0.0925
 2669TP3     H119826   3.659   1.883   1.140  0.2748 -2.1340  0.4095
 2669TP3     H219827   3.668   1.821   1.277  3.6821 -0.4692  1.0066
 2670TP3      O19828   0.050   0.253   1.010 -0.2560  0.1766  0.1443
 2670TP3     H119829   0.081   0.328   1.060 -0.5111 -0.2522  0.9399
 2670TP3     H219830  -0.044   0.266   1.002 -0.1048  0.6761 -0.9500
 2671TP3      O19831   2.506   4.455   8.962 -0.2896 -0.5972  0.0506
 2671TP3     H119832   2.599   4.431   8.970  0.0073  1.3308  3.1445
 2671TP3     H219833   2.460   4.385   9.008 -0.3930 -1.3728 -1.1897
 2672TP3      O19834   4.051   0.169   3.482  0.0449 -0.0697  0.1167
 2672TP3     H119835   3.994   0.113   3.429 -0.9170  3.1041 -2.4039
 2672TP3     H219836   4.000   0.249   3.496  1.8729  0.7660  2.4389
 2673TP3      O19837   1.329   1.656   2.024 -0.1996  0.2447 -0.1250
 2673TP3     H119838   1.307   1.713   1.950  2.4669  0.6472 -0.6665
 2673TP3     H219839   1.261   1.588   2.023 -1.5652  1.5869 -1.4520
 2674TP3      O19840   4.830   0.872   1.455 -0.2633 -0.3094 -0.9077
 2674TP3     H119841   4.792   0.958   1.438 -0.1386  0.0402  0.5623
 2674TP3     H219842   4.919   0.890   1.485 -0.6340 -0.8931  0.5747
 2675TP3      O19843   4.756   2.848   8.478  0.4124  0.0367 -0.0627
 2675TP3     H119844   4.714   2.929   8.448  0.3656 -0.0188 -0.1457
 2675TP3     H219845   4.840   2.846   8.432  0.2152 -0.1968 -0.4169
 2676TP3      O19846   5.189   2.092   9.539  0.9450 -0.1210 -0.0719
 2676TP3     H119847   5.120   2.058   9.596 -1.7310  4.2284 -0.4842
 2676TP3     H219848   5.242   2.147   9.596  2.9538 -1.8840 -0.1933
 2677TP3      O19849   5.144   0.570   1.552 -0.6287 -0.3002  0.0307
 2677TP3     H119850   5.111   0.640   1.608 -1.0618 -0.3336 -0.1818
 2677TP3     H219851   5.212   0.527   1.604  1.4657  1.8945 -0.7664
 2678TP3      O19852   4.634   5.274   0.709 -0.0237 -0.5024 -0.0464
 2678TP3     H119853   4.670   5.188   0.728  0.9407  0.2999  1.8576
 2678TP3     H219854   4.691   5.335   0.755  2.2283  1.5799 -5.3134
 2679TP3      O19855   5.300   0.938   0.251  0.3280 -0.4888 -0.1925
 2679TP3     H119856   5.386   0.966   0.219  0.4413 -0.7891 -0.1513
 2679TP3     H219857   5.259   1.018   0.282  0.1618 -0.1760 -1.2214
 2680TP3      O19858   4.887   1.255   1.646  0.4540  0.1818 -0.6435
 2680TP3     H119859   4.897   1.334   1.699 -0.3450 -0.4086  0.3981
 2680TP3     H219860   4.803   1.267   1.601  0.5227  0.0952 -0.7948
 2681TP3      O19861   4.479   3.380   8.942  0.3121 -0.3813  0.2978
 2681TP3     H119862   4.439   3.293   8.938  1.5536 -1.0620  1.9916
 2681TP3     H219863   4.461   3.409   9.032  0.4524  0.8485 -0.0723
 2682TP3      O19864   3.451   1.386   0.859  0.2677  0.5285  0.5493
 2682TP3     H119865   3.466   1.474   0.826 -0.7171  1.0335  1.3952
 2682TP3     H219866   3.508   1.330   0.807 -0.6443  1.3994 -1.4138
 2683TP3      O19867   5.111   2.567   0.900 -0.4446  0.5685  0.4616
 2683TP3     H119868   5.174   2.639   0.895 -0.2151  0.3610  0.3419
 2683TP3     H219869   5.038   2.595   0.845  0.3057  0.0488 -0.8142
 2684TP3      O19870   2.555   1.469   8.694  0.1527  0.2596 -0.1860
 2684TP3     H119871   2.604   1.391   8.723  0.9550  1.5163  1.9396
 2684TP3     H219872   2.619   1.518   8.642  0.1889  0.3615 -0.0452
 2685TP3      O19873   2.639   0.134   1.269 -0.0208  0.4472  0.0009
 2685TP3     H119874   2.581   0.112   1.341 -0.5500 -0.0706 -0.5819
 2685TP3     H219875   2.692   0.056   1.256 -2.0133 -0.6089 -2.1744
 2686TP3      O19876   3.400   0.594   1.999 -0.0618 -0.3072 -0.5200
 2686TP3     H119877   3.435   0.659   1.937  1.3646  0.4693  1.0508
 2686TP3     H219878   3.391   0.514   1.948  0.0907  0.5954 -1.9880
 2687TP3      O19879   1.650   4.459   7.322 -0.0777  0.1177 -0.1281
 2687TP3     H119880   1.664   4.388   7.385  0.2843  0.4304  0.1413
 2687TP3     H219881   1.705   4.435   7.247 -0.5024 -0.2497 -0.3243
 2688TP3      O19882   1.224   3.056   7.139 -0.2829 -0.0477 -0.0492
 2688TP3     H119883   1.273   3.061   7.057  0.9334  2.0571  0.7666
 2688TP3     H219884   1.135   3.082   7.115  0.6751  3.3065 -0.2834
 2689TP3      O19885   0.535   4.280   1.459 -1.0278  0.2206  0.0500
 2689TP3     H119886   0.592   4.242   1.525 -1.6597 -1.4326 -0.3441
 2689TP3     H219887   0.592   4.295   1.383 -0.5342  1.1396  0.5937
 2690TP3      O19888   3.213   2.683   1.462  0.0422 -0.0555  0.0263
 2690TP3     H119889   3.128   2.663   1.500 -0.4661 -0.8296 -1.4629
 2690TP3     H219890   3.242   2.763   1.507 -0.6891 -0.7388  1.7247
 2691TP3      O19891   3.716   4.560   8.622 -0.0823  0.0477 -0.2840
 2691TP3     H119892   3.717   4.609   8.704  0.0296  0.1736 -0.3613
 2691TP3     H219893   3.628   4.575   8.587 -0.7579 -1.4865  0.6988
 2692TP3      O19894   4.759   4.827   2.533 -0.1847  0.1467 -0.1326
 2692TP3     H119895   4.837   4.772   2.535 -2.1602 -2.7513  0.9384
 2692TP3     H219896   4.701   4.784   2.470 -0.7071  2.6344 -1.4141
 2693TP3      O19897   0.705   0.745   8.312 -0.0627  0.1930 -0.1469
 2693TP3     H119898   0.733   0.675   8.252  0.6630  0.6899 -0.3981
 2693TP3     H219899   0.699   0.702   8.397 -1.5606 -0.6264 -0.6499
 2694TP3      O19900   3.958   1.268   1.556  0.0427  0.1375  0.8345
 2694TP3     H119901   4.051   1.258   1.538  0.4937  1.0390  2.4949
 2694TP3     H219902   3.938   1.357   1.526 -0.1253  0.1815  1.0771
 2695TP3      O19903   2.055   3.027   8.732 -0.2479  0.5521 -0.2973
 2695TP3     H119904   2.063   3.039   8.637 -1.4103  2.6660 -0.1574
 2695TP3     H219905   2.110   3.095   8.770  1.8464 -1.5722  0.5792
 2696TP3      O19906   1.373   2.085   1.324 -0.1170  0.0306  0.0817
 2696TP3     H119907   1.388   2.177   1.345  0.9093 -0.0372 -0.3507
 2696TP3     H219908   1.456   2.042   1.344 -0.6747 -0.8439  0.5147
 2697TP3      O19909   2.061   4.697   8.672 -0.5656 -0.0421 -0.1632
 2697TP3     H119910   2.120   4.768   8.695 -1.2722  0.4079  0.2651
 2697TP3     H219911   1.978   4.740   8.652 -0.5392 -0.5986 -1.5492
 2698TP3      O19912   4.714   4.566   0.507  0.3240 -0.9889  1.1062
 2698TP3     H119913   4.807   4.579   0.491  0.1281  0.7252  1.2295
 2698TP3     H219914   4.672   4.636   0.456 -0.8093 -0.9056  2.1416
 2699TP3      O19915   2.065   2.583   2.157 -0.0694  0.2580 -0.0891
 2699TP3     H119916   2.078   2.629   2.240  1.3544  0.4895 -0.4166
 2699TP3     H219917   2.151   2.544   2.138 -1.0028 -1.7762 -0.2693
 2700TP3      O19918   3.056   4.223   0.281 -0.0477 -0.2091 -0.2261
 2700TP3     H119919   2.976   4.223   0.334 -0.3889 -0.3142 -0.7393
 2700TP3     H219920   3.063   4.313   0.249  0.4448 -0.0132  0.4244
 2701TP3      O19921   4.054   0.443   9.585 -0.3733  0.4430 -0.3579
 2701TP3     H119922   4.016   0.358   9.608 -1.4678  1.2007  0.6941
 2701TP3     H219923   4.134   0.421   9.537 -0.7681 -1.1797 -0.3081
 2702TP3      O19924   0.788   2.873   8.658  0.4152 -0.5941  0.1976
 2702TP3     H119925   0.807   2.940   8.724 -0.1099 -0.1109 -0.1380
 2702TP3     H219926   0.722   2.913   8.602  0.4933 -1.1949 -0.3265
 2703TP3      O19927   4.310   0.276   2.114 -0.6281 -0.5616 -0.3573
 2703TP3     H119928   4.367   0.321   2.051  3.6358 -1.4712  2.5912
 2703TP3     H219929   4.320   0.183   2.093  0.4385 -0.8402  1.2275
 2704TP3      O19930   3.323   0.271   8.339  0.4561  0.0448  0.0159
 2704TP3     H119931   3.253   0.310   8.391  0.5976 -0.1885  0.3840
 2704TP3     H219932   3.320   0.318   8.255  0.3844  0.5791  0.3199
 2705TP3      O19933   4.562   1.593   8.341 -0.7774 -0.2403  0.4304
 2705TP3     H119934   4.622   1.531   8.382  0.3216 -0.0206 -0.8055
 2705TP3     H219935   4.557   1.666   8.403  2.5655  1.0815 -0.6872
 2706TP3      O19936   1.657   1.020   9.153 -0.1370  0.3665  0.2672
 2706TP3     H119937   1.709   0.948   9.118 -0.7171  1.0590 -2.0570
 2706TP3     H219938   1.715   1.096   9.148 -1.0771  0.9889 -1.6354
 2707TP3      O19939   2.627   3.621   2.763  0.0862  0.5864  0.2800
 2707TP3     H119940   2.710   3.587   2.795  0.2618 -0.1009 -0.8729
 2707TP3     H219941   2.561   3.579   2.817  0.2998 -1.5541 -1.0625
 2708TP3      O19942   0.785   0.286  10.155  0.2000 -0.4073  0.3823
 2708TP3     H119943   0.806   0.375  10.126  1.7179 -0.8189  0.1571
 2708TP3     H219944   0.717   0.256  10.095 -0.1613  0.5228  0.3197
 2709TP3      O19945   3.834   1.979   8.831  0.7003  0.1162  0.4417
 2709TP3     H119946   3.899   1.911   8.852 -0.0460 -0.2079  1.7706
 2709TP3     H219947   3.817   2.022   8.915 -1.9734 -0.8577  0.4330
 2710TP3      O19948   3.729   2.525   8.080 -0.1108  0.2561 -0.2997
 2710TP3     H119949   3.774   2.557   8.159  0.2428 -0.4096 -0.2303
 2710TP3     H219950   3.771   2.441   8.062  0.4956  0.8642 -1.7675
 2711TP3      O19951   4.711   2.093   0.700  0.6372  0.1308 -0.1838
 2711TP3     H119952   4.719   2.081   0.795 -1.6715 -1.7931 -0.1890
 2711TP3     H219953   4.643   2.159   0.689  1.8047  1.2997 -0.4981
 2712TP3      O19954   2.890   2.457   7.977  0.7014  0.3195 -0.3148
 2712TP3     H119955   2.977   2.416   7.987  0.9852  1.2135  1.0526
 2712TP3     H219956   2.835   2.411   8.041  0.1768 -0.1906 -1.1263
 2713TP3      O19957   0.478   1.541   1.602  0.0491  0.3530  0.0998
 2713TP3     H119958   0.478   1.572   1.692  0.2108 -1.1754  0.6294
 2713TP3     H219959   0.543   1.597   1.558  0.0845  0.9906  0.9549
 2714TP3      O19960   2.759   0.580   1.562  0.3253  0.4301  0.1839
 2714TP3     H119961   2.782   0.494   1.525  1.0374  1.9008 -2.9599
 2714TP3     H219962   2.664   0.575   1.576  0.2729 -0.6830 -0.4976
 2715TP3      O19963   4.938   3.079   0.497 -0.1896  0.0952 -0.3411
 2715TP3     H119964   4.869   3.145   0.492  0.0076  0.2992 -0.3605
 2715TP3     H219965   5.008   3.121   0.547 -1.0575 -0.9548  1.8587
 2716TP3      O19966   2.408   2.733   0.949 -0.2504 -0.3678 -0.4544
 2716TP3     H119967   2.471   2.764   0.884  0.3936 -0.8039 -0.0453
 2716TP3     H219968   2.373   2.813   0.989 -0.1632 -0.1208 -0.8694
 2717TP3      O19969   0.283   2.548   9.773  0.0437  0.5741 -0.6314
 2717TP3     H119970   0.247   2.514   9.691 -0.7362 -0.4648  0.1286
 2717TP3     H219971   0.280   2.474   9.833  3.9042  0.2965 -0.6466
 2718TP3      O19972   0.201   3.991   7.308  0.3914  0.4825 -0.1142
 2718TP3     H119973   0.280   4.034   7.340  1.1365 -1.7353  1.1289
 2718TP3     H219974   0.201   4.008   7.214  1.2720  2.1777  0.1640
 2719TP3      O19975   2.722   3.065   0.638  0.1171  0.2188  0.4071
 2719TP3     H119976   2.802   3.025   0.605 -0.0505 -0.6818  1.0975
 2719TP3     H219977   2.717   3.149   0.592  0.0864 -0.8468 -1.6317
 2720TP3      O19978   4.135   0.086   7.479  0.3946 -0.1396  0.2144
 2720TP3     H119979   4.169   0.174   7.498 -0.0880  0.3173 -0.9964
 2720TP3     H219980   4.064   0.101   7.417  0.5644 -1.4256 -0.2993
 2721TP3      O19981   5.009   3.411   2.468  0.0346 -0.4364  0.3217
 2721TP3     H119982   5.092   3.450   2.495  0.3594  0.6667 -2.1554
 2721TP3     H219983   5.010   3.324   2.507  1.7818  0.0245  1.3594
 2722TP3      O19984   2.231   0.165   2.496  0.1226 -0.4168 -0.2591
 2722TP3     H119985   2.169   0.131   2.561  0.6857  0.0458  0.5382
 2722TP3     H219986   2.298   0.209   2.549 -1.8299  4.1547 -1.3133
 2723TP3      O19987   4.140   4.601   1.928 -0.2260 -0.1669  0.1067
 2723TP3     H119988   4.164   4.650   1.850 -0.8086  0.6550  0.4443
 2723TP3     H219989   4.044   4.598   1.927 -0.2456  0.0559  0.9136
 2724TP3      O19990   0.164   2.425   0.210 -0.0411  0.0164 -1.0854
 2724TP3     H119991   0.249   2.379   0.208 -0.6410 -1.2344  0.6814
 2724TP3     H219992   0.187   2.517   0.222  1.0750 -0.3382 -0.4363
 2725TP3      O19993   2.714   3.589   1.318 -0.3184 -0.2195 -0.5377
 2725TP3     H119994   2.758   3.661   1.363 -1.3324  0.0282  0.0591
 2725TP3     H219995   2.785   3.528   1.296  0.2124 -0.2741  1.2387
 2726TP3      O19996   2.319   1.141   0.061  0.0785  0.4900 -0.2509
 2726TP3     H119997   2.274   1.065   0.027 -1.2459  0.5032  1.4276
 2726TP3     H219998   2.303   1.210  -0.004 -0.5948 -0.0565 -0.6617
 2727TP3      O19999   2.116   4.616   1.581 -0.0417 -0.5796 -0.3439
 2727TP3     H120000   2.176   4.611   1.506  0.4308  0.0025 -0.0036
 2727TP3     H220001   2.030   4.632   1.542  0.0267 -1.3361 -0.8290
 2728TP3      O20002   4.359   0.639   2.657 -0.0590  0.4459  0.2125
 2728TP3     H120003   4.338   0.689   2.736 -1.1894 -0.9510  0.8212
 2728TP3     H220004   4.297   0.672   2.591 -0.1493  0.5367  0.3406
 2729TP3      O20005   1.257   2.630   8.324 -0.0917  0.1015  0.0335
 2729TP3     H120006   1.203   2.553   8.343  0.0576 -0.0414 -0.1139
 2729TP3     H220007   1.345   2.604   8.352  0.1017 -0.0564 -0.7079
 2730TP3      O20008   2.850   2.706   7.889 -0.2389 -0.1451 -0.1043
 2730TP3     H120009   2.903   2.719   7.810  0.0217 -0.5106  0.0090
 2730TP3     H220010   2.856   2.612   7.906  0.3783  0.0669  0.8286
 2731TP3      O20011   1.808   0.907   8.121  0.0696 -0.2251 -0.3761
 2731TP3     H120012   1.899   0.880   8.133 -0.1782 -1.1451 -0.5382
 2731TP3     H220013   1.802   0.992   8.165  0.4670 -1.1467  1.5252
 2732TP3      O20014   2.758   1.806   2.243 -0.2452 -0.3630  0.0447
 2732TP3     H120015   2.665   1.817   2.223 -0.2611  0.0014  0.3069
 2732TP3     H220016   2.792   1.895   2.251 -0.5947 -0.4459  3.1724
 2733TP3      O20017   4.815   4.964   9.277 -0.5963 -0.3192  0.7082
 2733TP3     H120018   4.790   5.056   9.284 -0.6149 -0.2903  0.2837
 2733TP3     H220019   4.898   4.966   9.229 -0.2499 -0.4762  1.2986
 2734TP3      O20020   0.498   0.828   8.000  0.0532  0.4197  0.0225
 2734TP3     H120021   0.504   0.923   7.988  2.4920  0.3837  0.8308
 2734TP3     H220022   0.407   0.814   8.027 -0.1306  2.6185  0.6710
 2735TP3      O20023   0.604   1.589   0.818 -0.2860  0.1865 -0.2054
 2735TP3     H120024   0.558   1.651   0.762  0.4054  0.9672  0.0878
 2735TP3     H220025   0.621   1.638   0.898 -1.4579 -0.9880  0.7750
 2736TP3      O20026   2.203   4.516  10.077  0.0343 -0.4767  0.3061
 2736TP3     H120027   2.118   4.557  10.064 -0.2190 -1.0314  0.1840
 2736TP3     H220028   2.264   4.589  10.083 -0.2832 -0.1056 -0.8067
 2737TP3      O20029   1.059   3.030   8.804  0.3015  0.5248  0.3352
 2737TP3     H120030   1.090   3.081   8.729  0.1147  1.5437  0.9493
 2737TP3     H220031   1.011   3.092   8.858 -3.3845 -1.0967 -0.8577
 2738TP3      O20032   4.993   4.537   7.863 -0.1064  0.2639  0.0666
 2738TP3     H120033   4.931   4.466   7.878 -1.4899  1.5407  0.5399
 2738TP3     H220034   5.060   4.526   7.930 -1.7180  0.9349  1.8272
 2739TP3      O20035   0.162   0.237   2.087 -0.2365  0.1867  0.7214
 2739TP3     H120036   0.155   0.332   2.082  1.5490  0.2585 -1.0782
 2739TP3     H220037   0.177   0.218   2.179 -0.6257  1.6454  1.0868
 2740TP3      O20038   3.277   2.352   0.143  0.2902 -0.1588  0.2961
 2740TP3     H120039   3.373   2.349   0.142  0.3806  1.2434  2.0112
 2740TP3     H220040   3.252   2.336   0.052  2.2663  2.0949 -0.7077
 2741TP3      O20041   2.224   4.352   0.704 -0.3801  0.3274  0.0427
 2741TP3     H120042   2.271   4.383   0.627 -0.3962  0.9897  0.2965
 2741TP3     H220043   2.241   4.258   0.707 -0.5063  0.2762 -0.8514
 2742TP3      O20044   1.261   1.930   1.837  0.6048 -0.2128  0.1882
 2742TP3     H120045   1.306   1.933   1.921  1.2220 -0.5913 -0.1256
 2742TP3     H220046   1.306   1.994   1.783  0.4459 -0.2305  0.0325
 2743TP3      O20047   3.080   1.970   0.597  0.2442 -0.2376 -0.2534
 2743TP3     H120048   3.052   2.022   0.672 -0.7476  0.4682 -1.0871
 2743TP3     H220049   3.115   1.889   0.634 -0.1934  0.1282  0.9568
 2744TP3      O20050   3.321   5.111   0.199  0.7070 -0.3039  0.5006
 2744TP3     H120051   3.322   5.015   0.191  0.6273 -0.3256  0.7487
 2744TP3     H220052   3.243   5.138   0.150  0.9430 -0.3339  0.1019
 2745TP3      O20053   0.991   1.928   9.441 -0.6771 -0.3724  0.4030
 2745TP3     H120054   1.066   1.932   9.382 -0.7321  1.5591  0.4487
 2745TP3     H220055   0.957   1.839   9.430  0.8295 -0.8422 -0.5797
 2746TP3      O20056   0.908   4.427   9.697  0.7019  0.2074 -0.0173
 2746TP3     H120057   0.843   4.485   9.657  0.3557 -0.7997 -0.9752
 2746TP3     H220058   0.859   4.346   9.715  2.1935 -1.4926 -3.0953
 2747TP3      O20059   3.016   0.947   0.098 -0.2648  0.1784  0.6137
 2747TP3     H120060   3.022   1.042   0.091  0.6861  0.0075 -0.9019
 2747TP3     H220061   3.100   0.914   0.066 -1.4740 -1.2737 -1.1467
 2748TP3      O20062   3.881   0.672   0.080 -0.3432 -0.3853 -0.0843
 2748TP3     H120063   3.875   0.588   0.125 -2.9703  0.4902  1.2934
 2748TP3     H220064   3.840   0.656  -0.006  0.3427 -0.8274 -0.3343
 2749TP3      O20065   2.365   4.907   0.881 -0.3760 -0.2134 -0.1779
 2749TP3     H120066   2.459   4.909   0.865 -0.2871  1.1934  0.4770
 2749TP3     H220067   2.357   4.879   0.972 -0.6189 -0.8737 -0.3974
 2750TP3      O20068   4.142   3.518   8.870 -0.1198 -0.1658 -0.5601
 2750TP3     H120069   4.174   3.505   8.781 -2.7383  0.0862 -1.5975
 2750TP3     H220070   4.063   3.465   8.875 -0.5665  0.6157  1.2789
 2751TP3      O20071   0.639   2.650   7.503 -0.4555 -0.3442  0.1820
 2751TP3     H120072   0.692   2.575   7.528 -1.0432 -0.1845  1.9862
 2751TP3     H220073   0.702   2.718   7.478  0.0733 -1.4195 -1.4857
 2752TP3      O20074   3.952   4.846   2.881  0.0019 -0.0563 -0.7359
 2752TP3     H120075   3.880   4.908   2.893 -1.5624 -2.0818  0.7428
 2752TP3     H220076   3.915   4.776   2.827  1.3952 -0.2944 -1.4080
 2753TP3      O20077   2.433   3.810   2.743 -0.0421 -0.1362 -0.2149
 2753TP3     H120078   2.482   3.729   2.757  0.8766  0.4568  0.0222
 2753TP3     H220079   2.499   3.875   2.720 -1.0856 -0.1569 -3.4899
 2754TP3      O20080   0.334   4.596   7.310  0.1160 -0.5273  0.0266
 2754TP3     H120081   0.278   4.643   7.248  0.1617 -0.8658 -0.2736
 2754TP3     H220082   0.416   4.582   7.262  0.5385  0.1659  0.5393
 2755TP3      O20083   3.401   4.679   2.532 -0.5541 -0.1557  0.6196
 2755TP3     H120084   3.327   4.740   2.540 -0.8769 -0.3801 -0.4854
 2755TP3     H220085   3.447   4.708   2.453 -0.7193 -1.3315  0.0751
 2756TP3      O20086   3.220   4.839   9.939 -0.0607 -0.2311 -0.4629
 2756TP3     H120087   3.125   4.854   9.933  0.1858  1.8546  0.5871
 2756TP3     H220088   3.257   4.891   9.867  0.4887  1.0893  0.7616
 2757TP3      O20089   1.018   4.086   8.147 -0.0286 -0.3418 -0.4704
 2757TP3     H120090   1.038   3.993   8.138  0.2225 -0.3887  0.5134
 2757TP3     H220091   1.001   4.116   8.058  1.9388 -0.8850 -1.0567
 2758TP3      O20092   3.504   3.833   9.330 -0.0764  0.2338  0.0504
 2758TP3     H120093   3.487   3.926   9.348  2.0851  0.6355  0.0986
 2758TP3     H220094   3.570   3.808   9.395  2.3435 -0.2723 -2.5466
 2759TP3      O20095   3.383   2.056   1.620  0.8306 -0.1042  0.0091
 2759TP3     H120096   3.300   2.086   1.582  1.0412 -0.8385 -1.0603
 2759TP3     H220097   3.358   2.013   1.701  0.0233 -1.4245 -0.9125
 2760TP3      O20098   3.176   1.538   9.311  0.3572 -0.6426  0.2035
 2760TP3     H120099   3.147   1.453   9.345 -0.5850  0.0736  1.2450
 2760TP3     H220100   3.105   1.565   9.253  0.3407 -0.2474  0.4123
 2761TP3      O20101   3.242   0.895   1.389  0.4737  0.0810  0.0169
 2761TP3     H120102   3.313   0.953   1.362  0.7042  0.0203  0.4888
 2761TP3     H220103   3.163   0.932   1.349  0.7632  0.1825 -0.4558
 2762TP3      O20104   4.645   4.282   2.043 -0.1359 -0.8054  0.2896
 2762TP3     H120105   4.655   4.304   1.950  1.6297 -2.6758 -0.0020
 2762TP3     H220106   4.555   4.249   2.050 -0.6588  0.4365 -0.5178
 2763TP3      O20107   2.708   0.173   0.489  0.1124  0.1302 -0.2928
 2763TP3     H120108   2.778   0.164   0.425  0.9642 -0.5794  0.7362
 2763TP3     H220109   2.635   0.210   0.439  1.1057  0.5764 -1.4348
 2764TP3      O20110   2.827   1.559   8.879  0.1937 -0.1969  0.3195
 2764TP3     H120111   2.753   1.572   8.938  0.5977 -3.7598  1.7572
 2764TP3     H220112   2.797   1.492   8.818  2.2520 -1.9271  1.1264
 2765TP3      O20113   4.372   0.879   8.049 -0.5612 -0.8794 -0.8296
 2765TP3     H120114   4.420   0.828   7.984 -0.3015 -1.7178  0.0011
 2765TP3     H220115   4.299   0.823   8.075 -0.1711 -0.9066  0.2254
 2766TP3      O20116   4.609   3.656   0.989  0.8473 -0.1883 -0.1942
 2766TP3     H120117   4.578   3.639   0.900  0.5774 -0.9607  0.0442
 2766TP3     H220118   4.606   3.570   1.032  1.1074  0.1576  0.5160
 2767TP3      O20119   5.250   3.773   2.850  0.5145  0.3940  0.1159
 2767TP3     H120120   5.194   3.793   2.925  0.8509 -0.9859  0.7517
 2767TP3     H220121   5.328   3.733   2.888  1.7379  1.8528 -0.8069
 2768TP3      O20122   0.881   0.600   7.767  0.2766 -0.5736 -0.0153
 2768TP3     H120123   0.874   0.505   7.761  0.8162 -0.6555  0.6480
 2768TP3     H220124   0.962   0.615   7.814 -0.0264  0.2149  0.2576
 2769TP3      O20125   4.341   2.693   1.205 -0.1381  0.3606  0.3823
 2769TP3     H120126   4.318   2.693   1.112 -0.6951 -0.0808  0.5173
 2769TP3     H220127   4.425   2.740   1.208  0.2954 -0.3225 -0.4508
 2770TP3      O20128   2.446   1.106   9.526 -0.3179  0.3715  0.3720
 2770TP3     H120129   2.452   1.020   9.485 -0.3986  0.8379 -0.6200
 2770TP3     H220130   2.352   1.124   9.530 -0.3905 -0.2740  2.0361
 2771TP3      O20131   4.119   1.754   9.894  0.7260 -0.5252  0.1203
 2771TP3     H120132   4.036   1.743   9.941  0.6931 -0.2388  0.1280
 2771TP3     H220133   4.121   1.680   9.833  0.4257 -0.4854  0.0610
 2772TP3      O20134   3.198   4.395   0.925  0.1245 -0.5998  0.4418
 2772TP3     H120135   3.217   4.347   1.006 -0.2643 -1.9819 -0.2807
 2772TP3     H220136   3.130   4.344   0.882  0.6468 -0.1135 -0.9810
 2773TP3      O20137   0.454   1.964   1.364 -0.3040  0.0956 -0.1607
 2773TP3     H120138   0.515   2.036   1.347  1.6560 -1.4385  0.2018
 2773TP3     H220139   0.408   1.991   1.443  0.6447  0.8278  0.1636
 2774TP3      O20140   2.767   3.145   1.333 -0.1627 -0.4394  0.1869
 2774TP3     H120141   2.851   3.100   1.335  0.0686 -0.0797 -1.0052
 2774TP3     H220142   2.749   3.167   1.425  1.4987  0.3547  0.3419
 2775TP3      O20143   0.838   0.323   0.840 -0.1387  0.6321 -0.2219
 2775TP3     H120144   0.909   0.367   0.795  0.6883 -0.1500  0.2929
 2775TP3     H220145   0.809   0.386   0.907 -0.1184  1.0536 -0.6087
 2776TP3      O20146   0.086   5.239   7.304 -0.1315 -0.0269 -0.4664
 2776TP3     H120147   0.086   5.143   7.301 -0.4849 -0.0457 -0.0047
 2776TP3     H220148   0.053   5.266   7.219 -0.1493 -0.3179 -0.5515
 2777TP3      O20149   3.893   3.170   0.701  0.5946  0.0534  0.1766
 2777TP3     H120150   3.870   3.084   0.736  1.2668 -0.6927 -1.1532
 2777TP3     H220151   3.904   3.155   0.607  2.0746  1.3093  0.1295
 2778TP3      O20152   2.341   3.357   7.526  0.2677  0.2020 -0.4168
 2778TP3     H120153   2.306   3.433   7.478 -1.5017  0.1960  0.7916
 2778TP3     H220154   2.327   3.284   7.467 -0.4333  0.4392 -0.5603
 2779TP3      O20155   2.684   0.305   8.922 -0.0999 -0.4363 -0.1351
 2779TP3     H120156   2.709   0.232   8.865 -0.1697 -1.0056  0.5603
 2779TP3     H220157   2.734   0.290   9.003  2.1804  1.9128 -1.0455
 2780TP3      O20158   1.679   1.790   1.575  0.1416  0.1488  0.2449
 2780TP3     H120159   1.767   1.757   1.593  0.6099  1.0269 -0.4139
 2780TP3     H220160   1.624   1.750   1.643  1.4965  1.7659  2.3347
 2781TP3      O20161   1.032   4.170   8.722 -0.2230 -0.2315  0.4672
 2781TP3     H120162   1.044   4.120   8.641  0.0259  0.4267  0.0954
 2781TP3     H220163   0.940   4.159   8.744 -0.6899  0.9358 -0.8169
 2782TP3      O20164   2.265   2.397   3.051 -0.0210  0.7829 -0.7404
 2782TP3     H120165   2.312   2.356   2.979  2.3945  0.7813  0.7609
 2782TP3     H220166   2.311   2.480   3.065 -0.5038  0.8153  0.7457
 2783TP3      O20167   2.680   1.203   0.593  0.0912 -0.1200 -0.3682
 2783TP3     H120168   2.590   1.196   0.625  0.7933  1.9135  2.2013
 2783TP3     H220169   2.680   1.152   0.512 -2.7236 -2.3347  0.9145
 2784TP3      O20170   2.833   4.020   0.941 -0.6122 -0.3885  0.3523
 2784TP3     H120171   2.837   3.930   0.973 -0.7911  0.4148  2.7373
 2784TP3     H220172   2.876   4.071   1.009 -2.2201  1.5540 -0.0636
 2785TP3      O20173   0.716   3.924   7.881 -0.1808 -0.0500 -0.2663
 2785TP3     H120174   0.699   4.018   7.879 -0.9806 -0.1184  2.4970
 2785TP3     H220175   0.650   3.887   7.822 -0.5079  1.0110 -0.5786
 2786TP3      O20176   1.097   1.180   9.367 -0.4227  0.2885  0.2871
 2786TP3     H120177   1.103   1.106   9.307  0.1464  0.3805  0.2308
 2786TP3     H220178   1.167   1.239   9.340  0.7083 -0.2856  1.8812
 2787TP3      O20179   2.948   2.806   0.596  0.0390  0.3336 -0.1294
 2787TP3     H120180   2.977   2.859   0.522  1.4812 -0.5512 -0.2285
 2787TP3     H220181   2.886   2.743   0.558 -0.8029  1.2004 -0.2069
 2788TP3      O20182   0.197   1.670   0.289 -0.0592 -0.5615  0.2876
 2788TP3     H120183   0.281   1.710   0.265 -0.1867 -0.2926  0.2818
 2788TP3     H220184   0.136   1.702   0.223 -0.3036 -0.2304  0.6711
 2789TP3      O20185   4.377   2.429   8.693  0.0011 -0.0942 -0.2859
 2789TP3     H120186   4.389   2.334   8.700 -2.1048 -0.6890 -3.6577
 2789TP3     H220187   4.286   2.440   8.668  0.1402  2.8743  0.2778
 2790TP3      O20188   1.124   0.420   9.557  0.6105 -0.0162  0.1208
 2790TP3     H120189   1.179   0.424   9.479 -0.6586 -1.2205 -0.8794
 2790TP3     H220190   1.070   0.342   9.544 -0.4450  0.4252  1.6547
 2791TP3      O20191   5.185   0.677   9.773  0.5718  0.3159 -0.2269
 2791TP3     H120192   5.163   0.766   9.747  0.3332 -0.1243 -1.6134
 2791TP3     H220193   5.206   0.683   9.866 -1.3821  1.4667  0.1664
 2792TP3      O20194   0.117   1.572   9.903  0.1118  0.5466 -0.1624
 2792TP3     H120195   0.122   1.499   9.965  1.4923 -1.5513 -2.5845
 2792TP3     H220196   0.032   1.562   9.861  1.1889 -1.1001 -2.0579
 2793TP3      O20197   3.848   1.392   0.527 -0.0030  0.4337 -0.4182
 2793TP3     H120198   3.761   1.431   0.532 -0.6994 -1.1517  0.0599
 2793TP3     H220199   3.903   1.449   0.580 -0.9932  0.8135  0.2102
 2794TP3      O20200   3.683   1.441   8.099  0.4739  0.0879 -0.0448
 2794TP3     H120201   3.730   1.409   8.022  0.1999 -0.5976  0.0659
 2794TP3     H220202   3.751   1.476   8.156  0.8590 -0.9536  0.1395
 2795TP3      O20203   5.189   2.415   9.435  0.4333  0.1773 -0.3810
 2795TP3     H120204   5.108   2.368   9.454 -0.8562  1.8521 -1.5549
 2795TP3     H220205   5.207   2.397   9.343  0.8723  0.5887 -0.3827
 2796TP3      O20206   1.623   0.096   1.932 -0.1020 -0.1168  0.0125
 2796TP3     H120207   1.668   0.100   2.017  0.6222 -2.4468 -0.2283
 2796TP3     H220208   1.687   0.129   1.870 -0.8765  2.2715  0.4102
 2797TP3      O20209   2.302   0.598   9.652 -0.4264 -0.8553 -0.2774
 2797TP3     H120210   2.258   0.523   9.611 -1.7356 -0.5517  0.5653
 2797TP3     H220211   2.271   0.674   9.602  0.9859 -0.8643 -1.2030
 2798TP3      O20212   3.573   4.325   1.161 -0.0546  0.1312 -0.4279
 2798TP3     H120213   3.636   4.345   1.230 -0.3077 -0.4193 -0.0397
 2798TP3     H220214   3.541   4.411   1.132  0.3176  0.3770 -0.1157
 2799TP3      O20215   0.042   4.152   8.398  0.0153  0.0116  0.3814
 2799TP3     H120216   0.086   4.224   8.352  0.2794  0.2676  1.0268
 2799TP3     H220217  -0.006   4.106   8.330  1.9003 -0.7250 -0.4613
 2800TP3      O20218   0.440   0.764   8.362 -0.0587  0.2727 -0.5754
 2800TP3     H120219   0.526   0.788   8.328 -0.0128  1.0016  0.0629
 2800TP3     H220220   0.431   0.812   8.444 -0.7931 -0.3269 -0.2884
 2801TP3      O20221   0.379   3.557   8.837 -0.3715  0.0794  0.0829
 2801TP3     H120222   0.351   3.615   8.767 -0.5160 -0.1688 -0.0660
 2801TP3     H220223   0.314   3.568   8.906 -1.4424 -1.2702 -0.6726
 2802TP3      O20224   2.558   5.215   2.308  0.7272 -0.6622 -0.5717
 2802TP3     H120225   2.646   5.237   2.276  0.9694 -0.4025  0.2745
 2802TP3     H220226   2.504   5.215   2.229  1.1185  1.0357 -0.8560
 2803TP3      O20227   0.570   0.020   8.885  0.4663  0.0047  0.5896
 2803TP3     H120228   0.573   0.112   8.910  1.5569  0.2079 -0.2690
 2803TP3     H220229   0.572  -0.027   8.969  0.3135  0.7509  1.0169
 2804TP3      O20230   1.853   5.130   9.783  0.3510  0.3494 -0.6322
 2804TP3     H120231   1.860   5.225   9.791 -0.3962  0.3540  0.0632
 2804TP3     H220232   1.866   5.097   9.872 -2.4194  0.0072 -0.2814
 2805TP3      O20233   1.608   2.299   9.699 -0.5108 -0.1430 -0.6999
 2805TP3     H120234   1.694   2.313   9.740 -0.8954  1.8740 -0.5306
 2805TP3     H220235   1.555   2.258   9.767 -0.2882  0.5155 -0.1288
 2806TP3      O20236   0.626   4.327   0.356  0.0846  0.0473 -0.0782
 2806TP3     H120237   0.652   4.256   0.415 -0.2478 -0.5650 -0.6656
 2806TP3     H220238   0.709   4.363   0.324  0.3151  1.3918  1.9388
 2807TP3      O20239   2.275   3.511   1.420 -0.1436  0.1368  0.2907
 2807TP3     H120240   2.364   3.537   1.444 -1.0072  0.7663  2.9636
 2807TP3     H220241   2.222   3.587   1.440 -1.3575 -0.3997 -0.8558
 2808TP3      O20242   2.823   5.139   2.658 -0.3246  0.0724  0.1468
 2808TP3     H120243   2.795   5.048   2.657  0.3820 -0.1482 -0.1327
 2808TP3     H220244   2.845   5.157   2.750  2.5877 -1.0124 -0.2804
 2809TP3      O20245   4.580   1.961   7.914 -0.6684  0.1694  0.1185
 2809TP3     H120246   4.563   1.878   7.959  1.3583 -0.1006  0.4608
 2809TP3     H220247   4.610   2.020   7.983  0.4442  0.3811 -0.5322
 2810TP3      O20248   3.370   3.382   1.371 -0.8342 -0.3851  0.2107
 2810TP3     H120249   3.327   3.299   1.388  0.0736 -0.9368 -0.1458
 2810TP3     H220250   3.411   3.405   1.455  1.4998 -1.8447 -0.4679
 2811TP3      O20251   5.094   2.370   7.587  0.0718  0.0999 -0.1793
 2811TP3     H120252   5.068   2.390   7.497 -0.4999 -2.5043 -0.6232
 2811TP3     H220253   5.145   2.289   7.580  0.9668  0.4722  1.7197
 2812TP3      O20254   4.997   2.725   7.478 -0.3820  0.0404 -0.2687
 2812TP3     H120255   5.069   2.774   7.517 -0.9296 -1.9728  3.4394
 2812TP3     H220256   5.040   2.652   7.433  0.2499  2.4032 -3.7476
 2813TP3      O20257   1.737   5.149   0.557  0.2862  0.0200 -0.5904
 2813TP3     H120258   1.753   5.204   0.480 -0.5167  2.0096  0.6137
 2813TP3     H220259   1.734   5.211   0.630  0.8653 -1.8126  1.0295
 2814TP3      O20260   4.272   1.340   8.170  0.3092  0.0560 -0.0577
 2814TP3     H120261   4.337   1.273   8.150  0.7374  0.4417  0.0413
 2814TP3     H220262   4.199   1.320   8.112  0.7596 -0.0142 -0.6078
 2815TP3      O20263   1.953   4.502   9.811 -0.0098  0.0956 -0.8897
 2815TP3     H120264   1.885   4.457   9.762  0.7705 -1.6956 -0.3490
 2815TP3     H220265   1.920   4.592   9.820 -2.1406 -0.6676 -0.8928
 2816TP3      O20266   0.998   1.598   7.838 -0.0848 -0.4109  0.2011
 2816TP3     H120267   1.084   1.599   7.880  0.0613 -0.6219 -0.0881
 2816TP3     H220268   0.957   1.517   7.869 -1.0085  0.7025  1.9760
 2817TP3      O20269   4.740   2.043   1.391  0.5629  0.0876 -0.0325
 2817TP3     H120270   4.788   2.111   1.343 -0.1128  1.5611  1.3388
 2817TP3     H220271   4.798   2.020   1.463  0.1356  0.2974  0.3759
 2818TP3      O20272   4.910   4.992   7.781  0.0436 -0.2338  0.0211
 2818TP3     H120273   4.843   5.029   7.723  0.9868  1.0517 -0.2675
 2818TP3     H220274   4.860   4.956   7.854 -1.0669 -0.5861 -0.8810
 2819TP3      O20275   2.168   3.239   8.005  0.0737 -0.9360 -1.0917
 2819TP3     H120276   2.229   3.303   7.968 -0.0269 -1.0139 -1.3992
 2819TP3     H220277   2.216   3.199   8.078  0.2796 -0.7863 -1.1435
 2820TP3      O20278   5.033   3.529   9.842 -0.4172  0.4046  0.0868
 2820TP3     H120279   5.009   3.598   9.903 -0.5318  0.5727 -0.1484
 2820TP3     H220280   5.011   3.564   9.756  0.1314  0.3276 -0.0829
 2821TP3      O20281   0.270   3.002   0.850  0.3552 -0.1053 -0.1089
 2821TP3     H120282   0.292   3.043   0.766  0.1454  0.6330  0.1945
 2821TP3     H220283   0.258   3.075   0.910  1.1256 -0.6587  0.7216
 2822TP3      O20284   2.860   3.653  10.131 -0.1666  0.0215  0.0401
 2822TP3     H120285   2.862   3.664  10.226 -3.5420 -0.1430  0.1663
 2822TP3     H220286   2.817   3.568  10.118  1.4438 -0.5690 -1.6230
 2823TP3      O20287   1.647   3.642   8.365 -0.1306  0.9440  0.0626
 2823TP3     H120288   1.604   3.567   8.405  1.9456  0.8781  2.2482
 2823TP3     H220289   1.713   3.603   8.306  2.0673  0.9846  2.4209
 2824TP3      O20290   0.507   1.448   7.426 -0.1468  0.1152 -0.3260
 2824TP3     H120291   0.435   1.406   7.473 -1.5180  2.2980 -0.4422
 2824TP3     H220292   0.525   1.389   7.352 -0.8434 -1.1474  0.4933
 2825TP3      O20293   4.786   0.331   8.420 -0.0236 -0.4315 -0.0696
 2825TP3     H120294   4.702   0.347   8.376  0.1229  0.1027 -0.1580
 2825TP3     H220295   4.824   0.418   8.430  0.6677 -0.7048 -0.3163
 2826TP3      O20296   1.185   4.710   1.302  0.7295 -0.1278 -0.1248
 2826TP3     H120297   1.218   4.709   1.392 -0.7084  1.5745  0.4333
 2826TP3     H220298   1.258   4.743   1.249  0.7122  1.3289  0.7652
 2827TP3      O20299   2.969   3.498   9.090 -0.1349  0.2198 -0.1205
 2827TP3     H120300   2.955   3.592   9.097  2.7186  0.7008 -0.1078
 2827TP3     H220301   3.006   3.473   9.174  0.7046 -0.5828 -0.7187
 2828TP3      O20302   0.489   4.738  10.003 -0.1263  0.3457  0.3825
 2828TP3     H120303   0.463   4.736  10.095  0.6126 -0.9786  0.5798
 2828TP3     H220304   0.407   4.756   9.956 -0.3856  1.7325  1.3193
 2829TP3      O20305   1.236   1.314   1.545 -0.1406 -0.4211  0.2187
 2829TP3     H120306   1.302   1.338   1.480 -0.5228 -0.1107 -0.0549
 2829TP3     H220307   1.180   1.251   1.499  1.6433 -2.9255  1.3314
 2830TP3      O20308   2.571   3.673   7.525 -0.1911 -0.2543  0.2834
 2830TP3     H120309   2.486   3.717   7.526 -0.8355 -1.4596 -0.2917
 2830TP3     H220310   2.584   3.648   7.433  0.1918 -1.2142  0.5937
 2831TP3      O20311   1.157   4.410   1.626 -0.0324  0.1584 -0.0831
 2831TP3     H120312   1.128   4.399   1.717 -0.8071 -2.3092 -0.5985
 2831TP3     H220313   1.241   4.364   1.622 -0.5329 -0.6887 -0.8911
 2832TP3      O20314   4.805   3.270   0.038 -0.0057 -0.5095  0.7012
 2832TP3     H120315   4.811   3.193   0.094 -0.9379 -0.1156  1.3676
 2832TP3     H220316   4.724   3.258  -0.011  0.6830 -0.7335 -0.4108
 2833TP3      O20317   4.254   3.306   2.043 -0.1104 -0.1264  0.1048
 2833TP3     H120318   4.197   3.370   2.084  2.0065  2.7528 -1.1959
 2833TP3     H220319   4.335   3.310   2.093  0.2841 -1.2930 -0.4172
 2834TP3      O20320   1.222   1.933   8.040  0.1052 -0.6653  0.3590
 2834TP3     H120321   1.127   1.932   8.036  0.0376  1.0775  1.4985
 2834TP3     H220322   1.245   1.860   8.097 -0.7422  1.4398  3.4758
 2835TP3      O20323   1.032   3.690   0.646 -0.2052  0.2122 -0.1419
 2835TP3     H120324   1.069   3.777   0.637 -0.1450  0.2658  0.6184
 2835TP3     H220325   0.979   3.678   0.567 -0.6026  1.1236 -0.0168
 2836TP3      O20326   2.350   1.466   0.646 -0.3220  0.4896  0.0420
 2836TP3     H120327   2.345   1.430   0.558  3.0640 -0.4844  0.1484
 2836TP3     H220328   2.349   1.389   0.703  1.1569  0.8749  0.6118
 2837TP3      O20329   2.077   4.260   9.257  1.0793 -0.6812 -0.5933
 2837TP3     H120330   2.026   4.329   9.214  1.6651  0.5192  0.5683
 2837TP3     H220331   2.102   4.299   9.341  2.1377 -2.0148 -0.2760
 2838TP3      O20332   5.163   4.331   0.483  0.0526 -0.1731  0.1054
 2838TP3     H120333   5.193   4.249   0.442  2.1540  1.6638 -2.1683
 2838TP3     H220334   5.223   4.345   0.556  0.6308  0.0917 -0.4157
 2839TP3      O20335   2.295   0.089   0.751  0.4493  0.3530  0.1143
 2839TP3     H120336   2.336   0.121   0.831  1.2498  1.3198 -0.6591
 2839TP3     H220337   2.242   0.014   0.779  0.5770  0.7873  1.5605
 2840TP3      O20338   1.025   0.362   7.825  0.7090  0.3524  0.3188
 2840TP3     H120339   0.937   0.345   7.859  0.9813 -1.6944  0.0998
 2840TP3     H220340   1.078   0.378   7.903  0.2981  0.8127  0.5055
 2841TP3      O20341   3.346   4.264   8.472 -0.0906  0.3621  0.1119
 2841TP3     H120342   3.333   4.173   8.445  0.7627 -0.1284  1.3269
 2841TP3     H220343   3.430   4.289   8.433  0.3449  0.1839  0.9383
 2842TP3      O20344   2.015   1.474   2.607 -0.3383 -0.1458 -0.2309
 2842TP3     H120345   2.048   1.559   2.577 -1.6666  1.0593  1.6370
 2842TP3     H220346   1.920   1.485   2.611 -0.3962 -1.1460  1.6997
 2843TP3      O20347   2.296   2.159   8.572 -0.2343 -0.0130  0.0204
 2843TP3     H120348   2.276   2.153   8.479  0.1711 -1.2540  0.0077
 2843TP3     H220349   2.390   2.177   8.575 -0.0712 -0.8917  0.2051
 2844TP3      O20350   0.511   4.642   2.103  0.0305 -0.0049  0.1381
 2844TP3     H120351   0.529   4.560   2.058 -3.1173  0.1584 -1.5085
 2844TP3     H220352   0.483   4.616   2.191 -0.9831 -0.6936 -0.3866
 2845TP3      O20353   4.479   3.003   2.242  0.2967  0.0603 -0.6471
 2845TP3     H120354   4.495   3.098   2.241 -1.5602  0.3988 -0.3563
 2845TP3     H220355   4.394   2.993   2.199  1.0649 -1.6090 -1.8419
 2846TP3      O20356   0.649   3.193   1.672  0.5442 -0.0606 -0.1281
 2846TP3     H120357   0.570   3.246   1.671 -1.3048 -2.7604 -1.2434
 2846TP3     H220358   0.720   3.256   1.655 -1.7628  1.7230 -3.7675
 2847TP3      O20359   0.454   1.875   0.820 -0.1521 -0.8138 -0.0628
 2847TP3     H120360   0.536   1.913   0.789 -0.2396 -1.1713 -0.7489
 2847TP3     H220361   0.473   1.845   0.909  0.2664 -0.2800  0.0261
 2848TP3      O20362   3.476   3.350   2.086 -0.4720  0.0819 -0.7631
 2848TP3     H120363   3.414   3.282   2.058 -0.2415 -1.3437  2.0567
 2848TP3     H220364   3.420   3.420   2.118 -0.6600 -0.4479  0.0780
 2849TP3      O20365   3.320   4.029   8.329 -0.6057  0.1458  0.3614
 2849TP3     H120366   3.360   3.961   8.384 -0.7398 -0.2688 -0.0469
 2849TP3     H220367   3.382   4.041   8.257 -1.5290 -1.0092 -0.6547
 2850TP3      O20368   4.239   3.658   9.394  0.7658  0.4488  0.1326
 2850TP3     H120369   4.218   3.744   9.358  0.1534  0.2639  0.0481
 2850TP3     H220370   4.160   3.606   9.380  1.5351 -0.4742 -0.8881
 2851TP3      O20371   1.009   2.627   2.010 -0.4309  0.1271  0.6225
 2851TP3     H120372   1.025   2.594   1.921 -0.8177 -1.3798  1.1167
 2851TP3     H220373   0.931   2.682   2.001 -1.0466 -0.8027  0.2184
 2852TP3      O20374   1.412   1.793   1.236  0.2785 -0.2223 -0.0215
 2852TP3     H120375   1.496   1.821   1.273  0.1544  1.3884 -0.9325
 2852TP3     H220376   1.353   1.867   1.251 -0.3333 -0.3867 -1.5668
 2853TP3      O20377   3.734   2.350   2.495  0.2076 -0.2450  0.2880
 2853TP3     H120378   3.715   2.307   2.578  0.1108 -1.8805 -0.5523
 2853TP3     H220379   3.823   2.384   2.505  0.2110 -0.4776  1.0484
 2854TP3      O20380   5.091   1.408   1.222 -0.4657  0.5750 -0.1578
 2854TP3     H120381   5.047   1.324   1.208 -1.7009  1.0435  0.8087
 2854TP3     H220382   5.157   1.412   1.154 -1.4377 -0.4854 -1.1867
 2855TP3      O20383   0.524   4.214   2.568  0.3391 -0.3299 -0.3721
 2855TP3     H120384   0.601   4.156   2.569  0.4340 -0.2814 -2.0833
 2855TP3     H220385   0.559   4.298   2.539 -0.4997 -0.5877 -2.2517
 2856TP3      O20386   3.676   4.607   1.165  0.0632  0.1428 -0.5279
 2856TP3     H120387   3.704   4.628   1.075  1.9115 -0.3582 -0.0985
 2856TP3     H220388   3.634   4.687   1.197 -0.0417  0.5330 -1.6203
 2857TP3      O20389   2.197   5.195   1.359 -0.1614 -0.4951  0.2138
 2857TP3     H120390   2.221   5.240   1.441 -1.8399  2.0586 -0.6253
 2857TP3     H220391   2.237   5.249   1.291  2.6353 -3.5244 -0.6694
 2858TP3      O20392   1.727   2.131   7.321  0.1323  0.6095  0.0517
 2858TP3     H120393   1.636   2.145   7.298  0.4297 -0.4710 -1.9265
 2858TP3     H220394   1.733   2.037   7.341  0.9276  0.5575 -0.4050
 2859TP3      O20395   4.592   4.857   0.951  0.9340  0.0887 -0.2573
 2859TP3     H120396   4.542   4.850   1.032 -0.2690  1.9118 -0.8265
 2859TP3     H220397   4.650   4.780   0.953  0.3025 -0.3822  1.8772
 2860TP3      O20398   3.798   4.098   7.269 -0.3040  0.2931  0.4225
 2860TP3     H120399   3.729   4.158   7.299  0.7013  1.4205  0.5232
 2860TP3     H220400   3.757   4.049   7.198 -1.3946  0.5593  0.8578
 2861TP3      O20401   1.769   3.893   9.543  0.0095  0.1938 -0.6236
 2861TP3     H120402   1.807   3.818   9.590  0.7985  0.5340 -0.7063
 2861TP3     H220403   1.833   3.912   9.474 -0.5357  0.4963 -1.0413
 2862TP3      O20404   2.309   0.088   1.213  0.0395  0.3507  0.1635
 2862TP3     H120405   2.335   0.127   1.130 -0.3179 -0.7631 -0.4832
 2862TP3     H220406   2.324   0.156   1.278 -1.3523  1.8458 -1.0480
 2863TP3      O20407   1.549   3.353   7.947 -0.0093  0.0832 -0.1754
 2863TP3     H120408   1.483   3.422   7.949 -0.3786 -0.2224 -1.7206
 2863TP3     H220409   1.604   3.373   7.872  0.8716 -0.4041  0.3200
 2864TP3      O20410   2.900   2.661  10.075 -0.7664  0.3467 -0.1001
 2864TP3     H120411   2.885   2.695  10.164  1.0810 -1.9662  1.1458
 2864TP3     H220412   2.819   2.615  10.053 -0.7154 -0.2759  0.9709
 2865TP3      O20413   4.815   0.707   9.562  0.2206 -0.2614 -0.0508
 2865TP3     H120414   4.906   0.724   9.540  0.4640 -1.7587 -0.2594
 2865TP3     H220415   4.779   0.664   9.485 -0.2810 -0.9544  0.5685
 2866TP3      O20416   1.642   3.956   2.606 -0.0873 -0.2745 -0.0877
 2866TP3     H120417   1.665   3.951   2.514 -0.9396  0.2886 -0.3366
 2866TP3     H220418   1.614   3.867   2.629 -0.6429 -0.2269 -0.5777
 2867TP3      O20419   1.793   4.944   0.270 -0.3978  0.6133  0.0007
 2867TP3     H120420   1.768   4.915   0.358 -1.1338 -2.0206 -1.0371
 2867TP3     H220421   1.826   5.033   0.283 -0.0356  0.1031  3.0152
 2868TP3      O20422   0.817   2.644   8.323  0.1470 -0.1899  0.0052
 2868TP3     H120423   0.770   2.623   8.404 -0.8381  0.5767 -0.3712
 2868TP3     H220424   0.833   2.738   8.329  0.6888 -0.2561 -0.3759
 2869TP3      O20425   0.301   0.799   9.302 -0.5513 -0.0311  0.0529
 2869TP3     H120426   0.292   0.858   9.228  0.0484  0.7748  0.6173
 2869TP3     H220427   0.221   0.813   9.353 -1.4662 -1.3640 -0.9809
 2870TP3      O20428   0.499   1.731   9.255  0.4100  0.7155 -0.2741
 2870TP3     H120429   0.443   1.656   9.275  1.7960 -0.0592  0.7762
 2870TP3     H220430   0.554   1.742   9.333  1.1327  1.9992 -0.9385
 2871TP3      O20431   1.217   2.584   1.648 -0.0881  0.1436 -0.4813
 2871TP3     H120432   1.291   2.626   1.693  0.9526 -1.3389 -0.7689
 2871TP3     H220433   1.223   2.618   1.558 -0.6484  1.1605 -0.1373
 2872TP3      O20434   1.619   5.040   9.347 -0.5813 -0.0773 -0.2834
 2872TP3     H120435   1.604   5.040   9.441  0.0945  1.2028 -0.1625
 2872TP3     H220436   1.714   5.048   9.337 -0.5955 -0.7109 -1.0773
 2873TP3      O20437   2.204   4.503   8.193  0.3081  0.5343 -0.7242
 2873TP3     H120438   2.265   4.577   8.196 -0.5805  1.2751 -0.4942
 2873TP3     H220439   2.155   4.511   8.275 -0.1093 -0.0446 -0.9206
 2874TP3      O20440   2.224   3.691  10.153 -0.1632  0.5806  0.3196
 2874TP3     H120441   2.275   3.610  10.162 -0.6930  0.1338 -0.6730
 2874TP3     H220442   2.208   3.719  10.243  0.2774 -0.2577  0.6659
 2875TP3      O20443   3.943   1.033   9.964 -0.0559  0.3322 -0.4711
 2875TP3     H120444   4.034   1.050   9.941  0.1473  2.1891  1.4850
 2875TP3     H220445   3.943   1.024  10.059 -2.0218  1.1522 -0.3539
 2876TP3      O20446   0.623   5.090   1.693  0.2531  0.5273  0.8371
 2876TP3     H120447   0.654   5.027   1.759 -0.7897  0.7559  1.5637
 2876TP3     H220448   0.550   5.045   1.650  0.7613  0.4858  0.0076
 2877TP3      O20449   4.891   2.079   2.007 -0.5452 -0.2040 -0.1504
 2877TP3     H120450   4.807   2.118   2.032 -0.3475  0.2095 -0.1370
 2877TP3     H220451   4.868   1.990   1.978 -1.1155  0.2343 -1.0768
 2878TP3      O20452   2.953   3.176   9.902  0.2347  0.4641 -0.7083
 2878TP3     H120453   3.031   3.184   9.956  0.2340 -0.7569 -0.5191
 2878TP3     H220454   2.961   3.091   9.859 -0.0208  1.1897 -2.2465
 2879TP3      O20455   2.565   0.914   3.721 -0.5122 -0.0301 -0.3777
 2879TP3     H120456   2.553   0.829   3.677 -0.0810 -0.2258 -0.1230
 2879TP3     H220457   2.476   0.941   3.745 -0.4744 -1.5376  1.6436
 2880TP3      O20458   4.950   3.093   2.669 -0.1452  0.3449  0.1847
 2880TP3     H120459   5.001   3.024   2.711  0.3502  0.4732 -0.1924
 2880TP3     H220460   4.940   3.064   2.579 -0.1103  0.6641  0.0745
 2881TP3      O20461   0.910   4.288   8.272  0.1701  0.1286 -0.3958
 2881TP3     H120462   0.971   4.318   8.339  0.9274 -0.0547 -0.9960
 2881TP3     H220463   0.955   4.216   8.229 -0.5648 -0.1554 -0.6967
 2882TP3      O20464   2.614   4.933   9.357 -0.0873 -0.8538  0.0254
 2882TP3     H120465   2.544   4.934   9.292 -2.0443  2.1329  2.0220
 2882TP3     H220466   2.574   4.895   9.435  0.9171 -0.3746  0.7840
 2883TP3      O20467   0.749   1.031   7.981  0.3083 -0.2549 -0.5896
 2883TP3     H120468   0.812   1.062   7.917  0.8703 -0.1706 -0.0015
 2883TP3     H220469   0.781   0.945   8.007  1.6383  0.8410  1.6149
 2884TP3      O20470   3.186   4.569   6.996 -0.0324 -0.1300  0.5021
 2884TP3     H120471   3.110   4.512   6.979 -0.7659  0.2220  2.4310
 2884TP3     H220472   3.148   4.647   7.036  1.1083  1.1577 -0.9213
 2885TP3      O20473   0.922   4.646   0.973 -0.2831 -0.4486  0.2943
 2885TP3     H120474   0.871   4.565   0.981 -2.5273  0.9845  0.8414
 2885TP3     H220475   0.891   4.686   0.892 -1.6254  1.4853  1.7095
 2886TP3      O20476   4.547   0.724   0.073  0.1568 -0.1810  0.6782
 2886TP3     H120477   4.515   0.719  -0.017  0.6531  2.2168  0.3272
 2886TP3     H220478   4.629   0.675   0.072 -0.1606 -0.7034 -0.0301
 2887TP3      O20479   0.716   1.833   1.786  0.0317  0.4163  0.0055
 2887TP3     H120480   0.791   1.885   1.816  0.3588 -0.3904  0.6092
 2887TP3     H220481   0.702   1.768   1.856 -1.5638  0.8902  0.1576
 2888TP3      O20482   0.189   1.355   0.758  0.0241  0.1915  0.1239
 2888TP3     H120483   0.175   1.436   0.710  1.0046  0.1511 -0.2413
 2888TP3     H220484   0.263   1.373   0.815 -1.2499  0.2916  1.7678
 2889TP3      O20485   0.284   4.155   1.552 -0.2691 -0.2869 -0.2484
 2889TP3     H120486   0.367   4.186   1.515  0.9255 -0.1865  2.3812
 2889TP3     H220487   0.239   4.235   1.579 -0.9890 -0.3812 -1.1213
 2890TP3      O20488   2.706   5.298   1.768 -0.0761  0.5454 -0.3283
 2890TP3     H120489   2.617   5.264   1.762 -0.4604  1.6898 -1.1906
 2890TP3     H220490   2.760   5.230   1.728 -0.5618 -0.1149  0.1267
 2891TP3      O20491   5.082   4.073   0.568  0.0312  0.4812 -0.1329
 2891TP3     H120492   5.174   4.052   0.555 -0.1909 -1.4992  1.2905
 2891TP3     H220493   5.066   4.054   0.661 -1.7473  1.0023 -0.3096
 2892TP3      O20494   2.220   4.690   9.395  0.8115  0.1820  0.4756
 2892TP3     H120495   2.259   4.774   9.418  0.0543  0.4671  0.7266
 2892TP3     H220496   2.246   4.631   9.466  3.5582 -0.5039 -0.9892
 2893TP3      O20497   4.253   0.700   1.709 -0.2237  0.4141  0.5617
 2893TP3     H120498   4.168   0.659   1.697  0.1813  0.0516 -1.1594
 2893TP3     H220499   4.233   0.792   1.728 -0.9849  0.5536 -0.8254
 2894TP3      O20500   0.535   1.253   7.254  0.6036  0.0893 -0.1971
 2894TP3     H120501   0.623   1.221   7.277  0.3091 -1.3745 -1.0345
 2894TP3     H220502   0.517   1.213   7.169 -0.3132  1.5162 -0.6795
 2895TP3      O20503   0.346   1.029   9.564 -0.0267 -0.0156  0.2212
 2895TP3     H120504   0.359   1.038   9.470  0.4868  3.9601  0.5971
 2895TP3     H220505   0.429   0.996   9.598  1.2320  2.5432 -0.2681
 2896TP3      O20506   0.654   3.075   8.043  0.6709  0.4309  0.1211
 2896TP3     H120507   0.738   3.081   7.997 -0.5357  0.0141 -2.2312
 2896TP3     H220508   0.652   2.985   8.075 -0.2649 -0.6099 -2.7010
 2897TP3      O20509   2.277   3.766   1.090  0.0124  0.4898  0.0044
 2897TP3     H120510   2.232   3.798   1.011 -0.2306 -0.2700 -0.1809
 2897TP3     H220511   2.332   3.695   1.058  1.1747  1.2633  0.2746
 2898TP3      O20512   3.031   0.446   9.729  0.1418 -0.1259  0.4801
 2898TP3     H120513   3.019   0.362   9.773  1.0674  0.0313  1.0451
 2898TP3     H220514   2.972   0.506   9.776  0.4308 -0.1729  0.9075
 2899TP3      O20515   3.822   4.997  10.112 -0.0966  0.1360 -0.1661
 2899TP3     H120516   3.770   4.964  10.185  1.0953  1.9728  1.5826
 2899TP3     H220517   3.758   5.026  10.048 -1.1953  0.0885  0.8908
 2900TP3      O20518   4.716   3.697   8.008  0.3634 -0.4690 -0.0716
 2900TP3     H120519   4.786   3.640   8.038 -0.6946 -2.0746 -0.5532
 2900TP3     H220520   4.679   3.734   8.088 -0.2096 -2.0260  0.4062
 2901TP3      O20521   2.188   0.450   2.003  0.5174  0.7898 -0.2022
 2901TP3     H120522   2.132   0.524   1.980 -0.4654  0.4096  0.9368
 2901TP3     H220523   2.254   0.487   2.062  1.0353  1.0926 -0.9690
 2902TP3      O20524   1.752   1.279   9.686 -0.1016 -0.2416  0.1030
 2902TP3     H120525   1.818   1.315   9.627 -1.0030  0.5655 -0.4194
 2902TP3     H220526   1.717   1.356   9.732 -1.9417 -0.4386 -0.9178
 2903TP3      O20527   4.319   1.132  10.103 -0.1937 -0.2507  0.2197
 2903TP3     H120528   4.321   1.209  10.160  0.2963 -0.9795  1.1960
 2903TP3     H220529   4.409   1.097  10.107 -0.7004 -1.5342  0.6997
 2904TP3      O20530   3.921   2.510   9.384  0.0324 -0.1938  0.5029
 2904TP3     H120531   3.989   2.493   9.319 -1.7084  0.5447 -1.5761
 2904TP3     H220532   3.902   2.603   9.376 -0.8401 -0.2748  1.4188
 2905TP3      O20533   2.132   3.506   0.957  0.1758  0.1346  0.3296
 2905TP3     H120534   2.056   3.565   0.964  0.3546  0.3173  0.7681
 2905TP3     H220535   2.141   3.469   1.045  0.4573 -0.0630  0.2169
 2906TP3      O20536   0.768   1.934   8.061 -0.0576  0.0113  0.1710
 2906TP3     H120537   0.804   1.971   7.980 -0.1188 -2.2077 -0.9198
 2906TP3     H220538   0.674   1.952   8.056 -0.0386  0.0236 -0.2002
 2907TP3      O20539   3.341   4.412   9.497  0.7248  0.4211 -0.4239
 2907TP3     H120540   3.331   4.363   9.578 -0.2138 -0.1247 -0.8698
 2907TP3     H220541   3.409   4.365   9.449 -0.0238 -0.3245 -0.7575
 2908TP3      O20542   1.327   1.487   1.108  0.4624 -0.0968  0.1463
 2908TP3     H120543   1.415   1.522   1.097  0.6235 -0.6675 -0.4261
 2908TP3     H220544   1.319   1.421   1.039 -0.6684  0.4607 -0.2680
 2909TP3      O20545   3.814   0.783   0.558  0.3467  0.5946  0.3248
 2909TP3     H120546   3.734   0.785   0.506  0.9994 -1.5908 -0.8177
 2909TP3     H220547   3.882   0.815   0.498  0.6178  0.8447  0.7624
 2910TP3      O20548   5.054   1.200  10.068  0.7187  0.3901 -0.1105
 2910TP3     H120549   4.998   1.219   9.993 -0.6211  0.8456  1.0070
 2910TP3     H220550   5.027   1.112  10.096 -0.7250  1.3576  1.5691
 2911TP3      O20551   1.985   4.713   8.183  0.0831  0.1207 -0.0095
 2911TP3     H120552   1.964   4.805   8.169 -0.0931  0.1158  0.2169
 2911TP3     H220553   2.050   4.693   8.116  1.1151  0.7640  0.7918
 2912TP3      O20554   2.748   4.815   1.454 -0.2449 -0.1734  0.0978
 2912TP3     H120555   2.757   4.812   1.358 -0.2153 -0.5976  0.1133
 2912TP3     H220556   2.653   4.815   1.468 -0.2453 -1.3125  0.1039
 2913TP3      O20557   4.419   1.172   0.857  0.6270 -0.0746 -0.3834
 2913TP3     H120558   4.382   1.147   0.942 -0.3034  1.0679 -0.4481
 2913TP3     H220559   4.357   1.139   0.793  0.4410  0.5860 -0.5457
 2914TP3      O20560   5.083   3.136   1.547 -0.3397 -0.2145  0.7055
 2914TP3     H120561   5.004   3.091   1.516  0.3009 -1.6311  1.1019
 2914TP3     H220562   5.113   3.186   1.471  0.3958 -2.5059 -0.5643
 2915TP3      O20563   0.981   1.179   9.873 -0.1282  0.5225  0.1956
 2915TP3     H120564   0.923   1.156   9.946  0.3223 -0.6613  0.1878
 2915TP3     H220565   0.956   1.119   9.803  2.2905 -1.2511  0.7712
 2916TP3      O20566   1.345   2.082   0.266 -0.1003  0.5907 -0.2604
 2916TP3     H120567   1.316   2.171   0.284  1.6187  1.1761 -0.3134
 2916TP3     H220568   1.365   2.045   0.352  0.8956  0.8631 -0.3690
 2917TP3      O20569   1.160   2.063   1.148 -0.6462  0.4142  0.2093
 2917TP3     H120570   1.221   2.082   1.219 -1.0977  2.2048  0.1477
 2917TP3     H220571   1.089   2.014   1.190  1.1594 -2.3546  0.1316
 2918TP3      O20572   4.728   0.464   0.400 -0.3330  0.4673 -0.1559
 2918TP3     H120573   4.673   0.392   0.432  0.3887  0.6810  1.6229
 2918TP3     H220574   4.720   0.460   0.305 -1.4172 -1.0900 -0.0121
 2919TP3      O20575   1.721   2.647   0.631  0.8361 -0.0163 -0.5065
 2919TP3     H120576   1.715   2.608   0.718 -0.7596  0.9520 -0.1654
 2919TP3     H220577   1.806   2.617   0.597  1.6916 -0.0034  1.5556
 2920TP3      O20578   3.846   3.780   2.250  0.0672 -0.5611  0.0089
 2920TP3     H120579   3.758   3.750   2.229  1.4816 -4.4718 -0.8513
 2920TP3     H220580   3.844   3.799   2.344 -1.7203 -0.3739 -0.0592
 2921TP3      O20581   4.149   2.975   1.054  1.0000 -0.2756  0.6173
 2921TP3     H120582   4.104   2.921   0.989  2.2417  1.0732 -1.4287
 2921TP3     H220583   4.091   3.049   1.069 -0.9159 -2.3092  3.7695
 2922TP3      O20584   2.773   5.166   0.824  0.6874 -0.0859  0.2958
 2922TP3     H120585   2.722   5.245   0.808 -0.0857 -0.4307  0.9652
 2922TP3     H220586   2.785   5.127   0.738 -1.7398 -0.9347  0.2959
 2923TP3      O20587   0.380   2.246   0.144  0.2782  0.6285 -0.0328
 2923TP3     H120588   0.466   2.203   0.143  0.6554  1.3417  0.9396
 2923TP3     H220589   0.331   2.202   0.075  0.7653 -1.1052  0.7170
 2924TP3      O20590   3.844   0.311   8.114  0.2853  0.2679 -0.1930
 2924TP3     H120591   3.876   0.387   8.065 -1.2582 -0.0739 -1.8154
 2924TP3     H220592   3.908   0.242   8.095  0.3632  0.4849 -0.7394
 2925TP3      O20593   2.486   0.689   8.489  0.1046  0.1620  0.2779
 2925TP3     H120594   2.568   0.726   8.456  2.3779 -3.1271  1.9472
 2925TP3     H220595   2.450   0.640   8.415  0.5433  0.1991  0.0394
 2926TP3      O20596   4.688   0.882   9.290  0.2241 -0.2074  0.4161
 2926TP3     H120597   4.714   0.927   9.210  1.6545 -0.7564  0.5598
 2926TP3     H220598   4.724   0.794   9.282 -0.2753 -0.5064  1.3192
 2927TP3      O20599   2.038   0.613   9.319 -0.1382  0.3642  0.0960
 2927TP3     H120600   2.128   0.647   9.325  0.5436 -1.3488 -0.0456
 2927TP3     H220601   2.037   0.565   9.236 -1.1886  0.3134  0.1343
 2928TP3      O20602   3.426   4.082   1.366  0.5389  0.3645  0.1922
 2928TP3     H120603   3.480   4.140   1.420  2.3236  0.2120 -1.3842
 2928TP3     H220604   3.489   4.034   1.312 -1.0198 -1.7334  0.1799
 2929TP3      O20605   0.940   4.723   1.261  0.1638  0.6511  0.2193
 2929TP3     H120606   1.036   4.721   1.251  0.1524  1.2261 -0.0324
 2929TP3     H220607   0.908   4.670   1.188  0.4829 -4.8216  3.7401
 2930TP3      O20608   0.592   1.972   2.211 -0.5150  0.0574  0.3474
 2930TP3     H120609   0.530   2.010   2.273 -1.7108 -1.1880 -0.0523
 2930TP3     H220610   0.669   2.029   2.216 -1.0347  0.6453  2.1008
 2931TP3      O20611   4.416   1.335   7.422 -0.3122  0.4022 -0.0087
 2931TP3     H120612   4.334   1.301   7.385 -0.0857  0.9215 -1.0203
 2931TP3     H220613   4.418   1.301   7.512 -1.8801  0.7979  0.1863
 2932TP3      O20614   2.114   2.899   0.785  0.0765 -0.4116 -0.4593
 2932TP3     H120615   2.183   2.962   0.804  1.3456 -1.0934 -2.5919
 2932TP3     H220616   2.129   2.828   0.847  0.0996  0.3236  0.3774
 2933TP3      O20617   0.085   0.352   8.699  0.0254 -0.1624  0.2777
 2933TP3     H120618   0.111   0.444   8.689 -0.4956 -0.0310  0.1197
 2933TP3     H220619   0.095   0.334   8.792  1.8146 -0.4525  0.0575
 2934TP3      O20620   3.264   3.689   9.425 -0.0105  0.1345  0.3735
 2934TP3     H120621   3.339   3.746   9.407  0.7260 -0.7055  0.7651
 2934TP3     H220622   3.300   3.601   9.424 -1.0369 -0.2937  0.3828
 2935TP3      O20623   3.021   0.779   2.213  0.1405 -0.1679 -0.2107
 2935TP3     H120624   3.000   0.859   2.261  0.7420  0.3793 -0.8363
 2935TP3     H220625   2.994   0.797   2.123  1.3994 -0.1963 -0.6057
 2936TP3      O20626   2.003   1.148   8.692  0.0610  0.2366  0.4377
 2936TP3     H120627   2.013   1.059   8.658  0.3184  0.0693  0.9559
 2936TP3     H220628   1.908   1.163   8.690  0.0745  0.2473 -0.4055
 2937TP3      O20629   2.022   0.560   1.555 -0.3616  0.0601  1.1054
 2937TP3     H120630   1.991   0.470   1.562 -1.0679  0.3222  1.3672
 2937TP3     H220631   1.965   0.600   1.490  0.4465  0.1111  0.4096
 2938TP3      O20632   2.693   1.711   9.066 -0.4215 -0.2734 -0.3695
 2938TP3     H120633   2.627   1.737   9.131  0.0325 -1.3059  0.5093
 2938TP3     H220634   2.680   1.773   8.993 -2.4373 -0.5535 -0.2687
 2939TP3      O20635   0.444   2.991   1.626 -0.4105 -0.5944  0.0599
 2939TP3     H120636   0.500   3.062   1.658  0.6539 -0.2553 -2.4473
 2939TP3     H220637   0.369   3.035   1.586 -0.9487 -0.9577  0.6665
 2940TP3      O20638   2.233   1.181   8.374  0.5186  0.5552  0.2594
 2940TP3     H120639   2.249   1.246   8.443 -0.1088 -0.4453  1.3568
 2940TP3     H220640   2.253   1.097   8.415 -1.1111 -0.1649 -0.3811
 2941TP3      O20641   3.503   0.377   8.928  0.2463  0.5391 -0.2767
 2941TP3     H120642   3.490   0.316   8.856  0.3162  1.9730 -1.5228
 2941TP3     H220643   3.598   0.384   8.937  0.2775  1.9690 -1.4680
 2942TP3      O20644   2.762   0.789   8.126  0.3767 -0.4447  0.3281
 2942TP3     H120645   2.692   0.853   8.140  0.4046 -0.5290  0.9002
 2942TP3     H220646   2.718   0.709   8.100  0.3401 -0.1913 -0.3758
 2943TP3      O20647   2.806   1.628   0.999 -0.0576  0.5343  0.3610
 2943TP3     H120648   2.868   1.555   0.987 -1.0480 -0.2840  0.1669
 2943TP3     H220649   2.790   1.660   0.910 -2.6152 -1.5341  0.0261
 2944TP3      O20650   1.036   2.540   0.814 -0.6022  0.1253  0.4409
 2944TP3     H120651   0.982   2.617   0.834  0.1442  0.6076  0.6252
 2944TP3     H220652   1.109   2.575   0.762  1.3903  0.0559  3.0794
 2945TP3      O20653   3.964   0.226   1.336  0.0925 -0.9060 -0.6996
 2945TP3     H120654   3.993   0.145   1.376 -0.1103 -0.4731  0.3297
 2945TP3     H220655   3.876   0.241   1.371 -0.4791 -1.0224 -2.0452
 2946TP3      O20656   1.379   0.204   0.608  0.2645 -0.3830  0.0423
 2946TP3     H120657   1.473   0.204   0.589  0.5265  0.1950  1.2955
 2946TP3     H220658   1.358   0.113   0.626  0.6476 -0.4619  0.0884
 2947TP3      O20659   3.611   1.911   8.646 -0.0363  0.3339  0.1542
 2947TP3     H120660   3.691   1.910   8.698  0.1677 -0.8859 -0.1658
 2947TP3     H220661   3.546   1.868   8.702  0.2589 -1.2522 -0.6979
 2948TP3      O20662   1.052   5.084   2.469 -0.2046  0.6174  0.3060
 2948TP3     H120663   1.099   5.109   2.388  0.8395 -0.2462  0.6302
 2948TP3     H220664   1.033   4.991   2.457 -0.2123  0.5353  0.9711
 2949TP3      O20665   0.178   1.246   3.034  0.7201  0.0672 -0.1904
 2949TP3     H120666   0.112   1.231   2.965  0.2014 -0.3191  0.3876
 2949TP3     H220667   0.176   1.341   3.048  1.3690  0.2438 -1.2421
 2950TP3      O20668   5.126   4.163   9.320  0.9059  1.1209 -0.1227
 2950TP3     H120669   5.174   4.110   9.384 -2.2705 -1.1367  0.4560
 2950TP3     H220670   5.178   4.156   9.240  1.9370 -0.6365  0.6683
 2951TP3      O20671   1.922   3.119   7.459 -0.0038  0.1511 -0.3784
 2951TP3     H120672   1.978   3.172   7.403 -1.4384  0.2377 -1.7639
 2951TP3     H220673   1.893   3.180   7.527  1.5302  0.1108  0.3360
 2952TP3      O20674   2.408   2.466   0.176  0.2525  0.1372 -0.6270
 2952TP3     H120675   2.353   2.389   0.163  1.3844 -1.2264  2.2882
 2952TP3     H220676   2.497   2.436   0.157  0.6241  0.8748 -0.0814
 2953TP3      O20677   2.103   0.838   1.068  0.2092  0.4385  0.1925
 2953TP3     H120678   2.182   0.883   1.099  0.2053 -0.0150  0.8807
 2953TP3     H220679   2.033   0.901   1.083  0.2859  0.4263  0.6356
 2954TP3      O20680   5.170   0.313   9.275  0.2016 -0.2190 -0.1543
 2954TP3     H120681   5.220   0.390   9.248  0.6347 -0.4462 -0.0076
 2954TP3     H220682   5.196   0.245   9.214  0.1624 -0.3698 -0.0047
 2955TP3      O20683   0.875   4.611   9.189  0.0623 -0.1584  0.3184
 2955TP3     H120684   0.875   4.531   9.242 -0.3851  0.0152  0.5779
 2955TP3     H220685   0.824   4.673   9.240 -0.7565 -0.1305 -0.5387
 2956TP3      O20686   1.540   1.640   9.652  0.6833  0.1619 -0.2222
 2956TP3     H120687   1.469   1.597   9.605 -0.8177 -0.2800  2.3663
 2956TP3     H220688   1.506   1.728   9.670  0.1276 -0.5431  2.3584
 2957TP3      O20689   2.502   2.160   1.337  0.4960  0.3551  0.0582
 2957TP3     H120690   2.585   2.115   1.357 -0.7693 -1.8273  0.6068
 2957TP3     H220691   2.465   2.111   1.264  0.0538  1.7990 -0.6976
 2958TP3      O20692   4.244   4.898   1.066 -0.3896  0.4146  0.1065
 2958TP3     H120693   4.173   4.923   1.124 -0.7911 -0.1933 -0.1225
 2958TP3     H220694   4.229   4.948   0.986 -0.3988  0.4988  0.1612
 2959TP3      O20695   4.730   4.118   1.623 -0.6756  0.5821 -0.3100
 2959TP3     H120696   4.750   4.195   1.676 -2.1422  1.3162 -0.7963
 2959TP3     H220697   4.651   4.081   1.664 -0.0081 -0.6453 -0.1005
 2960TP3      O20698   0.356   0.895   1.056 -0.3210 -0.4100 -0.0737
 2960TP3     H120699   0.306   0.869   1.134 -1.4224  0.5956 -0.4331
 2960TP3     H220700   0.447   0.886   1.083 -0.6841  0.0184  1.3876
 2961TP3      O20701   3.375   4.079   7.774 -0.0305 -0.4201  0.2320
 2961TP3     H120702   3.440   4.129   7.821  0.8183 -2.1618  0.9336
 2961TP3     H220703   3.301   4.139   7.764  0.8482  0.8564  1.3105
 2962TP3      O20704   0.767   4.407   1.001  0.4039 -0.4813  0.0544
 2962TP3     H120705   0.723   4.344   1.057 -0.7288  0.6786  0.4969
 2962TP3     H220706   0.750   4.376   0.912  0.7537 -1.3683  0.2920
 2963TP3      O20707   0.735   0.265   1.172  0.3758 -0.3515 -1.2042
 2963TP3     H120708   0.662   0.215   1.209 -1.0158  0.7819 -2.3586
 2963TP3     H220709   0.765   0.320   1.244  0.5779 -1.3560 -0.5120
 2964TP3      O20710   3.756   4.964   0.602 -0.1971 -0.2292  0.0963
 2964TP3     H120711   3.801   4.885   0.631  0.0998 -0.6892 -1.6017
 2964TP3     H220712   3.795   4.985   0.518 -1.2511  0.9297 -0.1221
 2965TP3      O20713   2.722   2.621   8.301 -0.0198 -0.3132 -0.1006
 2965TP3     H120714   2.668   2.612   8.380  0.3103  2.6224  0.5236
 2965TP3     H220715   2.811   2.600   8.330  0.3794  2.3445  0.7846
 2966TP3      O20716   4.010   0.747   8.998  0.2880 -0.1305  0.0317
 2966TP3     H120717   3.971   0.669   8.958 -1.5125  0.1547  1.1612
 2966TP3     H220718   4.088   0.714   9.043 -0.8166 -1.3999  1.0495
 2967TP3      O20719   4.945   1.198   7.848  0.2122  0.0601  0.1296
 2967TP3     H120720   5.001   1.129   7.810 -0.4320 -0.0833 -0.5636
 2967TP3     H220721   4.994   1.228   7.924  0.1297 -1.7346  0.9106
 2968TP3      O20722   2.083   4.450   1.087  0.1473 -0.3306 -0.4808
 2968TP3     H120723   2.012   4.495   1.134  0.8943  1.1502 -0.7390
 2968TP3     H220724   2.081   4.489   0.999  0.0969 -1.6044 -1.0487
 2969TP3      O20725   4.905   3.846   9.839  0.4331  0.7183  0.0643
 2969TP3     H120726   4.935   3.789   9.768  0.1106 -0.5262  0.9204
 2969TP3     H220727   4.819   3.876   9.812  0.8625  1.2984 -0.6732
 2970TP3      O20728   0.237   4.173   7.886  0.4307  1.0163 -0.4141
 2970TP3     H120729   0.235   4.205   7.796 -0.2647 -1.7868 -1.4503
 2970TP3     H220730   0.330   4.158   7.904  0.3787 -0.9011 -1.6244
 2971TP3      O20731   0.125   0.402   1.301  0.4876  0.5212  0.5762
 2971TP3     H120732   0.179   0.403   1.381  1.0591 -0.9004  0.2238
 2971TP3     H220733   0.065   0.476   1.312  0.5501  0.3279  2.3245
 2972TP3      O20734   0.872   4.003   0.973 -0.1509  0.5733  0.2785
 2972TP3     H120735   0.880   3.911   0.997  2.7337  1.0321  1.2699
 2972TP3     H220736   0.881   4.050   1.055 -2.7805  1.7438 -0.0519
 2973TP3      O20737   0.015   2.701   2.818 -0.8115  0.3324 -0.1192
 2973TP3     H120738   0.058   2.751   2.748  0.5953  1.1620  1.3196
 2973TP3     H220739   0.069   2.623   2.828 -1.7931 -0.4652 -0.8726
 2974TP3      O20740   2.292   5.235   2.406  0.3542 -0.4128  0.3161
 2974TP3     H120741   2.260   5.311   2.454  0.6870 -0.6584  0.9313
 2974TP3     H220742   2.387   5.237   2.419  0.3603 -0.9430  0.3437
 2975TP3      O20743   2.651   1.018   1.650 -0.2718 -0.0495  0.2967
 2975TP3     H120744   2.628   0.953   1.716  0.3230  1.1835  1.7476
 2975TP3     H220745   2.744   1.035   1.665 -0.1815  0.3848 -0.7414
 2976TP3      O20746   0.541   4.014   9.868  0.3825  0.7058  0.0583
 2976TP3     H120747   0.449   3.991   9.853  1.0071 -1.5686 -0.4594
 2976TP3     H220748   0.544   4.046   9.958 -0.6308 -0.8441  0.6543
 2977TP3      O20749   4.510   3.854   7.605  0.0332  0.2106 -0.0435
 2977TP3     H120750   4.534   3.761   7.611 -0.2094  0.1341 -0.2687
 2977TP3     H220751   4.484   3.866   7.514 -0.0892  0.4633  0.0260
 2978TP3      O20752   0.000   2.985   1.453  0.1364  0.2498  0.4521
 2978TP3     H120753  -0.067   3.045   1.483 -1.1069 -1.1781  0.5901
 2978TP3     H220754  -0.004   2.990   1.357 -0.4924 -0.1912  0.4560
 2979TP3      O20755   1.727   0.971   1.611 -0.5929 -0.3920  0.0345
 2979TP3     H120756   1.750   1.017   1.692 -0.8384 -1.0585  0.4869
 2979TP3     H220757   1.743   0.878   1.631  1.1643 -0.4083 -1.2892
 2980TP3      O20758   1.976   4.358   8.085  0.4279  0.4671 -0.3294
 2980TP3     H120759   1.946   4.449   8.089  1.5476  0.8317 -0.0039
 2980TP3     H220760   2.048   4.354   8.148 -0.0042 -0.8040  0.0946
 2981TP3      O20761   5.293   5.241   9.725  0.3929  0.2261  0.1118
 2981TP3     H120762   5.205   5.264   9.754 -0.0311  2.3255 -2.5968
 2981TP3     H220763   5.282   5.215   9.633  2.3373 -1.3935  0.2973
 2982TP3      O20764   3.747   4.505   9.906 -0.1739 -0.3859 -0.6632
 2982TP3     H120765   3.726   4.453   9.984 -0.4659  0.0142 -0.4754
 2982TP3     H220766   3.785   4.586   9.941  3.0847 -1.6822 -1.0139
 2983TP3      O20767   2.648   3.835   0.479  0.0424 -0.3221 -0.3979
 2983TP3     H120768   2.725   3.887   0.458  0.6083 -0.7806  0.5279
 2983TP3     H220769   2.661   3.753   0.432 -0.3252 -0.0633 -0.9673
 2984TP3      O20770   3.508   0.724   6.921 -0.0758 -0.5261  1.2974
 2984TP3     H120771   3.510   0.727   7.017  1.4694 -1.7780  1.3272
 2984TP3     H220772   3.592   0.685   6.897 -0.2279  0.2858 -0.5962
 2985TP3      O20773   2.868   3.441   2.778 -0.2183 -0.3046  0.0383
 2985TP3     H120774   2.922   3.434   2.857  0.0883  0.5065 -0.0940
 2985TP3     H220775   2.927   3.480   2.712 -0.2016 -1.7945 -0.8558
 2986TP3      O20776   4.383   3.069   8.216 -0.1385 -0.5314 -0.4318
 2986TP3     H120777   4.391   2.976   8.239  1.5174 -0.2215  0.3081
 2986TP3     H220778   4.433   3.114   8.284 -1.4797  0.9624 -0.4186
 2987TP3      O20779   1.923   0.964   0.253 -0.6172 -0.0407 -0.3092
 2987TP3     H120780   2.004   0.937   0.211 -1.3410 -0.9233 -1.1586
 2987TP3     H220781   1.870   0.884   0.257 -1.4451  0.5236  0.2364
 2988TP3      O20782   0.125   3.233   1.956  0.0359  0.3466 -0.0844
 2988TP3     H120783   0.141   3.317   1.999 -0.3008  0.9648 -1.1523
 2988TP3     H220784   0.063   3.188   2.014  0.6642  0.5893  0.7845
 2989TP3      O20785   4.346   1.761  10.048  0.0262 -0.6591  0.9961
 2989TP3     H120786   4.286   1.767   9.973  2.3537 -0.2849 -0.8875
 2989TP3     H220787   4.373   1.852  10.063  1.2443 -1.0030  0.8955
 2990TP3      O20788   0.032   2.458   9.882 -0.2479  0.0649 -0.2642
 2990TP3     H120789   0.060   2.457   9.974  0.0782 -0.7732 -0.3683
 2990TP3     H220790  -0.063   2.462   9.886 -0.2102  0.6617  0.1050
 2991TP3      O20791   4.890   1.498   9.051  0.2476 -0.3813  0.0956
 2991TP3     H120792   4.841   1.430   9.098  0.9280 -2.0384 -1.4997
 2991TP3     H220793   4.838   1.514   8.972  0.4795  0.4061  0.1061
 2992TP3      O20794   3.302   2.989   1.245 -0.3570 -0.1397  0.0099
 2992TP3     H120795   3.350   2.912   1.274 -1.0281 -0.9484 -1.0220
 2992TP3     H220796   3.279   2.972   1.154 -1.4146  0.8220  0.0728
 2993TP3      O20797   1.351   1.520   9.522 -0.0248 -0.1107 -0.1482
 2993TP3     H120798   1.384   1.459   9.456  1.8261  1.1139 -0.3958
 2993TP3     H220799   1.262   1.489   9.541  0.9515 -2.9866 -0.0793
 2994TP3      O20800   5.010   1.257   0.655  0.0774 -0.0797 -0.4453
 2994TP3     H120801   5.050   1.195   0.716 -0.3112 -0.3304 -0.4450
 2994TP3     H220802   4.959   1.202   0.595 -1.0242  0.3186  0.1211
 2995TP3      O20803   4.560   2.468   2.651  0.3463 -0.4051  0.2151
 2995TP3     H120804   4.567   2.555   2.612 -0.1103 -0.1011  0.7884
 2995TP3     H220805   4.522   2.414   2.582  0.5241 -0.1246 -0.1063
 2996TP3      O20806   1.088   3.510  10.094 -0.2724  0.9852  0.5861
 2996TP3     H120807   1.019   3.446  10.113  1.5938 -1.2103  0.1934
 2996TP3     H220808   1.045   3.577  10.042 -1.4214 -2.0914 -2.6855
 2997TP3      O20809   5.218   0.010   2.126 -0.7972 -0.2310  0.3582
 2997TP3     H120810   5.160   0.002   2.202  0.1321 -0.4666  1.0487
 2997TP3     H220811   5.285  -0.057   2.140 -0.2292  0.1902 -0.3221
 2998TP3      O20812   2.411   1.602   7.861  0.0536  0.4262 -0.0280
 2998TP3     H120813   2.369   1.554   7.932  1.2881 -0.6532  0.0173
 2998TP3     H220814   2.499   1.563   7.855  0.3474  1.2446 -1.4125
 2999TP3      O20815   2.901   4.219   1.914  0.1725 -0.4295  0.1432
 2999TP3     H120816   2.951   4.164   1.854 -3.2763 -0.9639 -2.4111
 2999TP3     H220817   2.928   4.308   1.892 -0.4507 -0.6659 -1.6576
 3000TP3      O20818   0.083   3.302   9.477  0.4013  0.0678  0.5995
 3000TP3     H120819   0.006   3.323   9.530 -0.5724 -1.1482 -0.2897
 3000TP3     H220820   0.102   3.210   9.497 -0.1122 -0.4804 -1.2445
 3001TP3      O20821   3.934   2.611   7.460  0.0399  0.1346  0.3442
 3001TP3     H120822   4.006   2.556   7.492 -0.5433 -1.8462 -1.6048
 3001TP3     H220823   3.976   2.674   7.402  0.6017  1.1720  1.8574
 3002TP3      O20824   5.172   5.206   0.055 -0.3060  0.4941 -0.2237
 3002TP3     H120825   5.198   5.295   0.032  0.8869  0.0316 -0.6622
 3002TP3     H220826   5.191   5.154  -0.023  0.6206 -0.4574  0.6258
 3003TP3      O20827   3.949   2.885   9.007 -0.4062  0.0694 -0.1721
 3003TP3     H120828   4.024   2.855   9.060 -0.5814  0.2372  0.1726
 3003TP3     H220829   3.988   2.908   8.922  0.0005  0.5458  0.1354
 3004TP3      O20830   3.127   5.253   3.202 -0.6053 -0.5505  0.2231
 3004TP3     H120831   3.141   5.298   3.119  0.0472 -0.6970  0.2550
 3004TP3     H220832   3.092   5.167   3.178 -1.5262 -0.1611  0.1481
 3005TP3      O20833   0.888   3.354   1.748 -0.3870  0.0466  0.1800
 3005TP3     H120834   0.957   3.287   1.753  0.0104  0.4203 -0.2487
 3005TP3     H220835   0.844   3.349   1.833  0.5623  0.2102  0.6968
 3006TP3      O20836   5.068   4.975   9.135  0.4940 -0.3622  0.4186
 3006TP3     H120837   5.138   5.004   9.194 -0.7477 -0.1922  1.8434
 3006TP3     H220838   5.072   4.880   9.138  0.9978 -0.3493  0.0988
 3007TP3      O20839   3.130   1.274   0.188 -0.0531 -0.2366 -0.1709
 3007TP3     H120840   3.036   1.257   0.195 -0.3146  0.6781 -1.3226
 3007TP3     H220841   3.148   1.338   0.257 -0.1592 -0.8512  0.4305
 3008TP3      O20842   1.990   0.996   9.502  0.0904  0.3520 -0.3230
 3008TP3     H120843   1.950   0.996   9.415  0.1547 -1.4726 -0.3847
 3008TP3     H220844   1.916   0.994   9.563  0.0574 -0.5755 -0.3882
 3009TP3      O20845   2.988   3.216   2.681  0.6819  0.6525  0.0083
 3009TP3     H120846   3.083   3.227   2.688  0.7203  0.4766 -0.2285
 3009TP3     H220847   2.952   3.299   2.712  0.8866  0.4000  0.9162
 3010TP3      O20848   3.329   4.572   2.189  0.3299 -0.8682  0.1945
 3010TP3     H120849   3.387   4.643   2.217  0.4455 -0.9442  0.1515
 3010TP3     H220850   3.302   4.529   2.270 -1.7432  0.7704  0.4063
 3011TP3      O20851   4.977   1.856   8.761 -0.6429 -0.5530  0.3360
 3011TP3     H120852   5.026   1.784   8.722  0.1894  0.7690 -1.1272
 3011TP3     H220853   4.961   1.829   8.851  4.1103 -0.4183  1.3284
 3012TP3      O20854   5.018   1.518   2.395  0.3582  0.0156 -0.1290
 3012TP3     H120855   4.949   1.529   2.461  0.1874 -0.0840 -0.2890
 3012TP3     H220856   5.059   1.604   2.388  0.0740  0.1434 -0.2238
 3013TP3      O20857   0.295   1.401   0.294 -0.2162  0.0524 -0.1715
 3013TP3     H120858   0.384   1.397   0.258 -0.0435 -0.1544  0.2693
 3013TP3     H220859   0.268   1.491   0.280 -0.3158 -0.1258 -1.1964
 3014TP3      O20860   0.049   2.518   1.251 -0.1281 -0.7152 -0.3991
 3014TP3     H120861   0.044   2.454   1.323 -2.8164 -0.2729 -0.1336
 3014TP3     H220862  -0.025   2.496   1.195 -2.4752  3.4654  0.8528
 3015TP3      O20863   3.384   0.698   0.117  0.2577 -0.2109 -0.2745
 3015TP3     H120864   3.374   0.708   0.212 -2.9911 -1.1270 -0.4459
 3015TP3     H220865   3.404   0.605   0.106 -3.9004 -1.1798 -0.6571
 3016TP3      O20866   0.231   4.266   0.260 -0.6966  0.1890  0.1408
 3016TP3     H120867   0.279   4.272   0.177 -0.5969 -1.0957  0.0923
 3016TP3     H220868   0.174   4.342   0.260 -1.3604 -0.2801 -1.5467
 3017TP3      O20869   1.246   1.666   0.179 -0.9128  0.0155  1.0290
 3017TP3     H120870   1.155   1.695   0.173 -0.7586  0.8661  2.4818
 3017TP3     H220871   1.245   1.578   0.141 -2.1836  0.3151  0.3105
 3018TP3      O20872   0.438   3.552   9.378  0.1846 -0.1236  0.2099
 3018TP3     H120873   0.377   3.560   9.452 -0.4648 -0.9375 -0.2254
 3018TP3     H220874   0.419   3.628   9.323  0.6079  0.4356  0.8377
 3019TP3      O20875   5.035   1.803   0.293 -0.2210 -0.4567  0.4531
 3019TP3     H120876   5.067   1.813   0.204 -1.7212 -1.0463 -0.1589
 3019TP3     H220877   5.114   1.795   0.346  0.7278  1.5441 -0.6025
 3020TP3      O20878   3.419   0.307   6.817  0.3320 -0.0533 -0.1855
 3020TP3     H120879   3.329   0.337   6.830  0.4825 -0.1860  1.1621
 3020TP3     H220880   3.457   0.371   6.756 -0.8015 -0.2593 -1.1362
 3021TP3      O20881   5.098   3.860   8.994  0.1475 -0.1949 -0.1824
 3021TP3     H120882   5.031   3.863   9.062  1.8981 -0.0077  1.5854
 3021TP3     H220883   5.177   3.832   9.040  1.2660 -0.4614 -2.2359
 3022TP3      O20884   3.525   1.040   0.048 -0.2937  0.6423 -0.0638
 3022TP3     H120885   3.491   0.980  -0.019  1.0506  1.1377 -1.2075
 3022TP3     H220886   3.587   0.986   0.098 -0.3272  0.6283 -0.0372
 3023TP3      O20887   3.531   3.849   2.902 -0.3314  0.3156 -0.3730
 3023TP3     H120888   3.573   3.823   2.984 -1.7109 -0.2049  0.1816
 3023TP3     H220889   3.529   3.770   2.849  0.1052  0.5328 -0.7189
 3024TP3      O20890   2.487   4.461   0.941 -0.3339 -0.0396 -0.2487
 3024TP3     H120891   2.572   4.418   0.950  0.0896  1.1113  1.5450
 3024TP3     H220892   2.429   4.411   1.000  0.1150  1.6850  1.6924
 3025TP3      O20893   2.512   3.145   9.434 -0.0354  0.2771 -0.0157
 3025TP3     H120894   2.465   3.092   9.370  0.7784 -0.0211 -0.3700
 3025TP3     H220895   2.516   3.233   9.394  1.3531 -0.1425 -0.8472
 3026TP3      O20896   2.088   0.226   1.894  0.4246 -0.2474  0.8027
 3026TP3     H120897   2.084   0.168   1.970  2.0020  0.9113  1.7921
 3026TP3     H220898   2.105   0.313   1.931  0.3572  0.4678 -0.8191
 3027TP3      O20899   0.875   1.042   2.592 -0.5336  0.5485  0.0165
 3027TP3     H120900   0.859   1.136   2.590  1.0534  0.8467  0.5925
 3027TP3     H220901   0.819   1.009   2.662  1.7376  1.6491  2.4057
 3028TP3      O20902   4.687   2.613   9.841  0.0658 -0.1068  0.3155
 3028TP3     H120903   4.733   2.649   9.917 -0.7017  0.2560  0.6140
 3028TP3     H220904   4.666   2.523   9.866 -0.3435  0.0681  0.6072
 3029TP3      O20905   0.349   4.452   9.420  0.3095 -0.1790 -0.3430
 3029TP3     H120906   0.436   4.472   9.385  0.4751  0.2969  0.3353
 3029TP3     H220907   0.324   4.531   9.469 -0.2140 -0.5736  0.0314
 3030TP3      O20908   1.784   1.020   2.385  0.1392  0.1076 -0.1651
 3030TP3     H120909   1.823   0.937   2.412  3.8673  1.7376 -0.2829
 3030TP3     H220910   1.737   1.051   2.463 -1.7758 -2.3031 -0.2920
 3031TP3      O20911   1.262   5.151   8.232  0.7470  0.1301  0.4325
 3031TP3     H120912   1.280   5.088   8.302 -1.0417 -0.4980  0.3633
 3031TP3     H220913   1.284   5.104   8.151 -0.8454 -0.5292  0.3645
 3032TP3      O20914   1.775   2.886   9.524  0.1251 -0.3323  0.4638
 3032TP3     H120915   1.753   2.910   9.614 -3.1355 -0.2625 -0.3046
 3032TP3     H220916   1.814   2.965   9.487 -0.2241  0.2123  1.2597
 3033TP3      O20917   4.379   3.496   9.559 -0.2534  0.4651 -0.2236
 3033TP3     H120918   4.400   3.414   9.514  0.2198  0.3969  0.1249
 3033TP3     H220919   4.334   3.549   9.493  1.4154  0.7965 -1.1060
 3034TP3      O20920   0.860   5.141   8.863  0.0782 -0.3768  0.2498
 3034TP3     H120921   0.930   5.141   8.929  0.3535 -1.1419 -0.0400
 3034TP3     H220922   0.811   5.061   8.881  0.1084 -0.5518 -0.4277
 3035TP3      O20923   0.173   3.749   1.689 -0.5091  0.3275  0.1650
 3035TP3     H120924   0.130   3.800   1.758  0.0719 -0.4918  1.1444
 3035TP3     H220925   0.168   3.658   1.719  0.4812  0.0457 -0.4793
 3036TP3      O20926   2.900   5.106   9.754 -0.5372  0.2707  0.0724
 3036TP3     H120927   2.950   5.071   9.681  1.6645 -1.2342  2.2184
 3036TP3     H220928   2.845   5.032   9.783 -1.5768  0.9290 -0.1947
 3037TP3      O20929   3.573   5.261   2.104  0.9295 -0.6095 -0.3270
 3037TP3     H120930   3.599   5.349   2.129  0.4889 -1.2218  2.4560
 3037TP3     H220931   3.501   5.273   2.043  0.5400  0.9533  0.4286
 3038TP3      O20932   4.530   0.126   1.142 -0.2548 -0.1436  0.1734
 3038TP3     H120933   4.448   0.159   1.180 -0.5271  0.2231 -0.7178
 3038TP3     H220934   4.555   0.053   1.198 -0.4700  0.6121  1.2579
 3039TP3      O20935   1.376   3.421   0.134 -0.2843  0.0979  0.4357
 3039TP3     H120936   1.357   3.515   0.142  0.8782  0.6781 -2.8040
 3039TP3     H220937   1.293   3.383   0.107 -0.7913  0.1408  1.8733
 3040TP3      O20938   1.127   2.341   1.754  0.5319 -0.3541  0.1837
 3040TP3     H120939   1.037   2.346   1.721  0.2566 -0.4482  0.8896
 3040TP3     H220940   1.170   2.419   1.720 -0.7023  1.3428  2.3730
 3041TP3      O20941   2.405   0.236   9.143 -0.1530 -0.0713  0.2542
 3041TP3     H120942   2.464   0.168   9.176  0.6700  1.3122  1.6866
 3041TP3     H220943   2.342   0.250   9.214 -1.7500 -0.9688 -0.9530
 3042TP3      O20944   1.008   4.136   0.787  0.5250 -0.2176 -0.2884
 3042TP3     H120945   0.995   4.081   0.864 -0.0045  2.2511  1.4538
 3042TP3     H220946   0.930   4.192   0.783  1.0014  0.3693 -2.0314
 3043TP3      O20947   4.219   1.806   9.025  0.6367 -0.3735 -0.1684
 3043TP3     H120948   4.132   1.771   9.006  0.9735 -0.7736 -0.9713
 3043TP3     H220949   4.273   1.777   8.952  1.0290  1.4431 -0.6233
 3044TP3      O20950   3.526   3.219   2.550  0.3428  0.5889 -0.6535
 3044TP3     H120951   3.480   3.144   2.585  0.8694 -0.0555 -1.3294
 3044TP3     H220952   3.608   3.184   2.515  0.5543  1.4514 -1.0610
 3045TP3      O20953   4.273   1.188   8.797  0.1613  0.4028 -0.1573
 3045TP3     H120954   4.276   1.212   8.705  0.6056  1.0900  0.0314
 3045TP3     H220955   4.301   1.267   8.843 -0.5181  0.2105  0.5921
 3046TP3      O20956   1.199   3.343   1.740  0.4322 -0.4791 -0.1744
 3046TP3     H120957   1.170   3.427   1.776 -2.8955 -0.5907 -2.3353
 3046TP3     H220958   1.180   3.280   1.810 -0.5418  0.0841  0.0814
 3047TP3      O20959   5.240   0.721  10.036  0.1921  0.4446 -0.1237
 3047TP3     H120960   5.193   0.804  10.050 -0.1054  0.5451 -1.6797
 3047TP3     H220961   5.265   0.693  10.124 -1.2518  1.2912  0.5752
 3048TP3      O20962   2.608   1.366   1.892 -0.4035  0.1464  0.5417
 3048TP3     H120963   2.607   1.321   1.976  1.8695 -1.4200 -0.2283
 3048TP3     H220964   2.631   1.457   1.913 -2.1971  0.3233  1.8218
 3049TP3      O20965   1.054   4.054   2.491  1.4024 -0.3400 -1.1863
 3049TP3     H120966   1.004   3.997   2.433  2.2478 -0.7207 -1.5600
 3049TP3     H220967   1.027   4.029   2.579  1.6776 -1.2386 -1.3502
 3050TP3      O20968   3.299   5.019   1.986  0.1878  0.1929  0.5728
 3050TP3     H120969   3.295   5.083   1.915  0.7066 -0.6792 -0.2555
 3050TP3     H220970   3.262   5.065   2.062 -0.7767  0.9903 -0.3627
 3051TP3      O20971   0.319   0.241   1.705  0.5630  0.4698  0.1818
 3051TP3     H120972   0.407   0.276   1.716  1.0150 -0.6497  0.2650
 3051TP3     H220973   0.311   0.224   1.612  0.2344  1.0678  0.0989
 3052TP3      O20974   2.284   1.678   9.084  0.1992  0.2904 -0.4245
 3052TP3     H120975   2.345   1.613   9.050  0.7284  0.5943 -0.0730
 3052TP3     H220976   2.325   1.709   9.165 -0.0149  1.1013 -0.6206
 3053TP3      O20977   2.665   0.298   9.559 -0.3070 -0.0944 -0.3248
 3053TP3     H120978   2.661   0.334   9.471  0.0570  0.7207 -0.0139
 3053TP3     H220979   2.758   0.278   9.573 -0.4236 -0.6260 -0.2813
 3054TP3      O20980   1.166   4.985   8.688  0.3322 -0.0439  0.4690
 3054TP3     H120981   1.260   4.998   8.680  0.0970  0.6857 -1.1784
 3054TP3     H220982   1.158   4.899   8.730  1.7241 -0.3635  0.1157
 3055TP3      O20983   4.759   4.686   9.255  0.4308  0.7587 -0.6353
 3055TP3     H120984   4.773   4.781   9.260  1.3947  0.5940 -0.2179
 3055TP3     H220985   4.766   4.665   9.162 -0.1036  1.1410 -0.7645
 3056TP3      O20986   0.962   1.394   9.009 -0.1042  0.4600 -0.2755
 3056TP3     H120987   0.923   1.308   8.996  0.4073  0.2964 -0.7527
 3056TP3     H220988   0.908   1.453   8.956 -1.9933  0.8615  2.0179
 3057TP3      O20989   4.760   4.851   9.507 -0.2699  0.1173 -0.2444
 3057TP3     H120990   4.805   4.816   9.431  0.8568 -0.0110  0.4731
 3057TP3     H220991   4.723   4.934   9.477 -0.2705 -0.1769 -1.0684
 3058TP3      O20992   0.304   2.314   7.683 -0.1632 -0.1923 -0.7446
 3058TP3     H120993   0.227   2.353   7.642 -0.8975 -1.0025 -0.1521
 3058TP3     H220994   0.330   2.244   7.622 -0.5341 -0.6056 -0.4358
 3059TP3      O20995   3.142   2.188   9.033  0.2996 -0.4825  0.6668
 3059TP3     H120996   3.125   2.213   8.942  2.1349 -0.6894  0.2438
 3059TP3     H220997   3.103   2.259   9.084  3.3147  2.1167 -0.4549
 3060TP3      O20998   0.285   4.679   9.816 -0.0388 -0.3130  0.7687
 3060TP3     H120999   0.296   4.601   9.870  0.6577 -0.9810 -0.3144
 3060TP3     H221000   0.236   4.648   9.739 -0.6963  0.5428  0.8348
 3061TP3      O21001   4.523   0.457   8.008  0.0817 -0.0888 -0.8456
 3061TP3     H121002   4.562   0.497   7.930 -0.0644 -1.0316 -1.4196
 3061TP3     H221003   4.589   0.396   8.039 -0.7790 -1.4484 -1.6311
 3062TP3      O21004   3.329   4.087   1.762 -0.3050  0.3937 -0.2515
 3062TP3     H121005   3.388   4.012   1.762 -2.6472 -1.5097 -0.7167
 3062TP3     H221006   3.386   4.163   1.749  2.0537 -1.3475 -0.2866
 3063TP3      O21007   2.595   1.604   3.076  0.1988  0.4112 -0.1288
 3063TP3     H121008   2.578   1.696   3.099 -1.9373  0.3757 -1.3719
 3063TP3     H221009   2.563   1.554   3.151 -1.7959  0.5449 -0.8647
 3064TP3      O21010   3.024   0.409   1.987  0.1926  0.4206 -0.1646
 3064TP3     H121011   2.960   0.392   1.918 -0.5990  0.9032  0.4354
 3064TP3     H221012   3.108   0.383   1.950 -0.1627  1.1408 -1.4847
 3065TP3      O21013   3.301   2.474   2.573  0.3135 -0.1943  0.0495
 3065TP3     H121014   3.374   2.508   2.521  0.9051 -2.0080 -0.3504
 3065TP3     H221015   3.233   2.453   2.508 -1.7573  4.1503  0.6311
 3066TP3      O21016   4.336   0.787   8.556 -0.2153 -0.0500  0.7108
 3066TP3     H121017   4.357   0.695   8.572  0.8831 -0.2081 -1.4127
 3066TP3     H221018   4.243   0.794   8.575 -0.7313 -2.0536 -0.9418
 3067TP3      O21019   3.580   2.114   9.368  0.0749 -0.7103  0.3439
 3067TP3     H121020   3.645   2.180   9.392 -0.4195 -0.6924  1.6871
 3067TP3     H221021   3.537   2.148   9.290  0.9715 -0.2359  0.0611
 3068TP3      O21022   2.092   2.766   0.532  0.3350 -0.0093 -0.0421
 3068TP3     H121023   2.044   2.692   0.568 -0.7334  0.5035 -0.3870
 3068TP3     H221024   2.114   2.820   0.608 -0.3192  0.1510  0.0309
 3069TP3      O21025   0.353   2.601   7.516 -0.0234  0.2136 -0.0228
 3069TP3     H121026   0.435   2.638   7.550 -0.2809 -0.3431  1.2440
 3069TP3     H221027   0.331   2.531   7.578 -1.1209 -0.0634 -0.7124
 3070TP3      O21028   2.372   3.112   7.403 -0.3224  0.4641  0.4445
 3070TP3     H121029   2.411   3.029   7.376  0.9457  0.4915  2.1000
 3070TP3     H221030   2.282   3.089   7.427 -0.0458 -0.3932  0.6742
 3071TP3      O21031   2.022   1.120   2.246 -0.5053  0.0112 -0.1563
 3071TP3     H121032   2.061   1.180   2.309  0.2556 -0.4215 -0.2137
 3071TP3     H221033   1.937   1.098   2.284 -0.3129  0.2398  0.4129
 3072TP3      O21034   2.902   4.476   0.063  0.0075  0.0571  0.4382
 3072TP3     H121035   2.843   4.402   0.048 -0.3242  0.3788  0.1463
 3072TP3     H221036   2.875   4.511   0.148  0.8272 -0.7729  1.0569
 3073TP3      O21037   3.619   0.103   8.816  0.0426 -0.1825 -0.1408
 3073TP3     H121038   3.632   0.009   8.827  0.8657  0.0627  1.1836
 3073TP3     H221039   3.595   0.113   8.724 -1.0203 -1.7753 -0.0600
 3074TP3      O21040   4.925   1.965   3.037  0.1954  0.0136  0.0122
 3074TP3     H121041   4.972   1.981   2.956  1.7189  0.1212  0.9088
 3074TP3     H221042   4.877   2.046   3.054  0.0973  0.0873 -0.6207
 3075TP3      O21043   3.227   4.095   2.022 -0.2276 -0.6025 -0.2322
 3075TP3     H121044   3.225   4.000   2.028 -2.3132 -0.6011 -0.4621
 3075TP3     H221045   3.251   4.113   1.931 -3.1928 -0.9654 -1.1247
 3076TP3      O21046   3.295   0.246   2.295 -0.2732  0.0977  0.6153
 3076TP3     H121047   3.366   0.213   2.240 -0.7517 -1.3374  0.8351
 3076TP3     H221048   3.311   0.340   2.302  1.3934 -0.1619  0.3721
 3077TP3      O21049   1.841   4.182   0.124 -0.2096  0.7700 -0.9142
 3077TP3     H121050   1.894   4.107   0.149 -2.9574 -0.8815  0.1155
 3077TP3     H221051   1.869   4.203   0.035  0.8363 -1.2280 -1.0764
 3078TP3      O21052   4.613   4.380   9.660 -0.0220 -0.5598  0.2278
 3078TP3     H121053   4.665   4.376   9.579  1.4400  0.1991  1.0999
 3078TP3     H221054   4.565   4.462   9.653 -0.6936 -0.9971 -0.3367
 3079TP3      O21055   5.181   4.167   7.107 -0.5185  0.5618 -0.3117
 3079TP3     H121056   5.158   4.147   7.197  0.4759 -1.4303 -0.4842
 3079TP3     H221057   5.273   4.193   7.110 -0.5795  0.8358 -0.6995
 3080TP3      O21058   1.142   1.493   9.184  0.0014  0.2803 -0.1082
 3080TP3     H121059   1.087   1.454   9.116  0.4246  1.2630 -1.0212
 3080TP3     H221060   1.082   1.545   9.237 -0.5980 -1.6868  1.2109
 3081TP3      O21061   1.865   0.283   9.388  0.0548  0.2958  0.3908
 3081TP3     H121062   1.859   0.189   9.372  1.0370  0.3694 -0.4663
 3081TP3     H221063   1.884   0.291   9.481 -1.1223 -0.3121  0.6939
 3082TP3      O21064   3.429   1.856   9.237  0.4240 -0.0427  0.3334
 3082TP3     H121065   3.496   1.894   9.180 -0.4827 -1.2089 -1.5394
 3082TP3     H221066   3.377   1.930   9.266  0.9385  0.5654 -0.2848
 3083TP3      O21067   4.178   2.161   0.521  0.8640 -0.1671  0.3834
 3083TP3     H121068   4.176   2.255   0.506  1.2572 -0.0183  1.2096
 3083TP3     H221069   4.205   2.152   0.613  1.0472 -1.0871  0.2462
 3084TP3      O21070   2.955   2.023   2.521 -0.3670 -0.5368 -0.3520
 3084TP3     H121071   3.031   1.985   2.566 -0.0097  0.1712 -0.3545
 3084TP3     H221072   2.886   1.958   2.533 -0.3923 -0.2063  1.5770
 3085TP3      O21073   1.769   2.693   8.272 -0.8633  0.0677 -0.4036
 3085TP3     H121074   1.852   2.728   8.241  0.7679 -0.5330  3.0497
 3085TP3     H221075   1.721   2.769   8.303 -0.6656  0.1631 -0.3316
 3086TP3      O21076   2.376   0.451   8.636  0.3603 -0.8351 -0.3173
 3086TP3     H121077   2.448   0.508   8.608 -0.2696 -0.1379 -0.5186
 3086TP3     H221078   2.400   0.425   8.725  0.0616  0.7413  0.2428
 3087TP3      O21079   2.341   3.272   2.591  0.6181 -0.1900  0.3397
 3087TP3     H121080   2.424   3.314   2.567  0.9625  0.4907  2.6082
 3087TP3     H221081   2.314   3.316   2.671 -1.4051 -1.1546  0.2165
 3088TP3      O21082   2.065   2.626   0.922  0.1141 -0.0334  0.1704
 3088TP3     H121083   2.072   2.558   0.855  1.5834  2.1278 -1.9708
 3088TP3     H221084   2.115   2.593   0.996 -1.0841 -2.2289  0.0278
 3089TP3      O21085   0.956   1.574   9.949  0.3402 -0.5247 -0.0794
 3089TP3     H121086   0.995   1.601   9.866  0.0048 -1.4495 -0.5439
 3089TP3     H221087   1.012   1.502   9.978 -1.2000 -2.0760 -0.9079
 3090TP3      O21088   2.999   1.725   2.682 -1.1086  0.2214  0.0899
 3090TP3     H121089   3.039   1.728   2.769  0.5644 -0.2251 -0.6403
 3090TP3     H221090   3.067   1.759   2.624 -2.2153  0.5051 -1.0369
 3091TP3      O21091   3.672   3.930   7.895  0.1533 -0.3552 -0.0504
 3091TP3     H121092   3.587   3.956   7.860  0.5205  0.6222 -0.2503
 3091TP3     H221093   3.688   3.844   7.858 -1.1501 -0.9351  0.6917
 3092TP3      O21094   2.847   3.501   7.965 -0.4863 -0.0532 -0.1190
 3092TP3     H121095   2.868   3.564   8.034  0.0714  1.3808 -1.5660
 3092TP3     H221096   2.761   3.528   7.933 -1.0067 -1.0737  0.3961
 3093TP3      O21097   1.298   1.528   1.380 -0.8567  0.3019 -0.4608
 3093TP3     H121098   1.352   1.592   1.335 -1.0958  0.0210 -1.1591
 3093TP3     H221099   1.285   1.458   1.315 -0.3789 -0.5753  0.3685
 3094TP3      O21100   3.493   4.713   9.138  0.1557  0.4485 -0.2222
 3094TP3     H121101   3.427   4.657   9.096 -0.6430  1.2473 -0.0659
 3094TP3     H221102   3.482   4.696   9.231  0.3772  0.3543 -0.2146
 3095TP3      O21103   4.257   0.970   9.071 -0.2180 -0.0377  0.3056
 3095TP3     H121104   4.293   0.957   8.984  1.6385 -1.8177  1.2888
 3095TP3     H221105   4.162   0.964   9.059  0.0643 -1.3652 -1.4077
 3096TP3      O21106   2.944   1.905   8.211  0.1627 -0.2483 -0.2838
 3096TP3     H121107   2.921   1.820   8.249  1.5152 -0.1866  0.6696
 3096TP3     H221108   3.038   1.912   8.222 -0.1303  2.0675  1.0570
 3097TP3      O21109   4.156   1.492   2.532 -0.4880  0.2186  0.1264
 3097TP3     H121110   4.078   1.437   2.541  0.0374 -0.6125 -0.3953
 3097TP3     H221111   4.187   1.504   2.622 -0.6169 -0.3144  0.2450
 3098TP3      O21112   2.255   0.465   0.825 -0.2212  0.2135 -0.1261
 3098TP3     H121113   2.214   0.447   0.741  0.3818  0.3068 -0.4434
 3098TP3     H221114   2.322   0.531   0.805  0.2000 -0.0697  0.3549
 3099TP3      O21115   1.414   3.934  10.046 -0.5916  0.2548 -0.0077
 3099TP3     H121116   1.417   3.963   9.955 -0.3804  0.6247  0.1171
 3099TP3     H221117   1.367   3.851  10.043 -0.8981  0.4430 -0.4085
 3100TP3      O21118   3.150   3.336   8.219  0.1555  0.1348 -0.3269
 3100TP3     H121119   3.222   3.366   8.274 -0.7261  0.7267  0.5092
 3100TP3     H221120   3.072   3.346   8.273 -0.5101 -0.9677 -1.0482
 3101TP3      O21121   2.304   4.622   3.364  0.0178  0.1260  0.1306
 3101TP3     H121122   2.363   4.561   3.320 -1.9591 -1.3780 -0.5242
 3101TP3     H221123   2.325   4.707   3.326  0.5880 -0.6480 -1.3444
 3102TP3      O21124   3.653   1.467   1.893  0.1232 -0.2905 -0.1944
 3102TP3     H121125   3.575   1.469   1.837 -0.2393  0.3628  0.3345
 3102TP3     H221126   3.632   1.404   1.962 -0.2518  0.4805  0.4016
 3103TP3      O21127   3.478   0.753   0.891 -0.1793 -0.3167 -0.2132
 3103TP3     H121128   3.485   0.803   0.810  0.1637 -0.4764 -0.2821
 3103TP3     H221129   3.405   0.793   0.937 -0.9544 -0.7981 -1.0040
 3104TP3      O21130   5.292   1.150   9.868 -0.3345  0.2622  0.1649
 3104TP3     H121131   5.347   1.093   9.923 -0.4137  0.7529  0.7550
 3104TP3     H221132   5.230   1.190   9.929 -0.7469  0.4284 -0.3623
 3105TP3      O21133   4.048   4.682   0.088 -0.2401 -0.0554 -0.2672
 3105TP3     H121134   4.073   4.685   0.180 -1.4788 -0.7055  0.0909
 3105TP3     H221135   3.958   4.650   0.088  0.7315 -3.0252 -1.8539
 3106TP3      O21136   3.295   2.992   0.971 -0.0320  0.0159  0.1843
 3106TP3     H121137   3.207   3.020   0.946  0.2421  1.8972  1.2253
 3106TP3     H221138   3.350   3.067   0.951  0.9756 -0.3285  1.6070
 3107TP3      O21139   4.668   2.302   8.327  0.2999 -0.2461  0.0326
 3107TP3     H121140   4.617   2.328   8.404  0.3787 -1.4417  0.5102
 3107TP3     H221141   4.758   2.326   8.349  0.2458 -0.1027  0.0968
 3108TP3      O21142   4.639   1.302   0.762  0.1368 -0.2364 -0.1195
 3108TP3     H121143   4.719   1.252   0.776 -0.8533 -1.9623 -0.5372
 3108TP3     H221144   4.569   1.246   0.794 -0.9550  1.1059 -0.0858
 3109TP3      O21145   3.539   4.450   2.030 -0.2060 -0.2060 -0.4180
 3109TP3     H121146   3.559   4.431   2.121  0.8077  1.8639 -0.1899
 3109TP3     H221147   3.465   4.511   2.034 -0.6472 -0.6899 -1.0143
 3110TP3      O21148   1.800   3.925   2.381 -0.1235 -0.4411 -0.2485
 3110TP3     H121149   1.862   3.910   2.452  1.4495  0.3927 -1.4023
 3110TP3     H221150   1.834   3.874   2.307 -0.1696  0.9047 -1.2294
 3111TP3      O21151   3.182   1.388   0.457 -0.2841  0.4827  0.4049
 3111TP3     H121152   3.099   1.343   0.473 -0.0242  0.4645  1.7925
 3111TP3     H221153   3.206   1.424   0.542  1.0446  0.6327 -0.0211
 3112TP3      O21154   5.269   0.204   7.426 -0.6664  0.0364 -0.0015
 3112TP3     H121155   5.320   0.241   7.353 -1.2359 -0.0906 -0.4697
 3112TP3     H221156   5.187   0.174   7.385 -1.9470  1.9845  1.0317
 3113TP3      O21157   5.296   1.446   1.026  0.4635 -0.6476 -0.1931
 3113TP3     H121158   5.282   1.486   0.940 -0.1401 -0.5891 -0.0721
 3113TP3     H221159   5.371   1.388   1.014  0.3692 -0.6528 -0.7668
 3114TP3      O21160   3.983   3.326  10.095  0.8366  0.3066 -0.4536
 3114TP3     H121161   3.996   3.419  10.116  3.1896  0.1316 -0.9847
 3114TP3     H221162   3.958   3.286  10.179  0.0429  1.3706 -0.1737
 3115TP3      O21163   1.723   2.297   7.578 -0.5879 -0.0108  0.8335
 3115TP3     H121164   1.724   2.218   7.523  0.7668  0.2024  0.5313
 3115TP3     H221165   1.694   2.366   7.519  0.9013  0.2248  0.3494
 3116TP3      O21166   1.491   4.251   0.934  0.0775  0.6145  0.1956
 3116TP3     H121167   1.403   4.267   0.899 -0.8664 -2.0321  1.1968
 3116TP3     H221168   1.505   4.322   0.997 -2.6755 -0.6394  2.3231
 3117TP3      O21169   4.565   2.244   8.921 -0.0054  0.2337  0.1411
 3117TP3     H121170   4.553   2.299   8.999  1.9910 -1.7052  1.8943
 3117TP3     H221171   4.652   2.205   8.933  0.3265 -0.0987 -3.0902
 3118TP3      O21172   4.240   3.497   8.266 -0.5398 -0.2439  0.2513
 3118TP3     H121173   4.195   3.581   8.267 -3.3827 -1.7216 -0.8291
 3118TP3     H221174   4.208   3.452   8.345  1.0900 -0.2956  0.9111
 3119TP3      O21175   2.060   2.740   8.737 -0.0345  0.3526 -0.7926
 3119TP3     H121176   2.140   2.740   8.685 -0.7896 -0.5596 -1.9769
 3119TP3     H221177   2.028   2.830   8.731  0.6710  0.6153 -0.6616
 3120TP3      O21178   0.071   2.125   0.982  1.1027 -0.3629 -0.2979
 3120TP3     H121179   0.060   2.051   0.923  0.2157 -0.7311  0.3147
 3120TP3     H221180   0.041   2.201   0.932  1.6250 -0.4709 -0.7812
 3121TP3      O21181   1.738   1.247   0.226  0.2812  0.2083 -0.5634
 3121TP3     H121182   1.734   1.308   0.300  0.1309  0.9880 -1.2127
 3121TP3     H221183   1.813   1.191   0.246  0.6812  0.8768 -0.1604
 3122TP3      O21184   2.456   1.836   8.039  0.0427 -0.0199 -0.1122
 3122TP3     H121185   2.438   1.777   7.966  1.3331 -0.8570  0.2455
 3122TP3     H221186   2.452   1.780   8.116  1.7977  0.2436  0.1845
 3123TP3      O21187   1.162   3.180   8.629 -0.2651 -0.1611 -0.2489
 3123TP3     H121188   1.171   3.178   8.534  1.2433 -0.3955 -0.1167
 3123TP3     H221189   1.230   3.241   8.659 -0.3116 -0.5669  0.7257
 3124TP3      O21190   2.475   1.826   8.708  0.0789  0.6772 -0.2644
 3124TP3     H121191   2.555   1.872   8.731 -0.0570  1.0519 -0.5320
 3124TP3     H221192   2.502   1.735   8.694  0.5368  0.8991 -0.8349
 3125TP3      O21193   2.824   0.062   7.971 -0.0179  0.7674  0.2366
 3125TP3     H121194   2.880   0.040   8.046  0.5774 -1.5662 -0.8252
 3125TP3     H221195   2.874   0.127   7.922  1.2985 -0.4768 -0.1062
 3126TP3      O21196   4.550   0.749   0.524 -0.0907  0.7279 -0.1397
 3126TP3     H121197   4.506   0.728   0.442 -0.5819  1.0042  0.0514
 3126TP3     H221198   4.643   0.738   0.505 -0.2262  0.4006 -0.6195
 3127TP3      O21199   4.896   4.711   7.361 -0.1639 -0.1953  0.7151
 3127TP3     H121200   4.882   4.721   7.455 -0.0309 -0.3381  0.7508
 3127TP3     H221201   4.980   4.754   7.345 -0.2433 -0.0660  0.6398
 3128TP3      O21202   2.534   2.022   1.966  0.5829 -0.0143  0.4992
 3128TP3     H121203   2.440   2.022   1.948  0.4156  1.3591  1.3053
 3128TP3     H221204   2.574   1.994   1.883 -0.5011 -0.2604  0.0432
 3129TP3      O21205   5.026   2.445   1.798 -0.5999 -0.1257  0.4108
 3129TP3     H121206   5.068   2.474   1.717  2.1830 -1.6609  1.2742
 3129TP3     H221207   4.988   2.360   1.776 -2.4480  0.8018 -0.0818
 3130TP3      O21208   2.521   2.153   7.210  0.3450  0.3820  0.2124
 3130TP3     H121209   2.503   2.242   7.238  0.5810 -0.2543  2.4537
 3130TP3     H221210   2.549   2.107   7.289 -0.1248 -1.7773 -0.8180
 3131TP3      O21211   3.843   4.332   9.699 -0.2992  0.2601  0.2896
 3131TP3     H121212   3.857   4.318   9.792  2.8079 -0.1967 -0.1962
 3131TP3     H221213   3.847   4.428   9.689 -0.4675  0.3004  0.6083
 3132TP3      O21214   0.785   0.305   7.965  0.3898  0.3369  0.0623
 3132TP3     H121215   0.802   0.246   8.038  0.8149  0.6142  0.1912
 3132TP3     H221216   0.705   0.272   7.925  1.0609 -0.7960 -0.3616
 3133TP3      O21217   3.961   0.515   7.943  0.9661  0.2268 -0.1107
 3133TP3     H121218   3.936   0.605   7.919 -1.2753 -0.7348 -1.5917
 3133TP3     H221219   4.026   0.491   7.878  0.3432  0.2231 -0.7483
 3134TP3      O21220   0.560   2.739   1.695  0.2522  0.1860  0.3837
 3134TP3     H121221   0.492   2.701   1.641 -1.1581 -0.4477  2.5482
 3134TP3     H221222   0.561   2.832   1.672 -1.3406  0.1924  0.3249
 3135TP3      O21223   4.725   1.012   8.002  0.0162 -0.1454  0.3638
 3135TP3     H121224   4.751   1.097   7.964 -2.8980  0.5421 -0.2574
 3135TP3     H221225   4.653   1.034   8.061 -0.5755 -2.1763  0.4174
 3136TP3      O21226   2.713   2.398   8.172  0.0300  0.0428 -0.2138
 3136TP3     H121227   2.725   2.336   8.243  1.6342 -0.7685 -1.1578
 3136TP3     H221228   2.713   2.484   8.215  2.1477 -0.3620  0.6737
 3137TP3      O21229   2.621   0.626   0.097  0.1564 -0.5483 -0.4388
 3137TP3     H121230   2.678   0.559   0.059  0.7138 -0.4845  0.2745
 3137TP3     H221231   2.576   0.665   0.022 -2.6075 -3.9112 -0.6672
 3138TP3      O21232   4.482   2.178   8.691  0.0066  0.1757 -0.0118
 3138TP3     H121233   4.536   2.220   8.758 -0.6114  1.1229 -0.1125
 3138TP3     H221234   4.527   2.095   8.673 -0.0242 -0.2435  1.8304
 3139TP3      O21235   0.341   0.160   0.453  0.0215 -0.2787  0.3415
 3139TP3     H121236   0.417   0.104   0.440 -0.5748 -1.0321  0.0592
 3139TP3     H221237   0.290   0.151   0.373 -1.0680 -0.8847  1.0901
 3140TP3      O21238   0.201   1.339   1.231  0.1875 -0.4544 -0.1292
 3140TP3     H121239   0.296   1.352   1.231  0.3677 -1.6941 -0.2351
 3140TP3     H221240   0.169   1.392   1.303  0.9145  0.3217 -0.3699
 3141TP3      O21241   1.723   4.257   8.168 -0.0857 -0.2849 -0.3277
 3141TP3     H121242   1.805   4.264   8.120 -0.0100 -0.0862 -0.1712
 3141TP3     H221243   1.691   4.347   8.174 -0.3937 -0.3824 -0.5278
 3142TP3      O21244   1.888   2.335   8.858  0.1943 -0.3796  0.2269
 3142TP3     H121245   1.885   2.239   8.855  1.2578 -0.4031 -0.2410
 3142TP3     H221246   1.980   2.356   8.847 -0.2302  0.7493 -1.2834
 3143TP3      O21247   3.339   0.308   9.170  0.7596  0.3718  0.0125
 3143TP3     H121248   3.358   0.375   9.235  0.9472  0.9640 -0.6511
 3143TP3     H221249   3.411   0.314   9.107  1.2741 -1.0767  0.4425
 3144TP3      O21250   4.113   2.463   9.222 -0.2617 -0.1971  0.8404
 3144TP3     H121251   4.157   2.391   9.268 -0.8315 -0.0380  1.6379
 3144TP3     H221252   4.185   2.512   9.181  0.3184  0.1265  2.2223
 3145TP3      O21253   0.986   2.588   0.197 -0.2158  0.2476  0.2858
 3145TP3     H121254   0.990   2.550   0.109 -1.4795 -1.5847  0.9929
 3145TP3     H221255   1.065   2.556   0.240  1.3755  2.6834 -0.7570
 3146TP3      O21256   0.460   0.547   9.765 -0.0417 -0.1985 -0.0050
 3146TP3     H121257   0.416   0.463   9.765 -2.3090  0.9523  0.0981
 3146TP3     H221258   0.443   0.583   9.852  2.0042 -0.1717  0.4092
 3147TP3      O21259   4.456   1.031   8.480 -0.1751  0.6878  0.2978
 3147TP3     H121260   4.478   1.065   8.566  1.1615 -1.5963  0.9219
 3147TP3     H221261   4.415   0.946   8.497  0.7918 -0.1450 -1.3229
 3148TP3      O21262   1.702   1.122   6.820 -0.1363 -0.2540  0.1606
 3148TP3     H121263   1.742   1.037   6.837  0.2025 -0.3448 -1.0538
 3148TP3     H221264   1.609   1.103   6.808  0.2170 -0.7254 -2.0044
 3149TP3      O21265   0.409   4.996   1.534 -0.3044 -0.2253 -0.6227
 3149TP3     H121266   0.413   4.902   1.519 -1.7922 -0.2017 -1.2799
 3149TP3     H221267   0.478   5.033   1.479  0.3380 -0.9301 -0.2916
 3150TP3      O21268   1.509   4.106   9.332 -0.0641  0.1052  0.1382
 3150TP3     H121269   1.604   4.117   9.320 -0.4555  1.7515 -1.7884
 3150TP3     H221270   1.494   4.013   9.320  1.4598 -0.3853  1.7287
 3151TP3      O21271   0.701   3.980   0.752 -0.0454 -0.3599  0.3971
 3151TP3     H121272   0.622   4.034   0.744 -0.7889 -1.3135  1.3409
 3151TP3     H221273   0.748   4.018   0.827  0.5668  0.4081 -0.3598
 3152TP3      O21274   1.249   1.012   2.651  0.0661  0.4770  0.6317
 3152TP3     H121275   1.248   1.107   2.662 -2.3951  0.8379 -2.0352
 3152TP3     H221276   1.171   0.981   2.698 -0.6133  0.1141 -0.6937
 3153TP3      O21277   2.927   1.878   1.162  0.4992  0.0409 -0.5720
 3153TP3     H121278   2.869   1.827   1.106 -3.3611  0.9723  2.3714
 3153TP3     H221279   2.987   1.813   1.199 -2.0216 -1.8429  0.3248
 3154TP3      O21280   1.991   5.243   8.383 -0.5334  0.2146 -0.3925
 3154TP3     H121281   1.955   5.226   8.296  1.4214 -0.5494 -1.0854
 3154TP3     H221282   2.063   5.305   8.367 -0.4275  0.4020  0.7413
 3155TP3      O21283   4.522   3.248   8.656 -0.2130  0.2644 -0.2617
 3155TP3     H121284   4.430   3.229   8.675 -0.0412 -0.2780  0.0514
 3155TP3     H221285   4.568   3.223   8.737  0.0576  1.7290  0.0546
 3156TP3      O21286   1.815   1.449   1.456 -0.3943 -0.3711  0.6405
 3156TP3     H121287   1.846   1.539   1.454  2.1815 -1.2332  0.3589
 3156TP3     H221288   1.819   1.424   1.549  1.7112 -1.1083  0.3764
 3157TP3      O21289   0.111   1.769   0.030 -0.0654  0.2771 -0.2803
 3157TP3     H121290   0.059   1.733  -0.042  0.4144  2.2529 -1.6472
 3157TP3     H221291   0.177   1.823  -0.013  0.9255  0.6008  1.6035
 3158TP3      O21292   3.328   1.128   7.373 -0.0474 -0.8353  0.9461
 3158TP3     H121293   3.333   1.037   7.344  0.4814 -0.1234 -1.2992
 3158TP3     H221294   3.284   1.174   7.301 -1.3347  0.4818  2.5421
 3159TP3      O21295   2.960   4.409   1.127  0.1748 -0.0866  0.1054
 3159TP3     H121296   2.949   4.485   1.069 -1.0228 -0.2535  0.1190
 3159TP3     H221297   2.896   4.423   1.197  0.6052 -0.6384  0.6118
 3160TP3      O21298   4.435   1.839   2.484 -0.2432 -0.9017 -0.4500
 3160TP3     H121299   4.357   1.894   2.492  0.5929  0.1669  0.4671
 3160TP3     H221300   4.498   1.892   2.436  1.1713 -0.3740  1.8986
 3161TP3      O21301   0.322   3.778   8.663  0.2073 -0.3691  0.4457
 3161TP3     H121302   0.403   3.821   8.688 -0.7610  0.9330  1.4479
 3161TP3     H221303   0.267   3.848   8.629 -0.7608 -1.1117  0.4463
 3162TP3      O21304   1.527   0.956   2.604  1.3191 -0.4159 -0.1805
 3162TP3     H121305   1.529   0.861   2.595 -0.6918 -0.8077  2.7929
 3162TP3     H221306   1.434   0.976   2.620  1.9552  1.8899  0.7829
 3163TP3      O21307   3.565   2.738   8.551 -0.0475  0.6955 -0.0088
 3163TP3     H121308   3.557   2.741   8.455  0.3135 -1.9266 -0.1590
 3163TP3     H221309   3.652   2.773   8.568  0.8505 -1.0627 -0.8513
 3164TP3      O21310   1.260   5.073   7.335 -0.1507 -0.3857 -0.2418
 3164TP3     H121311   1.218   5.140   7.281 -2.2342 -0.6537  0.9607
 3164TP3     H221312   1.290   5.007   7.272 -1.0384  0.0964 -1.1956
 3165TP3      O21313   1.502   2.575   9.882 -0.2334  0.7114  0.5953
 3165TP3     H121314   1.510   2.482   9.861 -1.8063  0.7261 -0.1784
 3165TP3     H221315   1.568   2.618   9.828 -0.9895  0.2499 -0.7255
 3166TP3      O21316   1.523   0.676   9.524  0.1102 -0.9277 -0.1083
 3166TP3     H121317   1.600   0.679   9.467  0.3949 -1.0157  0.2712
 3166TP3     H221318   1.480   0.593   9.503 -0.3109 -0.5225 -0.8800
 3167TP3      O21319   4.711   3.020   9.769  0.0611  0.3600  0.4027
 3167TP3     H121320   4.751   2.937   9.743  0.0511  0.5468 -0.2167
 3167TP3     H221321   4.714   3.074   9.691 -1.1823  0.4574  0.4032
 3168TP3      O21322   0.331   0.112   9.526  0.1116 -0.1323  1.0711
 3168TP3     H121323   0.257   0.144   9.578  0.2889  0.0720  1.2011
 3168TP3     H221324   0.383   0.191   9.508 -0.4960 -0.0179 -0.3081
 3169TP3      O21325   2.206   0.849   9.559  0.8891  0.6520  0.7660
 3169TP3     H121326   2.127   0.899   9.542  1.5734  1.2826 -0.6427
 3169TP3     H221327   2.259   0.904   9.617  0.3906  0.3141  1.5466
 3170TP3      O21328   2.974   3.382   8.449  0.3621  0.3328 -0.6624
 3170TP3     H121329   3.005   3.320   8.514  1.6616  0.1292 -1.4613
 3170TP3     H221330   2.879   3.370   8.448  0.4284 -0.3283  0.4993
 3171TP3      O21331   1.499   5.108   8.766 -0.4275  0.0384  0.2141
 3171TP3     H121332   1.480   5.093   8.858  1.5477  0.2351  0.6549
 3171TP3     H221333   1.492   5.021   8.726  1.5942 -0.5529  1.0835
 3172TP3      O21334   0.102   1.724   8.073 -0.0546 -0.5256  0.3040
 3172TP3     H121335   0.019   1.683   8.050 -0.3504  0.9602 -1.3602
 3172TP3     H221336   0.080   1.788   8.141  0.1581 -1.9701  1.7532
 3173TP3      O21337   2.005   2.715   9.907  0.2629 -0.4024 -0.0439
 3173TP3     H121338   2.038   2.779   9.970  0.7570 -0.9682  0.2688
 3173TP3     H221339   1.929   2.758   9.867  0.3393  0.2119  0.4679
 3174TP3      O21340   4.790   0.641   1.318  0.1074 -0.7482 -0.1322
 3174TP3     H121341   4.702   0.642   1.281  0.6236  0.1432 -1.3616
 3174TP3     H221342   4.804   0.730   1.351  0.4855 -0.9362  0.2346
 3175TP3      O21343   2.278   3.712   8.858 -0.0390 -0.3992 -0.2576
 3175TP3     H121344   2.218   3.706   8.932 -0.7270  0.0725 -0.7674
 3175TP3     H221345   2.364   3.723   8.897 -0.4128 -0.0641  0.4732
 3176TP3      O21346   2.305   1.902   1.889 -0.1586  0.0338  0.1357
 3176TP3     H121347   2.237   1.863   1.945 -0.7747 -0.6504 -1.0629
 3176TP3     H221348   2.283   1.871   1.801  1.4867  0.1420 -0.3184
 3177TP3      O21349   3.666   2.157  10.071 -0.0685  0.5093  0.1774
 3177TP3     H121350   3.752   2.198  10.065  0.1795  0.0747  0.6788
 3177TP3     H221351   3.611   2.206  10.010  0.3287  1.3243  0.4689
 3178TP3      O21352   4.831   4.623   7.038  0.3385  0.2870 -0.3522
 3178TP3     H121353   4.867   4.582   7.117  0.7793  0.1644 -0.6107
 3178TP3     H221354   4.879   4.706   7.030  1.1543 -0.2464 -1.1466
 3179TP3      O21355   2.924   3.484   2.059 -0.3542 -0.1000 -0.3610
 3179TP3     H121356   2.832   3.507   2.045 -0.2014 -0.5528 -2.2921
 3179TP3     H221357   2.967   3.569   2.069 -0.7400  0.1903 -1.1031
 3180TP3      O21358   4.061   4.387   0.454  0.0707 -0.6257  0.5305
 3180TP3     H121359   4.073   4.378   0.360 -2.4870 -0.2529  0.1530
 3180TP3     H221360   4.149   4.375   0.490  1.1140 -0.5432 -1.9007
 3181TP3      O21361   3.719   0.116   0.562 -0.2757 -0.1498 -0.1097
 3181TP3     H121362   3.776   0.188   0.538 -0.7005  0.0515 -0.5350
 3181TP3     H221363   3.777   0.052   0.603  0.1446  0.3193  0.0347
 3182TP3      O21364   3.159   4.636   8.670  0.7247 -0.3009  0.3569
 3182TP3     H121365   3.081   4.639   8.614  0.3105  0.9048  0.9671
 3182TP3     H221366   3.214   4.707   8.638 -1.2343  3.0025  3.8432
 3183TP3      O21367   5.188   2.864   2.501 -0.3423 -0.0238 -0.1865
 3183TP3     H121368   5.270   2.817   2.492 -0.8599 -0.8168 -0.7863
 3183TP3     H221369   5.173   2.905   2.416  0.3132  1.5817  0.4537
 3184TP3      O21370   0.724   0.396   2.404  0.0421  0.3545 -0.4413
 3184TP3     H121371   0.715   0.491   2.408  1.1092  0.4531 -0.1816
 3184TP3     H221372   0.812   0.382   2.368  0.8547 -0.5183  1.7690
 3185TP3      O21373   3.138   3.194   7.756 -0.1304 -0.2582 -0.0014
 3185TP3     H121374   3.170   3.224   7.842  1.5238  2.4702 -1.4976
 3185TP3     H221375   3.216   3.194   7.701 -1.5316 -0.0227 -2.0284
 3186TP3      O21376   3.108   1.369   9.785 -0.1532  0.2565  0.0692
 3186TP3     H121377   3.095   1.464   9.783 -0.3840  0.2158 -1.7030
 3186TP3     H221378   3.065   1.338   9.705  0.3476 -1.2818  0.3858
 3187TP3      O21379   1.750   1.366   3.129 -0.2831  0.1147  0.0359
 3187TP3     H121380   1.767   1.375   3.223  1.5048 -0.6839 -0.1843
 3187TP3     H221381   1.658   1.341   3.124 -0.6129  0.9353  1.5311
 3188TP3      O21382   2.283   3.803   0.790 -0.0998  0.5086 -0.3148
 3188TP3     H121383   2.234   3.728   0.755 -1.0492  0.7450  0.4967
 3188TP3     H221384   2.217   3.870   0.807  0.4917  0.8249  0.8105
 3189TP3      O21385   4.838   2.763   1.667 -1.1357  0.1067  0.1681
 3189TP3     H121386   4.800   2.739   1.582  0.9225 -3.0469  0.0455
 3189TP3     H221387   4.928   2.788   1.646 -0.7157 -0.3820  1.3760
 3190TP3      O21388   1.080   4.764   2.008  0.1231  0.1540 -0.1866
 3190TP3     H121389   1.090   4.827   2.079 -0.4340 -0.2979  0.2957
 3190TP3     H221390   1.025   4.695   2.045 -1.0347  0.4111 -1.3665
 3191TP3      O21391   0.556   0.897   7.130 -0.2791  0.2804  0.5581
 3191TP3     H121392   0.580   0.906   7.037  0.5938 -1.3925  0.5903
 3191TP3     H221393   0.569   0.985   7.167 -0.1632  0.8459 -0.7958
 3192TP3      O21394   4.755   1.529   8.790 -0.5267 -0.3232  0.0093
 3192TP3     H121395   4.789   1.541   8.701  1.0241 -0.5520  0.5586
 3192TP3     H221396   4.729   1.437   8.794 -1.4390 -0.0875 -0.4914
 3193TP3      O21397   4.711   4.413   0.758  0.5249  0.2640  0.1121
 3193TP3     H121398   4.691   4.502   0.729  1.7923  0.4967 -0.0652
 3193TP3     H221399   4.686   4.358   0.685  0.2043  0.5179  0.0283
 3194TP3      O21400   2.783   3.738   9.127 -0.0580 -0.4038  0.6405
 3194TP3     H121401   2.808   3.807   9.065 -0.0579 -0.3878  0.6592
 3194TP3     H221402   2.761   3.785   9.207 -4.0442 -0.0823 -0.5458
 3195TP3      O21403   4.918   2.847   9.571 -0.5884  0.9567 -0.5409
 3195TP3     H121404   4.851   2.835   9.504  1.6695  0.9743 -2.9144
 3195TP3     H221405   4.952   2.759   9.587 -0.7897  1.0189  0.2379
 3196TP3      O21406   1.410   2.356   7.217 -0.0390  0.0537  0.0031
 3196TP3     H121407   1.366   2.429   7.173 -0.0375  0.5222  0.7686
 3196TP3     H221408   1.414   2.287   7.151 -0.8377  0.4359 -0.4518
 3197TP3      O21409   4.810   3.051   1.717  0.0127  0.1238 -0.3470
 3197TP3     H121410   4.776   2.962   1.723 -0.2016  0.2467  0.2681
 3197TP3     H221411   4.884   3.053   1.778 -0.3793  0.5466  0.1239
 3198TP3      O21412   3.425   3.659   9.705 -0.5275  0.3856 -0.5437
 3198TP3     H121413   3.369   3.621   9.637 -1.4051  0.7601 -0.0471
 3198TP3     H221414   3.368   3.722   9.750 -0.4666 -1.0437  1.6046
 3199TP3      O21415   1.707   3.059   1.676  0.0572 -0.0155 -0.4214
 3199TP3     H121416   1.729   3.021   1.761  0.0422 -1.4398 -1.0313
 3199TP3     H221417   1.628   3.013   1.648 -0.4808  1.1095 -0.7791
 3200TP3      O21418   2.665   2.851   8.970  0.0098  0.5080 -1.3184
 3200TP3     H121419   2.585   2.899   8.948  0.0241  1.4199  0.5959
 3200TP3     H221420   2.736   2.911   8.948  0.0675  0.8736 -0.1452
 3201TP3      O21421   5.307   5.052   9.282 -0.3690 -0.2352 -0.6526
 3201TP3     H121422   5.378   4.992   9.257  1.4815  0.7091  2.0786
 3201TP3     H221423   5.349   5.115   9.340 -3.2856  0.9260  0.2699
 3202TP3      O21424   1.784   2.047   7.781  0.5396  0.2464 -0.2815
 3202TP3     H121425   1.802   2.139   7.759 -1.0346  0.6975  0.2931
 3202TP3     H221426   1.723   2.018   7.713  1.8065 -0.6837 -1.0448
 3203TP3      O21427   2.861   1.636   7.879 -0.1724  0.0642  0.0688
 3203TP3     H121428   2.919   1.703   7.842  0.7325 -1.0644 -0.6043
 3203TP3     H221429   2.915   1.591   7.943 -0.4420 -0.7018 -0.2408
 3204TP3      O21430   0.482   1.316   0.106  0.4114 -0.3753 -0.2654
 3204TP3     H121431   0.523   1.331   0.020  1.8159  0.3705  0.5181
 3204TP3     H221432   0.524   1.237   0.139  1.4638  0.5822  0.6913
 3205TP3      O21433   4.601   4.008   2.327  0.4778 -0.1060 -0.1286
 3205TP3     H121434   4.531   3.974   2.383  2.1742  1.0757  2.8298
 3205TP3     H221435   4.558   4.071   2.271 -1.3841 -1.7314 -0.5837
 3206TP3      O21436   4.657   2.188   0.426 -0.1759  0.1413 -0.0667
 3206TP3     H121437   4.573   2.147   0.403  0.2828 -0.5896 -0.4563
 3206TP3     H221438   4.682   2.237   0.348 -0.2248  0.3387  0.0409
 3207TP3      O21439   4.437   2.611   8.882  0.1269  0.5966 -0.1714
 3207TP3     H121440   4.408   2.549   8.815  1.5170  0.0514 -0.2669
 3207TP3     H221441   4.392   2.693   8.859 -2.2352 -0.5103  0.3382
 3208TP3      O21442   0.767   1.178   8.985 -0.7648  0.0691 -0.2210
 3208TP3     H121443   0.744   1.168   9.077  1.2984  0.7931  0.3958
 3208TP3     H221444   0.706   1.245   8.952 -2.0355 -0.7708  0.3962
 3209TP3      O21445   4.494   0.928   9.473  0.3683  0.2011 -0.4753
 3209TP3     H121446   4.424   0.895   9.416 -0.1402  1.2854 -0.5044
 3209TP3     H221447   4.573   0.924   9.419  0.4564 -1.6237 -0.2342
 3210TP3      O21448   3.172   1.759   0.075 -0.3712 -0.2484 -0.2935
 3210TP3     H121449   3.124   1.782   0.154  0.1561  0.8579 -0.2820
 3210TP3     H221450   3.264   1.767   0.100 -0.1951 -0.4734 -0.8502
 3211TP3      O21451   2.988   5.133   0.373 -0.3133 -0.1795  0.5142
 3211TP3     H121452   3.066   5.079   0.383  0.6831  1.0999 -0.1141
 3211TP3     H221453   3.004   5.209   0.429 -1.0039  0.2080  0.1964
 3212TP3      O21454   4.770   1.990   9.844  0.0263 -0.1957  0.2973
 3212TP3     H121455   4.810   1.987   9.931 -0.3544 -1.9277  0.4316
 3212TP3     H221456   4.747   2.083   9.832  3.6798  0.7906  0.3427
 3213TP3      O21457   1.895   0.179   0.523 -0.8260  0.4546 -0.3881
 3213TP3     H121458   1.989   0.197   0.535 -0.5379  0.2408 -2.2589
 3213TP3     H221459   1.873   0.122   0.597  0.5011  0.5741  0.1175
 3214TP3      O21460   1.742   4.225   7.475 -0.7584  0.4156 -0.2965
 3214TP3     H121461   1.703   4.199   7.391 -0.4542  0.5212 -0.4710
 3214TP3     H221462   1.827   4.180   7.477 -1.7151 -1.4254  0.9762
 3215TP3      O21463   3.865   3.442   7.707  0.3193 -0.3984 -0.2443
 3215TP3     H121464   3.810   3.384   7.653  0.0400  0.8898 -1.3549
 3215TP3     H221465   3.840   3.420   7.797 -2.1317  0.2500 -0.7348
 3216TP3      O21466   4.723   4.110   9.270  0.6137 -0.5585  0.3574
 3216TP3     H121467   4.772   4.144   9.345 -0.3522  0.1406  0.6859
 3216TP3     H221468   4.686   4.187   9.228 -1.4643 -1.1630  1.0046
 3217TP3      O21469   3.130   0.732   0.622 -0.8034 -0.2517  0.0058
 3217TP3     H121470   3.218   0.713   0.652 -0.1866  0.5420 -1.2662
 3217TP3     H221471   3.073   0.689   0.686  0.4634  0.7791  1.8702
 3218TP3      O21472   0.557   4.943   2.150  0.0707 -0.2279  0.1123
 3218TP3     H121473   0.630   4.965   2.209 -1.1225  0.1263  1.4973
 3218TP3     H221474   0.563   4.849   2.138 -0.4568 -0.5164  1.9171
 3219TP3      O21475   2.311   4.812   9.851  0.7232 -0.4323  0.0284
 3219TP3     H121476   2.281   4.903   9.859  1.5298 -0.2932  1.7281
 3219TP3     H221477   2.354   4.793   9.935  2.1608 -1.7948 -0.9663
 3220TP3      O21478   4.339   2.623   0.575  0.0037  0.4214  0.0265
 3220TP3     H121479   4.386   2.707   0.581  0.4929  0.1412  0.2155
 3220TP3     H221480   4.394   2.569   0.519 -0.3684  0.2653 -0.1845
 3221TP3      O21481   5.027   2.858   0.668  0.5696  0.3726  0.1839
 3221TP3     H121482   4.976   2.871   0.748  1.0414  2.2606  0.2048
 3221TP3     H221483   4.983   2.911   0.602  0.3416 -0.9604 -0.7563
 3222TP3      O21484   4.219   3.968   7.033 -0.3604  0.1425 -1.2054
 3222TP3     H121485   4.252   3.894   6.982  0.5375 -0.2202 -0.1155
 3222TP3     H221486   4.295   3.999   7.082 -0.8671  1.4392 -1.2287
 3223TP3      O21487   2.462   2.751   9.290 -0.0472 -0.2360 -0.5528
 3223TP3     H121488   2.372   2.783   9.286  0.0642  0.1565  0.0334
 3223TP3     H221489   2.468   2.687   9.219 -0.6693  0.0355 -0.8507
 3224TP3      O21490   3.758   1.950   7.343 -0.5927 -0.1389 -0.4008
 3224TP3     H121491   3.773   1.897   7.264 -0.1908 -1.2445  0.3915
 3224TP3     H221492   3.714   2.029   7.312 -0.5302 -0.6120 -1.7153
 3225TP3      O21493   4.384   2.067   9.540  0.0017 -0.2658 -0.3209
 3225TP3     H121494   4.348   1.978   9.539 -0.2546 -0.1692 -2.2978
 3225TP3     H221495   4.339   2.111   9.612 -1.9601 -0.9260 -1.1058
 3226TP3      O21496   4.523   2.437   0.076  0.7213  0.0859 -0.2387
 3226TP3     H121497   4.602   2.426   0.129  1.0572 -0.5185 -0.8604
 3226TP3     H221498   4.462   2.483   0.134  0.5415 -1.9116  1.2252
 3227TP3      O21499   0.552   0.943   1.286  0.3940 -0.5759 -0.6427
 3227TP3     H121500   0.548   0.857   1.329  0.0216  0.0954  0.6811
 3227TP3     H221501   0.639   0.976   1.309  0.0371 -0.0398 -0.0499
 3228TP3      O21502   4.102   4.960   9.317  0.3619  0.3399 -0.3477
 3228TP3     H121503   4.138   4.873   9.299 -2.7267 -0.3761 -3.6489
 3228TP3     H221504   4.058   4.950   9.402  0.4626 -1.1676 -0.4568
 3229TP3      O21505   4.900   3.383   7.865  0.6227 -0.5694 -0.4305
 3229TP3     H121506   4.814   3.392   7.906  0.5126 -0.6704 -0.6416
 3229TP3     H221507   4.961   3.415   7.931  0.4335 -0.6144 -0.2350
 3230TP3      O21508   3.937   4.332   2.376 -0.3366 -0.3432 -0.7007
 3230TP3     H121509   3.945   4.236   2.370 -1.0506 -0.4215 -0.3442
 3230TP3     H221510   3.945   4.362   2.286 -2.7168 -0.9340 -1.1353
 3231TP3      O21511   4.389   3.799   1.997 -0.2401  0.1420 -0.7455
 3231TP3     H121512   4.460   3.810   1.933  0.2155 -1.6348 -0.5874
 3231TP3     H221513   4.322   3.750   1.950  0.1673 -1.3205  0.1595
 3232TP3      O21514   3.888   4.738  10.012 -0.1290 -0.4226 -0.4157
 3232TP3     H121515   3.977   4.724  10.045 -0.2735 -0.5383 -0.0663
 3232TP3     H221516   3.864   4.826  10.041 -0.1462 -0.4109 -0.4651
 3233TP3      O21517   2.904   4.880   8.663  0.3667 -0.2106 -0.1907
 3233TP3     H121518   2.919   4.844   8.576  0.4978 -1.1843  0.2305
 3233TP3     H221519   2.970   4.949   8.672  0.3556 -0.1124 -0.8573
 3234TP3      O21520   4.724   3.224   1.486  0.4850 -0.4807  0.1701
 3234TP3     H121521   4.762   3.164   1.551 -0.0383 -0.1768  0.7560
 3234TP3     H221522   4.736   3.311   1.523  1.1708 -0.2184 -0.6483
 3235TP3      O21523   1.919   4.465   7.555 -0.1180  0.3750  0.0113
 3235TP3     H121524   1.860   4.391   7.545  0.5800 -0.3601  1.1985
 3235TP3     H221525   1.974   4.462   7.477  0.0504 -0.4884  0.1572
 3236TP3      O21526   3.364   0.848   9.321 -0.7358 -0.2684  0.4151
 3236TP3     H121527   3.436   0.861   9.383 -0.9429  1.7843  0.2631
 3236TP3     H221528   3.315   0.930   9.324 -2.9693 -1.5638  0.3471
 3237TP3      O21529   5.162   0.930   9.675 -0.3931 -0.5225 -0.0600
 3237TP3     H121530   5.071   0.959   9.667 -0.5688 -0.6411  1.5063
 3237TP3     H221531   5.213   1.011   9.675 -0.4898 -0.4586 -0.9912
 3238TP3      O21532   4.786   0.256   7.614 -0.0325  0.4059 -0.2644
 3238TP3     H121533   4.705   0.283   7.569 -1.3988  0.2124  1.9795
 3238TP3     H221534   4.758   0.185   7.672  2.4280 -2.0187 -1.9192
 3239TP3      O21535   2.322   4.946   9.452  0.1307 -0.7053 -0.2793
 3239TP3     H121536   2.256   5.003   9.491  1.2322 -0.0791  0.6667
 3239TP3     H221537   2.378   4.920   9.525 -0.0395 -2.5737 -0.7951
 3240TP3      O21538   5.101   3.825   1.253  0.0209 -0.6378  0.1918
 3240TP3     H121539   5.129   3.815   1.344  3.1096  4.5388  0.0010
 3240TP3     H221540   5.006   3.840   1.259  0.4558  1.4614  2.8369
 3241TP3      O21541   1.682   0.014  10.130 -0.2647 -0.2697  0.1139
 3241TP3     H121542   1.777   0.020  10.120 -0.2062 -1.6413 -0.2710
 3241TP3     H221543   1.647   0.080  10.070  0.4568  0.6703  0.7194
 3242TP3      O21544   4.245   4.580   1.217 -0.4930 -0.1500  0.1275
 3242TP3     H121545   4.242   4.551   1.125  1.0776 -2.4636  0.7544
 3242TP3     H221546   4.167   4.541   1.257 -1.3533  1.1261 -0.2595
 3243TP3      O21547   4.125   3.454   9.681  0.3935 -0.1535  0.6765
 3243TP3     H121548   4.176   3.471   9.602 -0.4403 -0.2639  0.1092
 3243TP3     H221549   4.134   3.360   9.695  0.9050 -0.0625  0.9662
 3244TP3      O21550   2.246   0.607   1.733 -0.6364 -0.8569 -0.6452
 3244TP3     H121551   2.192   0.606   1.654 -1.4614  0.4095 -0.1103
 3244TP3     H221552   2.246   0.699   1.761  2.4289 -0.6725 -1.0616
 3245TP3      O21553   0.023   0.106   7.662  1.0909 -0.1480 -0.4563
 3245TP3     H121554   0.002   0.150   7.579  0.2828 -1.8383 -1.1691
 3245TP3     H221555  -0.002   0.015   7.648  1.0316 -0.4788  1.6213
 3246TP3      O21556   2.143   0.212   0.554 -0.6177  0.1792  0.7504
 3246TP3     H121557   2.195   0.181   0.628  0.5655  0.7615  0.1652
 3246TP3     H221558   2.196   0.193   0.477 -0.1985  2.9348  0.3222
 3247TP3      O21559   2.273   0.776   9.235 -0.4000 -0.1072 -0.0824
 3247TP3     H121560   2.302   0.754   9.146 -2.2061 -0.7403 -0.5378
 3247TP3     H221561   2.228   0.860   9.226  1.1602  0.8309  0.6059
 3248TP3      O21562   2.433   3.529   1.067  0.3190  0.7750 -0.2023
 3248TP3     H121563   2.397   3.468   1.132 -0.5154  1.6657  0.1831
 3248TP3     H221564   2.396   3.499   0.984  1.0671 -0.1241 -0.2178
 3249TP3      O21565   1.980   4.588   0.211 -0.7535 -0.0652 -0.2087
 3249TP3     H121566   1.990   4.660   0.273 -2.3377  0.3973 -0.4583
 3249TP3     H221567   1.964   4.512   0.265  2.1137 -0.4903  0.1133
 3250TP3      O21568   3.143   4.068   0.891 -0.0033 -0.1503  0.0938
 3250TP3     H121569   3.093   4.085   0.971  1.3688  1.6429  0.6061
 3250TP3     H221570   3.211   4.006   0.918  1.6118  1.8790  0.7955
 3251TP3      O21571   3.991   3.583   3.032  0.0156 -0.0811 -0.3559
 3251TP3     H121572   3.913   3.584   3.088 -0.6963  1.0622 -1.3468
 3251TP3     H221573   3.982   3.660   2.977  0.6109 -1.3065 -2.2019
 3252TP3      O21574   4.104   1.760   1.371  0.6042 -0.3636  0.4697
 3252TP3     H121575   4.174   1.824   1.359  0.4504 -0.5248 -1.4999
 3252TP3     H221576   4.146   1.688   1.418  2.5303 -1.6237 -2.9697
 3253TP3      O21577   2.337   2.361   1.486  0.0552 -0.3359  0.6394
 3253TP3     H121578   2.344   2.290   1.422 -0.7475 -0.9123  1.1872
 3253TP3     H221579   2.298   2.320   1.563 -0.9108  0.8303  0.7774
 3254TP3      O21580   2.658   0.393   9.310 -0.0546 -0.1275  0.1005
 3254TP3     H121581   2.693   0.315   9.266 -2.1181 -1.1542  0.1765
 3254TP3     H221582   2.672   0.464   9.248 -0.3867 -1.0338 -1.0356
 3255TP3      O21583   1.944   4.729   9.324  0.2976 -0.0546  0.2499
 3255TP3     H121584   1.931   4.660   9.259  2.2086  1.7699 -2.1659
 3255TP3     H221585   2.035   4.719   9.351  0.2476  0.7784  0.7319
 3256TP3      O21586   4.938   3.476   0.848 -0.2347 -0.4553 -0.6338
 3256TP3     H121587   4.930   3.541   0.917  2.1481 -2.2238  1.4452
 3256TP3     H221588   4.969   3.525   0.771  0.3447  1.0405  0.5419
 3257TP3      O21589   4.395   4.173   0.286  0.1806  0.2089 -0.0999
 3257TP3     H121590   4.333   4.206   0.352 -0.1330  1.4600 -0.9902
 3257TP3     H221591   4.360   4.206   0.203  2.1680  1.1418 -0.5905
 3258TP3      O21592   2.918   2.059   0.021  0.0545  0.0840  0.3242
 3258TP3     H121593   2.943   2.116   0.093  0.2818  2.0884 -1.3200
 3258TP3     H221594   3.000   2.041  -0.026 -0.6687  2.1060 -1.7871
 3259TP3      O21595   4.374   3.920   1.002  0.5266  0.1895 -0.1140
 3259TP3     H121596   4.360   4.002   1.049  2.0213 -0.2537  1.1282
 3259TP3     H221597   4.399   3.947   0.914 -0.5165  1.0316 -0.1700
 3260TP3      O21598   1.691   3.943   0.474 -0.2403 -0.1875  0.4828
 3260TP3     H121599   1.662   3.958   0.564 -1.3817  1.0425 -0.0680
 3260TP3     H221600   1.753   4.014   0.457  1.0377 -1.2296  0.7541
 3261TP3      O21601   4.346   3.276   0.212  0.7879 -0.3691  1.0711
 3261TP3     H121602   4.391   3.291   0.129  1.3225  0.3835  1.4969
 3261TP3     H221603   4.354   3.181   0.227  0.0361 -0.6194 -0.1035
 3262TP3      O21604   0.250   3.191   2.835  0.7414  0.3473  0.4391
 3262TP3     H121605   0.199   3.189   2.916  1.2995  0.5771  0.7978
 3262TP3     H221606   0.208   3.259   2.782  0.3816  0.2028  0.5377
 3263TP3      O21607   2.884   1.133   3.309 -0.8781  0.5017  0.0481
 3263TP3     H121608   2.802   1.161   3.267 -0.3892  2.0387  0.0597
 3263TP3     H221609   2.942   1.113   3.236 -1.2021 -0.4418  0.0390
 3264TP3      O21610   2.044   1.746   8.750  0.2838  0.5885  0.1369
 3264TP3     H121611   2.080   1.705   8.671 -1.5266  1.0311 -0.9352
 3264TP3     H221612   2.117   1.799   8.784  1.4290 -0.4721 -0.6032
 3265TP3      O21613   0.987   5.049   8.471 -0.6833  0.0487 -0.2561
 3265TP3     H121614   1.055   5.003   8.521 -0.4340  0.3980 -0.2671
 3265TP3     H221615   0.908   4.998   8.485 -0.6220  0.1481  0.5221
 3266TP3      O21616   4.017   3.233   3.186 -0.2507  0.3354  0.0401
 3266TP3     H121617   4.040   3.163   3.247 -0.8202  0.5845  0.5359
 3266TP3     H221618   3.998   3.309   3.241  0.2171  0.8437 -0.4879
 3267TP3      O21619   0.461   4.619   0.737 -0.3146  0.2432  0.1849
 3267TP3     H121620   0.449   4.586   0.648 -0.8393  1.0127 -0.0384
 3267TP3     H221621   0.408   4.561   0.791 -1.0378  0.5486 -0.1780
 3268TP3      O21622   4.908   0.387   9.326  0.0343  0.1582  0.2415
 3268TP3     H121623   4.904   0.324   9.398  0.3958  1.1594  1.1321
 3268TP3     H221624   4.994   0.373   9.286 -0.2076 -0.4668 -0.0819
 3269TP3      O21625   5.171   0.425   8.924  0.6959 -0.3589  0.2471
 3269TP3     H121626   5.219   0.400   9.003  0.6216  1.4698  0.8863
 3269TP3     H221627   5.228   0.487   8.879 -0.4837  0.7937  0.3251
 3270TP3      O21628   4.407   3.108   0.923 -0.4193  0.2213 -0.5062
 3270TP3     H121629   4.389   3.201   0.934  1.7599  0.1716  4.2808
 3270TP3     H221630   4.326   3.065   0.951 -0.4003  0.6111  0.1573
 3271TP3      O21631   3.298   0.712   2.218  0.0598 -0.3122 -0.2067
 3271TP3     H121632   3.318   0.676   2.132 -1.1052  2.4828 -1.7189
 3271TP3     H221633   3.226   0.773   2.202 -1.1136 -0.7831  2.9953
 3272TP3      O21634   2.777   2.690   0.810  0.5300  0.2079 -0.4975
 3272TP3     H121635   2.844   2.737   0.761  1.0156 -0.6484 -0.6703
 3272TP3     H221636   2.703   2.684   0.750  0.6205  0.3704 -0.6251
 3273TP3      O21637   4.591   3.435   2.081  0.1752 -0.1591 -0.2672
 3273TP3     H121638   4.571   3.529   2.075 -1.2084 -0.3922  0.4730
 3273TP3     H221639   4.645   3.417   2.004 -0.4573  1.0262 -1.0083
 3274TP3      O21640   3.406   4.845   0.682  0.0951  0.2823  0.3310
 3274TP3     H121641   3.429   4.919   0.625 -2.3303  0.7781 -0.0626
 3274TP3     H221642   3.327   4.875   0.728  0.8616 -0.9017  2.4497
 3275TP3      O21643   4.507   3.141   1.688  0.3103 -0.2264  0.2635
 3275TP3     H121644   4.582   3.129   1.630  0.3041 -0.2693  0.2644
 3275TP3     H221645   4.435   3.094   1.645  0.0699  0.5336 -0.1687
 3276TP3      O21646   2.961   4.864   0.654 -0.2255 -0.0296  0.1141
 3276TP3     H121647   2.889   4.818   0.696 -1.2013  0.8381 -0.5914
 3276TP3     H221648   2.922   4.945   0.620  1.0989  0.5170 -0.1517
 3277TP3      O21649   3.078   0.411   9.303 -0.2318 -0.0625  0.6615
 3277TP3     H121650   3.058   0.503   9.285  1.1100  0.8955  3.8377
 3277TP3     H221651   3.145   0.389   9.238  0.8006  1.7660  1.0718
 3278TP3      O21652   4.226   2.926   2.158 -0.9664  0.2380 -0.2946
 3278TP3     H121653   4.169   2.925   2.235 -1.1913  0.0764 -0.4604
 3278TP3     H221654   4.246   2.834   2.141 -2.7728  0.0936 -1.7775
 3279TP3      O21655   4.819   4.432   7.555  0.0054 -0.1179  0.0397
 3279TP3     H121656   4.764   4.455   7.479  0.0970  0.3179  0.1016
 3279TP3     H221657   4.757   4.397   7.619  0.0331 -1.2403 -0.5340
 3280TP3      O21658   2.982   3.178   6.418  0.2699 -0.1263  0.5686
 3280TP3     H121659   2.992   3.099   6.472  0.2112 -1.1902 -0.9483
 3280TP3     H221660   2.987   3.250   6.481 -2.7201 -1.4242  2.4139
 3281TP3      O21661   3.617   1.796   7.932 -0.1208  0.1596 -0.3410
 3281TP3     H121662   3.663   1.735   7.874  0.6419  1.0377 -0.6812
 3281TP3     H221663   3.671   1.799   8.012  0.3465  1.0634 -0.6771
 3282TP3      O21664   4.323   5.001   8.344 -0.2915 -0.6324  0.5288
 3282TP3     H121665   4.250   5.062   8.339  1.3545  1.4192  0.6192
 3282TP3     H221666   4.291   4.929   8.398 -2.8697 -0.7256 -1.0386
 3283TP3      O21667   5.026   0.744   0.238 -0.0607 -0.1140 -0.3265
 3283TP3     H121668   5.037   0.649   0.236 -1.3606 -0.3723  2.6898
 3283TP3     H221669   5.088   0.775   0.303 -1.5629  0.7723  0.7198
 3284TP3      O21670   3.530   4.293   1.754 -0.4226 -0.2311 -0.3181
 3284TP3     H121671   3.597   4.228   1.769 -0.2719  0.0740  0.3390
 3284TP3     H221672   3.547   4.361   1.819 -1.7538 -0.4567  0.2805
 3285TP3      O21673   0.193   1.560   8.865  0.2801 -0.1713 -0.4066
 3285TP3     H121674   0.233   1.523   8.944  1.4768  0.0240 -0.8989
 3285TP3     H221675   0.149   1.487   8.823  0.6128 -0.5211 -0.1482
 3286TP3      O21676   4.682   0.230   1.677 -0.3392 -0.0966  0.0265
 3286TP3     H121677   4.593   0.222   1.710 -1.4914 -1.0287 -3.1095
 3286TP3     H221678   4.678   0.305   1.616  1.8919  2.1055  2.4842
 3287TP3      O21679   4.570   4.086   8.898 -0.1500  0.2823 -0.6360
 3287TP3     H121680   4.481   4.091   8.933  0.0001  0.7251 -0.3071
 3287TP3     H221681   4.583   4.171   8.855  0.3354  0.4644 -0.1417
 3288TP3      O21682   0.913   4.101   2.001  0.3886 -0.6208 -0.2353
 3288TP3     H121683   0.850   4.055   2.057 -0.9222  0.2936 -0.9185
 3288TP3     H221684   0.948   4.034   1.943 -0.6628 -0.9764 -0.4724
 3289TP3      O21685   2.675   0.239   2.092 -0.0295  0.3145 -0.3566
 3289TP3     H121686   2.741   0.273   2.152  0.2062  0.4328 -0.6797
 3289TP3     H221687   2.612   0.310   2.082  0.2970  0.5462 -0.7870
 3290TP3      O21688   1.565   2.934   2.581 -0.2236  0.0341  0.3828
 3290TP3     H121689   1.552   2.840   2.566 -3.3198  0.4026  0.3573
 3290TP3     H221690   1.561   2.944   2.676 -0.8288  0.2294  0.3426
 3291TP3      O21691   3.699   2.171   0.896  0.2611 -0.5343  0.2075
 3291TP3     H121692   3.766   2.154   0.829 -0.8652 -0.6387 -0.9133
 3291TP3     H221693   3.728   2.251   0.939  1.2877 -0.7638 -0.0493
 3292TP3      O21694   3.531   0.704   1.717 -0.3393  0.0556 -0.5088
 3292TP3     H121695   3.454   0.717   1.661 -1.2320  0.2830  0.7431
 3292TP3     H221696   3.544   0.609   1.718 -1.5157 -0.1120  0.4431
 3293TP3      O21697   2.526   3.151   2.990 -0.0675 -0.2201  0.1778
 3293TP3     H121698   2.440   3.111   2.977 -0.3847  0.5438 -0.0999
 3293TP3     H221699   2.552   3.181   2.903 -0.6338  1.7715  0.6661
 3294TP3      O21700   5.150   0.731   8.814 -0.3697 -0.4509 -0.2695
 3294TP3     H121701   5.087   0.674   8.770  0.4570 -2.2740  0.8560
 3294TP3     H221702   5.235   0.689   8.798  0.3768  1.0671 -0.3473
 3295TP3      O21703   1.628   3.227   9.855  0.2541  0.1324 -0.5408
 3295TP3     H121704   1.587   3.158   9.802 -1.7242  1.3810 -0.6888
 3295TP3     H221705   1.678   3.180   9.921 -0.7604 -1.4491 -0.8731
 3296TP3      O21706   3.778   3.318   1.627  0.2462 -0.1449 -0.1022
 3296TP3     H121707   3.713   3.333   1.696  1.6122  1.0859  0.9551
 3296TP3     H221708   3.860   3.302   1.674  0.7484 -1.5081 -1.4202
 3297TP3      O21709   2.067   0.790   0.748 -0.2490 -0.8359 -0.1920
 3297TP3     H121710   2.128   0.745   0.806  0.9604  1.3697  0.2984
 3297TP3     H221711   1.984   0.791   0.796 -0.4202 -2.8746 -0.3978
 3298TP3      O21712   0.479   2.124   2.614 -0.4033 -0.1859  0.0169
 3298TP3     H121713   0.534   2.189   2.570  0.0900 -0.0323  0.8356
 3298TP3     H221714   0.412   2.100   2.550  1.7822 -1.8384 -1.7237
 3299TP3      O21715   2.466   5.206   9.811 -0.1528  0.0265 -0.0400
 3299TP3     H121716   2.376   5.202   9.844 -1.0905 -0.3930 -2.5766
 3299TP3     H221717   2.503   5.120   9.832 -0.5871 -0.0915  0.2669
 3300TP3      O21718   4.664   3.364   0.682  0.0114 -0.6274  0.0517
 3300TP3     H121719   4.751   3.342   0.651 -0.2336  1.2065 -2.0755
 3300TP3     H221720   4.605   3.312   0.627 -0.3104 -0.4218  0.2024
 3301TP3      O21721   2.966   1.603   0.354  0.3259  0.2726  0.2305
 3301TP3     H121722   3.059   1.606   0.331  0.1373  0.3661 -0.5489
 3301TP3     H221723   2.964   1.582   0.447  1.1157 -0.3937  0.0940
 3302TP3      O21724   1.779   0.276   0.769  0.1212  0.0350 -0.0155
 3302TP3     H121725   1.732   0.303   0.690 -0.1444 -0.3033  0.0263
 3302TP3     H221726   1.839   0.349   0.786  0.4782 -0.0760 -0.7659
 3303TP3      O21727   1.321   2.012   0.023  0.5060  0.0108 -0.0445
 3303TP3     H121728   1.242   1.970  -0.013  0.3480 -0.5878  0.9956
 3303TP3     H221729   1.298   2.034   0.113  0.7051  2.0456 -0.4666
 3304TP3      O21730   1.468   1.038   1.517 -0.0218 -0.2221 -0.4975
 3304TP3     H121731   1.559   1.013   1.525  0.0063 -0.0498 -0.2717
 3304TP3     H221732   1.421   0.978   1.574  0.0365  0.1809 -0.0210
 3305TP3      O21733   4.128   3.379   8.488  0.5417  0.2558  0.2213
 3305TP3     H121734   4.117   3.305   8.428 -1.4660  0.3691  0.4092
 3305TP3     H221735   4.156   3.339   8.571 -1.7064 -0.4700  0.6781
 3306TP3      O21736   1.324   0.012   1.964 -0.4046 -0.1761 -0.2194
 3306TP3     H121737   1.417   0.020   1.987 -0.2992 -1.0738 -0.3193
 3306TP3     H221738   1.285  -0.031   2.041 -1.1148  2.0028  0.6739
 3307TP3      O21739   4.731   0.049   7.789 -0.2168  0.5356  0.0278
 3307TP3     H121740   4.779   0.067   7.870 -2.4658  1.5352  1.1757
 3307TP3     H221741   4.689  -0.035   7.804  0.4203  0.0883 -0.6370
 3308TP3      O21742   2.295   1.493   0.952  0.0515  0.3827 -0.6653
 3308TP3     H121743   2.222   1.441   0.919 -1.0013  1.5175 -0.1489
 3308TP3     H221744   2.373   1.451   0.916 -0.8203 -1.1723 -0.7621
 3309TP3      O21745   3.428   2.648   9.155  0.0881  0.2742  0.6938
 3309TP3     H121746   3.405   2.739   9.179 -0.0552  0.9406 -1.8817
 3309TP3     H221747   3.514   2.654   9.116 -0.8981 -0.3406 -1.6473
 3310TP3      O21748   2.635   1.056   0.049  0.1929  0.4618  0.4816
 3310TP3     H121749   2.647   1.141   0.092  1.6807  0.1301  0.7342
 3310TP3     H221750   2.620   0.995   0.120  0.6354  0.2618  0.4066
 3311TP3      O21751   4.110   1.407   1.995 -0.6107  0.4899  0.7181
 3311TP3     H121752   4.021   1.443   2.002  0.4299  3.2775  0.2232
 3311TP3     H221753   4.119   1.352   2.073 -2.2467  1.3966  1.5885
 3312TP3      O21754   4.354   3.748   0.316 -0.3204  0.1254  0.0275
 3312TP3     H121755   4.306   3.763   0.234 -0.1172  1.1488  0.0881
 3312TP3     H221756   4.423   3.814   0.315  0.4102 -0.6257  0.4708
 3313TP3      O21757   3.439   5.062   1.151 -0.0825  0.0399 -0.2456
 3313TP3     H121758   3.433   5.046   1.056 -0.8482 -0.9870 -0.0272
 3313TP3     H221759   3.347   5.068   1.179  0.1230 -1.0776  0.6691
 3314TP3      O21760   3.171   1.196   8.298  0.3877  0.2592 -0.2332
 3314TP3     H121761   3.235   1.150   8.244  2.2879 -0.6261  2.6663
 3314TP3     H221762   3.213   1.279   8.321 -1.1488  1.4506 -1.5699
 3315TP3      O21763   5.136   2.428   1.131 -0.1298 -0.4110 -0.0988
 3315TP3     H121764   5.067   2.363   1.148  0.4407 -1.3546 -1.2963
 3315TP3     H221765   5.120   2.456   1.041  0.9023 -0.4437 -0.2888
 3316TP3      O21766   3.019   0.875   8.659 -0.1423 -0.2908 -0.6332
 3316TP3     H121767   3.100   0.926   8.670 -0.2627 -0.5175  1.5838
 3316TP3     H221768   3.048   0.790   8.629  0.3384  0.0463 -1.1316
 3317TP3      O21769   3.586   2.894   1.781 -0.1449  0.6796  0.0736
 3317TP3     H121770   3.675   2.923   1.760  0.1232  0.0849  0.3949
 3317TP3     H221771   3.588   2.799   1.771 -1.1783  0.7941 -1.5239
 3318TP3      O21772   2.000   3.213   0.032  0.2312  0.1471 -0.1152
 3318TP3     H121773   1.978   3.297   0.071  0.0441 -0.2701  0.6963
 3318TP3     H221774   2.074   3.232  -0.026 -0.8977  1.1752 -1.2445
 3319TP3      O21775   1.026   3.047   1.418 -0.1959 -0.4773  0.2164
 3319TP3     H121776   0.981   3.103   1.356  1.1349 -1.2307 -1.4799
 3319TP3     H221777   0.964   2.976   1.436  0.6525 -2.1449 -3.0008
 3320TP3      O21778   4.587   2.129   2.831 -0.0125  0.5818  0.0683
 3320TP3     H121779   4.529   2.205   2.826 -2.2118 -1.0895 -0.2578
 3320TP3     H221780   4.532   2.058   2.864  1.7706 -1.1337 -0.5243
 3321TP3      O21781   4.506   3.037   9.524 -0.1704 -0.4351 -0.4699
 3321TP3     H121782   4.551   3.032   9.440 -0.4364  0.5394 -0.6828
 3321TP3     H221783   4.526   2.954   9.567 -0.6123 -1.2561 -1.7934
 3322TP3      O21784   1.693   1.788   8.903 -0.0943  0.3077  0.3733
 3322TP3     H121785   1.607   1.748   8.920  0.4085 -0.6574  0.7143
 3322TP3     H221786   1.692   1.870   8.953 -1.1857  0.7886 -0.4207
 3323TP3      O21787   0.603   1.360  10.036  0.3858 -0.1979  0.0436
 3323TP3     H121788   0.627   1.441  10.079  2.7771 -1.1036  0.4678
 3323TP3     H221789   0.557   1.387   9.957  0.3219  1.5337  0.6562
 3324TP3      O21790   3.271   2.846  10.041  0.5936  0.1725  0.3429
 3324TP3     H121791   3.264   2.835   9.946  1.1475  2.8308 -0.0232
 3324TP3     H221792   3.262   2.757  10.075 -0.6803 -0.7046 -2.1246
 3325TP3      O21793   2.700   0.905   2.092  0.4124 -0.4166  0.6753
 3325TP3     H121794   2.632   0.972   2.089 -0.2653 -1.1472 -1.1994
 3325TP3     H221795   2.678   0.850   2.167  0.5704  1.0274  1.7976
 3326TP3      O21796   4.466   2.422   0.450  0.0800  0.1322 -0.2540
 3326TP3     H121797   4.552   2.396   0.417 -0.5561 -0.7158 -1.2766
 3326TP3     H221798   4.444   2.354   0.514  0.6274  0.9317  0.8069
 3327TP3      O21799   4.698   3.413   8.320 -0.0585 -0.3214  0.0066
 3327TP3     H121800   4.630   3.453   8.265 -0.7532 -1.0289  0.3365
 3327TP3     H221801   4.699   3.467   8.399  2.9538  2.4657 -1.8230
 3328TP3      O21802   2.333   4.912   7.871 -0.5093 -0.1931  0.2023
 3328TP3     H121803   2.339   4.839   7.810 -0.7736  0.2317 -0.3287
 3328TP3     H221804   2.384   4.982   7.831 -2.1931  0.7008 -0.4326
 3329TP3      O21805   1.737   2.501   1.919  0.1025 -0.0960  0.0659
 3329TP3     H121806   1.755   2.544   2.002  0.1347  1.3380 -0.6589
 3329TP3     H221807   1.665   2.441   1.938  0.9233 -0.6665  1.3888
 3330TP3      O21808   4.546   2.827   0.598  0.1045 -0.0867  0.0820
 3330TP3     H121809   4.495   2.908   0.592  2.3774  1.3128 -1.6089
 3330TP3     H221810   4.597   2.837   0.678 -1.3163 -0.9043  1.0951
 3331TP3      O21811   2.302   3.022   9.600 -0.0373 -0.4438 -0.0720
 3331TP3     H121812   2.341   3.033   9.513  2.0282 -1.2673  0.7148
 3331TP3     H221813   2.289   3.111   9.632 -0.7965 -0.1326 -1.2069
 3332TP3      O21814   5.295   2.348   0.821  0.1741 -0.1576  0.0460
 3332TP3     H121815   5.245   2.422   0.856  0.7191  0.3252 -0.1779
 3332TP3     H221816   5.240   2.312   0.752 -0.0908  0.0405  0.1535
 3333TP3      O21817   0.521   2.427   1.635 -0.3065  0.0120 -0.0515
 3333TP3     H121818   0.445   2.481   1.611 -0.4491  0.9976  2.4780
 3333TP3     H221819   0.484   2.342   1.659 -0.5932  0.4266  0.9808
 3334TP3      O21820   0.913   1.306   0.003  0.0686 -0.0286 -0.5788
 3334TP3     H121821   0.833   1.254  -0.004  0.3682 -0.8822  1.6880
 3334TP3     H221822   0.890   1.378   0.062  0.8282 -0.0095 -0.3001
 3335TP3      O21823   4.828   3.047   8.952 -0.0752  0.4134  0.7135
 3335TP3     H121824   4.814   2.953   8.962  0.8928  0.2083  0.2369
 3335TP3     H221825   4.747   3.079   8.912 -0.9445  0.0166  2.1226
 3336TP3      O21826   0.266   4.449   1.187  0.0473  0.0929 -0.0312
 3336TP3     H121827   0.317   4.370   1.172  1.7132  1.0988  0.2917
 3336TP3     H221828   0.214   4.430   1.265  1.0044 -0.4119  0.4864
 3337TP3      O21829   2.655   3.055   8.248 -0.5534 -0.6765 -0.0642
 3337TP3     H121830   2.662   2.995   8.174 -0.2862 -1.3142  0.4774
 3337TP3     H221831   2.701   3.134   8.220  2.2325 -2.0420  0.5935
 3338TP3      O21832   2.260   4.250   9.009 -0.1406 -0.6016  0.2913
 3338TP3     H121833   2.318   4.209   8.946  0.2025 -1.3071  1.0615
 3338TP3     H221834   2.204   4.180   9.040 -0.2584 -0.2745  0.8290
 3339TP3      O21835   1.612   4.159   9.957 -0.2022  0.0662  0.1735
 3339TP3     H121836   1.575   4.206  10.032 -1.0073 -0.7571  0.3070
 3339TP3     H221837   1.652   4.081   9.995 -0.8261 -0.4768 -0.2754
 3340TP3      O21838   5.001   0.760   1.738 -0.7333 -0.3581  0.0876
 3340TP3     H121839   5.040   0.846   1.751  0.3360 -1.3170  4.1258
 3340TP3     H221840   4.908   0.777   1.724 -0.5005  1.4778  0.6553
 3341TP3      O21841   4.295   0.029   2.015 -0.5795  0.4750  0.2834
 3341TP3     H121842   4.377  -0.016   1.994 -0.2137  1.9281 -1.4855
 3341TP3     H221843   4.263   0.063   1.931 -3.9763 -1.6433  0.6297
 3342TP3      O21844   0.800   5.096   2.231  0.2986 -0.2130  0.1132
 3342TP3     H121845   0.759   5.140   2.306 -0.9392 -1.5678  0.2488
 3342TP3     H221846   0.778   5.151   2.156  0.8031  0.6791  0.6053
 3343TP3      O21847   0.990   1.071   3.026  0.3079 -0.2681 -0.3614
 3343TP3     H121848   0.991   1.159   3.063 -0.4621  0.0268 -1.0448
 3343TP3     H221849   1.080   1.040   3.037  0.1968 -0.0348  1.3822
 3344TP3      O21850   5.156   1.744  10.037 -0.2883 -0.0996  0.1443
 3344TP3     H121851   5.141   1.694   9.956  1.6004 -0.5243  0.0371
 3344TP3     H221852   5.068   1.765  10.068 -1.1435 -3.2728  0.0385
 3345TP3      O21853   3.402   1.285   1.983 -0.0150  0.1332 -0.6162
 3345TP3     H121854   3.380   1.206   2.034  0.5178  0.4383  0.0913
 3345TP3     H221855   3.443   1.251   1.904 -0.4834 -0.3336 -0.6635
 3346TP3      O21856   0.905   4.123   1.234 -0.3358 -0.0610 -0.0178
 3346TP3     H121857   0.925   4.036   1.267 -0.4551 -0.2089 -0.3300
 3346TP3     H221858   0.938   4.183   1.301  2.3333 -0.2297 -1.1121
 3347TP3      O21859   3.670   3.728   0.053 -0.2584 -0.0988 -0.3502
 3347TP3     H121860   3.679   3.778   0.135  2.0100 -1.8453  0.5321
 3347TP3     H221861   3.760   3.720   0.020 -0.6379 -2.8283 -0.8844
 3348TP3      O21862   0.778   3.320   1.977  0.3287 -0.0346  0.4717
 3348TP3     H121863   0.768   3.350   2.067  0.4342 -1.0690  0.8327
 3348TP3     H221864   0.694   3.338   1.936  0.5758  1.2841  0.5165
 3349TP3      O21865   1.753   1.728   2.216  0.0543  0.0766  0.3186
 3349TP3     H121866   1.782   1.712   2.127  0.8548  2.6283  0.0767
 3349TP3     H221867   1.661   1.754   2.207  0.7177  2.4542 -0.0393
 3350TP3      O21868   2.658   3.055   0.935 -0.7961 -0.1437 -0.5167
 3350TP3     H121869   2.708   3.067   0.854  1.3713  1.3429  1.0105
 3350TP3     H221870   2.676   2.964   0.960  3.1841  1.0236  1.2686
 3351TP3      O21871   0.131   0.501   0.414  0.3038 -0.0223  0.5940
 3351TP3     H121872   0.172   0.497   0.328 -1.1488 -0.9213 -0.0773
 3351TP3     H221873   0.181   0.568   0.462  1.5478 -0.0112 -0.7026
 3352TP3      O21874   1.751   2.249   9.487  0.2339 -0.1908  0.4815
 3352TP3     H121875   1.690   2.221   9.419  0.1145  2.2122 -0.4515
 3352TP3     H221876   1.696   2.257   9.566  0.0370 -1.3278  0.4647
 3353TP3      O21877   0.391   1.890   1.800  0.6507  0.5648  0.0187
 3353TP3     H121878   0.469   1.942   1.819  0.0242  1.8145 -0.7677
 3353TP3     H221879   0.325   1.921   1.862  0.7417 -0.4288  0.6252
 3354TP3      O21880   0.952   2.916   9.503  0.4637  0.0460  0.3859
 3354TP3     H121881   1.013   2.845   9.485  0.6645  0.6545 -1.4083
 3354TP3     H221882   1.005   2.980   9.552  1.1606  0.3792 -0.7855
 3355TP3      O21883   3.655   4.354  10.122  0.5862  0.5978  0.0638
 3355TP3     H121884   3.611   4.272  10.142  0.1966  0.6833 -0.4101
 3355TP3     H221885   3.614   4.418  10.181  0.1573  0.6506 -0.2820
 3356TP3      O21886   1.247   1.519   9.987 -0.3218  0.5796 -0.4706
 3356TP3     H121887   1.258   1.448   9.924  0.6581  1.6259 -1.5164
 3356TP3     H221888   1.248   1.476  10.072  2.0905 -0.4792 -0.9883
 3357TP3      O21889   2.066   3.136   1.339 -0.1455 -0.0702 -0.1064
 3357TP3     H121890   2.142   3.177   1.380  0.7553 -2.2114  0.4350
 3357TP3     H221891   1.997   3.140   1.405 -0.1671  0.8441 -0.1793
 3358TP3      O21892   0.253   3.473   9.597 -0.2527  0.4012 -0.1976
 3358TP3     H121893   0.196   3.408   9.556  0.2966 -0.6598  0.6841
 3358TP3     H221894   0.193   3.535   9.639 -0.7784 -0.6459  0.6295
 3359TP3      O21895   0.314   4.944   7.880  0.6056  0.3661  0.5493
 3359TP3     H121896   0.226   4.929   7.845  0.9468  1.8981 -1.0728
 3359TP3     H221897   0.336   5.032   7.851  2.3300  0.3363  1.7090
 3360TP3      O21898   4.225   1.875   8.307 -0.6411 -0.4932  1.0277
 3360TP3     H121899   4.307   1.924   8.320 -0.9765  0.3006  0.1752
 3360TP3     H221900   4.199   1.848   8.395  0.9976 -1.5096  1.2235
 3361TP3      O21901   0.624   0.045   2.188 -0.0425  0.6701  0.4562
 3361TP3     H121902   0.706   0.093   2.184  0.0482  0.5802  1.0909
 3361TP3     H221903   0.572   0.078   2.115 -0.0967  1.9507  1.0588
 3362TP3      O21904   4.234   1.279   1.528  0.2852 -0.8952  0.7978
 3362TP3     H121905   4.295   1.208   1.509  0.1256 -1.5949  2.7597
 3362TP3     H221906   4.250   1.300   1.620 -1.7960 -0.4513  1.0763
 3363TP3      O21907   0.237   1.769   2.659 -0.3245  0.4929 -0.5117
 3363TP3     H121908   0.216   1.804   2.572 -3.3976  0.2944  0.1140
 3363TP3     H221909   0.206   1.837   2.719  0.3486 -0.0936  0.4984
 3364TP3      O21910   3.053   4.536   9.226  0.5731 -0.1141 -0.3867
 3364TP3     H121911   3.023   4.612   9.176 -0.9727 -0.1312  0.4867
 3364TP3     H221912   3.007   4.542   9.309  2.4438 -0.5694  0.7225
 3365TP3      O21913   4.441   4.074  10.122  0.6008  0.6850  0.2997
 3365TP3     H121914   4.507   4.107  10.182  0.5179  1.5623 -0.0799
 3365TP3     H221915   4.361   4.067  10.174  0.6066  1.1358  0.3669
 3366TP3      O21916   5.110   0.275   8.661  0.3475 -0.7921  0.6084
 3366TP3     H121917   5.188   0.302   8.613  0.2998 -0.9494  0.4457
 3366TP3     H221918   5.135   0.285   8.753 -0.0019  0.7752  0.5594
 3367TP3      O21919   4.446   2.672   3.236 -0.4682  0.3719  0.2660
 3367TP3     H121920   4.522   2.645   3.185 -0.4234 -1.3091  1.2074
 3367TP3     H221921   4.444   2.768   3.227  0.0646  0.1929 -2.1037
 3368TP3      O21922   4.260   4.346   2.032  0.2279 -0.1132 -0.2925
 3368TP3     H121923   4.219   4.279   1.976  0.9723  0.9740 -2.2063
 3368TP3     H221924   4.218   4.428   2.004  1.5551  0.6154 -0.1793
 3369TP3      O21925   4.598   1.913   0.067 -0.2977  0.1150 -0.2560
 3369TP3     H121926   4.535   1.892   0.136 -1.1368  0.7003 -0.8295
 3369TP3     H221927   4.547   1.962   0.002  0.7228  0.4959 -0.7879
 3370TP3      O21928   1.810   0.510   0.633  0.7929 -0.4948  0.4207
 3370TP3     H121929   1.772   0.587   0.674  0.2404  0.0275 -1.0165
 3370TP3     H221930   1.886   0.544   0.585 -0.5093 -0.4921 -1.7299
 3371TP3      O21931   3.348   3.458   2.534 -0.1990 -0.3551  0.7139
 3371TP3     H121932   3.418   3.394   2.525 -0.6234 -1.0634  2.3320
 3371TP3     H221933   3.286   3.419   2.596 -0.9026  1.2220  1.0506
 3372TP3      O21934   3.708   2.265   1.308 -0.4725 -0.2866  0.0294
 3372TP3     H121935   3.683   2.213   1.232 -0.7418  1.8434 -1.3789
 3372TP3     H221936   3.786   2.312   1.280 -0.6122  0.5574  1.0492
 3373TP3      O21937   2.202   1.291   1.358 -0.8533  0.1793 -0.0839
 3373TP3     H121938   2.205   1.244   1.274 -0.5292  0.0553 -0.0015
 3373TP3     H221939   2.109   1.288   1.383 -0.9192  0.0492 -0.3435
 3374TP3      O21940   4.150   4.307   9.715 -0.2217 -0.3261 -0.7247
 3374TP3     H121941   4.119   4.223   9.680  2.0418 -0.5272 -2.3289
 3374TP3     H221942   4.236   4.288   9.750 -1.2965  0.5175  2.5366
 3375TP3      O21943   0.094   3.184   3.071  0.1659  0.1466 -0.0685
 3375TP3     H121944   0.044   3.196   3.152 -0.7059  0.6881 -0.6758
 3375TP3     H221945   0.094   3.090   3.056 -0.1378  0.0939  0.2622
 3376TP3      O21946   3.015   4.392   8.975 -0.5847 -0.2079  0.4982
 3376TP3     H121947   3.039   4.456   9.041  3.0586 -0.2726 -0.6517
 3376TP3     H221948   3.053   4.310   9.006  0.2615 -0.4502 -1.0926
 3377TP3      O21949   2.384   0.250   9.608  0.2010 -0.0225 -0.3758
 3377TP3     H121950   2.479   0.244   9.616  0.4056 -0.8034 -3.0717
 3377TP3     H221951   2.363   0.194   9.534 -2.4510 -0.4288  0.6417
 3378TP3      O21952   3.231   5.298   2.109  0.1674  0.3936  0.2992
 3378TP3     H121953   3.220   5.282   2.203 -1.8400 -0.0305  0.0136
 3378TP3     H221954   3.142   5.299   2.074  1.0128 -2.7986 -2.1493
 3379TP3      O21955   0.252   0.098   2.673 -0.3397 -0.2758 -0.3981
 3379TP3     H121956   0.194   0.162   2.715  0.7855  0.4599  0.0588
 3379TP3     H221957   0.338   0.113   2.714  0.1637 -1.3880 -1.0239
 3380TP3      O21958   2.054   3.380   8.549  1.1085  0.4087 -0.2659
 3380TP3     H121959   2.100   3.395   8.632  1.7922 -1.0188 -0.3854
 3380TP3     H221960   2.090   3.447   8.490  1.1643  0.9435  0.3640
 3381TP3      O21961   2.255   0.944   1.328 -0.6611 -0.4245  0.0966
 3381TP3     H121962   2.170   0.903   1.340 -1.2760  1.1090  1.1279
 3381TP3     H221963   2.307   0.914   1.403 -1.1479  0.7513  0.9145
 3382TP3      O21964   2.732   3.685   2.523  0.5599 -0.4611 -0.6616
 3382TP3     H121965   2.698   3.689   2.612 -0.5096 -0.7925 -1.0403
 3382TP3     H221966   2.826   3.669   2.533  0.6555  0.7323  0.4135
 3383TP3      O21967   1.093   0.484   1.134 -0.5459 -0.8033  0.4171
 3383TP3     H121968   1.073   0.485   1.227 -0.5292 -0.0011  0.4194
 3383TP3     H221969   1.118   0.394   1.116 -1.3872 -1.1622  1.0022
 3384TP3      O21970   1.799   0.816   0.021  0.3321 -0.3948 -0.5154
 3384TP3     H121971   1.767   0.900   0.053  1.1217  0.3707 -1.6737
 3384TP3     H221972   1.856   0.839  -0.052  1.3249 -1.8855 -0.2336
 3385TP3      O21973   4.699   2.736   7.181 -0.1211 -0.5942 -0.4826
 3385TP3     H121974   4.765   2.668   7.199  1.2672  0.4096 -1.7074
 3385TP3     H221975   4.664   2.757   7.267  1.3810 -0.9279  0.2375
 3386TP3      O21976   1.790   3.286   8.589 -0.2624  0.5652 -0.1698
 3386TP3     H121977   1.875   3.330   8.579 -0.5782  1.0061 -0.9294
 3386TP3     H221978   1.811   3.192   8.583  0.2916  0.6344  0.5812
 3387TP3      O21979   4.315   2.991   0.574 -0.6127 -0.4952  0.0710
 3387TP3     H121980   4.278   3.067   0.530 -1.5687 -0.0975  1.5343
 3387TP3     H221981   4.240   2.942   0.606  0.0584 -0.7707  1.2688
 3388TP3      O21982   1.239   3.259   0.608  0.1596  0.0923  0.5102
 3388TP3     H121983   1.154   3.303   0.607  0.6229  1.0382 -2.2510
 3388TP3     H221984   1.233   3.196   0.680 -2.3086  1.1979  1.3311
 3389TP3      O21985   1.514   2.254   1.632  0.6347 -0.0933  0.3877
 3389TP3     H121986   1.429   2.209   1.629  0.3251  0.5310 -0.4510
 3389TP3     H221987   1.572   2.193   1.678  0.0031 -0.9873  0.0097
 3390TP3      O21988   3.388   1.250   2.571  0.2139  0.0661  0.1454
 3390TP3     H121989   3.381   1.291   2.657 -0.7934  0.4461 -0.1020
 3390TP3     H221990   3.357   1.161   2.583  0.2197  0.0727  0.2055
 3391TP3      O21991   3.655   3.564   9.874 -0.3534  0.4592 -0.1975
 3391TP3     H121992   3.727   3.626   9.864 -1.1402  1.6871  1.6234
 3391TP3     H221993   3.591   3.592   9.808 -0.9766  2.0208  1.0265
 3392TP3      O21994   4.105   5.281   2.535  0.4505 -0.1000 -0.5051
 3392TP3     H121995   4.050   5.227   2.592  0.1675  0.4241 -0.2819
 3392TP3     H221996   4.194   5.258   2.559  0.3301  0.2441  0.2601
 3393TP3      O21997   4.694   2.344   7.036  0.3536 -0.3605 -0.3387
 3393TP3     H121998   4.731   2.353   6.948  1.3000  0.6906  0.1561
 3393TP3     H221999   4.728   2.420   7.084 -1.7162  0.1318  0.3898
 3394TP3      O22000   4.772   4.478   2.752  0.4432  0.2170  0.3525
 3394TP3     H122001   4.840   4.530   2.711  1.4383 -0.3838  1.2135
 3394TP3     H222002   4.745   4.416   2.683  0.6868  0.5266 -0.0233
 3395TP3      O22003   0.174   0.328   2.796 -0.8256  0.0455 -0.0482
 3395TP3     H122004   0.203   0.400   2.740  2.5105 -1.3841 -0.2568
 3395TP3     H222005   0.221   0.343   2.879  0.8673 -2.5538 -0.5078
 3396TP3      O22006   1.151   3.259   0.148 -0.4170 -0.1491  0.1747
 3396TP3     H122007   1.106   3.179   0.123  0.9497 -0.1858 -2.3770
 3396TP3     H222008   1.081   3.322   0.163 -1.4554 -1.4448  0.9300
 3397TP3      O22009   1.341   1.181   9.615 -0.2922 -0.2579  0.0528
 3397TP3     H122010   1.424   1.134   9.618 -0.0290  0.1976 -0.0792
 3397TP3     H222011   1.329   1.203   9.522 -0.4270 -0.0885  0.1088
 3398TP3      O22012   0.623   4.192   9.515  0.2047 -0.5319 -0.3435
 3398TP3     H122013   0.527   4.192   9.510  0.2133  1.0504 -0.6202
 3398TP3     H222014   0.645   4.276   9.554  1.4250 -1.5969  1.3311
 3399TP3      O22015   0.677   3.390   2.254  0.0048  0.2856 -0.2208
 3399TP3     H122016   0.734   3.380   2.330 -1.9188 -1.1528  1.0736
 3399TP3     H222017   0.688   3.481   2.228  2.1928  0.2691  0.5553
 3400TP3      O22018   4.865   2.867   0.313 -0.1122 -0.1319  0.2734
 3400TP3     H122019   4.849   2.901   0.224 -0.0566 -2.1734 -0.5364
 3400TP3     H222020   4.890   2.944   0.363 -1.0014  1.2079 -1.2780
 3401TP3      O22021   0.480   4.153   0.687 -0.1452 -0.6832 -0.4657
 3401TP3     H122022   0.451   4.239   0.719 -0.6377 -0.4348 -1.5384
 3401TP3     H222023   0.426   4.137   0.610  2.1517 -0.5063 -2.1666
 3402TP3      O22024   1.143   4.460   7.270 -0.0292  0.1181  0.3877
 3402TP3     H122025   1.101   4.429   7.190 -0.9397 -0.6846  1.1605
 3402TP3     H222026   1.236   4.440   7.258  0.0163  1.0875 -0.9640
 3403TP3      O22027   0.319   3.733   0.328  0.0174  0.1394 -0.7384
 3403TP3     H122028   0.362   3.789   0.392  0.3753  0.7433 -1.4927
 3403TP3     H222029   0.237   3.707   0.369 -0.1152  1.1577 -0.3540
 3404TP3      O22030   4.286   1.371   1.796  0.7253  0.1165  0.2796
 3404TP3     H122031   4.343   1.298   1.821 -1.3906 -2.0216 -1.0368
 3404TP3     H222032   4.225   1.380   1.868  1.2122  0.8499  0.6070
 3405TP3      O22033   1.081   3.841   9.619  0.1516 -0.2789 -0.0230
 3405TP3     H122034   1.109   3.854   9.528  1.4166 -0.4420  0.3321
 3405TP3     H222035   1.000   3.891   9.627 -1.3975 -2.3759 -1.9776
 3406TP3      O22036   3.749   2.655   0.826 -0.0350 -0.3215  0.3902
 3406TP3     H122037   3.681   2.646   0.759 -0.9467  0.1996  1.2284
 3406TP3     H222038   3.815   2.591   0.801 -0.0846  0.2667 -1.3383
 3407TP3      O22039   1.331   3.405   3.195  0.2286 -0.0293  0.2166
 3407TP3     H122040   1.284   3.322   3.182 -2.1630  1.6579 -2.5243
 3407TP3     H222041   1.412   3.394   3.145  2.2194 -2.3803  3.7142
 3408TP3      O22042   2.290   1.935   0.137  0.2107 -0.7955 -0.1029
 3408TP3     H122043   2.343   1.966   0.063 -1.2230  2.6796  0.2256
 3408TP3     H222044   2.354   1.921   0.207  1.1552 -0.3529 -0.8555
 3409TP3      O22045   3.935   3.016   0.460 -0.2544  0.1631  0.0978
 3409TP3     H122046   3.920   2.961   0.382  1.4259 -1.5168  0.9280
 3409TP3     H222047   4.009   3.071   0.436 -1.6127  1.7448 -0.5440
 3410TP3      O22048   4.468   4.028   7.839  0.1265  0.0810 -0.2119
 3410TP3     H122049   4.375   4.051   7.841 -0.2683 -1.1764 -2.5983
 3410TP3     H222050   4.471   3.947   7.789  2.3250 -0.9255  1.4908
 3411TP3      O22051   2.124   0.426   9.552  0.1261 -0.4331 -0.4717
 3411TP3     H122052   2.066   0.466   9.487  0.7993  0.7535 -0.3408
 3411TP3     H222053   2.072   0.424   9.632 -0.6779 -1.8212 -0.9918
 3412TP3      O22054   2.920   1.304   2.956 -0.3371  0.1847  0.1649
 3412TP3     H122055   2.971   1.331   2.880 -0.3460 -0.6545 -0.1428
 3412TP3     H222056   2.913   1.383   3.009 -1.5458  1.1551 -1.3904
 3413TP3      O22057   1.544   0.448   0.381  0.1892 -0.3652 -0.1857
 3413TP3     H122058   1.517   0.379   0.320  0.0419 -0.6033  0.1467
 3413TP3     H222059   1.591   0.402   0.450 -2.4526 -0.5156  1.5724
 3414TP3      O22060   0.881   2.371   9.157  0.6789 -0.2065 -0.0497
 3414TP3     H122061   0.896   2.448   9.212  0.6672 -0.8658  0.8978
 3414TP3     H222062   0.938   2.303   9.195 -2.0211 -1.7360  1.4517
 3415TP3      O22063   4.875   0.479   8.929 -0.4416 -0.0895  0.3282
 3415TP3     H122064   4.834   0.395   8.948 -2.0062  0.5115 -0.3087
 3415TP3     H222065   4.963   0.472   8.966 -0.8231 -1.7189  0.9535
 3416TP3      O22066   4.176   0.828   7.683  0.0298 -0.1718 -0.0220
 3416TP3     H122067   4.231   0.777   7.743 -1.8641 -1.4726  0.6572
 3416TP3     H222068   4.156   0.908   7.731 -0.6225 -0.7468  0.6685
 3417TP3      O22069   0.111   4.347   0.988  0.3834 -0.2244 -0.2452
 3417TP3     H122070   0.168   4.367   0.914 -0.1139  0.6246 -0.4114
 3417TP3     H222071   0.147   4.398   1.060 -0.6013  0.9265 -0.5430
 3418TP3      O22072   1.940   4.155   7.896 -0.1049 -0.4075  0.0450
 3418TP3     H122073   1.990   4.077   7.919  0.4952 -0.2007 -0.5339
 3418TP3     H222074   1.964   4.219   7.962  0.4395 -0.2953 -0.2559
 3419TP3      O22075   4.552   4.377   8.854 -0.3134  0.2836 -0.3427
 3419TP3     H122076   4.462   4.404   8.869 -0.3563  2.1964 -3.5894
 3419TP3     H222077   4.594   4.454   8.815  2.7571 -0.5546  1.1535
 3420TP3      O22078   4.640   3.798   7.156  0.5690  0.2946  0.5066
 3420TP3     H122079   4.645   3.744   7.077 -1.5535  0.3819  0.2821
 3420TP3     H222080   4.553   3.837   7.153  0.8954  1.2176  2.3114
 3421TP3      O22081   0.072   2.346   8.156  0.3754 -0.2872  0.1597
 3421TP3     H122082   0.076   2.397   8.075 -3.0008 -0.4612 -0.1748
 3421TP3     H222083   0.156   2.300   8.159  1.0563  0.6470 -2.6042
 3422TP3      O22084   1.017   2.523  10.095  0.4355  0.0003 -0.1240
 3422TP3     H122085   1.108   2.523  10.065  0.0380  0.3473 -1.3366
 3422TP3     H222086   0.965   2.507  10.016 -0.7336  2.8702  0.0003
 3423TP3      O22087   2.938   1.321   0.527 -0.1568  0.2446  0.4977
 3423TP3     H122088   2.921   1.409   0.560 -3.1935  0.3756 -1.1749
 3423TP3     H222089   2.869   1.267   0.566  0.0356 -0.8326 -0.6204
 3424TP3      O22090   4.572   4.410  10.042  0.6459  0.0853 -0.1432
 3424TP3     H122091   4.645   4.445   9.991  1.6732  1.6234  2.3122
 3424TP3     H222092   4.606   4.330  10.081  0.9209  0.5994  0.6903
 3425TP3      O22093   4.210   2.199   9.702 -0.4602  0.1261 -0.2815
 3425TP3     H122094   4.143   2.144   9.742  0.7029 -1.1859 -0.0601
 3425TP3     H222095   4.165   2.280   9.678 -1.8800 -0.3466  0.7498
 3426TP3      O22096   2.938   0.318   9.495  0.5632  0.1881  0.7627
 3426TP3     H122097   2.975   0.339   9.581  0.5205  0.3366  0.7450
 3426TP3     H222098   2.994   0.366   9.433  0.5595  0.1264  0.7121
 3427TP3      O22099   2.606   4.993   9.923 -0.1646  0.1697 -0.3501
 3427TP3     H122100   2.571   4.969  10.008 -2.2562 -1.1237 -1.5406
 3427TP3     H222101   2.695   5.023   9.941 -0.4837 -0.3601  2.2303
 3428TP3      O22102   3.518   3.657   1.024 -0.0494 -0.1724  0.6179
 3428TP3     H122103   3.538   3.652   1.118  0.0144 -0.9173  0.5661
 3428TP3     H222104   3.603   3.671   0.983  0.4039 -3.1275  0.4160
 3429TP3      O22105   1.489   1.903   9.655  0.2763 -0.1468 -0.1416
 3429TP3     H122106   1.568   1.945   9.689  0.0365  0.5098 -0.3839
 3429TP3     H222107   1.420   1.926   9.718  0.4326 -1.3930  0.5094
 3430TP3      O22108   4.767   0.872   2.406  0.3815  0.4139 -0.0326
 3430TP3     H122109   4.822   0.796   2.427 -0.9989 -0.0042  2.2229
 3430TP3     H222110   4.812   0.914   2.333  2.7416 -0.9186  0.5919
 3431TP3      O22111   2.957   2.540   9.755 -0.4480 -0.3703 -0.0421
 3431TP3     H122112   2.965   2.462   9.809 -0.1662  0.6214  1.3836
 3431TP3     H222113   2.873   2.579   9.780  0.3053  0.8194  0.6905
 3432TP3      O22114   1.596   2.315   8.817 -0.4385  0.2815  0.4687
 3432TP3     H122115   1.587   2.398   8.863 -0.3671 -0.2358  1.4229
 3432TP3     H222116   1.691   2.307   8.802 -0.5044  0.6559 -0.1533
 3433TP3      O22117   3.929   3.362   2.880 -0.3062 -0.6371  0.0690
 3433TP3     H122118   3.977   3.394   2.956  1.1414  1.7709 -1.7790
 3433TP3     H222119   3.844   3.406   2.886 -0.1765 -0.4119  0.2711
 3434TP3      O22120   0.212   5.091   9.871 -0.3322 -0.1416  0.0440
 3434TP3     H122121   0.257   5.039   9.805 -0.2279  0.3513 -0.2749
 3434TP3     H222122   0.154   5.149   9.822 -1.8996 -1.2953  0.4832
 3435TP3      O22123   4.989   5.091   8.689  0.5161 -0.1451 -0.1721
 3435TP3     H122124   5.040   5.124   8.615  0.1035 -0.7968 -0.7473
 3435TP3     H222125   4.910   5.055   8.650 -1.5972  3.1187  0.9340
 3436TP3      O22126   3.268   4.669   3.024  0.4960  0.0515 -1.2854
 3436TP3     H122127   3.194   4.609   3.015 -0.4203  1.0469 -0.3892
 3436TP3     H222128   3.260   4.705   3.112  0.8486  1.7583 -1.9359
 3437TP3      O22129   3.999   2.029   8.233 -0.1279 -0.2195  0.0412
 3437TP3     H122130   3.936   2.007   8.301  0.1950  1.3673  0.8695
 3437TP3     H222131   4.078   1.981   8.257  0.7022  2.0900  2.0720
 3438TP3      O22132   0.932   3.162   8.199  0.2437  0.7075  0.1568
 3438TP3     H122133   1.016   3.207   8.209  0.0821  1.1258 -0.3956
 3438TP3     H222134   0.867   3.229   8.219 -0.0541  1.1614 -2.2328
 3439TP3      O22135   2.425   0.455   8.991 -0.2580 -0.1159  0.2744
 3439TP3     H122136   2.507   0.431   8.947 -0.0905 -0.4506  0.7580
 3439TP3     H222137   2.423   0.399   9.069 -1.8550 -1.4587 -0.7079
 3440TP3      O22138   5.152   3.285   1.334 -0.0399 -0.1469  0.0479
 3440TP3     H122139   5.094   3.360   1.321  0.1787 -0.2485 -1.6173
 3440TP3     H222140   5.239   3.324   1.342 -0.4124  0.1006  3.7410
 3441TP3      O22141   2.477   4.477   7.563  0.1142 -0.0082  0.1662
 3441TP3     H122142   2.386   4.448   7.568  0.5387 -1.3393  0.6275
 3441TP3     H222143   2.515   4.423   7.494  0.7004  0.1132  0.3930
 3442TP3      O22144   2.211   4.350   9.831 -0.3498  0.3752 -0.3184
 3442TP3     H122145   2.215   4.396   9.915  0.8142 -1.6077  0.7610
 3442TP3     H222146   2.120   4.357   9.804 -0.5237  1.8822  0.6358
 3443TP3      O22147   3.264   4.633   8.368  0.0732 -0.5264  0.0563
 3443TP3     H122148   3.301   4.720   8.354 -1.2476  0.4646  2.3771
 3443TP3     H222149   3.326   4.590   8.427  0.9378 -1.3400 -1.4136
 3444TP3      O22150   1.329   0.066   9.795 -0.5058  0.0690 -0.2635
 3444TP3     H122151   1.332  -0.028   9.810 -0.1273  0.0127 -0.6734
 3444TP3     H222152   1.392   0.081   9.724 -1.2052  0.5111 -0.8009
 3445TP3      O22153   3.091   4.376  10.054  0.6789  0.5268  0.2434
 3445TP3     H122154   3.054   4.381   9.965  0.2719  0.1346  0.3881
 3445TP3     H222155   3.019   4.403  10.111  0.7098  0.0677  0.5053
 3446TP3      O22156   1.912   0.299   1.489  0.1048 -0.3896 -0.2303
 3446TP3     H122157   1.939   0.318   1.399 -1.9715 -1.4939 -1.1364
 3446TP3     H222158   1.962   0.222   1.513 -0.7583 -1.2767 -1.1916
 3447TP3      O22159   4.904   1.972   9.253 -0.7456 -0.2152 -0.6060
 3447TP3     H122160   4.953   1.908   9.203 -0.2063  1.1079 -1.8095
 3447TP3     H222161   4.822   1.982   9.206 -0.2825  0.9494 -1.1988
 3448TP3      O22162   0.864   5.278   0.362  0.0971 -0.0990  0.1622
 3448TP3     H122163   0.833   5.325   0.440 -0.7440  0.1954 -0.3510
 3448TP3     H222164   0.959   5.286   0.366  0.1009 -0.6112  1.4984
 3449TP3      O22165   3.114   1.135   1.895  0.6878  0.6536 -1.0359
 3449TP3     H122166   3.054   1.061   1.904  0.7452  0.9038  1.9918
 3449TP3     H222167   3.200   1.095   1.881  0.5049  0.1800 -0.8088
 3450TP3      O22168   4.359   4.956   0.657 -0.3017  0.1114  0.3574
 3450TP3     H122169   4.345   5.009   0.578 -0.2554  0.0099  0.2821
 3450TP3     H222170   4.448   4.976   0.684  0.0564 -0.6739 -0.2215
 3451TP3      O22171   1.482   4.768   7.551  0.4978  0.0733  0.0696
 3451TP3     H122172   1.426   4.844   7.570  0.2738 -0.0076 -0.2589
 3451TP3     H222173   1.448   4.734   7.469  0.5414 -0.4392  0.2619
 3452TP3      O22174   0.006   4.509  10.097 -0.1042  0.6135  0.4127
 3452TP3     H122175  -0.016   4.544  10.011  1.7391  0.9346  0.0509
 3452TP3     H222176  -0.078   4.477  10.132 -1.5490  3.9533  0.1368
 3453TP3      O22177   4.255   4.442   8.938  0.0589 -0.3309 -0.1140
 3453TP3     H122178   4.219   4.422   9.024 -0.6822  1.5687  0.0514
 3453TP3     H222179   4.179   4.454   8.882  0.5060 -0.0323 -0.6607
 3454TP3      O22180   5.110   1.626   3.314 -0.6306 -0.1425  0.1091
 3454TP3     H122181   5.157   1.601   3.393 -0.8993 -1.3734 -0.0996
 3454TP3     H222182   5.140   1.563   3.248 -0.4597  0.8169 -0.7508
 3455TP3      O22183   2.203   0.469   2.575 -0.4969 -0.6568  0.2423
 3455TP3     H122184   2.225   0.433   2.489  0.4125 -0.9402  0.5818
 3455TP3     H222185   2.117   0.433   2.595 -1.4137  0.6785 -1.2467
 3456TP3      O22186   1.132   0.789   0.032  0.1220 -0.4854 -1.0473
 3456TP3     H122187   1.137   0.779  -0.063  2.6281 -0.2393 -0.9784
 3456TP3     H222188   1.068   0.859   0.045 -1.2186 -1.4124 -2.4733
 3457TP3      O22189   5.095   3.705   1.803 -0.2208 -0.1167  0.0685
 3457TP3     H122190   5.117   3.751   1.884 -1.3504 -0.7435  0.7291
 3457TP3     H222191   5.029   3.760   1.761 -1.9185 -1.3473  1.0859
 3458TP3      O22192   0.329   4.661   0.064 -0.5031  0.3434 -0.2618
 3458TP3     H122193   0.351   4.741   0.112  1.9063 -0.1094 -0.5577
 3458TP3     H222194   0.383   4.593   0.105 -4.1442 -1.6675  1.5042
 3459TP3      O22195   2.107   1.092   7.107 -0.3908 -0.3605  0.2785
 3459TP3     H122196   2.110   1.035   7.184  0.0685  0.4969  0.9039
 3459TP3     H222197   2.183   1.065   7.055 -0.1811 -0.3385  0.5676
 3460TP3      O22198   3.202   1.949  10.042 -0.3536 -0.4695 -0.2215
 3460TP3     H122199   3.177   1.888  10.111  0.4341  1.0301  1.4304
 3460TP3     H222200   3.203   1.896   9.962 -1.4271 -2.1938  0.8871
 3461TP3      O22201   4.167   3.155   0.439  0.0789 -1.1152 -0.4153
 3461TP3     H122202   4.160   3.246   0.470 -1.7322 -0.8807 -1.4152
 3461TP3     H222203   4.135   3.158   0.349 -0.3480 -2.8102 -0.3437
 3462TP3      O22204   4.605   4.492   7.386  0.1781  0.4734 -0.0711
 3462TP3     H122205   4.551   4.414   7.372 -0.6771  1.4319 -2.4477
 3462TP3     H222206   4.596   4.542   7.305  1.5530  2.5389  0.9970
 3463TP3      O22207   4.080   3.066   7.682 -0.2585 -0.3892  0.0302
 3463TP3     H122208   4.044   3.027   7.762 -1.7818  0.7225 -0.1065
 3463TP3     H222209   4.068   3.160   7.694  2.7251  0.0655  0.0358
 3464TP3      O22210   0.164   1.378   8.001  0.2750  0.3283 -0.3130
 3464TP3     H122211   0.212   1.431   7.937  1.0578  0.4024  0.3188
 3464TP3     H222212   0.204   1.400   8.085 -0.2388 -0.3231  0.1120
 3465TP3      O22213   3.300   4.478   0.042  0.1109  0.3462  0.2442
 3465TP3     H122214   3.236   4.548   0.031 -0.0082  0.8018  3.3260
 3465TP3     H222215   3.258   4.401   0.004  0.1410  1.8382 -2.9541
 3466TP3      O22216   4.543   1.021   1.166  0.2773  0.3303  0.2633
 3466TP3     H122217   4.452   1.027   1.136 -0.0876 -0.1219  1.2564
 3466TP3     H222218   4.568   1.111   1.184 -0.0484  0.4335  0.2080
 3467TP3      O22219   0.278   0.046   8.115 -0.3527 -0.1586  0.5055
 3467TP3     H122220   0.252   0.017   8.027  0.5649 -2.2700  0.9007
 3467TP3     H222221   0.373   0.049   8.113 -0.3340  0.0633  1.3511
 3468TP3      O22222   5.014   4.890   1.434  0.8643 -0.1841 -0.1294
 3468TP3     H122223   4.948   4.901   1.366  0.5390 -1.2920 -0.0157
 3468TP3     H222224   5.044   4.978   1.454 -0.6598  0.3492 -0.1138
 3469TP3      O22225   0.863   0.903   2.857 -0.1819  0.7860  0.0891
 3469TP3     H122226   0.937   0.862   2.811  0.1752  1.0841  0.3971
 3469TP3     H222227   0.904   0.967   2.915 -0.6904  0.9984  0.2106
 3470TP3      O22228   2.299   3.375   0.238  0.3555 -0.3621 -0.0892
 3470TP3     H122229   2.312   3.364   0.332 -0.4433 -2.3713 -0.1996
 3470TP3     H222230   2.205   3.385   0.227  0.4609  0.0374 -0.6667
 3471TP3      O22231   0.410   2.311   0.468  0.5900  0.3149 -0.2546
 3471TP3     H122232   0.454   2.394   0.449  0.6024  0.0522 -1.3871
 3471TP3     H222233   0.317   2.333   0.469  0.6050  0.3804 -0.3297
 3472TP3      O22234   0.030   5.227   8.750  0.5909  0.0062 -0.0336
 3472TP3     H122235  -0.009   5.183   8.825  0.3845  1.4119  0.6943
 3472TP3     H222236   0.095   5.164   8.717  0.3777 -0.7971  1.0516
 3473TP3      O22237   3.126   3.681  10.070 -0.3918  0.0877 -0.0231
 3473TP3     H122238   3.161   3.593  10.084  0.5663  0.3328 -0.8163
 3473TP3     H222239   3.033   3.674  10.092 -0.1236 -0.8914  0.8474
 3474TP3      O22240   2.179   3.958   8.988 -0.4871  0.0517 -0.0301
 3474TP3     H122241   2.266   3.935   9.020 -0.8572 -0.5315  0.5895
 3474TP3     H222242   2.193   3.996   8.902  0.2316 -1.6024 -0.6442
 3475TP3      O22243   4.425   2.603  10.034  0.6790 -0.4665  0.1339
 3475TP3     H122244   4.421   2.556   9.951 -0.6308 -0.2926  0.0963
 3475TP3     H222245   4.448   2.535  10.099  3.6151 -0.2655 -0.6114
 3476TP3      O22246   1.197   4.311   2.791 -0.2261 -0.0441  0.1022
 3476TP3     H122247   1.123   4.261   2.826  0.2800 -0.2698  0.8745
 3476TP3     H222248   1.268   4.295   2.853  0.4012  0.3729 -0.4937
 3477TP3      O22249   2.761   3.496   9.740 -0.2186  0.1008  0.4111
 3477TP3     H122250   2.823   3.466   9.674 -0.3401  0.1212  0.2875
 3477TP3     H222251   2.737   3.417   9.789  0.8240  0.2819  1.2296
 3478TP3      O22252   1.623   0.445   9.050 -0.4180 -0.2956  0.2138
 3478TP3     H122253   1.718   0.438   9.040 -0.5052 -0.4486 -0.5167
 3478TP3     H222254   1.592   0.355   9.045 -0.4619 -0.4014  2.0021
 3479TP3      O22255   1.492   2.875   1.617 -0.2820 -0.4033 -0.2707
 3479TP3     H122256   1.442   2.907   1.692 -1.5131 -2.1834 -0.3187
 3479TP3     H222257   1.436   2.894   1.542  0.1952 -0.2063 -0.5808
 3480TP3      O22258   2.618   4.048   2.748  0.3244 -0.0133  0.2463
 3480TP3     H122259   2.625   4.071   2.841 -2.3336  0.1709  0.4436
 3480TP3     H222260   2.704   4.012   2.725  0.3274 -2.2082  3.3784
 3481TP3      O22261   1.666   1.471   9.098  0.1205  0.0068  0.1960
 3481TP3     H122262   1.747   1.511   9.067 -0.0243 -0.4247 -0.7719
 3481TP3     H222263   1.624   1.538   9.151  0.4541  0.7034 -0.4225
 3482TP3      O22264   4.366   3.292   9.248  0.3540  0.5089 -0.0061
 3482TP3     H122265   4.332   3.290   9.338 -0.2052  0.8208 -0.2035
 3482TP3     H222266   4.346   3.381   9.217  1.5496  0.7691 -0.0607
 3483TP3      O22267   0.747   4.662   0.377  0.2169 -0.6518 -0.5515
 3483TP3     H122268   0.826   4.710   0.402  0.4504  0.2230 -2.8330
 3483TP3     H222269   0.675   4.716   0.409  0.5201 -0.3992 -0.2946
 3484TP3      O22270   1.800   2.923   7.993 -0.2779  0.2479 -0.1426
 3484TP3     H122271   1.769   2.834   7.983 -1.8974  0.9402 -1.6198
 3484TP3     H222272   1.864   2.934   7.923 -0.5448  0.4309 -0.3605
 3485TP3      O22273   2.754   4.364   1.327 -0.1661  0.6059 -0.2130
 3485TP3     H122274   2.809   4.332   1.399 -1.0198 -1.8652 -0.6170
 3485TP3     H222275   2.681   4.408   1.371 -0.6130 -0.7622  0.4491
 3486TP3      O22276   0.842   3.694   0.102 -0.2535 -0.7644  0.4936
 3486TP3     H122277   0.931   3.718   0.076 -0.5395 -1.5207 -1.2887
 3486TP3     H222278   0.796   3.778   0.111  0.0559 -0.4456 -0.8075
 3487TP3      O22279   0.067   3.198   0.504  0.2119  0.5851 -0.1812
 3487TP3     H122280   0.029   3.122   0.548  0.9345  1.5959  2.2780
 3487TP3     H222281   0.068   3.174   0.411 -2.1716 -1.2757  0.2087
 3488TP3      O22282   1.757   4.687   1.730  0.6977 -0.3958  0.3544
 3488TP3     H122283   1.783   4.679   1.639 -0.3969 -0.5677  0.0571
 3488TP3     H222284   1.733   4.598   1.756 -0.5251 -0.0672  0.3465
 3489TP3      O22285   4.592   2.784   9.635  0.2133  0.0718 -0.8011
 3489TP3     H122286   4.640   2.713   9.678  1.4687  0.2443 -1.8794
 3489TP3     H222287   4.516   2.799   9.691 -0.6486 -2.8446 -1.0768
 3490TP3      O22288   3.621   2.292   7.009 -0.5994  0.2546  0.9391
 3490TP3     H122289   3.603   2.198   7.007 -0.4371  0.2424 -0.8566
 3490TP3     H222290   3.692   2.302   7.072  0.6328 -1.0537 -0.2185
 3491TP3      O22291   5.110   0.670   0.511 -0.3526 -0.1171  0.2510
 3491TP3     H122292   5.172   0.611   0.467 -0.3518  1.4556 -1.8854
 3491TP3     H222293   5.162   0.712   0.580  0.1100 -1.2163  0.5877
 3492TP3      O22294   2.926   5.078   1.335  0.5907  0.3088  0.3402
 3492TP3     H122295   2.882   5.143   1.280 -1.0033 -1.0271  0.0041
 3492TP3     H222296   2.875   5.077   1.416  0.5020 -0.6367  0.2783
 3493TP3      O22297   0.687   1.673   1.258  0.0685 -0.3366  0.0115
 3493TP3     H122298   0.650   1.707   1.340  3.3552  0.9908  1.0184
 3493TP3     H222299   0.705   1.581   1.277 -0.3298 -0.3522  0.3418
 3494TP3      O22300   2.795   5.302   2.201 -0.0119  0.1548  0.2055
 3494TP3     H122301   2.840   5.370   2.251 -0.5040  1.0618 -0.5708
 3494TP3     H222302   2.845   5.296   2.119 -1.0927  0.9088 -0.5106
 3495TP3      O22303   3.140   2.669   8.185 -0.6485  0.5676  0.0817
 3495TP3     H122304   3.225   2.666   8.141 -1.8864 -3.0544 -2.3293
 3495TP3     H222305   3.089   2.733   8.134 -0.5579 -0.0536 -0.7903
 3496TP3      O22306   3.462   3.239   0.942 -0.0993 -0.5773 -0.2103
 3496TP3     H122307   3.426   3.315   0.988  2.0548  1.3526 -1.5460
 3496TP3     H222308   3.465   3.267   0.850 -1.1624 -3.0599 -1.0174
 3497TP3      O22309   2.116   4.702   2.259 -0.6735  0.3498 -0.4788
 3497TP3     H122310   2.142   4.610   2.265 -0.1703  0.6474  2.9450
 3497TP3     H222311   2.132   4.725   2.168 -0.7041 -2.9069 -1.3945
 3498TP3      O22312   1.193   3.478   0.372 -0.5129  0.8148  0.1316
 3498TP3     H122313   1.202   3.542   0.302 -0.9388  0.9470  0.1967
 3498TP3     H222314   1.110   3.434   0.354  1.3579 -2.1327 -1.8958
 3499TP3      O22315   2.162   1.039   9.089 -0.6151  0.5031  0.0100
 3499TP3     H122316   2.166   0.982   9.013  0.2955  2.9206 -1.8307
 3499TP3     H222317   2.071   1.067   9.094 -0.6355  0.4855 -0.3045
 3500TP3      O22318   5.183   3.894   7.683  0.8719  0.3769  0.1065
 3500TP3     H122319   5.243   3.821   7.695 -0.4146 -0.5981  0.7688
 3500TP3     H222320   5.101   3.865   7.725  0.0758  1.8374 -0.3925
 3501TP3      O22321   4.288   4.854   9.973 -0.3642 -0.2582 -0.4592
 3501TP3     H122322   4.243   4.777   9.938  0.8271 -1.4461  0.5250
 3501TP3     H222323   4.344   4.884   9.902 -1.1790 -0.0079 -1.0035
 3502TP3      O22324   1.843   0.131   1.767  0.2038  0.3741  0.1788
 3502TP3     H122325   1.931   0.137   1.804 -0.3666 -1.6951  1.9576
 3502TP3     H222326   1.846   0.055   1.709  0.1662  1.6146 -1.4991
 3503TP3      O22327   0.215   3.737   1.417 -0.1892  0.1707 -0.2068
 3503TP3     H122328   0.298   3.688   1.420  0.7887  1.6915 -1.2919
 3503TP3     H222329   0.196   3.758   1.508 -1.0133 -2.8269  0.3482
 3504TP3      O22330   3.139   4.826   1.530 -0.2098 -0.2357 -0.2112
 3504TP3     H122331   3.054   4.832   1.487 -0.1202  0.2956 -0.3217
 3504TP3     H222332   3.119   4.799   1.619 -0.6750  2.0757  0.4067
 3505TP3      O22333   2.975   3.594   1.245  0.2872 -0.0133  0.4439
 3505TP3     H122334   2.995   3.535   1.318  2.0232  0.2666  0.2094
 3505TP3     H222335   3.020   3.675   1.267 -1.1679  0.8802  0.2082
 3506TP3      O22336   0.540   0.814   0.507 -0.5376 -0.1336 -0.1215
 3506TP3     H122337   0.453   0.847   0.529 -0.8012 -1.8968  1.6045
 3506TP3     H222338   0.600   0.886   0.528 -1.2029 -0.3284  2.5084
 3507TP3      O22339   2.299   2.350   0.470  0.6672  0.5112  0.0111
 3507TP3     H122340   2.346   2.426   0.435  1.0000 -1.0518 -3.0528
 3507TP3     H222341   2.359   2.277   0.457 -1.0897 -0.8713 -0.3993
 3508TP3      O22342   3.612   4.922   8.068  0.1410  0.0443 -0.1352
 3508TP3     H122343   3.587   4.878   7.988  0.7815  0.1038 -0.3738
 3508TP3     H222344   3.701   4.953   8.051 -0.0887  0.9146  0.2390
 3509TP3      O22345   0.799   1.459   1.716 -0.7181  0.1107 -0.6959
 3509TP3     H122346   0.793   1.515   1.794 -0.0472 -1.0144  0.1932
 3509TP3     H222347   0.724   1.401   1.723 -0.8119  0.1939 -1.0393
 3510TP3      O22348   2.426   5.176   9.054 -0.2393  0.2116 -1.0465
 3510TP3     H122349   2.488   5.238   9.093 -0.0594 -0.8388  0.3945
 3510TP3     H222350   2.359   5.165   9.122 -1.2202  0.2132 -2.0084
 3511TP3      O22351   1.511   3.494  10.072  0.2015 -0.1219 -0.1667
 3511TP3     H122352   1.484   3.451   9.991  0.8458  0.2715 -0.5973
 3511TP3     H222353   1.459   3.451  10.141  1.5856 -2.3124 -0.4502
 3512TP3      O22354   1.794   1.979   0.623  0.1914 -0.0526 -0.7232
 3512TP3     H122355   1.866   2.026   0.666 -0.9880  0.3319  0.8900
 3512TP3     H222356   1.788   1.896   0.672 -2.7632  1.4153  1.5398
 3513TP3      O22357   2.242   0.609   0.121 -0.5849 -0.0209 -0.1075
 3513TP3     H122358   2.286   0.562   0.050  2.0677 -0.2572  1.5990
 3513TP3     H222359   2.186   0.543   0.161 -1.0893 -0.2378 -1.1435
 3514TP3      O22360   5.148   1.548   7.757 -0.1225  0.2317  0.3721
 3514TP3     H122361   5.207   1.483   7.796  0.6738  1.3984  1.1318
 3514TP3     H222362   5.138   1.519   7.666  0.6337 -0.6766  0.5639
 3515TP3      O22363   4.039   0.096   0.582 -0.3594 -0.1173 -0.0405
 3515TP3     H122364   3.999   0.027   0.635 -0.8518  1.1935  1.3172
 3515TP3     H222365   4.090   0.048   0.516 -1.5370 -1.7840  0.2072
 3516TP3      O22366   1.619   4.059   8.901 -0.0681  0.0697  0.4761
 3516TP3     H122367   1.551   4.080   8.965 -1.6997 -0.4274 -1.0659
 3516TP3     H222368   1.694   4.113   8.927 -2.3938  3.7908 -0.2583
 3517TP3      O22369   1.186   0.312   0.316 -0.5059  0.3374  0.3364
 3517TP3     H122370   1.205   0.350   0.402 -0.2864  1.3701 -0.1695
 3517TP3     H222371   1.091   0.303   0.314 -0.3654 -1.7840  1.5728
 3518TP3      O22372   4.948   4.432   8.729  0.3940 -0.2186  0.4284
 3518TP3     H122373   4.983   4.496   8.666 -0.0391  1.5522  1.9340
 3518TP3     H222374   4.856   4.456   8.739 -0.1848 -2.0989 -0.1836
 3519TP3      O22375   2.982   4.918   0.168 -0.5408  0.6806 -0.0736
 3519TP3     H122376   3.063   4.873   0.190 -0.9675 -0.1720 -0.2248
 3519TP3     H222377   2.968   4.980   0.240 -1.9544 -2.1170  2.1781
 3520TP3      O22378   1.114   4.519   8.781  0.1077 -0.0947 -0.1879
 3520TP3     H122379   1.034   4.472   8.805  1.0951 -1.9984 -0.5430
 3520TP3     H222380   1.118   4.511   8.685  1.6675 -1.6094 -0.0145
 3521TP3      O22381   0.019   1.335   9.694  0.1111  0.7985 -0.2259
 3521TP3     H122382  -0.076   1.329   9.683  0.0898  1.1907 -0.2430
 3521TP3     H222383   0.041   1.261   9.751 -0.1225  0.3361 -0.7342
 3522TP3      O22384   1.320   4.079   1.101  0.3272 -0.1445 -0.3223
 3522TP3     H122385   1.253   4.140   1.069  0.3841 -0.0610 -0.2810
 3522TP3     H222386   1.402   4.111   1.064  0.3418 -0.2586 -0.3904
 3523TP3      O22387   0.157   0.186   2.342  0.2530  0.5942 -0.2604
 3523TP3     H122388   0.127   0.119   2.404  0.2084 -0.1949 -1.1254
 3523TP3     H222389   0.232   0.228   2.386 -0.8197  1.1860  1.0333
 3524TP3      O22390   0.430   0.341   8.240  0.0502  0.2309 -0.4916
 3524TP3     H122391   0.476   0.258   8.255 -0.4648  0.1665  0.7361
 3524TP3     H222392   0.433   0.352   8.145  0.9669 -0.7112 -0.5865
 3525TP3      O22393   0.519   3.031   2.440  0.5731 -0.0788 -0.0552
 3525TP3     H122394   0.467   3.106   2.468  0.0834  0.1947 -1.6473
 3525TP3     H222395   0.462   2.984   2.379  1.6949 -0.5121 -0.7771
 3526TP3      O22396   5.218   4.739   9.229 -0.3931  0.2948 -0.4589
 3526TP3     H122397   5.201   4.724   9.136  0.6585 -2.5649 -0.2334
 3526TP3     H222398   5.313   4.741   9.236 -0.4535 -0.4782  0.6978
 3527TP3      O22399   3.320   1.430   7.998  0.4392 -0.3609  0.6489
 3527TP3     H122400   3.336   1.343   8.035  1.7605 -1.2325 -1.8610
 3527TP3     H222401   3.397   1.448   7.943 -0.1770  2.0593  0.4901
 3528TP3      O22402   3.087   2.788   0.841 -0.5734  0.1646  0.0693
 3528TP3     H122403   3.055   2.811   0.753  0.9823  1.5077 -0.1643
 3528TP3     H222404   3.049   2.855   0.898 -0.4746  0.0999  0.2111
 3529TP3      O22405   1.115   4.565   9.838  0.2656 -0.1874  0.0286
 3529TP3     H122406   1.081   4.491   9.788  2.4715 -0.0667 -1.7461
 3529TP3     H222407   1.087   4.549   9.927  1.0942 -3.4375 -0.2482
 3530TP3      O22408   0.178   2.514   2.345 -0.3042  0.6490  0.5204
 3530TP3     H122409   0.239   2.533   2.274  1.8491  0.1602  2.1640
 3530TP3     H222410   0.143   2.427   2.324 -0.0218  0.7037 -0.1764
 3531TP3      O22411   1.503   2.643   1.119  0.2382  0.2532 -0.6013
 3531TP3     H122412   1.523   2.679   1.032  2.3790  0.5824  0.0008
 3531TP3     H222413   1.408   2.638   1.121  0.0440  2.6681 -1.9973
 3532TP3      O22414   1.821   0.673   9.491  0.4803 -0.2887 -0.5550
 3532TP3     H122415   1.763   0.602   9.465 -0.4277  0.8228 -1.6055
 3532TP3     H222416   1.901   0.660   9.440  0.0211 -0.1140 -1.3217
 3533TP3      O22417   3.916   3.525   0.266 -0.0903  0.3620 -0.0973
 3533TP3     H122418   3.910   3.550   0.174 -0.4221 -0.2830 -0.2526
 3533TP3     H222419   3.833   3.481   0.284 -0.3157  1.1175  0.7016
 3534TP3      O22420   1.151   2.925   1.045 -0.5321  0.1235  0.3801
 3534TP3     H122421   1.229   2.974   1.071 -0.3736 -0.8876  1.8591
 3534TP3     H222422   1.180   2.870   0.972  0.4809 -1.2116  1.7658
 3535TP3      O22423   1.798   3.022   8.867 -0.1658 -0.8595  0.0320
 3535TP3     H122424   1.874   3.035   8.811  0.2181  0.1017  0.7631
 3535TP3     H222425   1.723   3.042   8.812  0.3302  4.0897  0.8827
 3536TP3      O22426   3.218   1.065   8.850 -0.1191 -0.3143  0.1283
 3536TP3     H122427   3.191   1.103   8.767 -2.9183  0.4077  1.3285
 3536TP3     H222428   3.264   1.136   8.895 -0.0757 -0.1988 -0.0971
 3537TP3      O22429   3.779   2.148   9.043 -0.5143  0.2140  0.4710
 3537TP3     H122430   3.771   2.238   9.012  0.7604 -0.3542 -1.5782
 3537TP3     H222431   3.760   2.154   9.137  1.2213  2.8937  0.7067
 3538TP3      O22432   2.258   1.677   2.717 -0.2663  0.4864  0.1208
 3538TP3     H122433   2.195   1.699   2.649 -0.6298 -0.2950  0.2034
 3538TP3     H222434   2.336   1.728   2.694 -0.5086  0.5126 -0.6754
 3539TP3      O22435   3.407   3.042   2.733 -0.2938  0.9278  0.3894
 3539TP3     H122436   3.347   3.017   2.664  0.9195  0.5381 -0.5500
 3539TP3     H222437   3.437   2.959   2.771  1.4237  1.0118 -0.7199
 3540TP3      O22438   3.362   0.872   7.576  0.7330  0.9335  0.0922
 3540TP3     H122439   3.284   0.820   7.590  1.0880  0.7818  1.6685
 3540TP3     H222440   3.357   0.901   7.485 -1.0980  0.8517  0.1586
 3541TP3      O22441   2.575   3.453   1.498 -0.0469  0.2330 -0.5213
 3541TP3     H122442   2.572   3.519   1.567  0.2093 -0.6067  0.3019
 3541TP3     H222443   2.650   3.478   1.445 -2.1525  2.7919 -2.4668
 3542TP3      O22444   2.374   1.430   2.150 -0.2551  0.4832 -0.1899
 3542TP3     H122445   2.435   1.502   2.137 -0.4321  0.8581  0.9935
 3542TP3     H222446   2.426   1.360   2.189 -0.7925  1.1729  1.7840
 3543TP3      O22447   3.390   0.595   0.663  0.3435 -0.7750  0.1662
 3543TP3     H122448   3.430   0.618   0.746  1.3134 -0.2538 -0.4377
 3543TP3     H222449   3.388   0.499   0.663 -3.7809 -0.7962  2.7168
 3544TP3      O22450   1.142   4.701   9.125  0.3864  0.1809  0.3221
 3544TP3     H122451   1.186   4.703   9.210  0.0426  2.2833  0.4727
 3544TP3     H222452   1.055   4.666   9.143  1.1389 -1.6852  0.4214
 3545TP3      O22453   2.232   2.255   0.149  0.1607  0.1406 -0.6959
 3545TP3     H122454   2.281   2.189   0.101 -0.6758 -1.0918  0.1158
 3545TP3     H222455   2.156   2.273   0.095  0.0781 -0.0061 -0.6281
 3546TP3      O22456   2.498   5.272   9.515  0.0570  0.0086  0.5513
 3546TP3     H122457   2.539   5.188   9.492  0.4659  0.4870 -0.5175
 3546TP3     H222458   2.430   5.249   9.578  0.3654 -1.0964  0.4920
 3547TP3      O22459   2.344   1.484   8.846  0.7912  0.0431  0.1214
 3547TP3     H122460   2.307   1.399   8.822 -1.8172  1.3843 -0.7189
 3547TP3     H222461   2.412   1.500   8.780  0.6211 -0.9137 -0.2937
 3548TP3      O22462   4.606   1.496   2.255  0.0634 -0.5520  0.0532
 3548TP3     H122463   4.680   1.523   2.309  0.4191 -3.7258  1.2023
 3548TP3     H222464   4.529   1.528   2.302  0.5579  1.0303 -0.1572
 3549TP3      O22465   0.130   4.925   1.488 -0.2943 -0.0236 -0.0284
 3549TP3     H122466   0.076   4.922   1.567  0.2116 -2.2401  0.2447
 3549TP3     H222467   0.216   4.952   1.520 -0.6827  1.5058 -0.1939
 3550TP3      O22468   3.422   5.051   9.471 -0.7454 -0.3576 -0.8178
 3550TP3     H122469   3.438   5.007   9.554 -2.8101 -0.6083 -0.5173
 3550TP3     H222470   3.411   4.980   9.408  1.4138 -0.1591 -1.4451
 3551TP3      O22471   3.384   3.817   1.453  0.4380 -0.7898  0.9872
 3551TP3     H122472   3.373   3.912   1.453 -0.6265 -0.9079  0.4068
 3551TP3     H222473   3.419   3.798   1.540  0.5197  0.1169  1.1618
 3552TP3      O22474   0.467   2.985   0.426 -0.4927  0.1432 -0.0330
 3552TP3     H122475   0.489   3.076   0.446 -1.4665  0.4122 -0.1726
 3552TP3     H222476   0.472   2.941   0.511 -2.7989  0.9111  0.5322
 3553TP3      O22477   4.808   4.054   8.468 -0.0509  0.1618 -0.0779
 3553TP3     H122478   4.851   4.098   8.541 -1.2041  1.3717 -0.1121
 3553TP3     H222479   4.720   4.034   8.500 -0.8484  1.4313 -1.3885
 3554TP3      O22480   1.521   3.526   0.765 -0.7670 -0.5102 -0.4563
 3554TP3     H122481   1.503   3.514   0.858 -3.1928  1.4242 -0.6388
 3554TP3     H222482   1.443   3.493   0.721  0.0855 -0.7897 -1.7878
 3555TP3      O22483   2.370   2.264   9.553  0.2687  0.1029 -0.3486
 3555TP3     H122484   2.360   2.274   9.458  1.4286 -0.2534 -0.5135
 3555TP3     H222485   2.393   2.351   9.585 -1.8557  0.6189 -0.1477
 3556TP3      O22486   3.171   3.834   8.611  0.1319 -0.6697  0.2277
 3556TP3     H122487   3.143   3.743   8.622 -0.1049 -0.5670  0.4833
 3556TP3     H222488   3.089   3.883   8.605  0.1695  0.1081  4.7623
 3557TP3      O22489   5.207   3.552   0.686 -0.2990  0.1560  0.2750
 3557TP3     H122490   5.196   3.632   0.737  0.6260 -0.2980  1.1923
 3557TP3     H222491   5.133   3.553   0.625 -0.2750  1.7226  0.2505
 3558TP3      O22492   3.868   2.627   1.683  0.2326 -0.5942  0.1930
 3558TP3     H122493   3.881   2.722   1.683  1.4003 -0.7311 -1.0378
 3558TP3     H222494   3.774   2.615   1.695  0.2003  0.6959  1.3030
 3559TP3      O22495   0.340   3.789   0.742 -0.0551 -0.1981  0.0193
 3559TP3     H122496   0.268   3.778   0.804 -0.6952 -0.6622 -0.8033
 3559TP3     H222497   0.401   3.719   0.762 -0.4531 -0.5896 -0.1314
 3560TP3      O22498   2.353   0.235   0.982 -0.4139  0.2894  0.6732
 3560TP3     H122499   2.449   0.243   0.982 -0.3991  0.1557  1.4835
 3560TP3     H222500   2.324   0.306   0.924  0.1927  0.0304  0.0382
 3561TP3      O22501   1.066   4.807   9.405  0.2308 -0.0740  0.2586
 3561TP3     H122502   1.141   4.759   9.441  0.1151 -0.0779  0.4968
 3561TP3     H222503   0.999   4.800   9.473 -0.4470 -1.2016 -0.5333
 3562TP3      O22504   4.911   3.683   1.017  0.0815 -0.2797 -0.3057
 3562TP3     H122505   4.819   3.686   0.993 -0.2829  0.1130  1.1035
 3562TP3     H222506   4.912   3.689   1.112  1.6182  0.8597 -0.3679
 3563TP3      O22507   4.502   3.275   0.495 -0.0599 -0.4410  0.0020
 3563TP3     H122508   4.418   3.293   0.538 -1.2729 -1.9832 -1.6519
 3563TP3     H222509   4.478   3.231   0.414  2.3860 -1.0611 -0.4131
 3564TP3      O22510   2.714   3.861   7.691  0.1377 -0.5572 -0.6213
 3564TP3     H122511   2.692   3.813   7.612  0.3645  0.7315 -1.4750
 3564TP3     H222512   2.665   3.943   7.684  1.0650  0.0569  0.0140
 3565TP3      O22513   1.191   3.610   2.478 -0.6123  0.3240  0.0686
 3565TP3     H122514   1.282   3.620   2.506 -0.4392  0.2141 -0.4468
 3565TP3     H222515   1.181   3.673   2.406 -0.8472  0.0930 -0.1004
 3566TP3      O22516   2.305   2.543  10.102  0.1917  0.1885  0.0999
 3566TP3     H122517   2.358   2.503  10.171 -1.1036  0.0373  1.0278
 3566TP3     H222518   2.223   2.568  10.146 -1.5356 -1.8403 -1.8138
 3567TP3      O22519   3.919   3.147   1.105 -0.3079  0.0942  0.0928
 3567TP3     H122520   3.835   3.122   1.066 -0.2652  0.6270 -0.3528
 3567TP3     H222521   3.895   3.192   1.186 -0.4511  0.2190 -0.0177
 3568TP3      O22522   4.629   4.996   9.821 -0.0938 -0.2861  0.2501
 3568TP3     H122523   4.570   4.973   9.749 -1.6318 -0.5564  1.5810
 3568TP3     H222524   4.634   4.916   9.874 -0.1811  0.3745  1.2692
 3569TP3      O22525   1.366   0.066   8.779 -0.0126  0.2642 -0.5997
 3569TP3     H122526   1.415  -0.014   8.759 -1.1448 -0.5983  0.0549
 3569TP3     H222527   1.276   0.037   8.794 -0.1383  1.4583  1.1512
 3570TP3      O22528   3.004   3.311   1.856  0.4274  0.3639  0.3807
 3570TP3     H122529   2.945   3.342   1.787 -0.0204 -0.1586  0.5181
 3570TP3     H222530   2.980   3.362   1.933 -0.6747 -0.6831  0.7455
 3571TP3      O22531   5.129   1.600   9.821  0.4932  0.2039  0.1009
 3571TP3     H122532   5.180   1.632   9.747  0.6333 -1.9354 -0.7601
 3571TP3     H222533   5.073   1.532   9.783  1.4000 -1.7342  2.1587
 3572TP3      O22534   1.541   3.857   8.591  0.0476 -0.2719 -0.9139
 3572TP3     H122535   1.543   3.838   8.497  1.3717  0.0933 -0.9601
 3572TP3     H222536   1.503   3.777   8.630 -0.9298 -0.2475 -1.7838
 3573TP3      O22537   3.472   3.739   9.062  0.1177  0.0209 -0.7684
 3573TP3     H122538   3.480   3.775   9.150 -0.5323 -0.8386 -0.3469
 3573TP3     H222539   3.411   3.797   9.017 -0.8733 -0.5207 -0.1160
 3574TP3      O22540   4.468   3.220  10.093 -0.3741 -0.7250 -0.2697
 3574TP3     H122541   4.511   3.138  10.066 -0.7947 -0.1810 -2.7759
 3574TP3     H222542   4.501   3.285  10.031 -3.9313 -0.0592 -1.6064
 3575TP3      O22543   1.614   4.966   2.101 -0.2784  0.0625  0.0706
 3575TP3     H122544   1.691   5.020   2.085  0.2124 -0.6304  0.0524
 3575TP3     H222545   1.593   4.927   2.016  1.0287 -1.9170  0.6102
 3576TP3      O22546   1.258   4.920   9.616  0.4524  0.2410  0.0519
 3576TP3     H122547   1.297   4.840   9.652 -0.2369  0.8136  2.1685
 3576TP3     H222548   1.178   4.933   9.667 -2.0738 -0.3966 -3.5808
 3577TP3      O22549   4.810   2.942   0.057  0.3462  0.1288  0.6619
 3577TP3     H122550   4.888   2.921   0.005 -0.0908  0.7631 -0.2545
 3577TP3     H222551   4.738   2.902   0.010  0.0138  0.2305  1.0832
 3578TP3      O22552   1.964   2.219   9.174  0.3469 -0.5296 -0.5458
 3578TP3     H122553   1.953   2.149   9.238 -1.1553  1.0124  0.9456
 3578TP3     H222554   1.935   2.181   9.091 -0.2622 -1.7454  0.2097
 3579TP3      O22555   0.262   5.198   0.625  0.1519  0.2221  0.0246
 3579TP3     H122556   0.227   5.135   0.689  1.7514 -0.8939 -0.1820
 3579TP3     H222557   0.320   5.254   0.676 -0.2107  0.6830 -0.0608
 3580TP3      O22558   2.528   5.029   0.483 -0.8729 -0.6809 -0.2842
 3580TP3     H122559   2.539   5.042   0.389  0.4119  0.3589 -0.0057
 3580TP3     H222560   2.484   5.108   0.514 -0.2134 -0.4877  0.1754
 3581TP3      O22561   2.883   3.281   2.424  0.1565 -0.5078 -0.1103
 3581TP3     H122562   2.939   3.241   2.490  0.7404 -0.9052 -0.8374
 3581TP3     H222563   2.944   3.311   2.356 -0.3958  0.3494 -0.2210
 3582TP3      O22564   1.348   4.088   1.615 -0.1556  0.0581  0.2746
 3582TP3     H122565   1.325   4.114   1.704  2.0584  1.0120  0.5810
 3582TP3     H222566   1.347   4.170   1.566  0.2872 -0.2290 -0.2144
 3583TP3      O22567   4.420   0.544   0.815  0.7686 -0.5086  0.2862
 3583TP3     H122568   4.426   0.481   0.743  2.6118  0.1800 -0.1983
 3583TP3     H222569   4.365   0.500   0.881  0.2973 -1.7501 -0.9104
 3584TP3      O22570   2.497   0.772   7.997 -0.0272  0.2474  0.4205
 3584TP3     H122571   2.438   0.813   7.934 -1.7671  0.2600  2.0331
 3584TP3     H222572   2.474   0.680   7.994  0.5061  0.1160  0.3892
 3585TP3      O22573   4.412   2.956   2.519 -0.0752  0.2952  0.6810
 3585TP3     H122574   4.457   2.872   2.523 -0.8090 -0.0532  1.8508
 3585TP3     H222575   4.407   2.977   2.425 -0.3899 -1.2369  0.3492
 3586TP3      O22576   2.059   1.335   0.038 -0.6474  0.0243  0.6183
 3586TP3     H122577   2.055   1.246   0.002 -0.9462  0.7938 -1.2876
 3586TP3     H222578   2.048   1.323   0.132 -0.9612 -1.9386  0.3509
 3587TP3      O22579   5.111   4.431   1.459 -0.0676  0.4312 -0.1843
 3587TP3     H122580   5.045   4.500   1.456  0.6711  1.0857 -2.0269
 3587TP3     H222581   5.060   4.350   1.449 -0.7552  0.8254  0.0760
 3588TP3      O22582   4.494   1.976   1.936 -0.0124  0.0172 -0.6312
 3588TP3     H122583   4.408   1.973   1.978 -0.0178  0.0941 -0.6358
 3588TP3     H222584   4.481   1.934   1.851  0.2128 -0.9783 -0.1811
 3589TP3      O22585   2.664   2.452   9.260 -0.2138  0.0022 -0.3230
 3589TP3     H122586   2.739   2.501   9.226 -0.8358  1.9341  0.9991
 3589TP3     H222587   2.590   2.481   9.207 -0.2095 -1.3339 -1.1138
 3590TP3      O22588   0.001   0.055   0.799  0.0488  0.4915  0.0574
 3590TP3     H122589  -0.000   0.129   0.859 -0.1603  0.6592 -0.1532
 3590TP3     H222590   0.087   0.059   0.757  0.2337  0.3145  0.4186
 3591TP3      O22591   5.182   3.412   9.623 -0.2836  1.0346  0.4359
 3591TP3     H122592   5.224   3.498   9.628  1.6498  0.0276  2.1533
 3591TP3     H222593   5.110   3.417   9.687 -0.1143  1.3243  0.6037
 3592TP3      O22594   1.873   1.071   2.697  0.2995 -0.1280  0.0281
 3592TP3     H122595   1.860   0.979   2.721  2.4271 -0.8459 -1.3877
 3592TP3     H222596   1.920   1.110   2.770 -1.9384  0.2460  1.2991
 3593TP3      O22597   0.084   0.539   7.712 -0.1383 -0.4628  0.3681
 3593TP3     H122598   0.017   0.597   7.677 -1.7530 -1.8869  1.0399
 3593TP3     H222599   0.167   0.581   7.688 -1.2305  0.5195 -1.8248
 3594TP3      O22600   2.806   4.137   8.601 -0.7506  0.7448 -0.0660
 3594TP3     H122601   2.759   4.134   8.684  1.0345 -1.9943  0.9347
 3594TP3     H222602   2.860   4.216   8.607  1.1902 -0.7062  2.4854
 3595TP3      O22603   0.581   5.180   9.119 -0.0089  0.4795 -0.7193
 3595TP3     H122604   0.553   5.176   9.210  1.7369  0.7643 -0.1475
 3595TP3     H222605   0.566   5.093   9.084 -0.4660  0.3078 -0.0863
 3596TP3      O22606   2.166   1.035   0.685  0.1380  0.1626  0.4606
 3596TP3     H122607   2.130   0.949   0.709  0.5320 -0.1714 -0.1275
 3596TP3     H222608   2.100   1.074   0.628  0.5697 -0.3480 -0.4166
 3597TP3      O22609   2.187   5.095   9.215  0.4494  0.6870  0.3447
 3597TP3     H122610   2.104   5.078   9.259  0.2921 -0.0461 -0.2344
 3597TP3     H222611   2.253   5.055   9.271  0.2824  0.0684  0.0987
 3598TP3      O22612   4.233   4.090   0.752 -0.2877 -0.3687 -0.3451
 3598TP3     H122613   4.316   4.136   0.741 -0.0760 -0.3516  1.1564
 3598TP3     H222614   4.237   4.017   0.689  0.7709 -0.2483 -0.4217
 3599TP3      O22615   3.193   0.154   0.216 -0.2434  0.8150 -0.1057
 3599TP3     H122616   3.280   0.193   0.225 -0.2100  0.4290  1.4654
 3599TP3     H222617   3.209   0.071   0.171  0.2560  0.6008  0.4531
 3600TP3      O22618   3.064   2.188   0.195 -0.5872 -0.0857 -0.0405
 3600TP3     H122619   3.137   2.249   0.180  0.0892 -1.1997 -1.3732
 3600TP3     H222620   3.083   2.151   0.281 -0.5080  0.8939  0.3767
 3601TP3      O22621   0.205   2.392   9.055 -0.4757  0.0513 -0.1340
 3601TP3     H122622   0.157   2.353   9.128  0.9382  0.9666  1.3370
 3601TP3     H222623   0.294   2.357   9.063 -0.0489  0.9561 -0.8005
 3602TP3      O22624   4.374   5.280   9.822 -0.0473 -0.6047 -0.5112
 3602TP3     H122625   4.298   5.332   9.796 -0.1498 -0.5812 -0.1674
 3602TP3     H222626   4.362   5.196   9.779  0.2643 -0.2430 -1.3079
 3603TP3      O22627   5.262   5.020  10.053 -0.4964 -0.3651  0.3863
 3603TP3     H122628   5.226   5.008   9.965  0.1588 -2.4261  0.3839
 3603TP3     H222629   5.279   4.931  10.084  1.8101  0.4605  1.5453
 3604TP3      O22630   2.463   0.376   7.806 -0.3347  0.0736 -0.3536
 3604TP3     H122631   2.425   0.401   7.722 -0.2082 -0.7524 -0.6625
 3604TP3     H222632   2.555   0.355   7.786  0.7080  3.4357  0.6292
 3605TP3      O22633   2.976   2.258   9.923  0.0069  0.3152 -0.2521
 3605TP3     H122634   2.886   2.231   9.905 -0.0452  1.1429 -1.3148
 3605TP3     H222635   3.016   2.267   9.836  1.6675 -1.8360  0.2620
 3606TP3      O22636   1.668   5.028   9.623 -0.1928 -0.2158  0.6500
 3606TP3     H122637   1.723   5.066   9.692  0.0764  0.0862  0.2700
 3606TP3     H222638   1.688   4.935   9.624 -0.1621 -0.2070  0.9565
 3607TP3      O22639   2.057   4.590   3.257  0.0444 -0.0157  0.1942
 3607TP3     H122640   2.150   4.572   3.272 -0.2162 -1.0500  0.6455
 3607TP3     H222641   2.012   4.519   3.303 -1.0248  1.4619  1.4777
 3608TP3      O22642   2.098   3.504   9.032  0.3018 -0.0293  0.0567
 3608TP3     H122643   2.045   3.447   9.087 -0.2928  1.4722  1.0643
 3608TP3     H222644   2.098   3.588   9.077 -2.3822  2.0487 -3.5378
 3609TP3      O22645   0.890   3.049   0.956 -0.0173  0.0938  0.0344
 3609TP3     H122646   0.810   3.000   0.973  0.0574 -0.2521 -0.5813
 3609TP3     H222647   0.960   2.996   0.994  0.0509 -0.2297 -0.5307
 3610TP3      O22648   4.252   4.907   7.722  0.0478 -0.1359 -0.1409
 3610TP3     H122649   4.344   4.886   7.706 -0.0567  0.2531 -1.3287
 3610TP3     H222650   4.235   4.984   7.667 -0.7346  0.3887  0.7986
 3611TP3      O22651   4.440   0.996   0.225 -0.5668  0.2171 -0.0203
 3611TP3     H122652   4.460   0.902   0.223 -0.9584  0.0910  1.8975
 3611TP3     H222653   4.520   1.038   0.193 -0.1279 -0.7297 -0.1861
 3612TP3      O22654   2.145   2.473   1.168  0.6721 -0.3928  0.0477
 3612TP3     H122655   2.121   2.513   1.251  0.4544 -0.0743 -0.1689
 3612TP3     H222656   2.174   2.384   1.192  1.1354 -0.1196  0.5205
 3613TP3      O22657   3.589   1.919   9.930  0.0150  0.0400 -0.0612
 3613TP3     H122658   3.573   2.008   9.963 -0.9275  0.3956 -1.4271
 3613TP3     H222659   3.578   1.863  10.006  1.5003  1.1628  1.0228
 3614TP3      O22660   4.961   0.274   0.209 -0.1276 -0.4547  0.1669
 3614TP3     H122661   4.937   0.196   0.259  1.6906 -0.8595  0.4446
 3614TP3     H222662   4.975   0.241   0.120  0.3057 -0.3923  0.2099
 3615TP3      O22663   3.418   5.211   1.726 -0.2290 -0.2840 -0.5114
 3615TP3     H122664   3.362   5.184   1.654  0.1890 -2.5147 -0.0500
 3615TP3     H222665   3.497   5.158   1.716 -0.1270 -0.5651  1.5081
 3616TP3      O22666   4.676   1.156   9.443  0.0888 -0.0801 -0.0475
 3616TP3     H122667   4.601   1.097   9.445  2.1447 -2.7504  1.0727
 3616TP3     H222668   4.666   1.209   9.522 -0.0875 -1.1341  0.6492
 3617TP3      O22669   4.110   4.931   3.414  0.3739 -0.1122 -0.4556
 3617TP3     H122670   4.066   4.914   3.331 -0.9074  0.1381  0.1643
 3617TP3     H222671   4.040   4.937   3.478  1.4155 -1.1946  0.8095
 3618TP3      O22672   5.108   5.146   0.451 -0.1501 -0.1062 -0.5693
 3618TP3     H122673   5.180   5.192   0.409 -0.1945 -0.2760 -0.8353
 3618TP3     H222674   5.149   5.091   0.517 -0.0342 -0.2106 -0.7279
 3619TP3      O22675   3.893   4.719   9.225 -0.2700  0.4317  0.5392
 3619TP3     H122676   3.987   4.704   9.234 -0.3117  0.9156  2.0318
 3619TP3     H222677   3.856   4.631   9.216  0.2437  0.1745  0.8742
 3620TP3      O22678   2.888   1.137   0.767 -0.6727 -0.3158  0.5285
 3620TP3     H122679   2.801   1.157   0.733 -1.0781  0.8082  2.1702
 3620TP3     H222680   2.916   1.218   0.810  0.6989 -1.0431  1.0441
 3621TP3      O22681   3.974   1.740   7.053 -0.0426  0.2025  0.7366
 3621TP3     H122682   3.887   1.777   7.068  0.3332  1.4716 -0.1149
 3621TP3     H222683   3.959   1.668   6.992 -0.5231  0.3281  0.7013
 3622TP3      O22684   0.151   3.253   8.698 -0.3018  0.3763 -0.0144
 3622TP3     H122685   0.139   3.170   8.652 -0.7305  0.5969 -0.3116
 3622TP3     H222686   0.102   3.242   8.780 -1.2482  0.7075 -0.5225
 3623TP3      O22687   4.768   3.925   0.584  0.2374  0.5378  0.3106
 3623TP3     H122688   4.814   3.867   0.524 -0.5940 -0.6014  0.7534
 3623TP3     H222689   4.789   4.013   0.553 -1.0769 -0.0224 -2.3608
 3624TP3      O22690   1.681   4.535   0.297  0.2350 -0.1771 -0.3401
 3624TP3     H122691   1.683   4.593   0.222 -0.7950  0.1235 -0.1422
 3624TP3     H222692   1.678   4.593   0.373 -0.7263 -0.4875 -0.1403
 3625TP3      O22693   4.889   4.671  10.113 -0.3355  0.0299  0.0208
 3625TP3     H122694   4.833   4.624  10.052 -1.1255  1.5681 -0.4619
 3625TP3     H222695   4.929   4.740  10.061  1.3969 -0.5416  0.5522
 3626TP3      O22696   0.369   3.926   8.069 -0.7580  0.4158 -0.6661
 3626TP3     H122697   0.385   3.953   7.979 -1.3941 -0.9837 -1.2139
 3626TP3     H222698   0.399   3.835   8.073  1.5324  1.1885  1.1882
 3627TP3      O22699   2.637   2.211   0.813  0.6114 -0.4895  0.3427
 3627TP3     H122700   2.665   2.250   0.730 -1.9384  2.2572  0.6901
 3627TP3     H222701   2.685   2.261   0.880 -0.9762  0.5788  0.6990
 3628TP3      O22702   0.050   3.077   7.201  0.2266  0.5173  0.3740
 3628TP3     H122703   0.042   3.169   7.179 -0.5931  0.2665 -0.3764
 3628TP3     H222704  -0.015   3.063   7.271 -0.4117  0.2673 -0.2637
 3629TP3      O22705   2.397   5.241   0.564 -0.0698 -0.0284 -0.1347
 3629TP3     H122706   2.373   5.282   0.647 -0.4888  0.7661 -0.6459
 3629TP3     H222707   2.392   5.311   0.499  1.4363 -0.3613 -0.6401
 3630TP3      O22708   1.372   2.813   9.922  0.1580  0.3350 -0.2163
 3630TP3     H122709   1.399   2.833  10.012 -0.7318 -1.9711  0.5937
 3630TP3     H222710   1.415   2.730   9.902 -1.9126 -0.6098 -0.8719
 3631TP3      O22711   4.876   4.702   9.699 -0.3446  0.4384 -0.2304
 3631TP3     H122712   4.943   4.662   9.643  0.2307  3.2762 -1.6429
 3631TP3     H222713   4.814   4.742   9.637 -2.1123 -0.1329  1.1219
 3632TP3      O22714   0.124   3.996   8.938  0.2975 -0.9523  0.5617
 3632TP3     H122715   0.118   3.940   8.860  2.5238 -0.4850  0.0314
 3632TP3     H222716   0.207   4.041   8.928 -0.6437  1.1255  1.8943
 3633TP3      O22717   3.370   4.368   0.653 -0.3194  0.5511  0.6516
 3633TP3     H122718   3.452   4.337   0.692 -0.2107 -0.9761 -0.7155
 3633TP3     H222719   3.311   4.380   0.728  0.1590 -1.4648  1.3822
 3634TP3      O22720   5.260   2.666   2.094 -0.0033  0.5316  0.2747
 3634TP3     H122721   5.270   2.742   2.037 -3.2400  0.9673  0.2132
 3634TP3     H222722   5.238   2.594   2.035  0.4452  0.1370  0.5881
 3635TP3      O22723   2.238   3.631   9.608  0.3634  0.0840  0.4924
 3635TP3     H122724   2.297   3.610   9.681  1.8519 -1.5114 -1.1085
 3635TP3     H222725   2.294   3.626   9.531 -1.7584 -0.7791 -1.0129
 3636TP3      O22726   3.714   4.066   9.550  0.2137 -0.1660  0.4172
 3636TP3     H122727   3.663   4.083   9.630  1.3720 -0.0814  1.1481
 3636TP3     H222728   3.746   4.152   9.524  2.2631 -0.5676  1.5232
 3637TP3      O22729   1.562   1.397   1.945  0.6096  0.9832  0.2613
 3637TP3     H122730   1.598   1.342   2.015  1.1988 -0.7445 -1.3794
 3637TP3     H222731   1.603   1.483   1.958  0.9767  0.5911  1.8133
 3638TP3      O22732   2.876   1.859   0.400 -0.0108 -0.8458  0.2666
 3638TP3     H122733   2.951   1.848   0.342 -0.2561 -1.0134 -0.0218
 3638TP3     H222734   2.905   1.822   0.483  0.6342  0.1521  0.4960
 3639TP3      O22735   3.934   2.343   8.038  0.4606  0.1076 -0.0032
 3639TP3     H122736   3.994   2.372   8.106  0.0656 -1.7757  1.1972
 3639TP3     H222737   3.984   2.280   7.987 -0.3312 -1.1169  0.7117
 3640TP3      O22738   1.463   4.817   8.159 -0.2895  0.2524  0.3273
 3640TP3     H122739   1.368   4.824   8.149 -0.0741  3.1288 -0.3366
 3640TP3     H222740   1.480   4.843   8.249 -0.0245  1.4121 -0.0453
 3641TP3      O22741   1.602   4.934   0.057 -0.7918 -0.4687  0.4170
 3641TP3     H122742   1.566   4.845   0.062 -3.6600  0.5965 -0.1604
 3641TP3     H222743   1.674   4.934   0.120 -0.7399 -3.1823  0.4418
 3642TP3      O22744   0.741   0.985   1.671  0.1958  0.3531 -0.0710
 3642TP3     H122745   0.750   0.895   1.702  0.6719 -0.0559 -1.3491
 3642TP3     H222746   0.651   0.989   1.636  0.8097 -0.2219 -1.7954
 3643TP3      O22747   1.678   3.167   9.130 -0.6056 -0.1481  0.0716
 3643TP3     H122748   1.601   3.194   9.080 -0.4408 -2.1360 -1.3332
 3643TP3     H222749   1.738   3.133   9.064 -0.7225 -3.6346  1.6330
 3644TP3      O22750   5.096   3.335   8.666  0.0966  0.5456  0.0717
 3644TP3     H122751   5.083   3.419   8.711  2.5221  0.5855  0.7650
 3644TP3     H222752   5.167   3.352   8.604  0.1805 -0.8461 -0.2239
 3645TP3      O22753   3.312   4.263   1.160 -0.1520  0.4924 -0.5856
 3645TP3     H122754   3.403   4.244   1.137 -0.1640  0.1623 -0.3604
 3645TP3     H222755   3.285   4.189   1.214 -0.5678  0.5733 -0.6862
 3646TP3      O22756   3.699   3.337   9.236 -0.0753  0.1119  0.4621
 3646TP3     H122757   3.687   3.424   9.198 -1.8643 -0.6684 -0.8550
 3646TP3     H222758   3.738   3.353   9.322 -1.6634  2.3263  0.8240
 3647TP3      O22759   0.743   2.344   0.119 -0.3484 -0.1167  0.2046
 3647TP3     H122760   0.674   2.278   0.114  0.0621 -0.6540  1.3395
 3647TP3     H222761   0.744   2.370   0.212  1.9570 -1.2100  0.5380
 3648TP3      O22762   0.276   2.845   0.275 -0.2302  0.0542 -0.4393
 3648TP3     H122763   0.351   2.876   0.325 -0.1513 -0.2899 -0.3459
 3648TP3     H222764   0.309   2.837   0.185 -0.2308  0.1631 -0.4499
 3649TP3      O22765   0.959   3.931   1.819  0.0137  0.6944  0.5392
 3649TP3     H122766   0.931   3.886   1.739 -1.1066  1.6541  0.3803
 3649TP3     H222767   1.054   3.919   1.820 -0.0764 -0.2029 -0.4008
 3650TP3      O22768   5.051   0.787   7.959  0.2086  0.2497  0.4100
 3650TP3     H122769   5.139   0.748   7.952 -0.4495 -1.3389  0.6664
 3650TP3     H222770   5.004   0.728   8.017 -0.4810  2.1332  1.7987
 3651TP3      O22771   5.233   3.963   9.463  0.1431  0.4856  0.2378
 3651TP3     H122772   5.182   3.886   9.438  2.0817 -1.2900  1.5740
 3651TP3     H222773   5.197   3.990   9.548  2.1480 -1.4972  1.7601
 3652TP3      O22774   5.168   2.898   0.123 -0.5728  0.3414  0.0839
 3652TP3     H122775   5.190   2.991   0.132  0.0232  0.2733 -0.6789
 3652TP3     H222776   5.121   2.892   0.040 -1.8265  0.1773  0.7925
 3653TP3      O22777   1.243   3.632   9.547 -0.3813  0.2430 -0.3423
 3653TP3     H122778   1.221   3.718   9.584  2.4887  0.5596  0.7185
 3653TP3     H222779   1.285   3.585   9.618 -2.5465 -2.3495 -0.7151
 3654TP3      O22780   3.053   1.423   2.745  0.0025 -0.0435  0.1290
 3654TP3     H122781   3.147   1.423   2.727 -0.2191 -0.8330 -1.0128
 3654TP3     H222782   3.012   1.446   2.662 -0.8990 -1.2371  0.2308
 3655TP3      O22783   5.075   2.735   8.153 -0.1353 -0.3314 -0.4716
 3655TP3     H122784   5.150   2.705   8.101  0.2036  0.3781 -0.3983
 3655TP3     H222785   5.095   2.826   8.172 -0.6534 -0.3617  0.2122
 3656TP3      O22786   2.851   4.823   7.373  0.5626  0.2548 -0.4998
 3656TP3     H122787   2.928   4.777   7.406 -0.2816 -0.7845  0.0593
 3656TP3     H222788   2.835   4.785   7.286 -1.8327 -2.6442  1.1126
 3657TP3      O22789   4.043   4.089   9.639 -0.1687 -0.4066 -0.1561
 3657TP3     H122790   3.963   4.037   9.639  0.4974 -1.4746  0.9519
 3657TP3     H222791   4.114   4.024   9.646  0.7328  0.5706 -0.0398
 3658TP3      O22792   4.359   3.542   9.158 -0.4312 -0.4324  0.2220
 3658TP3     H122793   4.303   3.553   9.081  0.3971  0.3405 -0.2901
 3658TP3     H222794   4.336   3.615   9.215 -0.0221 -0.1649  0.0506
 3659TP3      O22795   4.027   2.265   8.450  0.0450  0.0996 -0.0949
 3659TP3     H122796   4.045   2.179   8.411 -1.8554  0.0841 -0.9355
 3659TP3     H222797   3.980   2.245   8.531  0.1486  0.3391  0.0257
 3660TP3      O22798   1.958   4.283  10.058  0.8456  0.2885  0.0749
 3660TP3     H122799   1.939   4.357  10.002 -1.5260 -0.8765 -0.7324
 3660TP3     H222800   1.991   4.215   9.999  0.6590 -0.1364  0.4509
 3661TP3      O22801   2.305   4.229   1.005 -0.5345 -0.0322 -0.1167
 3661TP3     H122802   2.373   4.170   1.039  0.8387  1.3637 -0.3677
 3661TP3     H222803   2.316   4.227   0.910  0.5312  1.7544 -0.0594
 3662TP3      O22804   4.958   3.342   2.756  0.1011  0.0578 -0.3326
 3662TP3     H122805   5.037   3.331   2.810  0.0349  1.3946  0.0560
 3662TP3     H222806   4.925   3.253   2.744 -0.5896 -0.1936  2.9259
 3663TP3      O22807   3.200   0.915   0.901  0.0397  0.3470  0.1008
 3663TP3     H122808   3.164   0.938   0.815  0.8075  0.5194 -0.1795
 3663TP3     H222809   3.208   0.999   0.946  0.8774  0.4079 -0.1512
 3664TP3      O22810   3.326   4.659   0.992  0.0916  0.1153 -0.3603
 3664TP3     H122811   3.326   4.666   1.087  0.2826  1.4449 -0.4516
 3664TP3     H222812   3.272   4.582   0.974 -3.5133  2.2833  0.6597
 3665TP3      O22813   4.758   4.951   8.028  0.1391 -0.1786  0.8415
 3665TP3     H122814   4.665   4.971   8.039  0.5998  2.2530  0.4851
 3665TP3     H222815   4.804   5.010   8.087  1.5700  0.0083 -0.4095
 3666TP3      O22816   3.362   0.826   8.700 -0.5376 -0.2387 -0.3356
 3666TP3     H122817   3.363   0.835   8.795 -0.9280 -1.1545 -0.2330
 3666TP3     H222818   3.357   0.915   8.667 -0.0821  0.0994  0.4988
 3667TP3      O22819   1.784   3.388  10.002 -0.4414  0.3418 -0.2594
 3667TP3     H122820   1.740   3.361   9.922 -1.6098 -1.7426  1.0229
 3667TP3     H222821   1.730   3.458  10.037  0.4053  1.6777 -1.5731
 3668TP3      O22822   4.586   4.920   8.885 -0.2906 -0.0616 -0.2406
 3668TP3     H122823   4.650   4.991   8.874  1.1010 -1.3974 -0.8755
 3668TP3     H222824   4.535   4.921   8.805  1.2196 -1.2142 -1.2561
 3669TP3      O22825   4.532   2.953  10.005 -0.2335  0.0870 -0.0013
 3669TP3     H122826   4.533   2.879   9.944 -0.0251  0.3876 -0.3692
 3669TP3     H222827   4.589   3.018   9.963  1.4826 -0.4414  1.4330
 3670TP3      O22828   4.140   1.653   9.324 -0.5413 -0.3538 -0.1899
 3670TP3     H122829   4.081   1.724   9.299 -0.7812 -0.0621  1.1510
 3670TP3     H222830   4.096   1.610   9.398 -0.0490 -1.4358 -0.5101
 3671TP3      O22831   0.080   2.759   2.311  0.3510  0.4370 -1.1135
 3671TP3     H122832   0.036   2.736   2.229 -1.4639 -1.5294  0.3487
 3671TP3     H222833   0.103   2.675   2.351 -1.2832  1.2520  1.6788
 3672TP3      O22834   2.469   4.821   1.466  0.3624 -0.3288  0.1026
 3672TP3     H122835   2.440   4.732   1.448  0.2789  0.0420 -1.6693
 3672TP3     H222836   2.390   4.874   1.460  0.0823 -0.3197  2.8784
 3673TP3      O22837   1.864   1.913   1.863  0.2765  0.0555 -0.4016
 3673TP3     H122838   1.838   1.821   1.866  2.2217 -0.6285 -2.6226
 3673TP3     H222839   1.786   1.960   1.834 -0.5725 -0.9561  0.2451
 3674TP3      O22840   1.418   0.490   1.450 -0.0083  0.4671  0.3154
 3674TP3     H122841   1.329   0.475   1.418  0.4988 -1.2470 -0.3378
 3674TP3     H222842   1.406   0.517   1.541 -1.1721 -0.4932  0.4732
 3675TP3      O22843   1.944   4.840   0.023  0.7085  0.0392 -0.2219
 3675TP3     H122844   1.899   4.816   0.104  3.9080  1.0031  1.9150
 3675TP3     H222845   1.972   4.756  -0.014  1.7215 -0.2481  1.1651
 3676TP3      O22846   4.934   4.767   0.720  0.0829 -0.0709  0.3580
 3676TP3     H122847   4.929   4.863   0.710  1.9657  0.2225  1.9309
 3676TP3     H222848   4.976   4.737   0.639 -2.0160  0.2214 -0.8857
 3677TP3      O22849   1.185   2.583   8.024 -0.0022  0.1815  0.0443
 3677TP3     H122850   1.265   2.532   8.012  0.7182  0.7960  2.0480
 3677TP3     H222851   1.146   2.548   8.105 -0.6192  1.3691  0.2717
 3678TP3      O22852   2.763   1.970   9.690  0.4572  0.3664 -0.5881
 3678TP3     H122853   2.737   1.890   9.644  1.4950  0.0766 -0.6663
 3678TP3     H222854   2.796   1.939   9.775 -1.9981  0.9360  0.6304
 3679TP3      O22855   0.046   4.656   0.421 -0.0797  0.0889 -0.0033
 3679TP3     H122856   0.027   4.600   0.497 -1.1338  0.5255  0.0668
 3679TP3     H222857   0.110   4.720   0.454 -0.2171  0.0165  0.4093
 3680TP3      O22858   4.748   1.614   7.701  0.1508 -0.2631  0.9383
 3680TP3     H122859   4.766   1.648   7.613  0.4800 -1.4753  0.5262
 3680TP3     H222860   4.782   1.525   7.700  3.4822  0.8690  3.4316
 3681TP3      O22861   3.296   4.021   9.694 -0.1074  0.4040  0.2861
 3681TP3     H122862   3.215   3.980   9.664  0.1769  0.0101  0.0466
 3681TP3     H222863   3.332   3.961   9.759  0.0803  0.4861  0.2611
 3682TP3      O22864   2.069   4.742   1.227 -0.2615 -0.4107 -0.0222
 3682TP3     H122865   2.094   4.778   1.142 -0.6454 -0.6906 -0.2552
 3682TP3     H222866   2.108   4.802   1.291 -1.4168  0.7798 -0.4095
 3683TP3      O22867   4.546   0.313   7.511 -0.1541 -0.0163 -0.4391
 3683TP3     H122868   4.522   0.233   7.464  1.9405 -0.6085 -0.5259
 3683TP3     H222869   4.506   0.384   7.460 -2.2353 -0.9855 -0.2285
 3684TP3      O22870   1.496   1.281  10.047  0.1133 -0.3984 -0.2231
 3684TP3     H122871   1.476   1.202   9.997 -0.5495  0.1779 -0.8941
 3684TP3     H222872   1.535   1.341   9.983 -0.8058  0.3739 -0.0731
 3685TP3      O22873   0.337   4.305   3.143  0.0587 -0.0445 -0.2385
 3685TP3     H122874   0.369   4.283   3.231 -1.5275 -1.2890  0.0576
 3685TP3     H222875   0.338   4.400   3.140  0.6524 -0.0024  0.9355
 3686TP3      O22876   2.564   5.012   7.737  0.0225  0.0950  0.4842
 3686TP3     H122877   2.603   4.925   7.739 -0.7481 -0.3382 -1.5341
 3686TP3     H222878   2.626   5.067   7.785  1.6384 -1.1263 -0.1351
 3687TP3      O22879   2.846   2.622   0.401  0.2990 -0.0408 -0.1423
 3687TP3     H122880   2.829   2.528   0.396 -0.4684  0.0681  0.4543
 3687TP3     H222881   2.772   2.663   0.357 -0.6661  0.3930  1.8188
 3688TP3      O22882   4.610   1.912   2.213 -0.0476  0.1183  0.0480
 3688TP3     H122883   4.559   1.990   2.234  0.4429  0.1049  1.3140
 3688TP3     H222884   4.605   1.905   2.118 -0.1955  1.6221 -0.0647
 3689TP3      O22885   2.342   4.118   7.847  0.4420  0.2137  0.3626
 3689TP3     H122886   2.401   4.046   7.870  0.2175 -0.1197 -0.0846
 3689TP3     H222887   2.355   4.183   7.916  0.4378 -0.3824  0.9402
 3690TP3      O22888   2.679   0.059   9.748 -0.0815 -0.0361  0.7377
 3690TP3     H122889   2.656   0.101   9.666  2.9558  0.9482  0.3126
 3690TP3     H222890   2.615  -0.012   9.758 -0.0963 -0.6062 -2.8093
 3691TP3      O22891   4.280   1.395   9.560  0.1663 -0.4653  0.5203
 3691TP3     H122892   4.334   1.438   9.626  1.6907 -0.5479 -0.6448
 3691TP3     H222893   4.235   1.325   9.607  1.8936 -1.0630  1.3075
 3692TP3      O22894   5.076   3.745   9.363  0.3373  0.6863 -0.2684
 3692TP3     H122895   4.999   3.779   9.316 -0.7422  0.3860  1.2423
 3692TP3     H222896   5.103   3.669   9.313 -1.0581  0.1258 -0.1938
 3693TP3      O22897   4.090   3.728   9.715  0.2787 -0.2995  0.0786
 3693TP3     H122898   4.123   3.641   9.691  1.5945 -0.0654  0.9807
 3693TP3     H222899   4.169   3.780   9.730 -0.4885  1.1808 -0.8587
 3694TP3      O22900   0.215   1.558   0.572  0.8578 -0.6004  0.3320
 3694TP3     H122901   0.250   1.646   0.590  0.1054 -0.0196 -1.0387
 3694TP3     H222902   0.251   1.535   0.487  1.1184 -1.6799  0.7206
 3695TP3      O22903   3.242   1.976   0.969  0.4680  0.2746 -0.2995
 3695TP3     H122904   3.217   1.912   0.902 -0.3158  2.9016 -2.6062
 3695TP3     H222905   3.164   2.030   0.981  0.7845  0.1922  2.3861
 3696TP3      O22906   2.059   3.701   2.238  0.4832 -0.2196 -0.6337
 3696TP3     H122907   2.055   3.638   2.166  3.3329  0.9820 -1.9261
 3696TP3     H222908   2.028   3.783   2.200  0.7659  0.1183 -0.1430
 3697TP3      O22909   5.129   3.815   8.306  0.1573  0.5619  0.4894
 3697TP3     H122910   5.172   3.737   8.270 -1.8945 -0.2543 -0.2432
 3697TP3     H222911   5.179   3.889   8.269  0.5538 -0.3448 -0.8390
 3698TP3      O22912   1.579   4.109   8.629 -0.0872  0.1899  0.2015
 3698TP3     H122913   1.561   4.017   8.611 -2.4729  0.4200  1.1634
 3698TP3     H222914   1.606   4.112   8.721 -0.1846  0.4700  0.2241
 3699TP3      O22915   5.089   0.616   9.514  0.2881  0.5659  0.5330
 3699TP3     H122916   5.038   0.537   9.496 -0.6505  1.3204 -0.2144
 3699TP3     H222917   5.108   0.613   9.608 -0.6639 -0.0109  0.7065
 3700TP3      O22918   2.370   3.563   0.501  0.1334  0.6432  0.0565
 3700TP3     H122919   2.459   3.558   0.536  0.7323  2.2819 -1.1651
 3700TP3     H222920   2.315   3.579   0.578  1.1400  1.6961  0.5691
 3701TP3      O22921   3.269   3.898   9.969  0.1641  0.0172 -0.1819
 3701TP3     H122922   3.237   3.978  10.011  1.1563  0.1351  0.3717
 3701TP3     H222923   3.218   3.828  10.011  1.2809  0.1149  1.4092
 3702TP3      O22924   1.870   2.668   1.437 -0.0295  0.1207  0.5116
 3702TP3     H122925   1.793   2.616   1.413 -2.0958  2.8400  0.9456
 3702TP3     H222926   1.897   2.633   1.522 -1.9763  0.3252  1.2597
 3703TP3      O22927   3.573   4.320   8.342  0.2319 -0.0764  0.1818
 3703TP3     H122928   3.562   4.411   8.316  2.0659  0.9033  2.6240
 3703TP3     H222929   3.662   4.298   8.317  0.4881 -0.5502  1.4827
 3704TP3      O22930   1.805   4.691   8.425 -0.3957 -0.2512 -0.2788
 3704TP3     H122931   1.769   4.779   8.438 -0.4466 -0.4445  0.9477
 3704TP3     H222932   1.856   4.697   8.345  2.0591  1.6762  1.3703
 3705TP3      O22933   2.791   0.320   8.110 -0.4469 -0.0157 -0.2637
 3705TP3     H122934   2.751   0.352   8.029 -0.4652  0.7011  0.0223
 3705TP3     H222935   2.720   0.277   8.157 -0.1260 -1.6687 -1.2514
 3706TP3      O22936   4.657   5.126   9.483  0.5970 -0.0324  0.4063
 3706TP3     H122937   4.572   5.157   9.514 -0.2482 -3.5384  1.8993
 3706TP3     H222938   4.679   5.184   9.411 -2.8353  1.2782  0.3289
 3707TP3      O22939   1.464   3.568   2.120 -0.3154  0.0809 -0.0576
 3707TP3     H122940   1.401   3.499   2.100  0.7359 -0.5433 -1.2520
 3707TP3     H222941   1.548   3.524   2.124  0.3433  1.2514 -0.6005
 3708TP3      O22942   4.112   2.307   7.404  0.8951  0.3490 -0.2730
 3708TP3     H122943   4.154   2.389   7.428 -0.4540  0.7703  0.7353
 3708TP3     H222944   4.178   2.240   7.418  1.4868  1.0894  0.4735
 3709TP3      O22945   2.381   0.686   1.196 -0.2072  1.0698 -0.3047
 3709TP3     H122946   2.417   0.597   1.193  1.9902  1.9723 -2.2289
 3709TP3     H222947   2.381   0.708   1.289  0.1797 -0.5779  0.1105
 3710TP3      O22948   1.690   0.491   9.334  0.9546  0.6513 -0.2146
 3710TP3     H122949   1.747   0.416   9.349 -1.2952 -0.5990  2.6642
 3710TP3     H222950   1.661   0.481   9.244  1.3211 -1.5265 -0.1203
 3711TP3      O22951   1.094   0.623   0.239  0.3873  0.1253  0.2253
 3711TP3     H122952   1.104   0.684   0.166 -3.0370  0.0685 -0.3669
 3711TP3     H222953   1.154   0.551   0.218  2.2334  1.8500 -0.5789
 3712TP3      O22954   0.936   0.441   9.015  0.6790 -0.1756  0.1062
 3712TP3     H122955   0.958   0.348   9.003  1.0519  0.0625 -1.1727
 3712TP3     H222956   0.849   0.450   8.977  0.8983  0.1083 -0.3436
 3713TP3      O22957   1.337   4.278   0.289 -0.1570  0.1943 -0.3746
 3713TP3     H122958   1.429   4.261   0.270  0.1938 -0.6034  1.8862
 3713TP3     H222959   1.334   4.372   0.309  0.1831  0.1882 -0.2881
 3714TP3      O22960   3.587   0.078   7.855  0.9345 -0.3793 -0.1264
 3714TP3     H122961   3.616   0.154   7.905 -0.1393 -0.4289  0.6016
 3714TP3     H222962   3.521   0.036   7.911  0.6355 -1.1553 -1.0349
 3715TP3      O22963   2.676   0.404   9.823 -0.2348  0.0181 -0.4172
 3715TP3     H122964   2.689   0.485   9.773  0.0671  0.0323 -0.3189
 3715TP3     H222965   2.710   0.335   9.766  0.6643  0.1019  0.0165
 3716TP3      O22966   0.567   4.425   9.257  0.6237  0.2793 -0.3000
 3716TP3     H122967   0.650   4.447   9.299  0.0905  0.3827  0.7394
 3716TP3     H222968   0.529   4.509   9.234  0.9448  0.2192 -1.0617
 3717TP3      O22969   0.924   0.503  10.103 -0.0881  0.2944 -0.1605
 3717TP3     H122970   0.942   0.500  10.009 -2.1626  1.3485 -0.6247
 3717TP3     H222971   1.006   0.476  10.144  1.3533  1.4004 -2.2343
 3718TP3      O22972   1.805   4.563   1.150 -0.3490 -0.0711 -0.5717
 3718TP3     H122973   1.774   4.650   1.174 -0.6907  0.0012 -1.2619
 3718TP3     H222974   1.815   4.566   1.055  3.4063  0.4440 -0.2671
 3719TP3      O22975   1.536   1.532   8.709 -0.4004  0.3255 -0.4112
 3719TP3     H122976   1.500   1.526   8.620 -2.5685  0.7270  0.4040
 3719TP3     H222977   1.588   1.453   8.720 -0.5821  0.0005 -1.8374
 3720TP3      O22978   1.205   1.346   7.682  0.3377  0.3520 -0.0693
 3720TP3     H122979   1.290   1.380   7.710  1.7248 -2.3309 -0.8651
 3720TP3     H222980   1.180   1.403   7.609  2.0302  0.4702 -0.5861
 3721TP3      O22981   0.741   3.063   2.259 -0.1948  0.4450  0.7672
 3721TP3     H122982   0.743   3.064   2.354  0.3142  0.9439  0.7504
 3721TP3     H222983   0.675   3.129   2.236 -0.3713  0.2712  0.7757
 3722TP3      O22984   1.660   4.755   2.732  0.1021 -0.2799  0.0070
 3722TP3     H122985   1.700   4.832   2.773  0.3599 -0.2079 -0.3732
 3722TP3     H222986   1.678   4.766   2.639  0.3712 -0.9306 -0.0221
 3723TP3      O22987   2.549   1.516   7.442  0.6937  0.8409  0.0965
 3723TP3     H122988   2.528   1.466   7.362  1.3401  2.3100 -1.0072
 3723TP3     H222989   2.520   1.605   7.423 -1.9007  0.6187  2.6512
 3724TP3      O22990   4.462   4.976   1.660 -0.4609 -0.1479  0.7025
 3724TP3     H122991   4.403   5.049   1.642  0.3653  0.2648 -0.4255
 3724TP3     H222992   4.503   4.958   1.575  1.0756 -0.3776  1.4837
 3725TP3      O22993   3.423   4.602   9.708 -0.1067 -0.1243 -0.0895
 3725TP3     H122994   3.460   4.522   9.670 -1.6873 -0.1091 -1.7690
 3725TP3     H222995   3.329   4.583   9.714 -0.6652  2.0061 -1.6051
 3726TP3      O22996   0.956   4.260   1.467 -0.0079 -0.2763 -0.7271
 3726TP3     H122997   1.025   4.299   1.521 -0.4091 -1.2860  0.5240
 3726TP3     H222998   0.903   4.334   1.438 -0.1688  0.1989  0.7905
 3727TP3      O22999   1.132   0.057   0.981 -0.2504  0.2030  0.1903
 3727TP3     H123000   1.181   0.114   1.040  0.0674  1.2962 -1.1170
 3727TP3     H223001   1.150   0.091   0.894 -0.9028 -1.2583 -0.5337
 3728TP3      O23002   2.588   4.505   2.735  0.4163 -0.5549 -0.2562
 3728TP3     H123003   2.643   4.436   2.698  1.5403  0.1666  0.0462
 3728TP3     H223004   2.648   4.560   2.785 -0.3185  1.1849 -1.2552
 3729TP3      O23005   0.713   1.258   8.149  0.6787 -0.0086  0.5951
 3729TP3     H123006   0.730   1.179   8.097  0.8452 -1.0338  2.1610
 3729TP3     H223007   0.621   1.278   8.134  0.7530 -0.2312 -0.1672
 3730TP3      O23008   4.886   1.465   9.484 -0.6215 -0.0526 -0.2960
 3730TP3     H123009   4.840   1.460   9.401 -1.2041  0.7820 -0.0276
 3730TP3     H223010   4.823   1.503   9.545  0.6516  1.7700 -0.0936
 3731TP3      O23011   4.454   4.601   0.806  0.0192  0.2484  0.3800
 3731TP3     H123012   4.493   4.687   0.824  1.9090 -0.3742 -0.6143
 3731TP3     H223013   4.431   4.605   0.713  0.0260 -0.2997  0.3576
 3732TP3      O23014   2.633   0.219   0.993  0.5512 -0.2818 -0.0545
 3732TP3     H123015   2.660   0.194   1.081 -0.9672 -3.2212 -0.3941
 3732TP3     H223016   2.715   0.220   0.942  1.1749 -0.4236  0.9422
 3733TP3      O23017   0.398   5.162   9.358  0.0583  0.6529 -0.3972
 3733TP3     H123018   0.334   5.208   9.412 -0.5597 -2.0321  1.1933
 3733TP3     H223019   0.467   5.137   9.419  0.5086 -0.3189 -1.3016
 3734TP3      O23020   4.802   5.223   8.358  0.5879 -0.9024 -0.1342
 3734TP3     H123021   4.792   5.288   8.427  0.7554 -0.1708 -0.7812
 3734TP3     H223022   4.744   5.151   8.383  0.9463 -0.8142  0.9582
 3735TP3      O23023   5.114   4.578   8.563 -0.3024  0.6958  0.4282
 3735TP3     H123024   5.188   4.638   8.551  1.1676 -1.4190 -1.3790
 3735TP3     H223025   5.152   4.491   8.555 -2.9843 -0.4433 -0.3771
 3736TP3      O23026   3.369   0.525   9.310  0.2437  0.0339 -0.4488
 3736TP3     H123027   3.326   0.603   9.344 -1.6250 -1.4473  0.7721
 3736TP3     H223028   3.454   0.524   9.353 -0.7866 -0.0123  1.6626
 3737TP3      O23029   4.634   3.005   1.329  0.2170 -0.4532 -0.3308
 3737TP3     H123030   4.609   3.061   1.402 -0.0169 -0.1860 -0.6137
 3737TP3     H223031   4.729   3.010   1.326  0.2398 -0.6151  0.0730
 3738TP3      O23032   1.918   3.636  10.058  0.2331 -0.3089  0.3597
 3738TP3     H123033   1.914   3.568   9.991  1.6435 -0.6936  0.6481
 3738TP3     H223034   2.011   3.643  10.080  0.2072  2.1480 -0.1050
 3739TP3      O23035   4.717   3.559   8.560 -0.4783 -0.4701 -0.1518
 3739TP3     H123036   4.694   3.619   8.631 -1.3116 -1.3473  0.3358
 3739TP3     H223037   4.811   3.569   8.549 -0.6489  1.1037 -0.2409
 3740TP3      O23038   0.842   1.904   7.584  0.0653 -0.1308  0.1683
 3740TP3     H123039   0.791   1.907   7.503  2.0214  2.1864 -1.0298
 3740TP3     H223040   0.887   1.819   7.580 -0.7756 -0.5565 -0.5625
 3741TP3      O23041   0.704   0.992   3.101  0.7321 -0.6456 -0.5230
 3741TP3     H123042   0.782   0.959   3.057 -0.3198 -0.3489 -2.6395
 3741TP3     H223043   0.737   1.037   3.179  2.6036 -1.2582 -0.9601
 3742TP3      O23044   3.167   4.960   0.454 -0.6872  0.4668 -0.5967
 3742TP3     H123045   3.257   4.927   0.455 -0.4914  0.9988 -0.5227
 3742TP3     H223046   3.128   4.924   0.533 -0.3344  0.7864 -0.2725
 3743TP3      O23047   4.395   2.641   0.206 -0.3260 -0.3722  0.3340
 3743TP3     H123048   4.464   2.682   0.259 -1.0673 -0.3615  1.3179
 3743TP3     H223049   4.374   2.705   0.139 -1.0479  0.6320  1.4916
 3744TP3      O23050   0.448   1.317   8.142 -0.1053  0.5256 -0.4094
 3744TP3     H123051   0.431   1.411   8.137  0.5423  0.6156 -1.0796
 3744TP3     H223052   0.381   1.284   8.201  1.1031  1.7750  1.7166
 3745TP3      O23053   1.782   0.041   9.515 -0.4860 -0.5936  0.4065
 3745TP3     H123054   1.841   0.094   9.568  2.2036 -0.3930 -2.6280
 3745TP3     H223055   1.805  -0.049   9.536  1.2713 -0.5196 -1.0444
 3746TP3      O23056   0.242   1.423  10.154  0.0373 -0.3397  0.4989
 3746TP3     H123057   0.307   1.362  10.190  0.0211  0.1707  1.4187
 3746TP3     H223058   0.171   1.422  10.218 -0.5408 -0.3491 -0.1465
 3747TP3      O23059   4.590   4.884   0.008 -0.1601 -0.2110 -0.2121
 3747TP3     H123060   4.685   4.898   0.012 -0.3462  0.4714  2.7105
 3747TP3     H223061   4.580   4.789   0.013  0.3546 -0.2209  0.9365
 3748TP3      O23062   0.709   5.221   9.605 -0.5930  0.2000  0.2322
 3748TP3     H123063   0.801   5.197   9.592  0.3142  2.9818  1.1219
 3748TP3     H223064   0.663   5.137   9.613  1.9899 -1.2261  0.5808
 3749TP3      O23065   4.016   5.297   1.418 -0.5558  0.1579 -0.4828
 3749TP3     H123066   4.098   5.259   1.387 -0.4463  0.0370 -0.0591
 3749TP3     H223067   3.987   5.237   1.486 -0.0396  1.1701  0.6625
 3750TP3      O23068   4.684   4.350   1.784 -0.3548  0.4102  0.4750
 3750TP3     H123069   4.768   4.395   1.768 -0.5476  0.4492 -0.4711
 3750TP3     H223070   4.618   4.412   1.754 -0.7098  0.2613  0.9562
 3751TP3      O23071   4.319   0.922   2.110 -0.0976 -0.0383  0.6053
 3751TP3     H123072   4.363   0.839   2.129 -0.3361 -0.1533  0.6567
 3751TP3     H223073   4.241   0.897   2.060  0.6108  0.2744 -0.6729
 3752TP3      O23074   1.803   4.465   8.580 -0.3427 -0.6510 -0.2635
 3752TP3     H123075   1.824   4.542   8.527 -1.0832  0.1589  0.6042
 3752TP3     H223076   1.725   4.428   8.540  0.7390 -1.6969 -1.4436
 3753TP3      O23077   0.841   3.778   2.608 -0.1002 -0.0334 -0.5361
 3753TP3     H123078   0.876   3.854   2.655  0.4942  0.2305 -1.3852
 3753TP3     H223079   0.899   3.706   2.632 -0.5650 -0.1849  0.1397
 3754TP3      O23080   3.771   4.787   0.935  0.0667 -0.0621 -0.4201
 3754TP3     H123081   3.688   4.764   0.894  0.2760 -1.8609  0.1525
 3754TP3     H223082   3.749   4.860   0.994 -0.9033  0.1394 -1.0140
 3755TP3      O23083   1.678   2.265   0.609  0.2379  0.4506 -0.2036
 3755TP3     H123084   1.742   2.211   0.656  1.6871  0.8756 -1.6416
 3755TP3     H223085   1.720   2.285   0.526 -1.1371  2.0702 -0.5362
 3756TP3      O23086   4.787   4.132   8.223  0.7748 -0.3442 -0.1446
 3756TP3     H123087   4.799   4.128   8.318  0.2452  0.6531 -0.0311
 3756TP3     H223088   4.827   4.052   8.191  1.1716 -0.5764  0.9020
 3757TP3      O23089   0.383   1.648  10.079  0.0949  0.2697  0.8753
 3757TP3     H123090   0.322   1.704  10.032  0.9347 -0.2664 -0.9132
 3757TP3     H223091   0.342   1.561  10.078  1.6082 -0.4876 -1.8759
 3758TP3      O23092   3.211   2.779   9.789  0.1711  0.0265 -0.1806
 3758TP3     H123093   3.123   2.816   9.789  0.3903  0.5569 -1.1782
 3758TP3     H223094   3.218   2.734   9.704  1.0149  0.3556 -0.2830
 3759TP3      O23095   4.048   3.706   8.224  0.4260  0.6490  0.0355
 3759TP3     H123096   3.973   3.747   8.268  0.6293  1.8981 -0.7492
 3759TP3     H223097   4.100   3.780   8.192  0.7718 -0.2286 -1.4789
 3760TP3      O23098   4.051   0.580   0.818  0.2581 -0.2323 -0.0722
 3760TP3     H123099   4.088   0.547   0.736 -0.6435 -2.3140  0.3095
 3760TP3     H223100   4.105   0.540   0.886  0.1658  0.3923  0.3679
 3761TP3      O23101   2.633   3.490   0.617 -0.4403  0.4891  0.5375
 3761TP3     H123102   2.633   3.468   0.710 -2.2640 -0.8377  0.2591
 3761TP3     H223103   2.640   3.405   0.572  2.5304  1.2645 -0.5313
 3762TP3      O23104   4.968   1.091   0.197 -0.4123  0.4054 -0.6077
 3762TP3     H123105   5.028   1.115   0.267 -2.0883  1.0800  0.6196
 3762TP3     H223106   4.925   1.173   0.173  0.4054  0.2533 -2.6904
 3763TP3      O23107   3.848   2.374  10.076  0.1291  0.0779  0.0801
 3763TP3     H123108   3.871   2.336   9.992  0.1091  0.5925 -0.1619
 3763TP3     H223109   3.828   2.466  10.056  1.3323  0.5214  0.8244
 3764TP3      O23110   4.190   0.659   2.099 -0.2359  0.1518  0.3720
 3764TP3     H123111   4.172   0.571   2.133  2.1512  0.1792  1.8021
 3764TP3     H223112   4.115   0.678   2.043 -0.5507 -3.0253 -0.4151
 3765TP3      O23113   4.561   4.602   0.056  0.1235 -0.1753  1.0727
 3765TP3     H123114   4.590   4.531   0.113  2.5853 -0.6958 -0.7077
 3765TP3     H223115   4.555   4.562  -0.031 -1.3425  1.1250  0.5433
 3766TP3      O23116   1.646   1.959   9.381 -0.1119 -0.2581 -0.1920
 3766TP3     H123117   1.627   1.961   9.475 -1.2580 -1.9483 -0.3624
 3766TP3     H223118   1.741   1.966   9.375 -0.1414  1.3242  1.0255
 3767TP3      O23119   3.142   0.477   0.161  0.5237 -0.0231  0.6280
 3767TP3     H123120   3.175   0.474   0.251 -0.1218 -1.3377  0.8249
 3767TP3     H223121   3.107   0.390   0.145 -1.5361  0.9104 -0.0761
 3768TP3      O23122   3.832   4.377   2.109  0.3731  0.5393  0.1157
 3768TP3     H123123   3.860   4.427   2.032 -0.1052 -0.4317 -0.6944
 3768TP3     H223124   3.739   4.396   2.117  0.5667  1.2020  0.8923
 3769TP3      O23125   5.237   1.751   7.119  0.1873 -0.0923  0.4310
 3769TP3     H123126   5.255   1.667   7.161 -4.3548 -0.0278  2.7550
 3769TP3     H223127   5.265   1.816   7.183  0.7465  0.1672 -0.0639
 3770TP3      O23128   0.503   3.616   7.727 -0.3536 -0.5120  0.0269
 3770TP3     H123129   0.524   3.684   7.663  1.9880  1.9878  3.3254
 3770TP3     H223130   0.587   3.572   7.743 -0.9912 -1.3699  1.0459
 3771TP3      O23131   4.184   2.799   9.137  0.1047  0.6914 -0.3963
 3771TP3     H123132   4.237   2.730   9.177 -2.0457  0.2641  1.8150
 3771TP3     H223133   4.218   2.880   9.174 -1.3996  0.3454  1.8479
 3772TP3      O23134   3.742   4.446   2.680  0.0949 -1.3126  0.3005
 3772TP3     H123135   3.714   4.537   2.681 -0.4918 -1.4941  0.6376
 3772TP3     H223136   3.820   4.445   2.625  1.3428 -0.2526  2.0076
 3773TP3      O23137   4.166   4.486   9.464 -1.1605  0.3985  0.2918
 3773TP3     H123138   4.192   4.442   9.545  1.3231 -2.3376 -1.8816
 3773TP3     H223139   4.109   4.423   9.419 -0.5110  0.8516 -1.1983
 3774TP3      O23140   1.904   5.270   8.765  0.3624 -0.3736 -0.1516
 3774TP3     H123141   1.991   5.237   8.785  0.7002  1.4579  1.5035
 3774TP3     H223142   1.851   5.247   8.842  0.1097  1.1118  0.1360
 3775TP3      O23143   0.855   0.970   8.327  0.3011 -0.0424 -0.3149
 3775TP3     H123144   0.931   0.946   8.274  2.0920  1.6357  1.4444
 3775TP3     H223145   0.790   0.903   8.306  1.9021 -0.9509 -2.5834
 3776TP3      O23146   3.326   4.442   2.638  0.2581  0.5293 -0.4067
 3776TP3     H123147   3.384   4.366   2.629 -1.0069 -0.5691  0.5741
 3776TP3     H223148   3.370   4.511   2.588  1.0756 -1.0409 -1.9111
 3777TP3      O23149   1.856   2.852   0.375  0.0474  0.0625  0.2859
 3777TP3     H123150   1.939   2.851   0.422  1.0653 -1.6801 -1.4854
 3777TP3     H223151   1.858   2.933   0.324  0.9151 -0.2236 -0.1505
 3778TP3      O23152   1.717   0.696   0.322  0.0598 -0.4833  0.2228
 3778TP3     H123153   1.644   0.758   0.326 -1.3519 -2.0684 -0.0650
 3778TP3     H223154   1.678   0.613   0.350  1.1428 -1.9013 -2.3317
 3779TP3      O23155   0.387   1.260   1.561 -0.2972  0.3482 -0.0229
 3779TP3     H123156   0.409   1.352   1.578 -0.9289  0.1788  1.9185
 3779TP3     H223157   0.371   1.223   1.648 -1.5548 -1.2199 -0.8804
 3780TP3      O23158   1.583   4.566   9.730 -0.2203  0.7906  0.4913
 3780TP3     H123159   1.612   4.575   9.639 -1.1888  0.1849  0.1250
 3780TP3     H223160   1.649   4.509   9.769 -0.3765  0.1905 -0.1015
 3781TP3      O23161   1.310   3.698   0.183 -0.4886  0.4374 -0.0076
 3781TP3     H123162   1.308   3.720   0.089 -1.5419 -0.2661 -0.1617
 3781TP3     H223163   1.369   3.763   0.221 -0.6606  1.2202 -1.0316
 3782TP3      O23164   5.136   2.490   0.501  0.3578 -0.1843 -0.1824
 3782TP3     H123165   5.167   2.559   0.443  1.3453 -0.7027 -0.2817
 3782TP3     H223166   5.216   2.453   0.540 -0.0717 -2.0386 -1.0086
 3783TP3      O23167   5.242   0.148   0.003  0.2618  0.0016  0.0687
 3783TP3     H123168   5.305   0.200   0.053  0.4785  0.6852 -0.9017
 3783TP3     H223169   5.296   0.097  -0.058 -0.1129  0.5563 -0.7339
 3784TP3      O23170   0.023   2.871   8.380 -0.2008  0.3988 -0.4442
 3784TP3     H123171   0.067   2.793   8.347 -1.5723 -1.1739  1.3176
 3784TP3     H223172  -0.030   2.902   8.306  1.3536  0.4355 -1.5576
 3785TP3      O23173   1.941   4.590  10.080 -0.6727  0.2452  0.0838
 3785TP3     H123174   1.861   4.556  10.039  0.2980 -1.5885 -0.3226
 3785TP3     H223175   1.942   4.550  10.167  0.9562 -1.5601 -0.7308
 3786TP3      O23176   4.299   1.449   8.908  0.1649 -0.0030 -0.2863
 3786TP3     H123177   4.271   1.493   8.828  1.4680 -0.7656 -1.1840
 3786TP3     H223178   4.374   1.499   8.939 -2.2741  2.1884  2.2582
 3787TP3      O23179   4.371   2.464   9.531  0.0918  0.5238 -0.2880
 3787TP3     H123180   4.332   2.381   9.504  0.2154  0.1098  0.7783
 3787TP3     H223181   4.431   2.486   9.460 -0.3874 -0.0035 -0.8555
 3788TP3      O23182   0.228   1.223   8.264  0.3318  0.0407  0.2175
 3788TP3     H123183   0.149   1.174   8.239  0.6382 -1.6697  2.4811
 3788TP3     H223184   0.195   1.292   8.322  0.4480 -0.4502  0.8718
 3789TP3      O23185   3.930   0.979   9.570  0.2345 -0.1355 -0.3971
 3789TP3     H123186   3.879   0.908   9.608  0.8940 -0.3601  0.0814
 3789TP3     H223187   3.865   1.045   9.545 -0.1850  0.1890  1.4879
 3790TP3      O23188   0.573   2.536   0.436  0.0826  0.0434  0.1717
 3790TP3     H123189   0.543   2.619   0.471 -1.6210  0.3714 -1.9971
 3790TP3     H223190   0.613   2.558   0.352  1.1625 -1.1426  0.3422
 3791TP3      O23191   3.610   0.186   8.150  0.1367  0.0843 -0.0645
 3791TP3     H123192   3.686   0.244   8.138  0.3724 -0.6089 -2.1079
 3791TP3     H223193   3.646   0.107   8.189  0.3279  0.0523 -0.3089
 3792TP3      O23194   3.027   0.121   0.491  0.3104  0.3063 -0.2404
 3792TP3     H123195   3.027   0.162   0.404 -0.8925  1.5974  0.3317
 3792TP3     H223196   3.022   0.195   0.552  0.4371 -0.6093  0.9053
 3793TP3      O23197   4.208   0.805   0.880  0.1653 -0.0088 -0.3600
 3793TP3     H123198   4.300   0.796   0.855  0.5289 -1.6899  1.4415
 3793TP3     H223199   4.166   0.726   0.847 -0.0894 -0.4531  0.9717
 3794TP3      O23200   2.504   5.156   1.138 -0.0836 -0.0550  0.1981
 3794TP3     H123201   2.462   5.241   1.152 -1.4285 -0.7496  0.4614
 3794TP3     H223202   2.435   5.092   1.156  1.5310 -1.2830  2.2789
 3795TP3      O23203   3.891   0.741   7.806  0.3814  0.3827  0.4013
 3795TP3     H123204   3.918   0.831   7.789  0.0336  0.4455  0.1697
 3795TP3     H223205   3.798   0.740   7.785  0.6576 -0.3487 -0.8563
 3796TP3      O23206   2.456   4.114   8.800  0.3785 -0.9065 -0.0824
 3796TP3     H123207   2.462   4.049   8.729  1.2204 -0.2312 -0.6357
 3796TP3     H223208   2.520   4.085   8.865 -0.1851 -1.3620  0.2708
 3797TP3      O23209   0.415   3.445   0.057 -0.2341 -0.0690 -0.6477
 3797TP3     H123210   0.404   3.411  -0.032 -0.6868  1.2646 -1.1092
 3797TP3     H223211   0.390   3.372   0.114 -1.0318 -0.5668 -1.6227
 3798TP3      O23212   2.686   2.187  10.114  0.2917  0.5277  0.6321
 3798TP3     H123213   2.765   2.155  10.157 -0.1633  0.1260  1.1770
 3798TP3     H223214   2.704   2.175  10.020  0.0571 -1.5788  0.8210
 3799TP3      O23215   1.786   4.155   9.255  0.3711  0.3139  0.3879
 3799TP3     H123216   1.828   4.152   9.169  0.5774 -0.3407  0.5094
 3799TP3     H223217   1.858   4.169   9.316  0.1468  1.4698  0.3992
 3800TP3      O23218   0.373   5.255   8.584 -0.1688 -1.0107  0.5141
 3800TP3     H123219   0.331   5.341   8.579  1.3441 -0.1923  1.6205
 3800TP3     H223220   0.324   5.202   8.521 -3.6657 -0.4612  2.5960
 3801TP3      O23221   3.908   1.499   7.578 -0.4186 -0.0366 -0.4302
 3801TP3     H123222   3.910   1.563   7.507 -2.3242 -0.2184 -0.6873
 3801TP3     H223223   4.000   1.481   7.597  0.1527  3.1457  0.0211
 3802TP3      O23224   0.148   5.292   7.898  0.3581  0.0155 -0.3512
 3802TP3     H123225   0.075   5.270   7.956 -0.4410 -0.0055 -1.3377
 3802TP3     H223226   0.107   5.342   7.827  1.7332  2.3668  0.4605
 3803TP3      O23227   0.741   3.790   9.505 -0.0654 -0.1375 -0.4958
 3803TP3     H123228   0.815   3.731   9.490 -0.4367 -1.2888  1.8945
 3803TP3     H223229   0.669   3.752   9.453  0.4937 -0.1072 -1.2976
 3804TP3      O23230   2.787   4.543   0.298  0.2209 -0.1942  0.2385
 3804TP3     H123231   2.731   4.612   0.262 -0.1496 -0.8297 -0.3878
 3804TP3     H223232   2.727   4.482   0.340  0.4016 -1.1429 -0.8695
 3805TP3      O23233   4.200   1.737   8.080  0.3154  0.1456 -0.0032
 3805TP3     H123234   4.199   1.766   8.171 -1.2211  0.4525 -0.0945
 3805TP3     H223235   4.223   1.815   8.030 -1.0918  0.5617 -0.0359
 3806TP3      O23236   0.488   5.073   7.408  0.4363 -0.8022  0.2217
 3806TP3     H123237   0.482   4.998   7.348  1.5079 -1.1228  0.5006
 3806TP3     H223238   0.469   5.035   7.494  0.0972 -0.5838  0.2393
 3807TP3      O23239   5.183   1.786   9.322  0.1239 -0.6492 -0.0435
 3807TP3     H123240   5.128   1.716   9.288  0.5952 -1.0619  0.0346
 3807TP3     H223241   5.257   1.791   9.261 -0.2042  0.1743 -0.3747
 3808TP3      O23242   3.782   0.875   8.471 -0.1512  0.2422 -0.5299
 3808TP3     H123243   3.749   0.852   8.384 -0.0420 -0.4827 -0.3823
 3808TP3     H223244   3.723   0.830   8.531 -0.1879  0.6921 -0.2289
 3809TP3      O23245   0.202   1.020   8.038 -0.2170  0.3311 -0.0445
 3809TP3     H123246   0.122   1.054   7.997 -0.5181 -1.6210 -1.1304
 3809TP3     H223247   0.273   1.065   7.991 -0.6256  3.3344  2.0390
 3810TP3      O23248   2.472   0.060   2.030  0.0681  0.0090 -0.5701
 3810TP3     H123249   2.550   0.113   2.044  0.4095 -0.4724 -0.6414
 3810TP3     H223250   2.502  -0.014   1.976 -0.8305  0.8624 -2.2988
 3811TP3      O23251   0.741   4.617   9.417 -0.7010  0.6514 -0.1067
 3811TP3     H123252   0.775   4.655   9.498 -0.2948  2.4788 -1.0893
 3811TP3     H223253   0.651   4.649   9.412 -1.2958 -0.8829  0.4723
 3812TP3      O23254   0.072   3.634   0.948  1.0706  0.2543 -0.2481
 3812TP3     H123255   0.013   3.692   0.900 -0.0241  0.4437  1.2959
 3812TP3     H223256   0.098   3.684   1.025  1.3895 -0.6998  0.2769
 3813TP3      O23257   4.445   4.204   8.050  0.0263  0.4958 -0.2319
 3813TP3     H123258   4.488   4.290   8.049 -1.9620  1.5215 -0.6723
 3813TP3     H223259   4.480   4.159   7.973  1.2755  0.8117  0.1378
 3814TP3      O23260   4.934   0.283   9.593  0.1883 -0.2637 -0.6079
 3814TP3     H123261   4.962   0.336   9.668  0.1091 -1.3066  0.1795
 3814TP3     H223262   4.847   0.250   9.619  1.5595 -3.3833  0.3312
 3815TP3      O23263   3.304   0.820   8.164  0.8966 -0.2582  0.1477
 3815TP3     H123264   3.211   0.807   8.144  1.4945 -0.4904 -2.6833
 3815TP3     H223265   3.309   0.910   8.197 -0.2410  0.0175 -0.4014
 3816TP3      O23266   3.692   2.297   0.539 -0.0747  0.7518  0.2762
 3816TP3     H123267   3.737   2.356   0.600 -1.5952  0.2089  1.9684
 3816TP3     H223268   3.757   2.230   0.518  0.3072  0.6803  1.6704
 3817TP3      O23269   3.325   4.476   8.146 -0.2242  0.0200  0.2535
 3817TP3     H123270   3.291   4.562   8.171  0.7330  0.5276 -0.1777
 3817TP3     H223271   3.318   4.423   8.226  0.2220  0.8155  0.8222
 3818TP3      O23272   3.048   5.128   1.744  0.0680  0.5601  0.0971
 3818TP3     H123273   3.097   5.138   1.663 -0.4886  1.2213 -0.1646
 3818TP3     H223274   2.980   5.064   1.723 -2.5756  3.6098 -1.1742
 3819TP3      O23275   4.771   0.732   9.018  0.2859  0.3252 -0.2334
 3819TP3     H123276   4.855   0.777   9.023  0.3102  0.1749  0.6930
 3819TP3     H223277   4.791   0.647   8.979  0.4534  0.5587 -0.6612
 3820TP3      O23278   1.876   2.843   2.247 -0.0536 -0.1647  0.1079
 3820TP3     H123279   1.961   2.871   2.281 -0.0444  0.9595 -0.8187
 3820TP3     H223280   1.818   2.917   2.263 -0.4010 -0.1930 -0.9945
 3821TP3      O23281   0.094   3.710   8.121 -0.2178 -0.2216  0.0977
 3821TP3     H123282   0.120   3.788   8.170 -0.4677 -0.5338  0.7328
 3821TP3     H223283   0.176   3.674   8.089  0.1667 -1.2466  2.1612
 3822TP3      O23284   4.905   0.976   3.052  0.1375 -0.3943  0.0898
 3822TP3     H123285   4.846   1.027   3.106  0.4301 -0.7320  0.7348
 3822TP3     H223286   4.896   0.886   3.083 -1.1953 -0.9341 -1.7760
 3823TP3      O23287   4.621   3.127   7.600  0.3461  0.2763 -0.5031
 3823TP3     H123288   4.538   3.079   7.596  0.1090  0.7108 -0.7376
 3823TP3     H223289   4.666   3.089   7.675  0.2349 -0.4466 -0.7928
 3824TP3      O23290   1.837   3.619   7.517 -0.0349 -0.0374  0.0557
 3824TP3     H123291   1.836   3.704   7.560  0.4226  0.9140 -1.7757
 3824TP3     H223292   1.917   3.619   7.465 -1.8582 -0.0755 -2.8732
 3825TP3      O23293   0.892   5.163   0.009  0.1949 -0.5028 -0.4905
 3825TP3     H123294   0.873   5.070   0.024  0.3112 -0.7555 -1.7951
 3825TP3     H223295   0.885   5.204   0.095 -0.1854 -1.6684  0.0398
 3826TP3      O23296   1.606   1.785   8.055  0.2026  0.7551  0.8565
 3826TP3     H123297   1.684   1.837   8.073  2.5592 -1.7180 -1.7802
 3826TP3     H223298   1.627   1.698   8.089 -1.5275  0.1512  0.4200
 3827TP3      O23299   1.125   0.984   9.196  0.0496 -0.5757 -0.2099
 3827TP3     H123300   1.080   0.922   9.253  0.9633  0.3107  1.5098
 3827TP3     H223301   1.215   0.952   9.191  1.0330  1.6020  2.2573
 3828TP3      O23302   2.956   1.639   2.320  0.0146 -0.2336 -0.4537
 3828TP3     H123303   2.880   1.687   2.288  0.6714 -0.2786 -2.1230
 3828TP3     H223304   3.030   1.699   2.306  0.3201 -0.2312  1.0448
 3829TP3      O23305   0.461   2.005   9.134  0.4106 -0.8147 -0.1029
 3829TP3     H123306   0.433   1.989   9.044  0.5297 -0.5852 -0.1837
 3829TP3     H223307   0.465   1.918   9.174 -0.3873 -0.8477 -0.0966
 3830TP3      O23308   3.370   3.218   9.059  0.4042 -0.2469 -0.0691
 3830TP3     H123309   3.402   3.297   9.103  0.7159 -0.6217  0.3818
 3830TP3     H223310   3.444   3.188   9.007 -0.1161  0.4684 -1.2452
 3831TP3      O23311   1.456   2.264   9.958  0.1079 -0.3994 -0.2900
 3831TP3     H123312   1.515   2.282  10.031 -1.7581  1.7198  0.7486
 3831TP3     H223313   1.368   2.275   9.995 -0.8568  2.3880 -3.2239
 3832TP3      O23314   3.532   1.531   8.439  0.0839 -0.7262  0.7323
 3832TP3     H123315   3.531   1.618   8.398 -0.1024 -0.5753  1.0530
 3832TP3     H223316   3.565   1.546   8.527  0.0161 -0.9760  0.8006
 3833TP3      O23317   4.152   5.185   0.919  0.7543 -0.1683 -0.0131
 3833TP3     H123318   4.234   5.225   0.891 -0.3310  0.8277 -1.8793
 3833TP3     H223319   4.110   5.251   0.974  1.2490 -0.7352  1.0645
 3834TP3      O23320   3.938   1.782   0.874 -0.6579 -0.1865  0.5699
 3834TP3     H123321   3.967   1.818   0.791  2.0853 -2.3079  0.5540
 3834TP3     H223322   3.980   1.838   0.940 -1.3964  0.3866  0.5711
 3835TP3      O23323   3.676   3.062   0.990 -0.3500 -0.1688 -0.3369
 3835TP3     H123324   3.607   3.124   0.966 -0.3229  0.0570  0.1749
 3835TP3     H223325   3.644   2.978   0.958 -0.4917  0.0668 -0.8317
 3836TP3      O23326   3.590   5.003   2.178  0.2389  0.2259  0.2180
 3836TP3     H123327   3.586   5.088   2.135  1.9211 -0.2122 -0.8711
 3836TP3     H223328   3.680   4.974   2.164 -0.4046 -1.8783  0.2629
 3837TP3      O23329   3.215   3.516   8.566 -0.3268  0.2280 -0.1191
 3837TP3     H123330   3.141   3.458   8.549 -1.1907  1.7886 -1.8074
 3837TP3     H223331   3.292   3.463   8.542 -1.0909 -0.2572 -1.5865
 3838TP3      O23332   1.721   0.460   1.608 -0.5391  0.1344  0.2850
 3838TP3     H123333   1.650   0.396   1.619 -0.3962 -0.2437 -0.9269
 3838TP3     H223334   1.779   0.420   1.544 -0.1093  1.2080  0.0047
 3839TP3      O23335   3.308   2.652   1.772  0.2242 -0.0328  0.0160
 3839TP3     H123336   3.231   2.604   1.741 -0.3125  0.2434  0.8876
 3839TP3     H223337   3.331   2.610   1.855  1.3024 -0.4089 -0.4667
 3840TP3      O23338   4.134   1.724   1.867  0.1596 -0.6759  0.1585
 3840TP3     H123339   4.185   1.743   1.788 -0.4074 -0.1026 -0.0797
 3840TP3     H223340   4.046   1.705   1.834 -1.0097  3.0603  0.8364
 3841TP3      O23341   1.880   4.882   8.778 -0.5758 -0.2240 -0.3038
 3841TP3     H123342   1.836   4.954   8.734 -0.9829  0.6380  1.4590
 3841TP3     H223343   1.967   4.915   8.798 -0.6886 -0.2836  0.3068
 3842TP3      O23344   1.462   4.713   0.115 -0.0535 -0.5346 -0.0606
 3842TP3     H123345   1.403   4.698   0.189  0.0740  2.7050  0.7270
 3842TP3     H223346   1.405   4.705   0.038 -1.2261  0.9599  0.6235
 3843TP3      O23347   2.783   4.855   2.387 -0.1980  0.5259  0.4417
 3843TP3     H123348   2.740   4.776   2.355  2.6958 -0.3619 -1.3833
 3843TP3     H223349   2.832   4.826   2.464  1.0003  0.4837 -0.3270
 3844TP3      O23350   4.858   5.100   9.704  0.0198 -0.1273  0.4870
 3844TP3     H123351   4.815   5.085   9.620  0.2534  3.1114 -0.2929
 3844TP3     H223352   4.806   5.051   9.767 -2.0012 -0.0992 -1.1172
 3845TP3      O23353   4.125   0.506   0.558 -0.1489  0.0579 -0.3459
 3845TP3     H123354   4.113   0.556   0.477 -0.7670 -0.8643 -0.8351
 3845TP3     H223355   4.215   0.474   0.554 -0.4070 -0.5869 -1.0147
 3846TP3      O23356   4.158   4.743   9.566 -0.0164 -0.3972 -0.1186
 3846TP3     H123357   4.107   4.712   9.640 -1.2084  0.8455 -0.3987
 3846TP3     H223358   4.157   4.670   9.504 -0.5440 -0.7663  0.3232
 3847TP3      O23359   5.069   1.155   9.229 -0.5753  0.7103  0.3713
 3847TP3     H123360   5.108   1.240   9.249 -0.7050  1.0335 -0.6948
 3847TP3     H223361   5.072   1.107   9.312 -1.1113  1.9901  1.1447
 3848TP3      O23362   1.650   5.143   1.773  0.0782  0.3736 -0.1473
 3848TP3     H123363   1.612   5.057   1.786 -1.2984  0.9910  0.0236
 3848TP3     H223364   1.713   5.153   1.844 -2.4129  0.9540  2.0764
 3849TP3      O23365   4.635   3.495   9.315 -0.6750 -0.1515  0.0771
 3849TP3     H123366   4.557   3.464   9.268 -1.0516 -0.6358  1.0018
 3849TP3     H223367   4.708   3.464   9.262 -1.1189  1.4250 -1.4867
 3850TP3      O23368   4.614   0.581   1.032 -0.1392 -0.2521  0.2159
 3850TP3     H123369   4.551   0.578   0.961  0.5631  0.6534 -0.4664
 3850TP3     H223370   4.586   0.655   1.086 -0.9214 -1.2048  1.1273
 3851TP3      O23371   3.175   0.987   1.629 -0.0795  0.2220  0.2769
 3851TP3     H123372   3.203   0.957   1.542  0.2866  1.5325 -0.0657
 3851TP3     H223373   3.099   1.043   1.611  1.4654  2.4823  0.5655
 3852TP3      O23374   2.771   5.222   1.129 -0.1159 -0.2436  0.1699
 3852TP3     H123375   2.817   5.193   1.051  0.2915 -2.2952  1.1308
 3852TP3     H223376   2.681   5.192   1.116 -0.1836 -0.0748  0.2412
 3853TP3      O23377   1.320   4.647   9.671 -0.2141 -0.0179  0.2592
 3853TP3     H123378   1.264   4.611   9.739  0.7177  0.4240  1.2727
 3853TP3     H223379   1.409   4.638   9.705  0.1830  1.2560 -0.4016
 3854TP3      O23380   1.657   4.152   9.674 -0.4149  0.1270 -0.5734
 3854TP3     H123381   1.684   4.067   9.637  1.3826 -0.3271  1.6164
 3854TP3     H223382   1.638   4.132   9.766 -0.4371  2.0270 -0.1559
 3855TP3      O23383   3.659   0.609   7.297  0.3491 -0.1498 -0.5106
 3855TP3     H123384   3.738   0.624   7.245  0.4904  1.1371  0.0656
 3855TP3     H223385   3.588   0.646   7.244  0.5754  1.7340  0.4872
 3856TP3      O23386   1.279   2.741   0.803 -0.0890 -0.2530 -0.4092
 3856TP3     H123387   1.211   2.798   0.767 -0.0930 -0.7597 -1.2086
 3856TP3     H223388   1.345   2.736   0.733  0.1869 -0.7650 -0.1149
 3857TP3      O23389   1.641   1.380   7.237 -0.0876  0.3313  0.0571
 3857TP3     H123390   1.569   1.359   7.295 -0.3386  1.1837  0.0545
 3857TP3     H223391   1.600   1.420   7.160  0.4172  1.2339  0.2474
 3858TP3      O23392   4.438   1.758   0.696 -0.7607 -0.3054  0.1310
 3858TP3     H123393   4.486   1.818   0.639 -2.4216  0.4751 -0.4960
 3858TP3     H223394   4.473   1.774   0.783 -0.5689  0.9388 -0.1677
 3859TP3      O23395   3.773   2.813   8.000 -0.3432  0.4442 -0.5325
 3859TP3     H123396   3.797   2.797   7.908 -0.0213  0.7439 -0.5001
 3859TP3     H223397   3.780   2.727   8.041 -1.4223  0.1213 -0.9982
 3860TP3      O23398   3.181   3.078   2.321  0.6919  0.3836 -0.1487
 3860TP3     H123399   3.116   3.148   2.317 -1.5266 -1.5649  0.6146
 3860TP3     H223400   3.158   3.020   2.249  1.4482 -0.4514  0.2821
 3861TP3      O23401   0.228   3.457   1.126 -0.7943  0.7534 -0.1316
 3861TP3     H123402   0.310   3.504   1.143 -0.0165 -0.1506 -1.2739
 3861TP3     H223403   0.166   3.525   1.100 -0.9437  1.6843  2.4855
 3862TP3      O23404   3.249   3.229   2.003  0.0116 -0.4826 -0.3974
 3862TP3     H123405   3.206   3.148   2.029 -0.0245 -0.4902 -0.4801
 3862TP3     H223406   3.178   3.288   1.977  0.1476 -1.2146 -2.5770
 3863TP3      O23407   4.473   4.068   1.716 -0.5302 -0.3537  0.1715
 3863TP3     H123408   4.399   4.126   1.736  0.0339  0.7325 -0.8374
 3863TP3     H223409   4.435   3.996   1.666 -0.9680 -0.0183  0.0210
 3864TP3      O23410   3.951   2.465   1.907  0.3406 -0.0615  0.1429
 3864TP3     H123411   3.904   2.516   1.840  0.1955  1.1660  1.1680
 3864TP3     H223412   3.970   2.382   1.864 -0.9508  0.1999 -0.9849
 3865TP3      O23413   1.811   3.681   9.743 -0.1963  0.3428 -0.1641
 3865TP3     H123414   1.889   3.629   9.762 -1.1059 -1.0966 -0.2601
 3865TP3     H223415   1.779   3.708   9.829  0.8625  1.6384 -0.1678
 3866TP3      O23416   3.853   1.747   9.966 -0.3391  0.4032  0.6141
 3866TP3     H123417   3.770   1.723  10.007 -1.3154  2.6660  0.0156
 3866TP3     H223418   3.829   1.780   9.880  1.3634 -0.7359 -0.3372
 3867TP3      O23419   3.300   2.738   2.127 -0.2618  0.1928  0.0831
 3867TP3     H123420   3.310   2.645   2.104 -0.4113  0.2860 -0.3625
 3867TP3     H223421   3.389   2.773   2.128 -0.0804 -0.2790  1.6235
 3868TP3      O23422   4.534   0.757   1.225 -0.4022  0.0992 -0.6241
 3868TP3     H123423   4.549   0.851   1.221  0.3634  0.0525  0.8130
 3868TP3     H223424   4.464   0.747   1.290 -1.5690 -0.2177 -1.9088
 3869TP3      O23425   0.023   4.831   7.887 -0.7577 -0.4584  0.2327
 3869TP3     H123426  -0.014   4.913   7.920 -1.1941  0.5824 -2.7505
 3869TP3     H223427  -0.023   4.815   7.805  0.3103 -2.9755  0.0889
 3870TP3      O23428   2.220   1.219   9.451  0.3466  0.6292 -0.0484
 3870TP3     H123429   2.125   1.212   9.460  0.4750  0.9625  1.5906
 3870TP3     H223430   2.235   1.310   9.425  0.2848  0.7979  0.5144
 3871TP3      O23431   4.042   5.076   9.079 -0.1334 -0.1575  0.1806
 3871TP3     H123432   4.051   5.040   9.167  1.6026  0.7038  0.3755
 3871TP3     H223433   3.970   5.139   9.086  0.5829  0.5555  1.2151
 3872TP3      O23434   3.824   1.053   2.225 -0.0819  0.3351 -0.1718
 3872TP3     H123435   3.789   1.046   2.136  1.2650  1.0023 -0.7784
 3872TP3     H223436   3.748   1.066   2.280 -1.0213 -0.9844 -1.1244
 3873TP3      O23437   5.169   4.438   9.359 -0.0951 -0.0439  0.0280
 3873TP3     H123438   5.155   4.488   9.279  0.8718 -0.6117 -0.5020
 3873TP3     H223439   5.123   4.355   9.344  1.2131 -0.6851 -0.4848
 3874TP3      O23440   4.790   0.816   8.193  0.2101  0.1325  0.6032
 3874TP3     H123441   4.751   0.863   8.119 -0.1494 -0.6302  0.2992
 3874TP3     H223442   4.726   0.748   8.213 -0.2480  1.0761  2.3902
 3875TP3      O23443   4.903   4.155   2.663  0.2640 -0.5317  0.6602
 3875TP3     H123444   4.942   4.243   2.672 -1.7293  0.5592 -0.9985
 3875TP3     H223445   4.979   4.097   2.652  1.5706  1.1180  0.6719
 3876TP3      O23446   1.271   4.209   1.852  0.6303 -0.1131 -0.0678
 3876TP3     H123447   1.292   4.175   1.939 -1.4253 -0.2741  0.4036
 3876TP3     H223448   1.235   4.296   1.868  0.8308  0.1061 -0.8089
 3877TP3      O23449   2.557   3.663  10.008  0.3027  0.4926  0.0127
 3877TP3     H123450   2.507   3.611  10.071  1.1859  0.6947  0.8947
 3877TP3     H223451   2.498   3.735   9.984 -0.4201 -0.1677 -0.1948
 3878TP3      O23452   2.432   0.840   7.727  0.2356 -0.3345  0.1112
 3878TP3     H123453   2.472   0.754   7.719 -0.1872 -0.5109 -0.1309
 3878TP3     H223454   2.356   0.837   7.668 -0.9990 -0.5108  1.6735
 3879TP3      O23455   0.604   0.231   0.745  0.0821  0.4213 -0.2592
 3879TP3     H123456   0.532   0.249   0.805 -0.7667 -2.4240 -0.3227
 3879TP3     H223457   0.676   0.286   0.776 -0.7089 -0.0984  2.6513
 3880TP3      O23458   3.023   5.023   2.156 -0.3561 -0.1921  0.5802
 3880TP3     H123459   3.003   4.946   2.210  0.8141  0.4834  2.0138
 3880TP3     H223460   3.061   5.086   2.218 -0.1958  1.0875 -0.8071
 3881TP3      O23461   1.226   4.895   0.146 -0.2552  0.5883  0.2276
 3881TP3     H123462   1.240   4.817   0.200  1.3311  0.7599  0.0944
 3881TP3     H223463   1.243   4.864   0.057 -1.3707  0.6712 -0.0209
 3882TP3      O23464   4.547   0.221   2.941  0.3235 -0.6270  0.9315
 3882TP3     H123465   4.634   0.191   2.914  0.8151 -0.1361  1.9571
 3882TP3     H223466   4.562   0.268   3.023 -0.8289 -0.0265  0.8070
 3883TP3      O23467   4.374   2.068   0.339  0.3955 -0.4503 -0.1231
 3883TP3     H123468   4.344   2.101   0.254  0.1629 -0.7005 -0.1371
 3883TP3     H223469   4.299   2.076   0.397  0.3823 -0.8081 -0.0858
 3884TP3      O23470   0.252   2.065   9.723  0.0765  0.4222  0.0957
 3884TP3     H123471   0.287   2.142   9.769 -0.3289  0.4499  0.3641
 3884TP3     H223472   0.266   2.084   9.631  0.9519  0.3447  0.2050
 3885TP3      O23473   4.666   3.632  10.079 -0.0351 -0.4182 -0.0249
 3885TP3     H123474   4.663   3.631  10.174 -0.7566 -1.1250 -0.0396
 3885TP3     H223475   4.758   3.621  10.057 -0.0031 -1.4749  0.6003
 3886TP3      O23476   0.779   0.435   9.493  0.5364  0.5577  0.1359
 3886TP3     H123477   0.844   0.368   9.470 -1.4724 -1.1938 -0.5537
 3886TP3     H223478   0.734   0.400   9.569 -2.0308  0.0491 -1.5571
 3887TP3      O23479   1.114   5.074   0.813  0.2683  0.0482  0.2646
 3887TP3     H123480   1.072   5.136   0.753  0.0482 -0.6846 -0.3404
 3887TP3     H223481   1.091   5.107   0.900  1.3916  1.6570 -0.0301
 3888TP3      O23482   0.393   3.758   1.162 -0.1052  0.1039 -0.0007
 3888TP3     H123483   0.350   3.800   1.236 -0.2929  0.6450 -0.4049
 3888TP3     H223484   0.434   3.831   1.114 -0.1206 -0.2148 -0.5061
 3889TP3      O23485   5.092   2.065   8.859  0.4306  0.1337  0.1934
 3889TP3     H123486   5.030   2.006   8.817 -0.5076  1.4631 -0.3223
 3889TP3     H223487   5.176   2.020   8.853 -0.1668 -0.8803 -0.7083
 3890TP3      O23488   3.006   0.193   2.286  0.0916 -0.1361 -0.1622
 3890TP3     H123489   3.101   0.208   2.288  0.3057 -1.3437 -0.7840
 3890TP3     H223490   2.991   0.128   2.354  0.0291 -1.5879 -1.5365
 3891TP3      O23491   3.783   2.024   0.609  0.5934 -0.2773  0.3585
 3891TP3     H123492   3.711   2.039   0.547 -0.7821  1.0776  2.2491
 3891TP3     H223493   3.767   1.937   0.643 -0.3156  0.1161  0.9614
 3892TP3      O23494   1.844   2.365   7.256 -0.0472  0.2920  0.1688
 3892TP3     H123495   1.878   2.360   7.167  0.6393  0.1451  0.4364
 3892TP3     H223496   1.783   2.292   7.262  1.2447 -0.7944  0.3782
 3893TP3      O23497   4.225   0.313   0.326 -0.3222 -0.2193 -0.2736
 3893TP3     H123498   4.178   0.249   0.379 -0.0790  0.7381  1.1050
 3893TP3     H223499   4.157   0.358   0.276 -0.6994  0.0011  0.4496
 3894TP3      O23500   3.389   2.026   7.561 -0.4200 -0.6338  0.1093
 3894TP3     H123501   3.475   2.029   7.603  0.3272  0.0521 -1.4500
 3894TP3     H223502   3.403   2.065   7.475 -2.7953  1.6311  0.6868
 3895TP3      O23503   1.209   3.280   1.472 -0.0633 -0.0625 -0.2591
 3895TP3     H123504   1.164   3.198   1.453  0.4856 -0.0852 -1.4379
 3895TP3     H223505   1.189   3.297   1.565  0.1663 -1.7246  0.0975
 3896TP3      O23506   1.642   2.666  10.110 -0.1097  0.1428  0.5131
 3896TP3     H123507   1.659   2.578  10.145 -0.8459  0.0191  0.5724
 3896TP3     H223508   1.605   2.650  10.023 -0.2160  0.3946  0.5143
 3897TP3      O23509   3.481   0.505   1.369  0.2053  0.1843 -0.6179
 3897TP3     H123510   3.451   0.545   1.287  0.7424 -0.9257 -1.3682
 3897TP3     H223511   3.416   0.531   1.434 -1.1483 -0.3363 -1.7412
 3898TP3      O23512   0.335   1.172   0.602  0.1308  0.1081  0.0091
 3898TP3     H123513   0.416   1.214   0.574 -0.2924  1.2225  0.3986
 3898TP3     H223514   0.295   1.236   0.662 -0.9194 -0.5180 -0.0065
 3899TP3      O23515   2.524   1.870   9.277 -0.0960 -0.0245 -0.0239
 3899TP3     H123516   2.580   1.902   9.348 -0.4532 -0.6678  0.5603
 3899TP3     H223517   2.491   1.949   9.234  1.1425  0.3593 -0.2872
 3900TP3      O23518   4.237   0.412   7.758 -0.0452 -0.0080 -0.2929
 3900TP3     H123519   4.296   0.388   7.687 -1.9453 -2.4228 -1.1050
 3900TP3     H223520   4.163   0.454   7.714 -0.1066  0.7311  0.5027
 3901TP3      O23521   2.237   3.182   8.817  0.0680  0.4076 -0.0141
 3901TP3     H123522   2.242   3.277   8.807 -1.1833  0.2967 -1.8076
 3901TP3     H223523   2.289   3.164   8.895 -0.3028  2.6409  0.7856
 3902TP3      O23524   2.534   4.629   7.961  0.2730 -0.0887  0.3992
 3902TP3     H123525   2.601   4.654   7.897  0.4109 -0.1400  0.5245
 3902TP3     H223526   2.465   4.588   7.908  1.5301 -2.4913  0.5587
 3903TP3      O23527   2.691   3.270   9.886  0.0607 -0.7240 -0.0972
 3903TP3     H123528   2.785   3.252   9.891  0.0690 -0.8180 -0.5152
 3903TP3     H223529   2.660   3.213   9.816  0.1142  0.9461 -1.5141
 3904TP3      O23530   4.136   1.811   8.575  0.3325  0.6784  0.4588
 3904TP3     H123531   4.154   1.865   8.652  0.5451 -0.5938  1.3151
 3904TP3     H223532   4.045   1.781   8.587  0.1753  0.9291 -0.0676
 3905TP3      O23533   0.106   3.793   1.175  0.7894 -1.2239  0.2548
 3905TP3     H123534   0.031   3.849   1.193  2.0387  0.1018  1.5096
 3905TP3     H223535   0.129   3.757   1.261  2.0536 -1.0180  0.0032
 3906TP3      O23536   3.597   2.404   2.068  0.1986  0.1231 -0.1065
 3906TP3     H123537   3.590   2.329   2.127  1.8834 -0.4708 -0.6357
 3906TP3     H223538   3.636   2.368   1.988 -0.7355  1.2012 -1.0617
 3907TP3      O23539   3.226   2.775   8.526  0.1889  0.0824 -0.2463
 3907TP3     H123540   3.203   2.867   8.523  0.0078  0.0455 -0.0225
 3907TP3     H223541   3.282   2.761   8.449  1.8786  0.8284  0.8069
 3908TP3      O23542   1.920   0.650   0.982 -0.4967 -0.0656 -0.9797
 3908TP3     H123543   1.962   0.565   0.968 -1.4938 -0.3404 -2.3128
 3908TP3     H223544   1.992   0.707   1.011 -0.2576 -1.9614  2.4357
 3909TP3      O23545   5.180   4.790   8.814 -0.1690  0.2509  0.2773
 3909TP3     H123546   5.204   4.815   8.725 -1.9503 -1.0900 -0.6299
 3909TP3     H223547   5.224   4.706   8.828 -0.1166  0.3232  0.5435
 3910TP3      O23548   3.008   0.026   8.172 -0.5332  0.0761 -0.0939
 3910TP3     H123549   2.997   0.080   8.250 -0.6608 -0.2082  0.0868
 3910TP3     H223550   3.081   0.066   8.124 -0.3327  0.1348  0.2652
 3911TP3      O23551   2.874   3.763   9.877  0.1823 -0.1713 -0.0527
 3911TP3     H123552   2.873   3.690   9.815  0.6231  0.5846 -0.9636
 3911TP3     H223553   2.869   3.722   9.963 -1.7932 -1.1898 -0.6187
 3912TP3      O23554   0.334   5.006  10.092 -0.0286  0.3300 -0.6520
 3912TP3     H123555   0.286   5.017  10.175  0.8292 -0.4160 -0.0467
 3912TP3     H223556   0.275   5.043  10.026 -0.8933  0.5849  0.2367
 3913TP3      O23557   0.952   5.144   9.547  0.0044  0.3031 -0.0259
 3913TP3     H123558   1.013   5.168   9.477  0.8179 -0.5309  0.3911
 3913TP3     H223559   1.005   5.094   9.609 -1.2575 -0.9808  0.0272
 3914TP3      O23560   4.508   2.279   0.708 -0.0509 -0.2552 -0.2302
 3914TP3     H123561   4.454   2.306   0.782 -1.0137 -0.7160 -0.7554
 3914TP3     H223562   4.587   2.333   0.715 -0.4361  0.1994  0.7259
 3915TP3      O23563   4.631   0.212   0.527  0.0496  0.3656  0.3617
 3915TP3     H123564   4.593   0.184   0.444  0.3315  0.1341  0.3106
 3915TP3     H223565   4.615   0.139   0.587 -0.3786  0.6368  0.5800
 3916TP3      O23566   1.548   1.335   1.590  0.4561  0.1547  0.0634
 3916TP3     H123567   1.503   1.419   1.582  0.8617  0.3139 -0.5995
 3916TP3     H223568   1.628   1.355   1.639  1.2558  0.4394 -1.3093
 3917TP3      O23569   2.415   2.937   0.449  0.1134  0.2780 -0.4440
 3917TP3     H123570   2.407   2.844   0.428 -1.5852  0.6353 -1.4759
 3917TP3     H223571   2.494   2.965   0.405  0.7008 -0.6946 -0.0369
 3918TP3      O23572   0.180   1.972   2.227 -0.0461 -0.1384  0.6700
 3918TP3     H123573   0.204   2.003   2.140  1.0225 -1.4112  0.4788
 3918TP3     H223574   0.092   2.005   2.242  0.6974  2.1622  0.1223
 3919TP3      O23575   2.957   3.644   9.454 -0.4308  0.6346  0.3666
 3919TP3     H123576   3.052   3.633   9.462 -0.2167  1.7559 -0.4825
 3919TP3     H223577   2.922   3.555   9.457  0.7730  0.1165 -0.8501
 3920TP3      O23578   5.154   4.696   0.245  0.1559 -0.5693 -0.3621
 3920TP3     H123579   5.136   4.790   0.240 -1.8279 -0.9893 -1.6147
 3920TP3     H223580   5.216   4.687   0.317 -0.6699  1.5443  0.6434
 3921TP3      O23581   4.004   1.845   2.891 -0.1176  0.2494 -0.0363
 3921TP3     H123582   3.944   1.775   2.918  1.2257 -1.5036 -1.5111
 3921TP3     H223583   4.074   1.842   2.957 -0.4861  0.7797  0.3826
 3922TP3      O23584   1.027   4.318   0.480  0.5727 -0.1751 -0.5529
 3922TP3     H123585   1.002   4.332   0.389  1.2572  2.4449 -0.3763
 3922TP3     H223586   1.119   4.344   0.484 -0.0450  1.8424  1.3283
 3923TP3      O23587   0.594   0.052   1.000 -0.3304  0.0363  0.4942
 3923TP3     H123588   0.685   0.057   1.030  0.1241  0.1440 -0.8575
 3923TP3     H223589   0.567   0.143   0.991  0.2997  0.0298 -1.6369
 3924TP3      O23590   0.633   4.293   2.123  0.3332  0.4740 -0.0755
 3924TP3     H123591   0.719   4.321   2.155 -1.2546  1.8980  3.0888
 3924TP3     H223592   0.611   4.217   2.177 -0.6793  0.4706 -0.4880
 3925TP3      O23593   1.744   0.531   9.865  0.1893  0.2260 -0.1390
 3925TP3     H123594   1.688   0.592   9.913 -0.2799 -0.9050  0.7832
 3925TP3     H223595   1.683   0.474   9.818  0.6575  1.8332 -2.7780
 3926TP3      O23596   4.088   4.874   8.495  0.1262  0.0570 -0.3152
 3926TP3     H123597   4.139   4.933   8.550 -0.8326 -0.2582  0.9442
 3926TP3     H223598   3.997   4.892   8.519 -0.3757  0.5779 -2.4790
 3927TP3      O23599   4.525   4.077   2.657 -0.3152 -0.1622 -0.4431
 3927TP3     H123600   4.465   4.022   2.607 -0.8565 -0.8406  0.9207
 3927TP3     H223601   4.469   4.119   2.723  0.6174 -0.3806  0.4989
 3928TP3      O23602   1.196   0.230   1.816 -0.5376 -0.3037 -0.0757
 3928TP3     H123603   1.166   0.165   1.753 -0.7328  0.7476 -1.1002
 3928TP3     H223604   1.261   0.185   1.869  1.1875 -0.6606 -2.4142
 3929TP3      O23605   0.293   1.564   1.400  0.3325 -0.6430  0.2428
 3929TP3     H123606   0.198   1.566   1.390  0.4054  0.4243 -0.3896
 3929TP3     H223607   0.308   1.526   1.486 -0.7272  0.5992  0.9871
 3930TP3      O23608   3.171   5.045   2.733  0.0233 -0.5228  0.1571
 3930TP3     H123609   3.156   5.135   2.761 -1.1117 -0.7648  0.3866
 3930TP3     H223610   3.135   4.992   2.804  3.7945 -1.2217  1.6623
 3931TP3      O23611   4.263   0.933   1.276  0.4567 -0.3575 -0.2966
 3931TP3     H123612   4.305   0.954   1.359 -1.3840  0.9493  0.3369
 3931TP3     H223613   4.216   0.852   1.293  2.9618 -2.0619 -1.1286
 3932TP3      O23614   4.258   1.929   2.064 -0.0998  0.1690 -0.4087
 3932TP3     H123615   4.184   1.983   2.092  0.2010 -0.5563  1.9189
 3932TP3     H223616   4.219   1.859   2.012 -0.9460  0.3251  0.0159
 3933TP3      O23617   4.364   4.712   0.539  0.1457 -0.1731 -0.3836
 3933TP3     H123618   4.385   4.802   0.563  0.0510 -0.0002 -0.9440
 3933TP3     H223619   4.417   4.695   0.462  1.1119 -1.0233  0.4574
 3934TP3      O23620   2.507   1.846   2.170  0.6137  0.0028 -0.3966
 3934TP3     H123621   2.508   1.926   2.116  0.4920  1.4037  1.6063
 3934TP3     H223622   2.415   1.835   2.195  0.7652 -0.2517  0.0623
 3935TP3      O23623   1.349   1.952   3.403  0.6288  0.9305  0.4674
 3935TP3     H123624   1.272   1.911   3.443 -0.3849 -0.2192 -2.5537
 3935TP3     H223625   1.322   2.041   3.384  0.7010  1.0965  1.1086
 3936TP3      O23626   2.075   2.469   3.619 -0.0879  0.1154 -0.0074
 3936TP3     H123627   2.087   2.419   3.538  1.0521  2.1535 -1.1427
 3936TP3     H223628   2.150   2.445   3.673  0.1757  0.2078 -0.3319
 3937TP3      O23629   1.552   5.020   3.148  0.5615 -0.9524  0.0608
 3937TP3     H123630   1.631   5.024   3.202  0.9981  3.7846 -0.7807
 3937TP3     H223631   1.580   5.049   3.062 -1.9511  0.0482 -0.4465
 3938TP3      O23632   1.104   0.244   9.824  0.3328  0.6257  0.5359
 3938TP3     H123633   1.183   0.195   9.799  0.7195  0.9768  1.0657
 3938TP3     H223634   1.057   0.186   9.884 -1.5521 -1.0161 -2.4015
 3939TP3      O23635   2.380   4.949   3.316 -0.3526  0.3112 -0.3826
 3939TP3     H123636   2.324   4.993   3.252 -0.1709  1.4843  0.2684
 3939TP3     H223637   2.339   4.968   3.401 -0.4865 -1.0762 -0.1102
 3940TP3      O23638   0.790   3.017   1.845 -0.4761  0.1956  0.5857
 3940TP3     H123639   0.800   3.065   1.927 -1.0875 -0.9919  1.3678
 3940TP3     H223640   0.739   3.076   1.789  0.3477  1.1982  0.8918
 3941TP3      O23641   2.184   2.191   1.951  0.1564  0.2734 -0.0513
 3941TP3     H123642   2.261   2.160   1.999 -0.2407  2.2978  1.9814
 3941TP3     H223643   2.109   2.159   2.002 -0.2629  4.4330  2.1429
 3942TP3      O23644   4.952   1.651   1.559 -0.1184  0.2151  0.0074
 3942TP3     H123645   4.984   1.601   1.483 -2.0670 -0.8198 -0.1749
 3942TP3     H223646   4.931   1.584   1.624  0.5632  1.0409  1.0994
 3943TP3      O23647   0.185   2.378   9.539 -0.1348 -0.6001  0.4127
 3943TP3     H123648   0.117   2.402   9.475  0.8749 -0.3975 -0.6034
 3943TP3     H223649   0.225   2.299   9.503 -1.9001 -2.5467  2.5872
 3944TP3      O23650   4.997   2.267   0.759  0.2601  0.0180  0.0155
 3944TP3     H123651   5.007   2.216   0.840 -0.2853  0.8200  0.6019
 3944TP3     H223652   5.021   2.356   0.785  0.8434  0.1352 -0.9091
 3945TP3      O23653   4.734   1.579   2.490 -0.5384 -0.2674  0.3662
 3945TP3     H123654   4.791   1.561   2.564  0.6400  2.3451  0.1609
 3945TP3     H223655   4.771   1.658   2.449 -1.0227 -1.7443 -3.1214
 3946TP3      O23656   0.549   1.846   8.652  0.7431 -0.1977 -0.4821
 3946TP3     H123657   0.459   1.824   8.675  0.6720  0.7036  0.1340
 3946TP3     H223658   0.570   1.788   8.579 -0.0385 -1.0116 -0.0648
 3947TP3      O23659   4.231   2.285   1.130 -0.4452  0.6037  0.0530
 3947TP3     H123660   4.275   2.333   1.201 -0.6678  0.0824  0.5428
 3947TP3     H223661   4.231   2.347   1.056 -1.3525  1.6198  0.8899
 3948TP3      O23662   5.300   4.836   8.580 -0.0417 -0.6929 -0.1901
 3948TP3     H123663   5.369   4.892   8.616 -1.5463  0.9903  0.0945
 3948TP3     H223664   5.306   4.848   8.485 -1.2944  1.0690 -0.0529
 3949TP3      O23665   3.774   0.697   2.180  0.0930 -0.1154  0.0158
 3949TP3     H123666   3.718   0.766   2.217  1.9257  2.0690 -1.1353
 3949TP3     H223667   3.847   0.691   2.240 -0.5123 -1.7888  0.6221
 3950TP3      O23668   0.955   0.478   9.814 -0.5784  0.4586  0.0463
 3950TP3     H123669   0.977   0.491   9.722 -0.2626 -0.0759  0.0383
 3950TP3     H223670   0.987   0.389   9.833 -0.0493  0.8139  0.8391
 3951TP3      O23671   4.162   0.159   0.852 -0.4291  0.0230 -0.4515
 3951TP3     H123672   4.131   0.147   0.762 -0.8842  0.3491 -0.3421
 3951TP3     H223673   4.257   0.159   0.844 -0.4615 -0.3300 -0.8840
 3952TP3      O23674   4.036   4.691   8.958  0.0192  0.1628 -0.0737
 3952TP3     H123675   3.948   4.724   8.942 -0.3297  0.0514  1.5671
 3952TP3     H223676   4.049   4.702   9.052  0.4518 -3.0623  0.3002
 3953TP3      O23677   1.476   1.368   2.859  0.0108 -0.5373  0.6067
 3953TP3     H123678   1.552   1.328   2.818 -0.2800  0.7435 -1.2476
 3953TP3     H223679   1.490   1.356   2.953  1.3011 -2.4346  0.1939
 3954TP3      O23680   1.893   2.734   1.142  0.4613 -0.4923  0.1332
 3954TP3     H123681   1.886   2.713   1.049 -0.0152  3.2547 -0.7499
 3954TP3     H223682   1.825   2.680   1.184 -0.5642 -0.8390 -1.9208
 3955TP3      O23683   2.973   1.672   9.176 -0.1769  0.4530  0.0308
 3955TP3     H123684   2.947   1.718   9.256 -1.8089  0.7543 -0.6493
 3955TP3     H223685   2.896   1.677   9.120  0.4823 -0.9649 -1.0294
 3956TP3      O23686   5.043   1.992   8.128 -0.3592 -0.8150 -0.1181
 3956TP3     H123687   5.011   2.080   8.147  0.9564 -0.2595 -0.4111
 3956TP3     H223688   4.964   1.939   8.120 -1.2715  0.7770 -2.0865
 3957TP3      O23689   0.401   1.457   9.326 -0.1308  0.2600 -0.0923
 3957TP3     H123690   0.350   1.413   9.394 -1.8843  2.1710 -0.1528
 3957TP3     H223691   0.491   1.426   9.341 -0.6605 -0.1838  2.4017
 3958TP3      O23692   2.270   0.160   8.880 -0.0383 -0.0969  0.0120
 3958TP3     H123693   2.213   0.117   8.944 -2.3000  3.7266  0.7079
 3958TP3     H223694   2.348   0.184   8.929 -0.2775 -0.2325  0.4573
 3959TP3      O23695   0.055   2.705   0.344 -0.3279  0.1780  0.0308
 3959TP3     H123696   0.141   2.743   0.328 -0.6335  1.4877  1.3731
 3959TP3     H223697  -0.005   2.779   0.343 -1.4025 -0.6709 -0.5008
 3960TP3      O23698   4.908   1.720   1.953 -0.5277 -0.0115  0.3470
 3960TP3     H123699   4.828   1.680   1.987 -0.5025  0.7834  1.3557
 3960TP3     H223700   4.955   1.749   2.031  0.2134  0.5349 -0.2990
 3961TP3      O23701   4.435   1.521   0.971  0.3231  0.3224  0.2837
 3961TP3     H123702   4.385   1.581   0.915 -0.8944 -0.8815  0.0612
 3961TP3     H223703   4.458   1.448   0.914 -1.2050 -1.0667  1.4250
 3962TP3      O23704   0.837   3.248   1.168 -0.1081  0.0491  0.3339
 3962TP3     H123705   0.881   3.186   1.111  0.6585  0.6414  0.2697
 3962TP3     H223706   0.751   3.209   1.185  0.3255 -0.9580  0.2057
 3963TP3      O23707   1.422   3.585   1.452 -0.1765 -0.3637 -0.7094
 3963TP3     H123708   1.505   3.567   1.496 -0.4381 -0.2389 -0.1510
 3963TP3     H223709   1.395   3.502   1.414 -0.0651 -0.5259 -0.4287
 3964TP3      O23710   1.755   1.753   2.595 -0.5420  0.4246 -0.1778
 3964TP3     H123711   1.742   1.658   2.598 -0.9907  0.4778 -0.4379
 3964TP3     H223712   1.839   1.764   2.549 -0.9202  0.1818 -0.9377
 3965TP3      O23713   2.517   3.539   8.515  0.3164 -0.4783  0.1444
 3965TP3     H123714   2.562   3.564   8.435 -0.8603 -0.5175 -0.5301
 3965TP3     H223715   2.425   3.531   8.490 -0.3159  1.1563  1.8679
 3966TP3      O23716   2.539   4.670   1.158 -0.2433 -0.5397 -0.3407
 3966TP3     H123717   2.540   4.604   1.089 -1.1750  0.1902 -1.0574
 3966TP3     H223718   2.630   4.676   1.186  0.1498 -0.8368 -1.5130
 3967TP3      O23719   4.994   3.482   1.970  0.6411  0.2888  0.0354
 3967TP3     H123720   4.913   3.527   1.992  1.0981  1.4073 -0.5239
 3967TP3     H223721   5.031   3.533   1.898  0.3733 -1.9046 -1.7110
 3968TP3      O23722   0.618   3.971   1.297  0.6717 -0.4377 -0.0766
 3968TP3     H123723   0.669   3.894   1.272 -1.5297 -1.9305 -0.0423
 3968TP3     H223724   0.604   3.962   1.391  2.1541  1.1172  0.3438
 3969TP3      O23725   1.668   0.456   2.855 -0.3508 -0.0147  0.1751
 3969TP3     H123726   1.614   0.448   2.933  1.0180  0.8727  1.2357
 3969TP3     H223727   1.630   0.530   2.807 -0.8298 -0.1777  0.3020
 3970TP3      O23728   0.958   3.217   8.985 -0.1398 -0.3575 -0.0387
 3970TP3     H123729   0.913   3.301   8.982  0.9120  0.1790 -1.4892
 3970TP3     H223730   0.893   3.156   9.020 -0.8139  1.1096  1.3435
 3971TP3      O23731   2.070   0.615   1.241 -0.7007  0.1081  0.3701
 3971TP3     H123732   2.087   0.661   1.323 -0.7881  0.4326  0.2044
 3971TP3     H223733   2.146   0.634   1.186 -1.2404  0.9296 -0.0902
 3972TP3      O23734   4.361   5.234   0.127 -0.2128 -0.3976 -0.1502
 3972TP3     H123735   4.452   5.231   0.097 -0.6954  0.3237 -1.7750
 3972TP3     H223736   4.314   5.178   0.066 -0.9910 -0.1377  0.2101
 3973TP3      O23737   0.480   4.038   2.283  0.3447  0.3066  0.3356
 3973TP3     H123738   0.471   3.943   2.293  1.4753  0.0876 -0.6455
 3973TP3     H223739   0.395   4.073   2.312 -0.7715 -1.1336 -1.0867
 3974TP3      O23740   4.901   2.238   9.668  0.6981  0.6217 -0.1022
 3974TP3     H123741   4.817   2.249   9.712  0.1465  1.2487 -1.2745
 3974TP3     H223742   4.877   2.215   9.578  1.7962 -1.1553  0.0437
 3975TP3      O23743   3.574   2.605   1.716  0.0654 -0.2491 -0.7166
 3975TP3     H123744   3.561   2.519   1.676  1.1081 -0.6733 -0.1687
 3975TP3     H223745   3.486   2.643   1.721 -0.5645 -1.8009  0.1986
 3976TP3      O23746   1.575   0.483   1.193  0.4507  0.0288  0.3428
 3976TP3     H123747   1.544   0.418   1.130 -0.1056  0.8601 -0.2538
 3976TP3     H223748   1.529   0.462   1.274  0.1898 -0.2548  0.1236
 3977TP3      O23749   3.072   0.956   2.802 -0.4011 -0.2745  0.2518
 3977TP3     H123750   3.064   0.864   2.828 -1.0258 -0.0911  0.7211
 3977TP3     H223751   3.152   0.986   2.844 -0.4527 -0.4679  0.4884
 3978TP3      O23752   5.082   4.338   2.728 -0.3627 -0.4399  0.2053
 3978TP3     H123753   5.074   4.401   2.800 -2.0553  0.7507 -0.9786
 3978TP3     H223754   5.172   4.306   2.734  1.0517  3.2454 -0.0626
 3979TP3      O23755   0.054   0.919   2.820 -0.1449  0.1916 -0.0763
 3979TP3     H123756   0.015   0.973   2.889  0.1471 -0.2521  0.4413
 3979TP3     H223757  -0.019   0.866   2.787 -0.2024  0.1162  0.1683
 3980TP3      O23758   5.086   1.182   8.185  0.6009  0.1855  0.5101
 3980TP3     H123759   5.023   1.178   8.256  1.6280 -0.5864  1.4000
 3980TP3     H223760   5.162   1.135   8.218  1.1752  0.0059 -1.0147
 3981TP3      O23761   3.979   0.693   2.373 -0.6079 -0.2409  0.0086
 3981TP3     H123762   3.977   0.615   2.428 -0.0406  0.5987  1.2233
 3981TP3     H223763   4.070   0.701   2.345 -0.2632  1.0897  1.4811
 3982TP3      O23764   4.681   5.213   9.163  0.9062 -0.0964 -0.1662
 3982TP3     H123765   4.758   5.249   9.207  0.6397  1.4459 -0.9330
 3982TP3     H223766   4.713   5.187   9.077  0.5120  0.7760 -0.5737
 3983TP3      O23767   3.225   4.874   2.520  0.1270 -0.3428  0.7459
 3983TP3     H123768   3.209   4.933   2.594 -2.8908 -0.4445  0.2522
 3983TP3     H223769   3.281   4.923   2.461 -0.1033  0.9777  1.6105
 3984TP3      O23770   4.295   1.930   1.353  0.0366  0.4090 -0.6167
 3984TP3     H123771   4.330   2.018   1.362  0.5236  0.1007  0.7209
 3984TP3     H223772   4.371   1.874   1.340 -0.0576 -0.0833  0.8474
 3985TP3      O23773   1.576   1.777   8.407 -0.0280  0.3416 -0.0043
 3985TP3     H123774   1.656   1.786   8.459 -0.3335  0.4873  0.4371
 3985TP3     H223775   1.586   1.692   8.364  0.4065  0.3987 -0.0231
 3986TP3      O23776   4.813   2.891   2.793  0.2547  0.5197 -0.5947
 3986TP3     H123777   4.895   2.866   2.751 -1.2156 -1.7505 -2.2851
 3986TP3     H223778   4.802   2.984   2.773  0.7856  0.0490 -3.2524
 3987TP3      O23779   1.469   1.442   0.356  0.5458  0.0987 -0.2766
 3987TP3     H123780   1.482   1.370   0.295  1.5996 -0.0507  0.1202
 3987TP3     H223781   1.411   1.407   0.423  0.9714 -0.3412 -0.1402
 3988TP3      O23782   1.637   1.194   2.697 -0.0455 -0.3869  0.4096
 3988TP3     H123783   1.714   1.143   2.722  0.5300  0.2422 -0.0760
 3988TP3     H223784   1.572   1.128   2.670 -0.2036 -0.9987  2.2275
 3989TP3      O23785   2.781   4.473   2.433 -0.4884 -0.0951 -0.2145
 3989TP3     H123786   2.869   4.510   2.420  0.1102 -0.4850  2.2952
 3989TP3     H223787   2.790   4.419   2.512 -2.7979 -0.8235 -0.4152
 3990TP3      O23788   5.072   1.311   3.447  0.2692  0.0571 -0.1476
 3990TP3     H123789   4.997   1.308   3.506  0.8349  1.1039  0.6423
 3990TP3     H223790   5.129   1.379   3.483  1.7239 -0.8898 -0.5825
 3991TP3      O23791   4.426   1.614   1.836 -0.3776  0.0221  0.3337
 3991TP3     H123792   4.356   1.551   1.817 -0.3778  0.0382  0.2817
 3991TP3     H223793   4.407   1.688   1.778  0.4303 -0.5122 -0.6123
 3992TP3      O23794   2.390   4.072   9.304  0.1157 -1.3444  0.2526
 3992TP3     H123795   2.333   4.032   9.238  0.9232 -1.7256 -0.2154
 3992TP3     H223796   2.351   4.046   9.387 -1.8313  0.4536 -0.0525
 3993TP3      O23797   0.781   1.168   1.324 -0.1610  0.8153  0.1312
 3993TP3     H123798   0.821   1.095   1.371  1.0999  1.2791 -0.2120
 3993TP3     H223799   0.845   1.191   1.256 -0.8356  1.8170 -0.1744
 3994TP3      O23800   1.028   3.996   7.518 -0.0777  0.0920  0.3687
 3994TP3     H123801   1.061   3.927   7.576 -0.1340 -2.0395 -2.0643
 3994TP3     H223802   1.091   4.067   7.526  1.3025 -1.2002  1.0609
 3995TP3      O23803   0.340   3.164   0.102  0.4381  0.1254 -0.1071
 3995TP3     H123804   0.352   3.069   0.090  0.8746 -0.1796  2.3621
 3995TP3     H223805   0.319   3.197   0.015  1.7279 -2.0313 -1.2817
 3996TP3      O23806   3.932   0.017   2.189  0.9684 -0.4705  0.0215
 3996TP3     H123807   3.994   0.045   2.121  0.6943 -0.8130 -0.3727
 3996TP3     H223808   3.900  -0.067   2.158 -0.4084  0.1393 -0.2517
 3997TP3      O23809   3.535   1.706   9.751  0.4646  0.0585  0.4565
 3997TP3     H123810   3.450   1.692   9.794 -0.9340  2.1927 -1.5037
 3997TP3     H223811   3.568   1.787   9.789  0.4403  0.5603 -0.5695
 3998TP3      O23812   1.657   1.417   2.364 -0.8853 -0.0080  0.3986
 3998TP3     H123813   1.656   1.464   2.447 -1.5184  0.7404 -0.0292
 3998TP3     H223814   1.736   1.447   2.320 -2.4649  2.4495 -0.8758
 3999TP3      O23815   1.328   0.624   9.980  0.1445 -0.0796  0.5846
 3999TP3     H123816   1.300   0.702   9.931  0.6639 -1.5186 -2.1048
 3999TP3     H223817   1.416   0.647  10.012  1.1291 -0.2432 -1.9015
 4000TP3      O23818   3.651   4.190   0.928  0.4089  0.1506 -0.2754
 4000TP3     H123819   3.621   4.256   0.865 -0.3748  1.5654  1.5488
 4000TP3     H223820   3.634   4.229   1.014  1.2496 -1.8492  0.8284
 4001TP3      O23821   0.478   0.803   0.836 -0.2199 -0.1524 -0.1935
 4001TP3     H123822   0.424   0.850   0.900  0.4854  0.5350 -0.1058
 4001TP3     H223823   0.561   0.851   0.834 -0.4002  0.1301 -1.9662
 4002TP3      O23824   1.108   0.460   2.769 -0.0877  0.2172 -0.3476
 4002TP3     H123825   1.189   0.480   2.816 -0.9142  1.7737  0.4365
 4002TP3     H223826   1.059   0.404   2.829 -0.0499  0.1385 -0.3899
 4003TP3      O23827   1.081   1.939   3.478 -0.4646 -0.1523  0.5454
 4003TP3     H123828   1.051   1.875   3.543  0.2100  0.3861  1.3924
 4003TP3     H223829   1.082   2.022   3.525  1.1690  0.0474  0.1833
 4004TP3      O23830   3.358   3.709   8.350 -0.3787  0.2563  0.1848
 4004TP3     H123831   3.441   3.730   8.394  0.1218 -1.3609  0.0291
 4004TP3     H223832   3.324   3.634   8.398 -1.0321 -0.0115 -0.6861
 4005TP3      O23833   4.513   0.649   3.129 -0.1839 -0.3850 -0.4204
 4005TP3     H123834   4.423   0.675   3.148 -0.8573 -1.0326 -2.6004
 4005TP3     H223835   4.542   0.712   3.063  1.1810  0.1885  0.7053
 4006TP3      O23836   0.674   2.485  10.061 -0.1485  0.0279  0.7267
 4006TP3     H123837   0.706   2.435  10.137  2.4659  1.5095  0.6677
 4006TP3     H223838   0.694   2.430   9.986 -0.2339 -0.2418  0.9005
 4007TP3      O23839   1.953   3.356   2.877 -0.3409  0.4595  0.3123
 4007TP3     H123840   1.862   3.378   2.859 -0.5003 -1.0311 -0.7256
 4007TP3     H223841   1.956   3.260   2.876  1.3265  0.5008 -0.1213
 4008TP3      O23842   2.398   2.141  10.142 -0.7052  0.0102 -0.0384
 4008TP3     H123843   2.371   2.164  10.053  0.7426  1.1878 -0.1827
 4008TP3     H223844   2.493   2.152  10.142 -0.6404 -0.4415  1.5293
 4009TP3      O23845   2.882   1.506   2.531  0.2955  0.2607 -0.2245
 4009TP3     H123846   2.913   1.571   2.595  3.6945 -0.8971 -0.5728
 4009TP3     H223847   2.907   1.543   2.446  1.0086 -0.8604 -0.5085
 4010TP3      O23848   2.681   0.060  10.040 -0.1501 -0.2196  0.2639
 4010TP3     H123849   2.670   0.066   9.945 -2.8268  1.2752  0.6199
 4010TP3     H223850   2.594   0.041  10.073  0.3523  1.2414  2.5512
 4011TP3      O23851   0.606   2.048   3.346 -0.3146  0.6536  0.0950
 4011TP3     H123852   0.589   1.976   3.285  1.4874 -0.0242  0.3727
 4011TP3     H223853   0.700   2.064   3.338 -0.6871  2.9691  0.0572
 4012TP3      O23854   5.005   3.627   8.503  0.0238 -0.3231  0.3346
 4012TP3     H123855   5.020   3.679   8.424  2.4655 -2.3339 -0.6042
 4012TP3     H223856   5.056   3.671   8.571 -1.1247  0.7299  0.5368
 4013TP3      O23857   0.197   1.114   7.769  0.4536 -0.0444 -0.6180
 4013TP3     H123858   0.160   1.034   7.731 -0.3964  0.7021 -1.3841
 4013TP3     H223859   0.276   1.130   7.717  0.4351 -0.2033 -0.6955
 4014TP3      O23860   4.764   5.265   2.487 -0.2076  0.4693 -0.0050
 4014TP3     H123861   4.813   5.228   2.413 -1.3863  0.0784 -0.5907
 4014TP3     H223862   4.713   5.192   2.521  0.4589  0.6042  1.3159
 4015TP3      O23863   1.739   4.851   1.194 -0.4674  0.3332  0.1105
 4015TP3     H123864   1.673   4.912   1.227 -0.2675 -0.0974  1.3608
 4015TP3     H223865   1.821   4.899   1.199 -0.2971 -0.0367  1.1767
 4016TP3      O23866   2.491   4.870   9.645 -0.2956  0.2579 -0.4205
 4016TP3     H123867   2.580   4.840   9.663 -0.4140 -0.7972 -1.4795
 4016TP3     H223868   2.441   4.844   9.722 -0.3660 -2.2547 -1.2644
 4017TP3      O23869   3.555   4.748   2.267  0.2491 -0.2022  0.1202
 4017TP3     H123870   3.549   4.820   2.204  1.3890 -0.1264  0.0889
 4017TP3     H223871   3.643   4.754   2.302 -0.2853 -0.4181  1.5372
 4018TP3      O23872   2.384   1.143   0.596  0.4671  0.0895 -0.0965
 4018TP3     H123873   2.314   1.085   0.625  1.0162 -0.8109 -0.5602
 4018TP3     H223874   2.368   1.154   0.502  1.8479 -1.3849 -0.5234
 4019TP3      O23875   0.041   2.311   2.220  0.1233  0.1083 -0.2985
 4019TP3     H123876   0.037   2.342   2.129 -1.0419  1.8384  0.3023
 4019TP3     H223877  -0.009   2.230   2.220  0.7366 -0.2760 -1.3465
 4020TP3      O23878   3.899   1.000   3.112 -0.4436 -0.5943  0.0258
 4020TP3     H123879   3.928   0.909   3.114 -1.8676 -1.0603  0.0411
 4020TP3     H223880   3.942   1.041   3.187  1.2815 -0.9128 -0.7804
 4021TP3      O23881   0.398   2.347   3.696 -0.2475  0.2547 -0.2311
 4021TP3     H123882   0.402   2.263   3.652 -0.2605 -0.2209  0.6639
 4021TP3     H223883   0.464   2.401   3.653  1.8583 -1.1552  1.1633
 4022TP3      O23884   1.639   0.612   2.102 -0.7671  0.1473 -0.2173
 4022TP3     H123885   1.654   0.691   2.050 -1.2815  0.6926  0.4533
 4022TP3     H223886   1.612   0.546   2.039 -1.5213  0.8416 -0.6201
 4023TP3      O23887   5.074   0.489   0.285 -0.2298  0.4015 -0.5759
 4023TP3     H123888   5.014   0.419   0.259  0.5607 -0.7014  0.5281
 4023TP3     H223889   5.159   0.446   0.294 -0.1137  1.1024  2.0528
 4024TP3      O23890   1.758   3.799   8.822 -0.6530  0.3053 -0.2087
 4024TP3     H123891   1.806   3.831   8.746 -0.2152 -1.9860 -0.9292
 4024TP3     H223892   1.693   3.868   8.840  2.0404  2.8728  0.0335
 4025TP3      O23893   1.395   1.557   1.737 -0.0826 -0.6588  0.1788
 4025TP3     H123894   1.429   1.496   1.802  0.1251  0.0253  0.7247
 4025TP3     H223895   1.443   1.639   1.754 -0.7097 -0.2050 -0.2120
 4026TP3      O23896   4.937   1.568   2.671 -0.4451  0.5063 -0.0231
 4026TP3     H123897   4.963   1.499   2.733 -1.1181 -1.5116 -1.9155
 4026TP3     H223898   5.004   1.636   2.682 -0.9611  0.5610  3.4362
 4027TP3      O23899   4.404   0.756   1.498  0.1738  0.2507  0.1846
 4027TP3     H123900   4.339   0.722   1.559  0.2848 -0.6061 -0.1776
 4027TP3     H223901   4.487   0.749   1.545  0.0957  0.7461  0.4016
 4028TP3      O23902   1.142   2.883   2.029  0.0201 -0.2574  0.3213
 4028TP3     H123903   1.085   2.809   2.046  0.8465 -1.1317 -0.6758
 4028TP3     H223904   1.177   2.907   2.115 -0.1187 -1.1323  0.6195
 4029TP3      O23905   4.407   3.731   1.274 -0.2337  0.1197 -0.0353
 4029TP3     H123906   4.387   3.639   1.290 -0.2201  0.3426  1.4175
 4029TP3     H223907   4.370   3.777   1.350  0.1445  1.2534 -0.5218
 4030TP3      O23908   0.154   0.083   1.523 -0.4622 -0.2640 -0.0125
 4030TP3     H123909   0.135   0.042   1.607  1.0129  0.5804  0.7508
 4030TP3     H223910   0.188   0.012   1.469 -0.1858 -0.5352  0.5185
 4031TP3      O23911   4.791   4.149   0.884  0.0650  0.4875  0.1121
 4031TP3     H123912   4.795   4.197   0.801 -1.3592  2.1624  1.0068
 4031TP3     H223913   4.862   4.185   0.936 -0.1860  0.7020  0.3032
 4032TP3      O23914   1.917   0.957   2.037  0.2027 -0.5096  0.3491
 4032TP3     H123915   1.974   1.009   2.094  0.0748 -0.4849  0.4526
 4032TP3     H223916   1.896   0.879   2.088  0.1484 -0.5222  0.3080
 4033TP3      O23917   2.091   4.948   1.763  0.2317 -0.4267 -0.5234
 4033TP3     H123918   2.075   4.861   1.799 -0.5909  0.4003  1.2068
 4033TP3     H223919   2.042   4.950   1.681 -0.4861 -1.2837 -0.1240
 4034TP3      O23920   0.089   0.396   7.977  0.0598  0.0177  0.1959
 4034TP3     H123921   0.118   0.478   8.017  1.4948 -0.7808  0.8422
 4034TP3     H223922   0.074   0.418   7.885 -3.8886  2.0363  1.2147
 4035TP3      O23923   3.400   3.935   2.649  0.5442 -0.7121  0.0634
 4035TP3     H123924   3.424   4.000   2.716  2.4849  1.0033 -2.2251
 4035TP3     H223925   3.404   3.851   2.695  1.2260  0.4866  2.2655
 4036TP3      O23926   4.945   5.039   0.673  0.0491  0.2291  0.3896
 4036TP3     H123927   4.978   5.123   0.705  1.1283  0.6402 -1.7209
 4036TP3     H223928   4.947   5.047   0.578 -3.0851 -0.9520  0.1798
 4037TP3      O23929   2.338   0.680   3.283 -0.1460  0.1362 -0.2720
 4037TP3     H123930   2.292   0.738   3.222 -1.0956 -1.2664 -0.9176
 4037TP3     H223931   2.401   0.632   3.229 -0.0276 -0.1184  0.0839
 4038TP3      O23932   4.987   1.262   3.181 -0.2317 -0.3162  0.1853
 4038TP3     H123933   4.989   1.282   3.275  0.2534 -1.4836  0.4254
 4038TP3     H223934   4.910   1.207   3.170  0.9399 -2.0062  0.2737
 4039TP3      O23935   4.528   0.410   1.260 -0.0378  0.5490  0.3986
 4039TP3     H123936   4.448   0.454   1.289 -0.4347  0.3608 -0.4185
 4039TP3     H223937   4.569   0.472   1.200  0.7885  0.9351  1.3453
 4040TP3      O23938   4.566   4.648   9.648 -0.2695  0.1847 -0.0212
 4040TP3     H123939   4.613   4.666   9.567  1.2475  1.4068  1.1016
 4040TP3     H223940   4.508   4.723   9.660  0.2241  0.4723  0.5423
 4041TP3      O23941   2.389   1.173   0.328  0.4935 -0.1333  0.1292
 4041TP3     H123942   2.452   1.106   0.355 -0.1562 -0.5333  0.6740
 4041TP3     H223943   2.388   1.167   0.232  1.1898 -0.2029  0.1216
 4042TP3      O23944   4.885   3.462   0.247  0.1898  0.4342 -0.1580
 4042TP3     H123945   4.877   3.414   0.164 -2.2876 -1.6554  1.2455
 4042TP3     H223946   4.842   3.546   0.230 -2.7392 -1.0268 -0.2385
 4043TP3      O23947   1.139   2.788  10.160  0.0373  0.1689 -0.8309
 4043TP3     H123948   1.113   2.846  10.231 -0.1986 -0.5092 -0.3594
 4043TP3     H223949   1.111   2.701  10.188  0.5936 -0.2118 -1.4273
 4044TP3      O23950   2.047   3.990   0.840 -0.6613 -0.0656 -0.3708
 4044TP3     H123951   1.953   3.999   0.824 -0.5038 -0.9889 -1.9315
 4044TP3     H223952   2.084   4.074   0.815 -1.1128  0.4784  0.7334
 4045TP3      O23953   1.459   3.294   1.408  0.6127 -0.8096  0.0226
 4045TP3     H123954   1.472   3.258   1.320 -0.9603  1.2114 -1.0853
 4045TP3     H223955   1.365   3.288   1.422  0.4337  1.8771  0.2014
 4046TP3      O23956   2.763   2.574   2.043  0.0234  0.3649  0.9013
 4046TP3     H123957   2.807   2.611   1.966 -1.6314 -3.0106 -1.7877
 4046TP3     H223958   2.695   2.638   2.065  1.3005  1.9475  0.3710
 4047TP3      O23959   1.286   4.731   2.451  0.0856 -0.0209  0.0407
 4047TP3     H123960   1.334   4.662   2.405 -1.1703 -0.8407 -0.0758
 4047TP3     H223961   1.277   4.802   2.387  1.9188  0.5194  0.3556
 4048TP3      O23962   4.045   0.921   0.496 -0.7188 -0.1801 -0.4378
 4048TP3     H123963   4.119   0.962   0.450 -0.2786 -0.5400 -0.0517
 4048TP3     H223964   4.066   0.932   0.589 -1.0545 -0.4606 -0.3308
 4049TP3      O23965   4.885   4.259   0.594 -0.1643  0.5232 -0.0392
 4049TP3     H123966   4.960   4.205   0.570  1.2786  2.7190 -0.6317
 4049TP3     H223967   4.919   4.316   0.663 -2.1462 -0.4612  1.8143
 4050TP3      O23968   5.159   3.265   2.935  0.0281  0.4169 -0.0156
 4050TP3     H123969   5.151   3.353   2.972 -0.6655  0.4612 -0.2707
 4050TP3     H223970   5.252   3.243   2.945 -0.0203  0.7068  1.1146
 4051TP3      O23971   4.648   4.358   0.306 -0.5923  0.2921 -0.3743
 4051TP3     H123972   4.691   4.392   0.384 -0.9436  0.9603 -0.4661
 4051TP3     H223973   4.571   4.312   0.339 -0.1292 -0.4141 -0.2518
 4052TP3      O23974   2.704   5.233   3.268 -0.1838  0.0361  0.7009
 4052TP3     H123975   2.675   5.177   3.340 -1.4179 -0.0978  0.1094
 4052TP3     H223976   2.730   5.172   3.199 -0.7383  0.1702  0.3662
 4053TP3      O23977   0.191   4.996   3.092  0.0593 -0.6073 -0.4850
 4053TP3     H123978   0.142   5.078   3.081 -0.5428 -0.9395 -0.2792
 4053TP3     H223979   0.136   4.943   3.150  1.2825 -0.4624  0.8529
 4054TP3      O23980   3.830   4.485   0.593  0.2753 -0.0985  0.2386
 4054TP3     H123981   3.906   4.441   0.556 -0.3344  0.6025 -1.8991
 4054TP3     H223982   3.846   4.578   0.576 -0.5071  0.1422  0.8102
 4055TP3      O23983   0.094   1.951   0.223  0.2526  1.1397 -0.1848
 4055TP3     H123984   0.072   1.891   0.151 -0.9336 -1.8962  2.5876
 4055TP3     H223985   0.190   1.952   0.223  0.2908 -0.5642 -0.4560
 4056TP3      O23986   5.037   4.929   2.081 -0.3452  0.2240  0.0254
 4056TP3     H123987   5.090   4.984   2.139 -0.2986  1.1041 -0.8352
 4056TP3     H223988   5.100   4.870   2.040 -0.1921  0.5092 -0.1481
 4057TP3      O23989   0.852   1.157   3.299  0.1980 -0.0403 -0.3158
 4057TP3     H123990   0.762   1.186   3.281 -0.1631 -1.3207 -0.6660
 4057TP3     H223991   0.891   1.228   3.348 -1.5797 -0.2079  1.4164
 4058TP3      O23992   0.815   2.146   1.237  0.4531 -0.5483 -0.3677
 4058TP3     H123993   0.878   2.144   1.309  2.3764 -0.8844 -2.0161
 4058TP3     H223994   0.813   2.055   1.206 -0.6169 -0.4726 -0.5227
 4059TP3      O23995   3.722   1.364   1.398 -0.3204 -0.2896  0.1747
 4059TP3     H123996   3.772   1.424   1.453  1.1019 -0.1509 -1.2295
 4059TP3     H223997   3.787   1.300   1.368 -1.1606 -0.6024 -1.0029
 4060TP3      O23998   1.403   4.512   2.316  0.1999 -0.0322  0.1840
 4060TP3     H123999   1.435   4.504   2.226  0.6108  0.2354  0.3054
 4060TP3     H224000   1.376   4.424   2.339 -0.4152 -0.0015 -0.3906
 4061TP3      O24001   1.086   0.805   3.134  0.1348 -0.3153  0.2729
 4061TP3     H124002   1.066   0.883   3.186  1.1186 -0.3653  0.7456
 4061TP3     H224003   1.096   0.735   3.199  0.4166 -0.5810 -0.0580
 4062TP3      O24004   4.497   1.121   2.167 -0.1658  0.1972 -0.0653
 4062TP3     H124005   4.422   1.063   2.153 -1.0824  0.8414  2.0472
 4062TP3     H224006   4.466   1.207   2.142 -0.1258  0.4452  0.7081
 4063TP3      O24007   1.268   0.264   1.118 -0.4458 -0.2403 -0.5730
 4063TP3     H124008   1.336   0.307   1.067 -0.3650  0.1344 -0.1486
 4063TP3     H224009   1.314   0.216   1.186 -0.5935 -0.0734 -0.3510
 4064TP3      O24010   2.402   0.125   3.094  0.0868 -0.1205  0.1100
 4064TP3     H124011   2.490   0.128   3.131  0.7850 -2.9256 -1.1966
 4064TP3     H224012   2.351   0.075   3.157 -0.0071 -0.4433 -0.2208
 4065TP3      O24013   3.577   4.787   9.516 -0.7396  0.2810  0.9021
 4065TP3     H124014   3.640   4.737   9.568  1.3543  0.0163 -1.7674
 4065TP3     H224015   3.631   4.848   9.466 -3.0054  3.2855  1.9310
 4066TP3      O24016   4.597   5.040   8.367 -0.1392 -0.3006  0.3183
 4066TP3     H124017   4.508   5.012   8.389 -0.8413  0.5115 -1.3700
 4066TP3     H224018   4.592   5.063   8.274  1.4881  1.1284  0.5650
 4067TP3      O24019   1.400   1.971   0.502 -0.7203 -0.0399  0.1597
 4067TP3     H124020   1.441   1.973   0.589 -0.6730  1.6509  0.1130
 4067TP3     H224021   1.405   1.879   0.476 -1.5147 -0.7294  2.3197
 4068TP3      O24022   1.005   2.970   2.665 -1.4347  1.0040 -0.4657
 4068TP3     H124023   1.025   2.983   2.757  0.8633  0.7400 -0.8917
 4068TP3     H224024   1.050   3.041   2.620  1.4466 -1.5432 -1.7693
 4069TP3      O24025   2.552   4.162   1.201 -0.3553  0.0409 -0.2334
 4069TP3     H124026   2.562   4.082   1.252 -1.9046 -0.9909 -1.5268
 4069TP3     H224027   2.632   4.212   1.218 -0.1466 -1.0064  1.9216
 4070TP3      O24028   1.749   1.824   3.184  0.5629  0.0512 -0.5562
 4070TP3     H124029   1.833   1.870   3.191  0.7814 -0.2802 -0.9866
 4070TP3     H224030   1.683   1.892   3.200  0.8929  0.4335 -0.8069
 4071TP3      O24031   4.373   2.786   9.810 -0.5303  0.4303  0.4266
 4071TP3     H124032   4.380   2.708   9.866 -0.1075  0.7729  0.8513
 4071TP3     H224033   4.321   2.848   9.862 -1.5641  0.1293 -0.2484
 4072TP3      O24034   0.477   4.283   8.049 -0.4240  0.1219  0.2266
 4072TP3     H124035   0.438   4.242   8.126 -0.3874 -1.0618 -0.3822
 4072TP3     H224036   0.565   4.246   8.043  0.1296  1.3536  0.4839
 4073TP3      O24037   4.949   4.435   2.948 -0.1566  0.1503 -0.6971
 4073TP3     H124038   4.892   4.412   2.875 -1.4578 -0.5422  0.5191
 4073TP3     H224039   4.900   4.499   2.998 -0.0485 -0.7471  0.5809
 4074TP3      O24040   3.495   0.330   1.941  0.0019  0.3796  0.3426
 4074TP3     H124041   3.565   0.309   2.003  1.3749 -0.2652 -1.3955
 4074TP3     H224042   3.448   0.248   1.929  0.5420  0.1792 -0.4495
 4075TP3      O24043   2.479   1.785   2.635  0.4961 -0.1387 -0.6818
 4075TP3     H124044   2.567   1.810   2.663  0.4454 -0.3769 -0.3128
 4075TP3     H224045   2.493   1.719   2.567  0.6648  1.5832 -2.3881
 4076TP3      O24046   1.017   4.644   1.544  0.4059  0.0971  0.1426
 4076TP3     H124047   1.005   4.651   1.449  0.8063 -0.0901  0.0771
 4076TP3     H224048   1.063   4.561   1.557  0.2031  0.0421  0.5144
 4077TP3      O24049   1.620   0.020   2.861 -0.2291 -0.7931 -0.2292
 4077TP3     H124050   1.688  -0.014   2.920 -0.8179  1.9423  2.1569
 4077TP3     H224051   1.555   0.058   2.920 -2.7985 -1.4191 -2.5583
 4078TP3      O24052   3.841   2.216   2.291 -0.0743 -0.1648  0.3449
 4078TP3     H124053   3.809   2.246   2.376 -0.0765  0.3233  0.1723
 4078TP3     H224054   3.883   2.293   2.253 -0.2413 -0.3306 -0.1798
 4079TP3      O24055   5.036   0.194   1.683 -0.5519  0.6711  0.4486
 4079TP3     H124056   5.066   0.241   1.606  0.3918  0.5723  0.7535
 4079TP3     H224057   5.106   0.205   1.747  0.5259 -2.5885 -0.0714
 4080TP3      O24058   3.462   2.484   0.783  0.1096 -0.1955  0.1263
 4080TP3     H124059   3.477   2.427   0.858  1.4087  0.0849  0.0919
 4080TP3     H224060   3.445   2.570   0.821 -1.7399 -0.5483  0.1737
 4081TP3      O24061   4.110   3.376   1.059  0.0153  0.4576  0.5559
 4081TP3     H124062   4.120   3.374   1.154 -2.1808  3.9566  0.9065
 4081TP3     H224063   4.022   3.343   1.044  0.6357 -0.8252 -0.3759
 4082TP3      O24064   3.885   0.608   9.980 -0.3448  0.3784  0.6660
 4082TP3     H124065   3.899   0.513   9.975 -2.2715  0.1796 -1.3218
 4082TP3     H224066   3.954   0.645   9.925  0.4709  0.1528  1.5244
 4083TP3      O24067   3.767   0.036   9.700  0.0904 -0.1314  0.1866
 4083TP3     H124068   3.703   0.101   9.731  0.4151  0.4167 -0.2946
 4083TP3     H224069   3.714  -0.029   9.654 -0.3476 -0.7094  1.4543
 4084TP3      O24070   3.120   3.281   8.692  0.8325  0.5261  0.4847
 4084TP3     H124071   3.067   3.296   8.770  1.2754 -1.3130  1.1471
 4084TP3     H224072   3.206   3.319   8.715  1.0309 -0.2121  0.9919
 4085TP3      O24073   4.323   5.156   9.286 -0.4449  0.1045  0.0100
 4085TP3     H124074   4.386   5.116   9.226  0.1096 -0.1111  0.7304
 4085TP3     H224075   4.259   5.087   9.303  0.2406 -0.3327  0.8616
 4086TP3      O24076   1.959   3.700   0.570  0.8785  0.0898  0.3967
 4086TP3     H124077   1.880   3.663   0.608  1.4334  0.3808  1.8855
 4086TP3     H224078   1.937   3.716   0.478 -0.9672  0.7107  0.9254
 4087TP3      O24079   1.939   1.922   2.261 -0.2487  0.0761  0.0381
 4087TP3     H124080   1.987   1.876   2.329  0.0262  1.1156  0.5515
 4087TP3     H224081   1.856   1.875   2.253 -0.3688  0.0902  1.2369
 4088TP3      O24082   2.825   0.181   0.246 -0.2144  0.7555 -0.4337
 4088TP3     H124083   2.791   0.238   0.176  2.4850  0.5815 -1.9304
 4088TP3     H224084   2.886   0.123   0.202  0.0171 -0.7095  1.7703
 4089TP3      O24085   4.990   3.900   0.193 -0.2330 -0.0653  0.0051
 4089TP3     H124086   4.949   3.924   0.110  2.8418 -0.2267 -1.5989
 4089TP3     H224087   4.956   3.964   0.256 -0.7261  1.5711 -1.8771
 4090TP3      O24088   1.930   2.438   7.694  0.1694 -0.8609  0.1062
 4090TP3     H124089   1.862   2.390   7.646 -0.6766  0.9339 -0.5182
 4090TP3     H224090   1.952   2.512   7.638  1.0351 -0.1717  1.3178
 4091TP3      O24091   0.392   4.898   0.255 -0.2791  0.5833  0.9504
 4091TP3     H124092   0.461   4.948   0.213  0.1669 -0.0053  0.9743
 4091TP3     H224093   0.311   4.943   0.231  0.0098  0.5127 -0.1631
 4092TP3      O24094   3.074   3.450   2.973 -0.1810 -0.0352  0.2110
 4092TP3     H124095   3.044   3.485   3.057  0.9831 -0.0546  0.6433
 4092TP3     H224096   3.128   3.375   2.996  0.5405  0.2526 -0.5397
 4093TP3      O24097   0.623   2.974   1.000 -0.4206  0.9178  0.1699
 4093TP3     H124098   0.550   2.959   1.060 -1.9965 -1.5306 -2.2602
 4093TP3     H224099   0.602   3.058   0.958 -1.3270  0.7262  0.2237
 4094TP3      O24100   0.594   1.318   1.852 -0.4825  0.0012 -0.3091
 4094TP3     H124101   0.623   1.229   1.836 -0.3779  0.2369 -1.4904
 4094TP3     H224102   0.572   1.320   1.945 -0.1683 -1.1585 -0.2042
 4095TP3      O24103   0.488   3.782   2.302  0.7258  0.2943 -0.2261
 4095TP3     H124104   0.504   3.749   2.390 -0.8828 -0.1678 -0.0868
 4095TP3     H224105   0.567   3.760   2.253  0.4473 -2.0702  0.3447
 4096TP3      O24106   3.230   1.763   0.740  0.2412  0.5247  0.3415
 4096TP3     H124107   3.317   1.765   0.700 -0.4886  0.5458 -1.2533
 4096TP3     H224108   3.215   1.671   0.759 -0.1039  0.2972 -0.9867
 4097TP3      O24109   0.099   0.342   0.114  0.1572  0.5763 -0.6065
 4097TP3     H124110   0.194   0.335   0.112  0.2221  1.6796 -1.9301
 4097TP3     H224111   0.082   0.432   0.143 -0.5047  0.1237  0.4682
 4098TP3      O24112   1.379   0.453   2.848  0.6076 -0.7645 -0.1148
 4098TP3     H124113   1.358   0.360   2.840  0.9460 -0.8496 -0.0218
 4098TP3     H224114   1.435   0.459   2.926 -1.8860 -0.0703  1.7021
 4099TP3      O24115   5.038   0.659   1.188 -0.8076 -0.0707  0.4021
 4099TP3     H124116   4.955   0.668   1.235 -0.1550  0.6296  1.4401
 4099TP3     H224117   5.044   0.739   1.136 -1.2412 -0.5724 -0.4438
 4100TP3      O24118   5.273   0.176   2.842  0.1760 -0.0621  0.1939
 4100TP3     H124119   5.355   0.224   2.836 -0.0246  0.3780  0.8890
 4100TP3     H224120   5.264   0.155   2.935 -0.2777 -0.4804  0.0573
 4101TP3      O24121   4.558   4.905   1.402  0.0280  0.0309  0.2408
 4101TP3     H124122   4.525   4.860   1.324  0.8574 -0.5109  0.1981
 4101TP3     H224123   4.646   4.933   1.378  0.5897 -0.8385  1.2554
 4102TP3      O24124   1.121   0.021   0.377 -0.1009  0.4249  0.2335
 4102TP3     H124125   1.198   0.069   0.406  1.0633 -1.6842  0.7325
 4102TP3     H224126   1.114   0.042   0.283  0.5936  1.2410  0.3561
 4103TP3      O24127   4.693   2.611   9.418 -0.4437 -0.3877  0.2403
 4103TP3     H124128   4.641   2.532   9.408 -0.0224 -0.7088  0.5844
 4103TP3     H224129   4.638   2.669   9.471 -1.5642  0.2999 -1.6017
 4104TP3      O24130   4.955   1.629   1.268 -0.3168  0.2797 -0.2960
 4104TP3     H124131   4.999   1.546   1.251  0.5602  0.8098 -0.6342
 4104TP3     H224132   5.021   1.696   1.251  0.0622  0.9459  3.2639
 4105TP3      O24133   0.396   0.957   2.574 -0.2249 -0.0601 -0.2934
 4105TP3     H124134   0.353   1.035   2.608 -1.5802 -0.8941 -0.0617
 4105TP3     H224135   0.467   0.939   2.636 -0.0578  0.8338 -0.2198
 4106TP3      O24136   4.325   1.965   9.206  0.1675  0.1284 -0.2783
 4106TP3     H124137   4.300   1.884   9.160 -1.4705 -0.2885  1.3059
 4106TP3     H224138   4.314   2.033   9.140  0.0047 -0.7357 -1.1659
 4107TP3      O24139   1.812   2.335   1.680 -0.8178 -0.2539 -0.3131
 4107TP3     H124140   1.720   2.329   1.655 -1.2654  3.4943  0.1029
 4107TP3     H224141   1.812   2.389   1.759  1.8346  1.0802 -1.1661
 4108TP3      O24142   1.101   4.514   2.475  0.3140 -0.2658 -0.0687
 4108TP3     H124143   1.167   4.581   2.458  0.7429 -0.3890  1.0086
 4108TP3     H224144   1.094   4.465   2.394  3.1356 -1.5970  0.4227
 4109TP3      O24145   3.081   4.206   2.223 -0.6331 -0.1023  0.0740
 4109TP3     H124146   3.104   4.147   2.151 -0.5135 -0.6946  0.5953
 4109TP3     H224147   2.988   4.224   2.210 -0.3006  0.8982 -1.0222
 4110TP3      O24148   1.236   0.845   9.812 -0.0532  0.0260 -0.4011
 4110TP3     H124149   1.185   0.782   9.761  0.2784 -0.4443 -0.1560
 4110TP3     H224150   1.208   0.930   9.779  0.3977 -0.2818 -1.6121
 4111TP3      O24151   4.687   5.013   0.743  0.1407 -0.2470  0.0383
 4111TP3     H124152   4.695   4.945   0.810  0.1026 -0.2610  0.0284
 4111TP3     H224153   4.772   5.010   0.697 -0.7623 -2.0327 -1.6140
 4112TP3      O24154   0.487   4.316   3.626  0.1587 -0.3343 -0.0424
 4112TP3     H124155   0.439   4.384   3.673  0.3877 -0.9530  1.0776
 4112TP3     H224156   0.419   4.255   3.596 -0.0521  0.3824 -1.0824
 4113TP3      O24157   1.111   3.295   9.297 -0.4114 -0.3505 -0.1300
 4113TP3     H124158   1.098   3.353   9.372 -0.2218  0.4105 -0.6852
 4113TP3     H224159   1.027   3.250   9.287 -0.3995 -0.5362  0.6121
 4114TP3      O24160   0.035   0.491   9.164 -0.1947 -0.0180 -0.2375
 4114TP3     H124161   0.005   0.581   9.154  1.6707  0.4571 -1.6847
 4114TP3     H224162   0.124   0.491   9.131 -0.3872 -2.5552 -0.8605
 4115TP3      O24163   2.895   2.999   8.872  0.0926  0.3616 -0.4101
 4115TP3     H124164   2.950   2.934   8.830  0.6186  0.2081  0.4940
 4115TP3     H224165   2.956   3.058   8.916 -0.3905  1.3300 -1.0168
 4116TP3      O24166   1.319   3.110   2.688 -0.1768  0.7081 -0.3414
 4116TP3     H124167   1.331   3.149   2.775 -0.7919  0.7173 -0.2635
 4116TP3     H224168   1.324   3.016   2.703 -2.0157  0.6451 -0.0305
 4117TP3      O24169   4.215   4.170   1.705 -0.3716  0.3509 -0.3929
 4117TP3     H124170   4.224   4.241   1.769  0.4923  0.2187 -0.3604
 4117TP3     H224171   4.211   4.090   1.758  1.2563  0.1614 -0.5204
 4118TP3      O24172   3.540   4.974   2.670 -0.2441 -0.1663 -0.9211
 4118TP3     H124173   3.490   4.930   2.738 -0.6817  1.3847 -0.2286
 4118TP3     H224174   3.483   4.972   2.593 -0.1507 -1.0350 -0.9760
 4119TP3      O24175   2.077   2.984   9.741  0.0539  0.0860  0.0919
 4119TP3     H124176   2.118   2.946   9.818  1.3600 -3.5793 -2.2795
 4119TP3     H224177   2.145   2.979   9.673 -1.7944  1.1080 -1.8887
 4120TP3      O24178   0.401   3.369   2.177 -0.6395  0.0579  0.3282
 4120TP3     H124179   0.379   3.449   2.129  0.2523 -0.8230 -1.6300
 4120TP3     H224180   0.496   3.375   2.190 -0.7924  0.0060  1.4643
 4121TP3      O24181   3.341   1.345   2.804 -0.5948 -0.6049 -0.4316
 4121TP3     H124182   3.335   1.426   2.856 -1.9022 -1.2997  0.5615
 4121TP3     H224183   3.384   1.283   2.862 -1.2098 -1.1187 -0.5129
 4122TP3      O24184   0.077   4.357   1.404 -0.5651  0.2385  0.6404
 4122TP3     H124185   0.133   4.373   1.480 -1.3720 -2.5177  1.8860
 4122TP3     H224186  -0.012   4.372   1.437 -0.9990 -2.0958  0.5986
 4123TP3      O24187   1.042   0.041   1.384  0.0578  0.1701 -0.7971
 4123TP3     H124188   0.981  -0.029   1.408 -0.5216  0.8314 -0.3590
 4123TP3     H224189   1.105  -0.003   1.326  0.7850 -1.1614  0.9335
 4124TP3      O24190   0.845   4.021   0.093  0.0348  0.3352  0.3191
 4124TP3     H124191   0.780   4.091   0.085  0.2003  0.4088 -0.3653
 4124TP3     H224192   0.911   4.041   0.027  0.0783 -0.4751  0.1113
 4125TP3      O24193   0.052   3.881   1.891 -0.1820  0.5169 -0.2778
 4125TP3     H124194  -0.001   3.884   1.971  3.4641  3.8434  2.2413
 4125TP3     H224195   0.019   3.954   1.837 -0.6119  0.2269 -0.4080
 4126TP3      O24196   2.930   0.159   0.948 -0.0479  0.1905  0.3803
 4126TP3     H124197   3.013   0.146   0.903 -0.1828 -1.9814  0.6855
 4126TP3     H224198   2.866   0.170   0.878 -0.0352 -1.7191  0.0390
 4127TP3      O24199   2.194   2.863   9.347  0.1487  0.6940  0.4212
 4127TP3     H124200   2.139   2.810   9.404 -0.0791  0.6162  0.1331
 4127TP3     H224201   2.163   2.844   9.259  1.0150  0.2160  0.2110
 4128TP3      O24202   3.457   3.033   0.639 -0.0577 -0.2475  0.4216
 4128TP3     H124203   3.453   3.083   0.721  0.6890  0.8580 -0.2116
 4128TP3     H224204   3.408   3.086   0.576 -0.0790 -0.7863 -0.0240
 4129TP3      O24205   1.280   3.011   2.268  0.0180 -0.1588 -0.1903
 4129TP3     H124206   1.319   2.925   2.281 -2.4797 -1.3105 -0.0653
 4129TP3     H224207   1.340   3.071   2.314  3.4587 -1.3657 -2.8629
 4130TP3      O24208   4.353   3.953   2.464 -0.3227  0.0025  0.6561
 4130TP3     H124209   4.281   4.002   2.504  1.2992  0.3859  3.1778
 4130TP3     H224210   4.313   3.873   2.432 -2.2119  1.0560  0.2941
 4131TP3      O24211   1.719   1.176   2.152 -0.3711 -0.3583 -0.1858
 4131TP3     H124212   1.765   1.123   2.217  1.1727  0.7612 -0.3459
 4131TP3     H224213   1.771   1.256   2.145 -2.8049  1.3139  0.2324
 4132TP3      O24214   3.910   0.312   1.964  0.5375 -0.5443  0.1737
 4132TP3     H124215   3.856   0.389   1.948  0.5648 -0.5986 -0.1870
 4132TP3     H224216   3.961   0.302   1.884 -0.5201 -1.7950 -0.3637
 4133TP3      O24217   4.128   3.113   9.679  0.2294 -0.2179  0.0101
 4133TP3     H124218   4.144   3.031   9.633  0.1088 -0.0798 -0.2767
 4133TP3     H224219   4.035   3.111   9.700 -0.0404  0.4100 -1.0926
 4134TP3      O24220   0.296   1.235   1.817  0.3054  0.0479 -0.1829
 4134TP3     H124221   0.379   1.275   1.841  0.8996 -1.2919  0.0252
 4134TP3     H224222   0.274   1.179   1.892 -0.6898  0.2469 -0.3186
 4135TP3      O24223   0.202   1.907   2.911 -0.3481  1.1182  0.1444
 4135TP3     H124224   0.248   1.843   2.965  1.3910  1.9682 -0.3007
 4135TP3     H224225   0.227   1.992   2.947 -1.5446  1.6030 -0.1366
 4136TP3      O24226   2.409   3.881   9.904  0.2629  0.5234  0.1314
 4136TP3     H124227   2.447   3.967   9.922 -0.3057  0.5307  1.3277
 4136TP3     H224228   2.320   3.899   9.875  0.9609  0.4731 -2.1307
 4137TP3      O24229   3.684   2.620   9.801  0.0220  0.0115 -0.3822
 4137TP3     H124230   3.621   2.642   9.870  0.3738  1.7233 -0.5861
 4137TP3     H224231   3.663   2.530   9.778  0.6310 -0.9884  2.7490
 4138TP3      O24232   4.257   1.157   1.109 -0.0581  0.3659  0.2622
 4138TP3     H124233   4.220   1.087   1.162 -0.2457  0.3632  0.1242
 4138TP3     H224234   4.204   1.234   1.130 -0.5651  0.2045 -0.4492
 4139TP3      O24235   4.407   1.125   1.814  0.2481 -0.2545  0.3634
 4139TP3     H124236   4.325   1.081   1.838  0.7429 -0.3975  1.8255
 4139TP3     H224237   4.466   1.055   1.791  0.6244 -0.2983  1.4176
 4140TP3      O24238   2.031   2.476   1.614  0.2446 -0.3991  0.2102
 4140TP3     H124239   1.981   2.395   1.625 -1.8871  0.8437 -0.0692
 4140TP3     H224240   2.075   2.490   1.698 -0.1948 -1.2929  0.5837
 4141TP3      O24241   4.011   3.818   0.213 -0.2902 -0.0135  0.9453
 4141TP3     H124242   4.062   3.783   0.287  1.9500  0.6284 -0.2486
 4141TP3     H224243   4.048   3.775   0.136 -1.8510  0.1730  0.0749
 4142TP3      O24244   2.265   5.270   1.605  0.2438 -0.2144 -0.5471
 4142TP3     H124245   2.321   5.207   1.652  0.0638  1.0607  1.4602
 4142TP3     H224246   2.301   5.356   1.628  0.2555  0.4648 -2.9553
 4143TP3      O24247   3.119   2.436   2.394 -0.1955 -0.6092  0.7479
 4143TP3     H124248   3.056   2.477   2.334  1.6945  1.7667  0.3168
 4143TP3     H224249   3.153   2.361   2.344  0.2720  0.4843 -0.6292
 4144TP3      O24250   2.724   4.692   1.755  0.4247  0.1677  0.0564
 4144TP3     H124251   2.684   4.638   1.686 -0.3748 -0.0237  0.6591
 4144TP3     H224252   2.816   4.697   1.731  0.4741 -1.3029 -0.1420
 4145TP3      O24253   3.841   0.610   2.644  0.2823  0.0324 -0.1082
 4145TP3     H124254   3.759   0.655   2.624  1.1735  1.2746 -1.0339
 4145TP3     H224255   3.905   0.680   2.652  1.3814 -0.9773 -0.0092
 4146TP3      O24256   2.002   0.395   0.922  0.2648 -0.5722  0.7502
 4146TP3     H124257   2.096   0.408   0.932  0.2831 -0.1188 -0.0375
 4146TP3     H224258   1.983   0.318   0.976  1.1628 -0.9451  0.5437
 4147TP3      O24259   4.427   3.613   2.532 -0.3227 -0.3314 -0.2406
 4147TP3     H124260   4.461   3.632   2.444  0.5925 -1.3587 -0.1096
 4147TP3     H224261   4.435   3.518   2.541 -0.8229 -0.2770  0.7885
 4148TP3      O24262   1.948   3.056   8.473  0.1247 -0.2015 -0.2770
 4148TP3     H124263   1.962   3.129   8.412 -0.9661 -0.0982 -0.4114
 4148TP3     H224264   2.025   3.001   8.461  1.1283  1.0954  0.0625
 4149TP3      O24265   0.978   3.714   2.146  0.0520 -0.0065  0.1861
 4149TP3     H124266   1.074   3.714   2.147  0.0957  2.2447 -1.0462
 4149TP3     H224267   0.954   3.768   2.221 -0.2965 -0.9293  0.7573
 4150TP3      O24268   0.854   2.051   2.373 -0.5283  0.2368  0.1158
 4150TP3     H124269   0.831   1.966   2.410  1.2353 -0.7283 -0.9790
 4150TP3     H224270   0.936   2.075   2.417  0.6211 -0.0833 -1.7961
 4151TP3      O24271   3.796   1.117   2.898 -0.6807  0.4327 -0.1067
 4151TP3     H124272   3.824   1.078   2.981  0.2169  0.0429 -0.5790
 4151TP3     H224273   3.833   1.205   2.899  0.1622  0.0844 -0.5219
 4152TP3      O24274   3.364   1.907   2.056 -1.2189 -0.1123 -0.1531
 4152TP3     H124275   3.368   1.953   2.140  0.3797  1.6349 -1.1491
 4152TP3     H224276   3.408   1.824   2.073 -0.6218  0.3612  0.6535
 4153TP3      O24277   2.995   4.725   1.761  0.0791 -0.2130 -0.3085
 4153TP3     H124278   3.005   4.772   1.844 -2.2954  1.5391 -0.9498
 4153TP3     H224279   2.996   4.632   1.786  3.2958  0.1222  1.1683
 4154TP3      O24280   1.870   1.398   2.891 -0.5278  0.2639  0.0621
 4154TP3     H124281   1.820   1.379   2.971 -0.4756  1.4832  0.3877
 4154TP3     H224282   1.923   1.320   2.877 -1.8128 -0.6641  0.2498
 4155TP3      O24283   0.173   0.328   9.329  0.2565  0.2694 -0.1033
 4155TP3     H124284   0.132   0.395   9.275  0.1242  0.2399 -0.0400
 4155TP3     H224285   0.261   0.361   9.346 -0.7339  1.8308  2.3681
 4156TP3      O24286   2.181   2.468   1.848 -0.7155  0.4660  0.2399
 4156TP3     H124287   2.275   2.467   1.832 -0.7788 -0.7572 -0.1136
 4156TP3     H224288   2.165   2.390   1.902 -2.0390 -1.5571 -2.9244
 4157TP3      O24289   3.564   5.085   1.397  0.0578  0.5765 -0.6843
 4157TP3     H124290   3.553   5.076   1.302  0.7264  0.4680 -0.7551
 4157TP3     H224291   3.578   5.179   1.410  0.6848  0.5010 -0.7772
 4158TP3      O24292   3.328   1.585   2.961 -0.4809  0.2252 -0.2857
 4158TP3     H124293   3.328   1.518   3.030 -0.1194 -0.5607 -1.0407
 4158TP3     H224294   3.240   1.622   2.963 -1.0839 -1.1571 -0.7111
 4159TP3      O24295   5.176   0.289   2.079  0.2141 -0.9057  0.1377
 4159TP3     H124296   5.229   0.212   2.060  1.7817 -0.6812  3.2999
 4159TP3     H224297   5.095   0.254   2.118  0.0322 -1.0221 -0.3360
 4160TP3      O24298   0.424   0.395   1.427  0.1522  0.9297  0.4555
 4160TP3     H124299   0.358   0.436   1.483 -0.3580  1.1522 -0.3058
 4160TP3     H224300   0.407   0.430   1.340  2.2712  2.2164  0.5127
 4161TP3      O24301   4.509   3.949   9.209 -1.3428  0.4211 -0.1075
 4161TP3     H124302   4.588   4.003   9.217 -1.8577  1.2277 -0.3476
 4161TP3     H224303   4.449   4.003   9.157 -1.8153 -0.4536 -0.4715
 4162TP3      O24304   4.169   0.240   2.587  0.2161  0.0501 -0.5320
 4162TP3     H124305   4.162   0.144   2.589  3.7312 -0.2938 -1.2458
 4162TP3     H224306   4.150   0.264   2.496  0.2664 -0.0667 -0.5735
 4163TP3      O24307   3.060   5.186   0.842  0.0404  0.5234 -0.4487
 4163TP3     H124308   2.967   5.201   0.857 -0.1113 -1.0006  0.2591
 4163TP3     H224309   3.088   5.260   0.788 -1.3406  1.5349  0.1893
 4164TP3      O24310   1.244   4.274   0.804  0.3349  0.3828 -0.3789
 4164TP3     H124311   1.279   4.314   0.725  1.7220 -0.5435 -0.2421
 4164TP3     H224312   1.158   4.240   0.778  1.2006 -0.7978 -1.7383
 4165TP3      O24313   1.876   4.593   2.110 -0.1419  0.4966 -0.5240
 4165TP3     H124314   1.875   4.635   2.196  1.3440 -0.1237 -0.1939
 4165TP3     H224315   1.938   4.521   2.119 -1.0534 -0.4587 -1.7030
 4166TP3      O24316   3.347   4.676   9.396  0.7099  0.2139 -0.7202
 4166TP3     H124317   3.399   4.713   9.468 -2.0111  1.5454  0.6675
 4166TP3     H224318   3.336   4.584   9.419 -0.7316  0.7795  1.0117
 4167TP3      O24319   0.707   4.747   2.407  0.3339  0.0848  0.0322
 4167TP3     H124320   0.790   4.753   2.360 -2.1568  0.4527 -4.5551
 4167TP3     H224321   0.699   4.655   2.430  0.2204 -0.7434 -3.1044
 4168TP3      O24322   0.381   4.221   0.022 -0.3901 -0.3136 -0.3778
 4168TP3     H124323   0.318   4.214  -0.051 -1.2922  0.1556  0.3458
 4168TP3     H224324   0.400   4.130   0.046  0.3154 -0.4820 -1.5412
 4169TP3      O24325   3.760   0.913   3.470 -0.0895 -0.5256 -0.4057
 4169TP3     H124326   3.759   0.942   3.379 -2.3194 -0.5134 -0.4170
 4169TP3     H224327   3.757   0.994   3.521  0.4964 -0.5522 -0.3260
 4170TP3      O24328   3.220   0.355   2.774 -0.3787  0.7112 -0.0723
 4170TP3     H124329   3.234   0.360   2.869  0.6538  0.1861 -0.1797
 4170TP3     H224330   3.295   0.401   2.737  0.2316 -0.7041 -0.6588
 4171TP3      O24331   1.067   3.078   2.896  0.1532  0.1071  0.0224
 4171TP3     H124332   1.085   3.154   2.951 -0.5083 -0.4326  0.9992
 4171TP3     H224333   1.139   3.017   2.915  0.7635  0.5387 -0.8693
 4172TP3      O24334   2.434   0.727   2.955  0.1197  1.2134  0.7401
 4172TP3     H124335   2.433   0.696   2.864 -0.5262  0.8542  0.8651
 4172TP3     H224336   2.445   0.648   3.007 -2.4772  1.0455  1.1085
 4173TP3      O24337   1.196   0.417   2.513  0.2686 -0.0240  0.0733
 4173TP3     H124338   1.147   0.413   2.595 -0.4083  0.1144 -0.3205
 4173TP3     H224339   1.243   0.334   2.510  1.0971  0.3962  1.0904
 4174TP3      O24340   3.803   1.487   0.114  0.0273 -0.0651 -0.3628
 4174TP3     H124341   3.822   1.445   0.031 -0.1574  0.4316 -0.6612
 4174TP3     H224342   3.871   1.455   0.173 -0.4308 -1.1915 -0.4327
 4175TP3      O24343   2.613   1.568   2.499 -0.3314 -0.0091 -0.0370
 4175TP3     H124344   2.698   1.534   2.527 -0.1255  0.0716 -0.5699
 4175TP3     H224345   2.574   1.497   2.449 -1.4371 -0.8032  1.8811
 4176TP3      O24346   3.157   1.306   2.277 -0.5739 -0.2323 -0.2033
 4176TP3     H124347   3.210   1.378   2.243 -0.3482 -0.1629  0.2913
 4176TP3     H224348   3.068   1.326   2.247 -0.4692  0.1117 -0.2950
 4177TP3      O24349   5.281   1.467   8.331  0.3719  0.3489 -0.0270
 4177TP3     H124350   5.264   1.487   8.239  1.8494  0.4832 -0.2816
 4177TP3     H224351   5.303   1.552   8.370  1.5617  0.0179  0.0322
 4178TP3      O24352   3.903   2.883   0.916 -0.0723  0.7264 -0.1476
 4178TP3     H124353   3.836   2.942   0.950 -0.0567  0.9290 -0.4684
 4178TP3     H224354   3.855   2.807   0.885  0.0941 -0.5140  2.4959
 4179TP3      O24355   2.633   3.405   0.880 -0.6123 -0.0699  0.0837
 4179TP3     H124356   2.640   3.428   0.973  0.6547  0.3949 -0.1128
 4179TP3     H224357   2.611   3.312   0.880  3.2233 -1.0633  0.8713
 4180TP3      O24358   2.844   0.987   2.637  0.2524  0.0091  0.1681
 4180TP3     H124359   2.770   0.964   2.693  0.4778  0.3534  0.6103
 4180TP3     H224360   2.921   0.959   2.686  0.4199 -0.2367 -0.2360
 4181TP3      O24361   1.067   2.760   1.219 -0.6980 -0.3589 -0.0529
 4181TP3     H124362   1.101   2.839   1.178 -0.1191 -1.1002 -1.0522
 4181TP3     H224363   1.095   2.689   1.160  0.0057 -1.4405  1.5329
 4182TP3      O24364   1.684   3.135   3.067 -0.1086 -0.0613 -0.2625
 4182TP3     H124365   1.654   3.226   3.075  2.0000  0.6687 -0.3033
 4182TP3     H224366   1.608   3.083   3.093 -1.5549  1.6814 -0.8161
 4183TP3      O24367   4.394   4.374   1.008 -0.1636 -0.2639 -0.3000
 4183TP3     H124368   4.482   4.342   1.023  0.0536  1.2087  1.6605
 4183TP3     H224369   4.403   4.439   0.938  0.2393 -0.3867 -0.3585
 4184TP3      O24370   4.418   4.758   9.267  0.4821 -0.6843  1.0725
 4184TP3     H124371   4.460   4.844   9.265  0.5507 -0.7205 -1.4836
 4184TP3     H224372   4.460   4.710   9.195 -0.4154 -2.4266  1.6864
 4185TP3      O24373   2.652   2.366   0.120 -0.4866 -0.3273  0.5955
 4185TP3     H124374   2.671   2.317   0.040 -1.8640  0.6277 -0.3454
 4185TP3     H224375   2.699   2.319   0.188 -0.2122 -1.8316 -0.5905
 4186TP3      O24376   0.470   2.838   1.386 -0.7874 -0.5791  0.0742
 4186TP3     H124377   0.404   2.879   1.330 -1.4159 -1.2118  0.3398
 4186TP3     H224378   0.469   2.889   1.467  0.1877  0.3930 -0.5193
 4187TP3      O24379   2.165   1.747   3.082 -0.1418 -0.2961  0.4961
 4187TP3     H124380   2.151   1.679   3.016  0.9545 -1.1736  1.1437
 4187TP3     H224381   2.237   1.800   3.047 -1.8309  1.3318 -0.6055
 4188TP3      O24382   3.514   4.279   2.454 -0.7336  0.0512  0.1996
 4188TP3     H124383   3.555   4.205   2.498  0.9264  1.5896  1.3390
 4188TP3     H224384   3.422   4.253   2.443  0.0562 -2.5869 -0.4370
 4189TP3      O24385   3.691   2.664   9.077 -0.6043  0.2796 -0.4562
 4189TP3     H124386   3.696   2.734   9.012 -2.3719  0.2963 -0.5975
 4189TP3     H224387   3.747   2.693   9.149 -1.3312  1.8393 -0.5135
 4190TP3      O24388   4.632   3.093   2.658  0.5901  0.0783 -0.3702
 4190TP3     H124389   4.560   3.064   2.602 -1.7824  2.2578  1.4717
 4190TP3     H224390   4.680   3.156   2.604  0.0968 -0.0451 -0.9616
 4191TP3      O24391   4.150   2.891   9.985  0.3276  0.0182 -0.0477
 4191TP3     H124392   4.143   2.987   9.980 -0.9916 -0.1365 -1.4555
 4191TP3     H224393   4.063   2.862  10.011  0.8162 -0.7994  0.7131
 4192TP3      O24394   4.475   4.515   1.695 -0.0130 -0.9945  0.6635
 4192TP3     H124395   4.394   4.512   1.645  0.9095  3.4224 -1.3352
 4192TP3     H224396   4.447   4.540   1.783 -1.1571 -3.7953  1.1494
 4193TP3      O24397   1.703   4.152   1.683 -0.1424  0.8264 -0.4522
 4193TP3     H124398   1.714   4.073   1.737  1.3207 -0.1622 -2.1194
 4193TP3     H224399   1.620   4.139   1.637 -0.4973  0.8224  0.1928
 4194TP3      O24400   0.357   4.277   9.646  0.0395 -0.0152 -1.0082
 4194TP3     H124401   0.339   4.330   9.568 -0.6965 -1.2265 -1.6893
 4194TP3     H224402   0.281   4.220   9.653 -0.3918  0.8038  1.2339
 4195TP3      O24403   1.332   2.853   2.773 -0.5106 -0.0353  0.5837
 4195TP3     H124404   1.425   2.877   2.777  0.2218 -2.5580  0.0084
 4195TP3     H224405   1.298   2.874   2.860  0.9607 -0.4339  1.2679
 4196TP3      O24406   2.122   1.085   1.694  0.2002 -0.1765 -0.0956
 4196TP3     H124407   2.217   1.095   1.686  0.6170 -4.2014 -1.1063
 4196TP3     H224408   2.086   1.134   1.621  1.5698  0.4487 -0.3639
 4197TP3      O24409   3.366   0.587   3.299  0.7109  0.1552 -0.1146
 4197TP3     H124410   3.446   0.620   3.340 -0.2697 -0.2088  2.2112
 4197TP3     H224411   3.385   0.496   3.277  0.5975 -0.2643  1.4698
 4198TP3      O24412   1.609   4.320   2.311 -0.4252 -0.2419  0.6771
 4198TP3     H124413   1.599   4.401   2.261  0.3691 -0.9074 -0.5884
 4198TP3     H224414   1.623   4.349   2.401 -0.0997  1.0325  0.2281
 4199TP3      O24415   0.975   2.608   9.340 -0.3534 -0.1372  0.1867
 4199TP3     H124416   1.057   2.633   9.383 -0.7013  0.8189  0.2941
 4199TP3     H224417   0.935   2.545   9.400  0.6126 -1.1340 -0.1820
 4200TP3      O24418   2.562   0.894   9.157 -0.1219 -0.0057 -0.0777
 4200TP3     H124419   2.509   0.966   9.191 -0.1883  0.2147 -0.6480
 4200TP3     H224420   2.509   0.857   9.086  0.7587  0.6352 -1.0972
 4201TP3      O24421   4.900   1.004   9.427 -0.4568  0.8483  0.0441
 4201TP3     H124422   4.831   1.071   9.420  1.0573  2.4329  0.0933
 4201TP3     H224423   4.873   0.937   9.364 -3.3482  0.2217  1.8207
 4202TP3      O24424   4.117   0.841   2.662 -0.2255 -0.3836  0.4066
 4202TP3     H124425   4.206   0.832   2.628 -1.1822 -1.4902 -1.9019
 4202TP3     H224426   4.072   0.893   2.596 -1.3630 -0.0405  1.4540
 4203TP3      O24427   4.239   3.704   2.732 -0.1942  0.0597  0.0289
 4203TP3     H124428   4.262   3.621   2.773 -0.8796 -0.5448 -0.8032
 4203TP3     H224429   4.258   3.691   2.639 -1.3105  0.4723 -0.2654
 4204TP3      O24430   5.019   3.499   1.634  0.0433  0.5215  0.3133
 4204TP3     H124431   5.095   3.472   1.582 -0.8995  0.0903 -0.8447
 4204TP3     H224432   5.048   3.580   1.677  0.6255  1.2516 -1.3946
 4205TP3      O24433   3.642   3.785   0.566 -0.5648 -0.7730  0.1895
 4205TP3     H124434   3.697   3.855   0.531  2.3697 -1.8412  2.4404
 4205TP3     H224435   3.554   3.808   0.538  0.4549  3.2173 -0.0581
 4206TP3      O24436   2.936   0.957   1.885  0.0109  0.7309 -1.1945
 4206TP3     H124437   2.933   0.861   1.886  1.5422  0.6641  0.8168
 4206TP3     H224438   2.858   0.984   1.934  0.0321  0.4890 -1.0274
 4207TP3      O24439   3.891   0.969   1.915 -0.5190  0.1308 -0.2580
 4207TP3     H124440   3.810   1.002   1.954 -0.9455 -0.4081 -0.6713
 4207TP3     H224441   3.882   0.989   1.821 -0.2403 -0.0489 -0.3237
 4208TP3      O24442   3.255   0.888   1.874 -0.4006 -0.5880 -0.2662
 4208TP3     H124443   3.183   0.833   1.904 -1.0576  0.1901 -0.4118
 4208TP3     H224444   3.227   0.919   1.788 -0.2909  0.4454  0.0675
 4209TP3      O24445   4.770   2.576   1.898  0.2752  0.2744  0.4373
 4209TP3     H124446   4.765   2.626   1.817 -1.3087 -0.1602  0.2469
 4209TP3     H224447   4.845   2.517   1.886 -1.9627 -2.1756 -2.1099
 4210TP3      O24448   1.205   1.374   2.068 -0.3085  0.0727 -0.0602
 4210TP3     H124449   1.280   1.327   2.105 -2.1986 -1.4044  2.0309
 4210TP3     H224450   1.166   1.312   2.006 -0.0223  0.7101 -0.8931
 4211TP3      O24451   2.737   1.998   1.332 -0.2081 -0.1416  0.4474
 4211TP3     H124452   2.807   1.968   1.274 -0.2576  0.6750 -0.0329
 4211TP3     H224453   2.709   1.919   1.378 -1.4074 -1.1564 -1.9571
 4212TP3      O24454   1.975   4.865   2.783 -0.3719 -0.5102  0.0651
 4212TP3     H124455   2.007   4.835   2.868  0.7919 -1.1498 -0.5873
 4212TP3     H224456   2.040   4.834   2.720 -0.0223  1.8852 -0.8401
 4213TP3      O24457   2.896   1.211   0.244 -0.5334  0.1882  0.4465
 4213TP3     H124458   2.886   1.235   0.337 -0.5806 -2.5991  1.2252
 4213TP3     H224459   2.811   1.230   0.206 -0.9707  0.0107  1.3108
 4214TP3      O24460   4.776   2.005   8.378  0.0822  0.5419 -0.4473
 4214TP3     H124461   4.830   2.067   8.428 -0.8603  0.7471  0.3284
 4214TP3     H224462   4.774   1.926   8.431  1.2346 -0.1508 -1.4122
 4215TP3      O24463   0.570   2.408   2.489 -0.4986 -0.4023 -0.0853
 4215TP3     H124464   0.630   2.359   2.433  0.0375 -0.1940  0.3030
 4215TP3     H224465   0.542   2.482   2.436 -2.2164 -1.7385 -1.0999
 4216TP3      O24466   2.933   3.942   0.407 -0.3504  0.4651  0.0159
 4216TP3     H124467   2.882   4.017   0.378 -0.6184 -0.3007 -1.4989
 4216TP3     H224468   3.011   3.981   0.448 -0.5626  1.5645 -0.6199
 4217TP3      O24469   4.048   1.890   2.377  0.4511  0.2136  0.3497
 4217TP3     H124470   4.037   1.796   2.368  0.5032  0.2388  0.0195
 4217TP3     H224471   4.078   1.902   2.467  2.6869 -0.2950 -0.2735
 4218TP3      O24472   4.672   0.849   7.761  0.1954  0.1961  0.2545
 4218TP3     H124473   4.713   0.831   7.845 -0.2863  0.6967  0.5981
 4218TP3     H224474   4.578   0.847   7.779  0.1131  1.8938  0.0644
 4219TP3      O24475   4.106   3.185   2.453 -0.1778  0.0581 -0.0884
 4219TP3     H124476   4.058   3.106   2.429  1.1353 -1.0072  0.7077
 4219TP3     H224477   4.183   3.153   2.500 -0.1474  1.8536  1.1416
 4220TP3      O24478   4.155   3.435   0.391  0.1864  0.2705 -0.3906
 4220TP3     H124479   4.074   3.469   0.353  0.3663  1.7687  0.5320
 4220TP3     H224480   4.204   3.401   0.316 -0.7170  0.5638 -1.1233
 4221TP3      O24481   0.789   4.123   0.525 -0.3353  0.4939 -0.0733
 4221TP3     H124482   0.881   4.121   0.500 -0.1896  0.5630  0.4622
 4221TP3     H224483   0.778   4.047   0.582 -0.3648  1.0787  0.7123
 4222TP3      O24484   2.003   5.307   2.320 -0.4239  0.3023 -0.4052
 4222TP3     H124485   1.940   5.332   2.252 -0.8614 -0.5492 -0.3142
 4222TP3     H224486   2.081   5.280   2.271 -0.1227  1.3339 -0.5179
 4223TP3      O24487   1.241   1.370   8.849 -0.1138  0.1778  0.0942
 4223TP3     H124488   1.262   1.446   8.903 -1.5480  0.2814  0.5205
 4223TP3     H224489   1.158   1.337   8.884  0.3884 -1.4637 -0.2086
 4224TP3      O24490   2.514   2.147   1.622  0.4889  0.6848  0.1327
 4224TP3     H124491   2.533   2.182   1.535 -0.0351 -0.9859 -0.6769
 4224TP3     H224492   2.419   2.144   1.627  0.5191 -0.2868  0.3166
 4225TP3      O24493   3.826   1.656   1.799  0.3336  0.0263  0.3829
 4225TP3     H124494   3.782   1.732   1.761 -2.6745 -2.6108 -1.6642
 4225TP3     H224495   3.755   1.596   1.820  2.7094 -2.6885  0.9287
 4226TP3      O24496   4.179   3.455   2.295 -0.1098  0.1794  0.3046
 4226TP3     H124497   4.176   3.515   2.370  2.2562  0.3928  0.2656
 4226TP3     H224498   4.187   3.368   2.334  1.8697  0.3468  0.3358
 4227TP3      O24499   0.379   0.966   2.275 -0.1312  0.0899 -0.5556
 4227TP3     H124500   0.473   0.969   2.287 -0.3610  1.7199  1.1085
 4227TP3     H224501   0.343   0.980   2.363 -1.9294 -3.1794 -0.6814
 4228TP3      O24502   3.264   1.531   2.504  0.3016  0.1343 -0.2594
 4228TP3     H124503   3.304   1.445   2.490  0.2771  0.0733  0.0416
 4228TP3     H224504   3.270   1.574   2.419  1.7203  0.4298 -0.0206
 4229TP3      O24505   3.652   0.231   2.165 -0.0975 -0.5157 -0.2219
 4229TP3     H124506   3.674   0.304   2.222 -0.0622 -0.2539 -0.5704
 4229TP3     H224507   3.734   0.212   2.118 -0.3845 -0.0925 -0.8997
 4230TP3      O24508   0.176   3.276   2.360  0.2532  0.0938 -0.5123
 4230TP3     H124509   0.248   3.319   2.314  0.6924  0.9643  0.9515
 4230TP3     H224510   0.179   3.313   2.449 -0.0247 -2.1449  0.4709
 4231TP3      O24511   2.929   1.409   2.148 -0.0027  0.0229 -0.1285
 4231TP3     H124512   2.925   1.479   2.213  1.2412 -0.3472  0.3572
 4231TP3     H224513   2.945   1.455   2.065 -0.2752  0.3898  0.0191
 4232TP3      O24514   4.451   1.845   3.435 -0.6324 -0.4634  0.2700
 4232TP3     H124515   4.411   1.869   3.351 -0.6233 -1.3220  0.0217
 4232TP3     H224516   4.534   1.893   3.436 -1.3662  0.8519  0.5237
 4233TP3      O24517   3.481   3.002   0.136 -0.2447  0.4793  0.1363
 4233TP3     H124518   3.415   2.955   0.186  1.2502 -2.0443 -0.1637
 4233TP3     H224519   3.448   3.004   0.046 -0.6771  0.7378  0.3002
 4234TP3      O24520   2.480   2.543   2.401  0.2639 -0.1429  0.0644
 4234TP3     H124521   2.567   2.531   2.362  0.4296  2.3025 -0.3691
 4234TP3     H224522   2.498   2.548   2.495  0.7028  1.0682 -0.0705
 4235TP3      O24523   0.872   0.225   2.554  0.1645  0.0544  0.2224
 4235TP3     H124524   0.921   0.281   2.494 -0.4815 -1.2624 -1.5819
 4235TP3     H224525   0.780   0.243   2.532 -0.1111  0.5896  1.7857
 4236TP3      O24526   5.283   2.275   2.829  0.0961 -0.3675  0.8540
 4236TP3     H124527   5.256   2.219   2.756 -1.9230  0.4395  0.9409
 4236TP3     H224528   5.367   2.312   2.801  0.6620 -2.1542  0.1114
 4237TP3      O24529   2.779   5.055   0.574 -0.4401 -0.0804 -0.3176
 4237TP3     H124530   2.687   5.080   0.567 -0.7583 -0.9368  0.7103
 4237TP3     H224531   2.821   5.101   0.502 -1.7369  0.0111 -1.0395
 4238TP3      O24532   3.036   3.141   1.279  0.6559 -0.4718  0.1144
 4238TP3     H124533   3.104   3.074   1.287  2.4771  1.1695 -1.1124
 4238TP3     H224534   3.067   3.198   1.208 -2.3265 -0.0458 -0.8809
 4239TP3      O24535   0.229   2.519   2.824  0.4541 -0.1362  0.5044
 4239TP3     H124536   0.214   2.558   2.910  0.9961 -0.4405  0.7390
 4239TP3     H224537   0.308   2.562   2.791 -1.1035  1.7373 -0.8897
 4240TP3      O24538   4.986   2.366   0.257 -0.0829 -0.1115 -0.0837
 4240TP3     H124539   5.051   2.332   0.320 -1.3387 -1.2484  0.6294
 4240TP3     H224540   4.990   2.461   0.268 -0.1861 -0.2821  1.6600
 4241TP3      O24541   3.159   1.031   2.306 -0.2463 -0.2723  0.3378
 4241TP3     H124542   3.189   1.029   2.397  0.9894 -0.5197 -0.0694
 4241TP3     H224543   3.135   1.122   2.291  0.8219  0.0517  0.5183
 4242TP3      O24544   1.026   0.866   2.054  0.1970  0.3251 -0.2743
 4242TP3     H124545   1.102   0.909   2.092  0.7944  0.1802 -1.2855
 4242TP3     H224546   1.042   0.869   1.960  0.3554 -2.3078 -0.3651
 4243TP3      O24547   3.580   1.595   0.220 -1.2144 -0.4277 -0.0832
 4243TP3     H124548   3.646   1.546   0.171 -1.3452  0.0937 -0.7803
 4243TP3     H224549   3.558   1.538   0.294  1.3373  0.1693  1.1794
 4244TP3      O24550   3.256   3.544   2.157  0.0490 -0.9160  0.1140
 4244TP3     H124551   3.296   3.594   2.228  0.8859 -1.6656  0.1727
 4244TP3     H224552   3.218   3.611   2.100  0.2597 -0.2636  0.7351
 4245TP3      O24553   4.934   4.644   1.510 -0.2580  0.0162  0.6321
 4245TP3     H124554   4.840   4.660   1.506 -0.3532 -0.7673 -0.3023
 4245TP3     H224555   4.974   4.730   1.493 -0.7877  0.1325 -0.0175
 4246TP3      O24556   2.109   1.262   0.812  0.1186  0.6935  0.5491
 4246TP3     H124557   2.135   1.181   0.768  0.3087  0.9042  0.2724
 4246TP3     H224558   2.077   1.233   0.898 -0.9904  0.2075 -0.0260
 4247TP3      O24559   2.986   0.701   2.852  0.0965 -0.4424 -0.1700
 4247TP3     H124560   2.934   0.635   2.898  2.2637 -0.7902  1.9010
 4247TP3     H224561   3.077   0.677   2.871  0.9451  2.7318  0.0302
 4248TP3      O24562   3.501   3.132  10.006  0.1906 -0.7957 -0.3361
 4248TP3     H124563   3.561   3.206  10.017 -0.7711  0.2906 -2.1544
 4248TP3     H224564   3.558   3.055  10.009  1.7249  0.2180 -2.1104
 4249TP3      O24565   0.430   5.161   1.045  0.5413 -0.0785  0.0429
 4249TP3     H124566   0.361   5.201   1.098  0.7127  1.5772 -0.9297
 4249TP3     H224567   0.490   5.233   1.024  0.7547 -0.7733 -1.9286
 4250TP3      O24568   3.607   2.792   2.510 -0.0496 -0.3508 -0.6213
 4250TP3     H124569   3.552   2.718   2.536  0.1716 -0.2503  0.1478
 4250TP3     H224570   3.556   2.870   2.534  1.5216 -0.2335  2.5595
 4251TP3      O24571   0.333   0.612   2.349  0.4262  0.3559  0.5113
 4251TP3     H124572   0.425   0.637   2.342 -0.1589  2.5124  0.0581
 4251TP3     H224573   0.298   0.672   2.415 -0.5009 -0.8941  1.1604
 4252TP3      O24574   2.598   1.066   3.249  0.1614 -0.6780 -0.1972
 4252TP3     H124575   2.653   1.079   3.172  1.3284 -1.1873  0.5143
 4252TP3     H224576   2.515   1.033   3.215 -0.3082  1.6899 -1.4207
 4253TP3      O24577   1.391   0.640   1.699  0.0952 -0.6081 -0.0983
 4253TP3     H124578   1.449   0.666   1.771 -0.5937  0.0223  0.2330
 4253TP3     H224579   1.323   0.588   1.742 -1.7352  1.8618  0.1134
 4254TP3      O24580   0.559   0.779   9.332 -0.3755  0.2823 -0.8182
 4254TP3     H124581   0.610   0.860   9.336  0.8920 -0.5702  1.4057
 4254TP3     H224582   0.468   0.809   9.322  0.2750  1.9064 -2.0740
 4255TP3      O24583   0.209   4.787   2.042  0.3618  0.3197 -0.4004
 4255TP3     H124584   0.268   4.733   1.990  2.8170  1.3494  1.2077
 4255TP3     H224585   0.255   4.871   2.052 -0.1874  0.2966  3.0277
 4256TP3      O24586   5.101   4.973   0.223 -0.4596  0.3267 -0.5734
 4256TP3     H124587   5.140   5.039   0.166  3.8331 -1.3647  0.2111
 4256TP3     H224588   5.096   5.015   0.308 -0.7005  0.6746 -0.7561
 4257TP3      O24589   3.609   0.902   1.314 -0.1677  0.5843  0.1688
 4257TP3     H124590   3.631   0.913   1.406 -2.9495  3.0022  0.6079
 4257TP3     H224591   3.625   0.809   1.297  2.2384  0.4874  2.5261
 4258TP3      O24592   2.055   0.612   2.772 -0.0475  0.0188  0.2133
 4258TP3     H124593   2.117   0.544   2.800 -1.4417 -1.5341 -0.4070
 4258TP3     H224594   2.105   0.693   2.779  2.4580 -1.2929 -1.3690
 4259TP3      O24595   0.181   0.637   9.933 -0.7907  0.0813  0.1323
 4259TP3     H124596   0.220   0.690   9.864 -0.3895  0.5358  0.6982
 4259TP3     H224597   0.087   0.655   9.926 -0.5242  2.0592  1.2721
 4260TP3      O24598   3.874   3.856   2.519  0.1751 -0.3860 -0.0534
 4260TP3     H124599   3.830   3.783   2.563 -0.4719 -0.6764 -1.1595
 4260TP3     H224600   3.820   3.932   2.538 -0.8614 -0.7509 -1.4469
 4261TP3      O24601   2.118   0.722   3.102 -0.2495 -0.4312  0.1517
 4261TP3     H124602   2.175   0.663   3.052  1.8397  1.1393  0.5760
 4261TP3     H224603   2.124   0.806   3.056 -1.2206  0.0705  0.9246
 4262TP3      O24604   2.329   2.466   3.750 -0.0929  0.4935 -0.1383
 4262TP3     H124605   2.377   2.542   3.719 -0.4749  0.3363 -1.1336
 4262TP3     H224606   2.377   2.391   3.715 -0.3967  0.3092 -0.1657
 4263TP3      O24607   4.410   0.140   2.374 -0.3110 -0.5030 -0.0154
 4263TP3     H124608   4.428   0.091   2.454 -0.0672 -2.2175 -1.0975
 4263TP3     H224609   4.328   0.103   2.340 -2.1652  2.3929  1.0954
 4264TP3      O24610   2.040   1.757  10.102  0.4268 -0.1187 -0.3993
 4264TP3     H124611   2.070   1.763  10.193 -1.5085 -1.6298  0.3709
 4264TP3     H224612   1.960   1.705  10.107  1.3383 -1.8755 -3.2227
 4265TP3      O24613   3.228   1.021   2.584 -0.5789  0.4112  0.2070
 4265TP3     H124614   3.182   1.032   2.666  1.3704  0.0224  1.3881
 4265TP3     H224615   3.254   0.929   2.582  1.6473  1.0022  0.4198
 4266TP3      O24616   1.594   4.014   1.049 -0.3096  0.0216 -0.2533
 4266TP3     H124617   1.603   4.067   1.128 -2.2103 -0.3308  0.2031
 4266TP3     H224618   1.561   4.075   0.983  0.5116  0.1249 -0.5775
 4267TP3      O24619   2.633   3.149   1.593 -0.3637 -0.5010 -0.2161
 4267TP3     H124620   2.542   3.164   1.616  0.3494  1.7107  1.3704
 4267TP3     H224621   2.683   3.205   1.654  2.0555 -2.0017 -0.7374
 4268TP3      O24622   3.979   4.332   2.892 -0.2346  0.4540  0.0609
 4268TP3     H124623   3.893   4.361   2.923 -0.3424  0.1271  0.0783
 4268TP3     H224624   4.040   4.361   2.960 -0.6128 -1.2378  1.1613
 4269TP3      O24625   4.458   0.180   1.484 -0.1661  0.6264  0.1038
 4269TP3     H124626   4.548   0.213   1.477 -0.2480  0.8650  0.1724
 4269TP3     H224627   4.416   0.209   1.403  0.3786 -1.2221 -0.8688
 4270TP3      O24628   3.226   2.078   3.164 -0.4790 -0.1626  0.2202
 4270TP3     H124629   3.269   2.144   3.218  2.1868 -2.4207  1.0223
 4270TP3     H224630   3.238   1.996   3.213 -0.9304 -1.7251 -2.2088
 4271TP3      O24631   2.643   0.764   1.843  0.8195  0.0641 -0.2853
 4271TP3     H124632   2.654   0.797   1.932  1.2716  1.4668 -0.8612
 4271TP3     H224633   2.573   0.699   1.850  0.6697  0.3669  1.0405
 4272TP3      O24634   2.072   0.665   3.394 -0.9019 -0.6709  0.3369
 4272TP3     H124635   2.123   0.587   3.418 -0.6174 -0.3380  0.8121
 4272TP3     H224636   2.115   0.700   3.316 -1.1095 -1.0629  0.0425
 4273TP3      O24637   4.678   4.685   1.515  0.3547 -0.1551 -0.5629
 4273TP3     H124638   4.617   4.634   1.567 -0.0949  0.1385 -0.7995
 4273TP3     H224639   4.625   4.755   1.476  0.6784 -0.3593 -1.3958
 4274TP3      O24640   2.398   0.697   3.551 -0.5681 -0.2498  0.9326
 4274TP3     H124641   2.354   0.768   3.597 -2.0816 -0.2412 -0.4803
 4274TP3     H224642   2.382   0.715   3.458  0.2811 -1.6386  0.4963
 4275TP3      O24643   1.697   0.607   2.399  0.1013 -0.1459  0.0019
 4275TP3     H124644   1.680   0.535   2.459 -0.7708  0.5689  0.6177
 4275TP3     H224645   1.776   0.649   2.434  0.1591 -0.3235  0.0867
 4276TP3      O24646   2.395   0.934   3.101 -0.2063 -0.1562 -0.0371
 4276TP3     H124647   2.415   0.862   3.041 -0.8178  0.5560 -1.1066
 4276TP3     H224648   2.321   0.979   3.061 -0.9689  0.0135  1.5302
 4277TP3      O24649   1.764   0.942   3.572  0.0191  0.0175 -0.1643
 4277TP3     H124650   1.764   0.869   3.510  2.7686  0.0730 -0.2955
 4277TP3     H224651   1.773   0.900   3.658 -3.0717 -0.0199  0.1806
 4278TP3      O24652   0.788   1.904   1.133 -0.2142  0.1828 -0.1054
 4278TP3     H124653   0.883   1.887   1.131 -0.3050 -0.1982 -1.3198
 4278TP3     H224654   0.750   1.823   1.166 -0.2879 -0.4638 -1.7298
 4279TP3      O24655   1.410   0.989   1.158  0.0766  0.1115 -0.1512
 4279TP3     H124656   1.466   1.038   1.218  0.2127 -0.2625  0.0303
 4279TP3     H224657   1.410   0.900   1.193 -0.1809 -0.0147 -0.4703
 4280TP3      O24658   4.499   2.045   1.638  0.2059 -0.3456  0.1270
 4280TP3     H124659   4.568   2.100   1.674 -0.1776  0.4473 -0.3537
 4280TP3     H224660   4.485   2.078   1.549 -1.4693  0.1360  0.5527
 4281TP3      O24661   1.772   4.135   8.435  0.3164 -0.1302 -1.1158
 4281TP3     H124662   1.708   4.144   8.506  1.5774 -0.0964  0.0368
 4281TP3     H224663   1.735   4.187   8.363 -0.1895  1.1900  0.0699
 4282TP3      O24664   3.796   1.759   2.256 -0.0645 -0.0286  0.2754
 4282TP3     H124665   3.801   1.814   2.178 -0.2543 -0.1613  0.1673
 4282TP3     H224666   3.879   1.711   2.258  0.0355  0.1478  0.2837
 4283TP3      O24667   4.212   5.243   1.221  0.6349  0.1964 -0.7358
 4283TP3     H124668   4.178   5.153   1.217  1.3948 -0.1589  0.6438
 4283TP3     H224669   4.300   5.238   1.184 -0.3317  0.9028 -3.2102
 4284TP3      O24670   3.449   0.473   2.303 -0.4342 -0.4631  0.3868
 4284TP3     H124671   3.417   0.543   2.247 -2.6661 -0.0917  2.0471
 4284TP3     H224672   3.543   0.470   2.287 -0.9570 -0.1317 -3.0467
 4285TP3      O24673   5.123   2.991   9.652 -0.3395 -0.2696 -0.3516
 4285TP3     H124674   5.054   2.951   9.600  0.6765 -0.2406 -1.7469
 4285TP3     H224675   5.135   2.932   9.727 -0.7899 -1.0853 -0.9226
 4286TP3      O24676   3.536   1.196   2.889  0.2463  0.1745 -0.3797
 4286TP3     H124677   3.628   1.183   2.866  0.6667  0.5142  1.0904
 4286TP3     H224678   3.535   1.198   2.984 -1.6142 -2.1774 -0.3116
 4287TP3      O24679   1.367   4.438   0.601  0.1512  0.0148 -0.2929
 4287TP3     H124680   1.441   4.439   0.540  0.6410 -0.8530  0.2813
 4287TP3     H224681   1.388   4.507   0.664  0.4104 -0.1550 -0.1949
 4288TP3      O24682   0.133   3.063   1.716 -0.1003 -0.7233 -0.1864
 4288TP3     H124683   0.146   3.095   1.805  1.1169 -0.1318 -0.5547
 4288TP3     H224684   0.179   3.127   1.661 -0.2712 -1.4391 -1.1870
 4289TP3      O24685   2.462   4.417   3.224 -0.3774 -0.2316 -0.2098
 4289TP3     H124686   2.390   4.354   3.218 -2.2304  1.9450 -1.9634
 4289TP3     H224687   2.514   4.402   3.146  1.4373 -2.1570  1.3184
 4290TP3      O24688   1.897   2.762   3.157  0.1856  0.4197 -0.1024
 4290TP3     H124689   1.963   2.823   3.123  0.8843  0.5955  1.5064
 4290TP3     H224690   1.943   2.678   3.162  0.1233  0.4210  0.5104
 4291TP3      O24691   4.753   3.288   9.106 -0.5351 -0.3313 -0.1738
 4291TP3     H124692   4.846   3.267   9.102 -0.2348  0.7289  0.8103
 4291TP3     H224693   4.728   3.304   9.015 -0.7081 -4.4038 -0.9428
 4292TP3      O24694   1.555   5.232   7.894 -0.3742  0.2303  0.2128
 4292TP3     H124695   1.638   5.223   7.847  0.2005  1.0271  1.0617
 4292TP3     H224696   1.502   5.290   7.839 -0.9646 -1.5170 -1.1041
 4293TP3      O24697   4.850   0.128   1.438 -0.4455  0.1255  0.3155
 4293TP3     H124698   4.924   0.083   1.398 -0.4849  2.5288 -2.6155
 4293TP3     H224699   4.811   0.179   1.367 -1.7288  2.9873  2.9412
 4294TP3      O24700   2.208   2.114   3.240 -0.2738 -0.1905 -0.2310
 4294TP3     H124701   2.191   2.200   3.279 -3.9524 -0.4635 -1.1257
 4294TP3     H224702   2.262   2.133   3.163 -3.1413  1.6049 -1.8623
 4295TP3      O24703   0.403   3.225   2.595 -0.1204 -0.1343  0.2622
 4295TP3     H124704   0.337   3.227   2.665 -1.0562  1.4130 -0.6390
 4295TP3     H224705   0.464   3.296   2.617 -0.2279  0.1356 -0.2953
 4296TP3      O24706   1.455   2.345   1.368 -0.0938 -0.0932  0.1632
 4296TP3     H124707   1.490   2.307   1.449 -1.3891 -1.2566  0.1908
 4296TP3     H224708   1.379   2.396   1.396  0.2784  0.6600 -0.1672
 4297TP3      O24709   0.292   2.437   0.840  0.1960 -0.3843 -0.5367
 4297TP3     H124710   0.211   2.420   0.888 -0.7702  1.9980 -1.2310
 4297TP3     H224711   0.312   2.354   0.797  0.0943 -2.0098  2.4793
 4298TP3      O24712   3.765   1.961   2.459  0.5559  0.1990 -0.1753
 4298TP3     H124713   3.800   1.915   2.383 -0.9792 -0.3442 -0.5630
 4298TP3     H224714   3.842   1.978   2.514  1.6489  0.3863 -1.7215
 4299TP3      O24715   1.210   4.498   1.891  0.5662 -0.5273 -0.2721
 4299TP3     H124716   1.300   4.530   1.892  0.6198 -0.6936  0.6006
 4299TP3     H224717   1.158   4.573   1.921  0.3743 -0.3365 -1.0600
 4300TP3      O24718   0.823   2.307   8.755 -0.2926 -0.2402  0.1895
 4300TP3     H124719   0.803   2.215   8.769  0.6474 -0.3368  0.9161
 4300TP3     H224720   0.898   2.307   8.696 -1.2664  0.0965 -1.0757
 4301TP3      O24721   5.016   2.372   2.088  0.2043  0.2106  0.5867
 4301TP3     H124722   5.034   2.406   2.000  1.8062 -0.2390  0.7221
 4301TP3     H224723   4.985   2.283   2.072  1.4908 -0.2317  0.5228
 4302TP3      O24724   4.782   0.524   2.914 -0.3312 -0.2015  0.0875
 4302TP3     H124725   4.813   0.598   2.863  2.1419 -0.7873  0.6599
 4302TP3     H224726   4.732   0.471   2.852  0.6230  0.3065 -1.1256
 4303TP3      O24727   2.138   3.926   9.815  0.4385  0.5505  0.0244
 4303TP3     H124728   2.071   3.994   9.809 -0.5314 -0.2814  1.2507
 4303TP3     H224729   2.119   3.880   9.896  0.7689 -1.5136 -1.0251
 4304TP3      O24730   3.090   4.169   0.631  0.4635  0.1391  0.6493
 4304TP3     H124731   3.085   4.135   0.721  0.7317  0.3043  0.7290
 4304TP3     H224732   3.178   4.144   0.601  0.3296 -0.0223  0.3889
 4305TP3      O24733   1.661   1.351   7.824 -0.4495 -0.1037  0.1997
 4305TP3     H124734   1.662   1.287   7.895  0.4669  0.1720  0.4398
 4305TP3     H224735   1.750   1.350   7.790 -0.7720  0.0760 -0.6697
 4306TP3      O24736   3.690   0.347   2.621 -0.2376  0.4148 -0.6744
 4306TP3     H124737   3.728   0.349   2.709 -2.9119  3.6321  0.4889
 4306TP3     H224738   3.749   0.400   2.568  1.8482 -2.2191 -1.1141
 4307TP3      O24739   5.068   0.034   2.368 -0.3009  0.0409  0.2304
 4307TP3     H124740   5.005   0.054   2.437  0.7284  0.7502  0.9968
 4307TP3     H224741   5.136  -0.017   2.412  0.2561  0.3146 -0.3032
 4308TP3      O24742   1.544   5.073   1.321  0.4558 -0.2450 -0.0411
 4308TP3     H124743   1.616   5.116   1.369 -0.2444  1.5830 -0.5783
 4308TP3     H224744   1.491   5.033   1.389 -0.0794  1.6345  0.6942
 4309TP3      O24745   4.391   3.002   7.625  0.3691  0.6607 -0.0835
 4309TP3     H124746   4.333   2.938   7.585  1.7092 -0.5650 -0.1267
 4309TP3     H224747   4.335   3.052   7.685 -1.1669  0.9917 -1.7532
 4310TP3      O24748   2.798   4.763   1.175  0.1099  0.0506 -0.2951
 4310TP3     H124749   2.892   4.771   1.157  0.2737 -0.5945  0.2653
 4310TP3     H224750   2.757   4.822   1.112  0.7987 -0.7097 -1.4702
 4311TP3      O24751   0.445   2.113   3.549 -0.0025  0.2610  0.2494
 4311TP3     H124752   0.425   2.037   3.603 -1.3118 -0.1464 -0.8055
 4311TP3     H224753   0.496   2.078   3.476 -1.4481  0.2152 -0.7645
 4312TP3      O24754   0.282   2.144   3.033 -0.3301 -0.6033  0.3265
 4312TP3     H124755   0.343   2.184   2.972 -0.1959 -1.0854  0.1391
 4312TP3     H224756   0.308   2.176   3.119  1.5428 -2.4696  0.4877
 4313TP3      O24757   2.219   0.418   3.444  0.0975 -0.3072 -0.2059
 4313TP3     H124758   2.306   0.446   3.414  0.6378 -0.8153  0.8635
 4313TP3     H224759   2.233   0.333   3.485 -1.1876 -1.1408 -1.4650
 4314TP3      O24760   3.130   2.110   1.386  0.5647  0.4437 -0.2147
 4314TP3     H124761   3.169   2.196   1.403  1.2047  0.2984 -0.8925
 4314TP3     H224762   3.047   2.112   1.432  0.0447  1.8638 -1.1574
 4315TP3      O24763   1.335   0.667   2.063  0.5029 -0.1019  0.0702
 4315TP3     H124764   1.356   0.760   2.073  1.1305 -0.2872  0.5318
 4315TP3     H224765   1.249   0.657   2.103  0.7147  0.1609  0.5943
 4316TP3      O24766   2.179   2.571   1.425  0.4139 -0.1126  0.2732
 4316TP3     H124767   2.112   2.547   1.489 -0.2530  0.4920 -0.1867
 4316TP3     H224768   2.257   2.524   1.453  0.3756  0.8569  2.0684
 4317TP3      O24769   3.224   1.936   2.688  0.7456  0.5552 -0.0399
 4317TP3     H124770   3.273   1.957   2.768  0.5125 -0.4835  0.3803
 4317TP3     H224771   3.265   1.990   2.620  2.3560 -0.1670  0.3430
 4318TP3      O24772   2.381   4.412   2.918 -0.7481  1.1632 -0.0021
 4318TP3     H124773   2.470   4.436   2.893 -1.1592  2.1498 -0.5723
 4318TP3     H224774   2.327   4.486   2.889 -1.9348  0.0004 -0.8855
 4319TP3      O24775   3.933   5.023   9.604  0.1308  0.4818  0.6714
 4319TP3     H124776   3.873   5.087   9.566  0.6020  1.0759  0.9155
 4319TP3     H224777   3.879   4.945   9.619 -0.0952  0.2623 -1.1364
 4320TP3      O24778   5.167   3.455   1.082  0.0427  0.4003  0.3334
 4320TP3     H124779   5.117   3.531   1.112  0.8614  0.9669  0.2837
 4320TP3     H224780   5.216   3.487   1.006 -0.7933 -0.5956 -0.6484
 4321TP3      O24781   5.297   1.762   1.945 -0.6810  0.1192 -1.0746
 4321TP3     H124782   5.266   1.703   2.015  0.9510 -1.1715 -1.3916
 4321TP3     H224783   5.314   1.704   1.871 -0.1305  1.1611 -1.7742
 4322TP3      O24784   3.729   0.551   1.960 -0.4765  0.0141  1.0650
 4322TP3     H124785   3.703   0.631   2.006 -0.7429  0.1589  0.6685
 4322TP3     H224786   3.655   0.492   1.973 -0.1790 -0.2510  1.5550
 4323TP3      O24787   1.876   0.529   0.056  0.0773 -0.4314 -0.9036
 4323TP3     H124788   1.914   0.519  -0.032  0.0991  1.2603 -1.1094
 4323TP3     H224789   1.847   0.620   0.059 -1.0175 -0.8098  0.4282
 4324TP3      O24790   3.143   1.097   3.153  0.1171 -0.6299  0.3468
 4324TP3     H124791   3.232   1.066   3.167  1.3714  2.8571  0.7015
 4324TP3     H224792   3.152   1.166   3.087 -1.9598  1.3624  2.0513
 4325TP3      O24793   0.950   0.355   1.997  0.0604 -0.3074 -0.1353
 4325TP3     H124794   1.010   0.297   2.044  0.6881  1.7913  1.7718
 4325TP3     H224795   0.929   0.309   1.916  2.5780 -2.0174  0.1489
 4326TP3      O24796   3.673   1.315   2.178  0.4964  0.7131  0.2792
 4326TP3     H124797   3.675   1.258   2.101  0.5497  1.8140 -0.5310
 4326TP3     H224798   3.620   1.266   2.241  0.5799 -0.2623 -0.3928
 4327TP3      O24799   2.958   1.521   1.680 -0.0316 -0.2499 -0.0124
 4327TP3     H124800   3.035   1.472   1.710 -1.2997 -1.1361  1.8877
 4327TP3     H224801   2.888   1.456   1.677 -1.5560  1.2511  1.8125
 4328TP3      O24802   4.434   3.700   2.238 -0.4658 -0.4402 -0.7334
 4328TP3     H124803   4.350   3.672   2.275 -0.7499  2.8741  1.3801
 4328TP3     H224804   4.414   3.724   2.148 -1.6140 -0.5722 -0.5174
 4329TP3      O24805   3.803   4.560   3.051  0.3163 -0.6666  0.1778
 4329TP3     H124806   3.843   4.575   3.137  0.3194 -3.9490  0.7871
 4329TP3     H224807   3.755   4.478   3.061 -0.3159 -0.6996 -2.7785
 4330TP3      O24808   0.544   4.900   9.045  0.0476 -0.1208 -0.0541
 4330TP3     H124809   0.525   4.818   9.091  0.5854 -0.6094 -0.7083
 4330TP3     H224810   0.462   4.922   9.001  0.3338 -1.0653 -1.0621
 4331TP3      O24811   1.862   4.166   0.431  0.5499 -0.3683  0.1023
 4331TP3     H124812   1.941   4.217   0.447  0.0854  0.2206  0.5437
 4331TP3     H224813   1.848   4.171   0.337  0.7433 -0.0400  0.0922
 4332TP3      O24814   2.915   3.841   2.344 -0.0648 -0.0617  0.6820
 4332TP3     H124815   2.896   3.908   2.278  0.1623 -0.6685 -0.0019
 4332TP3     H224816   2.829   3.806   2.368  0.0006 -1.5020 -1.0480
 4333TP3      O24817   1.979   3.909   1.445  0.2580  0.3426 -0.0926
 4333TP3     H124818   1.950   3.883   1.357 -1.9116  0.3109  0.5856
 4333TP3     H224819   2.013   3.828   1.483  0.0979  0.0839 -0.4869
 4334TP3      O24820   0.051   4.257   2.705 -0.1260  0.1553  0.2086
 4334TP3     H124821   0.128   4.238   2.652  0.1224  0.6412  0.3940
 4334TP3     H224822   0.086   4.274   2.793 -0.3689  1.1076  0.1271
 4335TP3      O24823   4.855   4.218   9.761  0.9587 -0.0865  0.4601
 4335TP3     H124824   4.771   4.182   9.790  0.6465  0.9909  0.9134
 4335TP3     H224825   4.838   4.312   9.749  1.9994  0.0739  0.2003
 4336TP3      O24826   3.360   1.050   2.123 -0.4733  0.3975 -0.3762
 4336TP3     H124827   3.383   0.986   2.055 -2.1112 -0.0254 -0.5460
 4336TP3     H224828   3.278   1.017   2.159  0.7232  0.2600  2.2816
 4337TP3      O24829   3.190   0.140   8.691  0.1659  0.0698 -0.2080
 4337TP3     H124830   3.104   0.175   8.668  0.6641  1.5384  0.1213
 4337TP3     H224831   3.201   0.162   8.783  1.0563  0.2292 -0.3468
 4338TP3      O24832   3.143   3.520   1.662  0.0174 -0.5020  0.2524
 4338TP3     H124833   3.079   3.500   1.731 -0.0316 -1.0191  0.0556
 4338TP3     H224834   3.225   3.483   1.694 -0.2536 -1.7932 -0.4964
 4339TP3      O24835   1.242   2.356   0.373  0.1977  0.2695 -0.1122
 4339TP3     H124836   1.269   2.298   0.444  1.5248 -0.4787 -1.1939
 4339TP3     H224837   1.237   2.442   0.414 -0.8290 -0.4298  1.2895
 4340TP3      O24838   3.211   4.794   3.286  0.2948 -0.2197 -0.3816
 4340TP3     H124839   3.139   4.761   3.340 -1.3598  0.7588 -1.9216
 4340TP3     H224840   3.175   4.872   3.244  1.7290 -0.6278 -2.4281
 4341TP3      O24841   3.630   1.661   3.226  0.4265  0.1361 -0.3272
 4341TP3     H124842   3.677   1.603   3.166 -2.1252 -2.2528 -0.1066
 4341TP3     H224843   3.594   1.729   3.169  1.6697  0.3508 -0.8850
 4342TP3      O24844   5.306   3.894   9.163 -0.1410 -0.2838 -0.1900
 4342TP3     H124845   5.345   3.943   9.236 -0.1840 -0.8849  0.2472
 4342TP3     H224846   5.340   3.936   9.084  0.0647  0.2472  0.1799
 4343TP3      O24847   5.137   1.161   2.478 -0.5010  0.7183  0.0645
 4343TP3     H124848   5.225   1.175   2.444  0.2292 -1.7671  0.8039
 4343TP3     H224849   5.079   1.189   2.408  0.9074  1.0013 -1.0006
 4344TP3      O24850   5.025   2.580   9.031  0.2130 -0.0474 -0.1723
 4344TP3     H124851   5.007   2.496   9.073  2.2941 -1.3343 -1.7367
 4344TP3     H224852   5.012   2.563   8.937  0.4827  1.4283 -0.4889
 4345TP3      O24853   2.458   1.887   1.162  0.5470 -0.0783 -0.3237
 4345TP3     H124854   2.456   1.976   1.128  1.1751 -0.3735 -1.1545
 4345TP3     H224855   2.446   1.831   1.084  0.7417 -0.7281  0.1060
 4346TP3      O24856   3.972   2.526   2.550  0.1434 -0.2506 -0.2384
 4346TP3     H124857   3.942   2.616   2.561 -3.7213 -1.3725 -0.8500
 4346TP3     H224858   3.922   2.477   2.615  0.4837 -2.3123 -1.5092
 4347TP3      O24859   4.885   1.210   1.177 -0.4349  0.1029  0.4316
 4347TP3     H124860   4.852   1.218   1.087 -0.7962  1.8945  0.7085
 4347TP3     H224861   4.812   1.237   1.232  0.0259 -0.2982  1.2558
 4348TP3      O24862   1.376   0.253  10.072 -0.5515  0.3283  0.7434
 4348TP3     H124863   1.349   0.221   9.986  0.2824  2.0638 -0.1920
 4348TP3     H224864   1.468   0.277  10.061 -0.2601  0.0249  2.2890
 4349TP3      O24865   4.100   1.872   0.393  0.3451  0.1211 -0.0490
 4349TP3     H124866   4.027   1.829   0.349  0.3887 -0.6747  0.6369
 4349TP3     H224867   4.124   1.944   0.335  0.2624 -0.7753 -1.2154
 4350TP3      O24868   1.886   4.680   1.457  0.1215  0.3377  0.6729
 4350TP3     H124869   1.846   4.593   1.451 -2.8855  1.7554 -1.0723
 4350TP3     H224870   1.893   4.710   1.367  0.9461  1.9774  1.2574
 4351TP3      O24871   1.071   3.974  10.050  0.5445 -0.0364  0.2744
 4351TP3     H124872   1.117   4.043  10.098 -1.5605  0.0373  2.2967
 4351TP3     H224873   1.012   4.020   9.991  0.4430 -0.1116  0.3171
 4352TP3      O24874   4.410   1.644   9.205 -0.3454 -0.8793  0.5420
 4352TP3     H124875   4.337   1.639   9.267  0.7870  1.1472  2.1111
 4352TP3     H224876   4.387   1.717   9.147 -0.4771 -1.5074 -0.2015
 4353TP3      O24877   1.100   2.245   2.072 -0.0281 -0.0007  0.1779
 4353TP3     H124878   1.111   2.288   1.987  0.3540 -0.9444 -0.2623
 4353TP3     H224879   1.026   2.291   2.113 -0.9192 -0.2338 -1.1213
 4354TP3      O24880   1.339   2.939   1.383 -0.0165  0.0283  0.0119
 4354TP3     H124881   1.251   2.976   1.378 -0.3986 -1.0755 -1.7713
 4354TP3     H224882   1.373   2.943   1.294  1.1954 -0.8645  0.4106
 4355TP3      O24883   2.037   2.087   0.716  0.0664 -0.9011  0.0447
 4355TP3     H124884   2.101   2.150   0.684 -2.4497  1.4067 -0.6311
 4355TP3     H224885   2.055   2.080   0.809  0.0809  1.2722  0.2386
 4356TP3      O24886   4.136   4.719   3.617  0.5439  0.2331  0.0950
 4356TP3     H124887   4.046   4.696   3.593 -0.2692  0.5538  2.7463
 4356TP3     H224888   4.156   4.796   3.562 -0.5636 -0.1977 -0.9371
 4357TP3      O24889   3.035   2.774   9.045  0.2985  0.1893  0.5512
 4357TP3     H124890   3.093   2.847   9.068 -0.7710  1.0906  0.4249
 4357TP3     H224891   3.026   2.779   8.950 -2.1565  1.7647  0.8074
 4358TP3      O24892   1.800   3.479   1.060 -0.7010 -0.6580  0.3101
 4358TP3     H124893   1.711   3.474   1.025  0.4449 -1.6617 -2.5833
 4358TP3     H224894   1.838   3.556   1.018  0.7674 -2.0035 -0.9030
 4359TP3      O24895   4.204   2.091   2.830 -0.6550 -0.0960 -0.4366
 4359TP3     H124896   4.172   2.104   2.919  1.3759 -0.0355  0.2905
 4359TP3     H224897   4.234   2.000   2.828  1.8512  0.7001 -0.2343
 4360TP3      O24898   3.184   0.320   1.804 -0.3134 -0.3643  0.3738
 4360TP3     H124899   3.168   0.285   1.716 -0.1144 -0.8576  0.5331
 4360TP3     H224900   3.237   0.253   1.847  0.9294  0.5683  0.3507
 4361TP3      O24901   4.268   0.820   2.446 -0.1742 -0.3126  0.5169
 4361TP3     H124902   4.247   0.905   2.408  1.1104  1.1307  2.9334
 4361TP3     H224903   4.346   0.791   2.400  0.8744  1.0349  1.3877
 4362TP3      O24904   2.844   0.184   3.082  0.3871  0.2862  0.0666
 4362TP3     H124905   2.765   0.238   3.082 -1.6130 -2.5324  0.2208
 4362TP3     H224906   2.877   0.191   3.172 -0.5154  0.3474  0.4003
 4363TP3      O24907   1.861   1.506   0.059 -0.2421  0.4019 -0.2222
 4363TP3     H124908   1.951   1.484   0.033 -0.0080  1.7845 -0.6305
 4363TP3     H224909   1.850   1.466   0.145  0.2694 -1.0136 -0.8087
 4364TP3      O24910   0.777   5.292   1.648  0.1353 -0.1417  0.1803
 4364TP3     H124911   0.792   5.270   1.556  0.6284  1.8839 -0.2507
 4364TP3     H224912   0.715   5.226   1.678  0.7500 -1.4401 -1.3210
 4365TP3      O24913   3.392   3.923   3.218 -0.2612 -0.0092 -0.0875
 4365TP3     H124914   3.330   3.850   3.219  1.0466 -1.1143  0.5773
 4365TP3     H224915   3.478   3.882   3.212  0.5745  1.4184  1.7468
 4366TP3      O24916   1.029   2.849   0.744  0.0697 -0.0047  0.1641
 4366TP3     H124917   0.985   2.836   0.660 -0.2099 -1.2743  0.5027
 4366TP3     H224918   0.966   2.820   0.809  1.1740 -1.2780  0.6814
 4367TP3      O24919   4.954   0.169   2.565  0.5448  0.6265  0.1047
 4367TP3     H124920   4.905   0.247   2.538 -0.4514  0.3225  1.0161
 4367TP3     H224921   4.949   0.169   2.660  0.5648 -0.5390  0.1105
 4368TP3      O24922   5.184   2.841   1.122  0.0088  0.8308 -0.2573
 4368TP3     H124923   5.246   2.799   1.181  0.5862  1.2543 -0.5602
 4368TP3     H224924   5.216   2.931   1.114 -0.5904  1.0254 -0.4918
 4369TP3      O24925   2.745   1.233   2.100  0.5307 -0.1357  0.5920
 4369TP3     H124926   2.757   1.162   2.163  0.3588 -0.8888 -0.2101
 4369TP3     H224927   2.821   1.290   2.112  0.3920 -0.1666  1.6145
 4370TP3      O24928   2.155   2.231   2.357 -0.1313  0.3964  0.0320
 4370TP3     H124929   2.071   2.264   2.389 -0.2710 -0.1576  0.2458
 4370TP3     H224930   2.213   2.234   2.433  0.0424  0.7596 -0.1101
 4371TP3      O24931   2.941   3.936   8.494  0.6283  0.3539  0.0681
 4371TP3     H124932   3.003   3.977   8.434  0.7795  1.0649  0.6983
 4371TP3     H224933   2.898   4.009   8.538 -1.3158 -0.1221 -1.0057
 4372TP3      O24934   4.347   1.673   3.061  0.2079 -0.2679  0.2836
 4372TP3     H124935   4.298   1.612   3.116  0.7234 -1.6378 -0.7662
 4372TP3     H224936   4.287   1.746   3.047 -1.1011 -1.3912 -0.0088
 4373TP3      O24937   3.488   1.689   1.120  0.1420 -0.0580 -0.3381
 4373TP3     H124938   3.516   1.747   1.049 -0.9061 -1.6370 -2.1011
 4373TP3     H224939   3.405   1.726   1.151 -0.9068 -0.9813 -1.9663
 4374TP3      O24940   4.783   3.664   2.012 -0.0305  0.5154 -0.3701
 4374TP3     H124941   4.837   3.730   2.055 -1.0274  0.1146  1.5517
 4374TP3     H224942   4.707   3.713   1.979 -0.1896  0.5118 -0.0030
 4375TP3      O24943   4.023   2.290   1.739 -0.3516 -0.3685 -1.1520
 4375TP3     H124944   4.117   2.275   1.747 -0.5215 -0.3954  1.3764
 4375TP3     H224945   3.990   2.211   1.696  0.7152 -0.5349 -1.6854
 4376TP3      O24946   2.316   2.081   7.969  0.2263 -0.1092 -0.3033
 4376TP3     H124947   2.364   1.998   7.966  0.5527  0.1132 -1.6850
 4376TP3     H224948   2.369   2.137   8.025  0.2734 -0.6636  0.2176
 4377TP3      O24949   0.355   2.275   9.878  0.4618  0.1460  0.2957
 4377TP3     H124950   0.450   2.272   9.880  0.5419  1.3562 -0.7790
 4377TP3     H224951   0.327   2.222   9.953  1.9782  0.0366  0.7944
 4378TP3      O24952   1.892   0.751   2.217  0.2690 -0.0270  0.5621
 4378TP3     H124953   1.818   0.706   2.257  0.0403  0.4356  0.6666
 4378TP3     H224954   1.946   0.681   2.181  1.0372 -0.5215  2.6115
 4379TP3      O24955   4.191   2.622   1.847  0.3396 -0.6731  0.1963
 4379TP3     H124956   4.156   2.704   1.811  1.9339 -0.3778 -0.7364
 4379TP3     H224957   4.121   2.558   1.833 -1.3393  0.7376  1.9044
 4380TP3      O24958   2.449   3.859   1.887 -0.4387 -1.0529  0.4403
 4380TP3     H124959   2.466   3.953   1.878  0.7003 -1.1024  1.7225
 4380TP3     H224960   2.391   3.837   1.815 -0.3366  0.5497 -0.1433
 4381TP3      O24961   1.250   2.129   1.607 -0.4324 -0.0594  0.3477
 4381TP3     H124962   1.188   2.173   1.666 -1.3010 -1.2877  0.3701
 4381TP3     H224963   1.218   2.151   1.519 -1.7823 -1.8462  0.3516
 4382TP3      O24964   3.112   3.756   1.497 -0.1986 -0.1140 -0.2621
 4382TP3     H124965   3.110   3.679   1.555 -0.2313 -0.6767 -1.0037
 4382TP3     H224966   3.205   3.775   1.486 -0.1785 -0.2920 -0.4007
 4383TP3      O24967   2.494   0.764   8.752 -0.2895  0.1381 -0.1530
 4383TP3     H124968   2.494   0.714   8.671  1.3712 -1.2147  0.6330
 4383TP3     H224969   2.581   0.803   8.756 -0.5697  0.6910  0.6761
 4384TP3      O24970   3.920   1.834   9.265  0.5425  0.3079 -0.2317
 4384TP3     H124971   3.846   1.776   9.282  0.3691  1.2061  2.2763
 4384TP3     H224972   3.897   1.879   9.184 -0.3801 -1.4025 -0.9454
 4385TP3      O24973   5.255   2.710   3.164 -0.1148 -0.0119 -0.1335
 4385TP3     H124974   5.309   2.769   3.217  0.2494  0.4349 -0.9873
 4385TP3     H224975   5.315   2.638   3.140 -0.5273 -0.6785  0.8141
 4386TP3      O24976   1.720   1.466   2.677 -0.3832  0.1493  0.4673
 4386TP3     H124977   1.784   1.473   2.748  0.6096  0.1434 -0.4180
 4386TP3     H224978   1.694   1.374   2.677 -0.2243  0.1046  0.6888
 4387TP3      O24979   5.199   2.883   1.953  0.4210  0.0732  0.2457
 4387TP3     H124980   5.209   2.963   1.902  1.1092 -0.6104 -0.7199
 4387TP3     H224981   5.105   2.874   1.966  0.4546  2.1669  2.2316
 4388TP3      O24982   0.092   4.297   8.087 -0.2294 -0.4475 -0.0971
 4388TP3     H124983   0.171   4.264   8.130 -0.5919 -0.2594  0.7249
 4388TP3     H224984   0.096   4.260   7.998  0.8039 -0.3962 -0.0822
 4389TP3      O24985   4.410   4.785   2.608  0.3633  0.3788 -0.3445
 4389TP3     H124986   4.408   4.744   2.695  0.8385  1.3167  0.1214
 4389TP3     H224987   4.492   4.754   2.570  1.0632  1.4249  0.2826
 4390TP3      O24988   4.701   1.235   2.303  0.2924 -0.2613  0.5968
 4390TP3     H124989   4.630   1.179   2.270  1.5809 -2.4965  1.4939
 4390TP3     H224990   4.671   1.324   2.286 -0.5783 -1.2305 -3.4737
 4391TP3      O24991   0.827   0.855   3.365  0.4675  0.0613 -0.1296
 4391TP3     H124992   0.869   0.932   3.403  0.6141  0.1868 -0.5380
 4391TP3     H224993   0.735   0.879   3.356  0.2966 -0.2458  0.8499
 4392TP3      O24994   3.256   4.253   2.410  0.1508 -0.0100  0.1504
 4392TP3     H124995   3.210   4.249   2.326  0.2538  0.3897  0.0700
 4392TP3     H224996   3.197   4.210   2.472 -0.9161  1.6359  0.3085
 4393TP3      O24997   0.986   5.239   9.919 -0.6396 -0.1885 -0.0062
 4393TP3     H124998   0.892   5.257   9.916 -0.6298  0.1307  1.4546
 4393TP3     H224999   0.999   5.194  10.002  0.5325 -0.0560 -0.1154
 4394TP3      O25000   1.460   0.226   2.540  0.1722  0.0622  0.0299
 4394TP3     H125001   1.445   0.163   2.470  1.1854 -0.6761  0.4658
 4394TP3     H225002   1.388   0.211   2.602  0.3535 -0.5942  0.0803
 4395TP3      O25003   4.695   3.329   2.460 -0.1735  0.1780  0.3709
 4395TP3     H125004   4.729   3.303   2.375 -0.1884 -1.6787  0.9096
 4395TP3     H225005   4.760   3.390   2.494  2.8128 -3.3963  1.4380
 4396TP3      O25006   3.983   4.844   3.199 -0.5894  0.1481  0.5146
 4396TP3     H125007   3.961   4.758   3.236 -1.2953  0.0713 -0.0773
 4396TP3     H225008   3.975   4.832   3.104 -0.0156  0.6865  0.3933
 4397TP3      O25009   1.324   4.452   3.090  0.0216 -0.2064 -0.4079
 4397TP3     H125010   1.351   4.453   3.181 -2.1045 -0.7569  0.2613
 4397TP3     H225011   1.340   4.362   3.061 -0.6371 -0.4075 -0.1521
 4398TP3      O25012   3.379   0.208   1.532  0.3387  0.1065  0.4498
 4398TP3     H125013   3.288   0.228   1.555  0.8542  2.7377  0.4251
 4398TP3     H225014   3.376   0.185   1.439 -0.6166 -2.2332  1.0409
 4399TP3      O25015   3.658   0.106   0.269 -0.2765 -0.5703  0.3428
 4399TP3     H125016   3.624   0.109   0.359 -0.0562 -2.7764  0.5323
 4399TP3     H225017   3.752   0.091   0.279 -0.0498  0.4014 -0.2536
 4400TP3      O25018   1.534   1.620   9.320 -0.4494  0.3906 -0.2132
 4400TP3     H125019   1.546   1.694   9.380 -2.1154  1.6461 -1.3885
 4400TP3     H225020   1.447   1.632   9.283 -0.9684 -2.4871 -0.0287
 4401TP3      O25021   3.796   2.855   2.257  0.2954  0.3833 -0.8693
 4401TP3     H125022   3.719   2.874   2.311  1.5874 -1.3973  1.7035
 4401TP3     H225023   3.764   2.795   2.189 -0.6953  0.0042 -0.0810
 4402TP3      O25024   3.035   2.346   3.105 -0.1699  0.2967  0.1534
 4402TP3     H125025   3.099   2.349   3.034 -0.7503  0.0210 -0.3859
 4402TP3     H225026   3.088   2.336   3.185  0.3996 -1.3500 -0.4079
 4403TP3      O25027   5.279   1.577   2.128  0.6514 -1.2379 -0.2031
 4403TP3     H125028   5.249   1.534   2.208  1.5929 -1.6249 -0.0565
 4403TP3     H225029   5.374   1.584   2.138  0.3651  2.4359  0.5259
 4404TP3      O25030   2.889   4.795   9.866  0.5926 -0.1240 -0.5278
 4404TP3     H125031   2.891   4.709   9.908 -2.4693  0.0971  0.2180
 4404TP3     H225032   2.823   4.786   9.797  1.1450  1.2754 -1.2611
 4405TP3      O25033   3.200   3.716   0.214  0.4449  0.0703 -0.1077
 4405TP3     H125034   3.204   3.799   0.166  0.0428  1.2312  1.8276
 4405TP3     H225035   3.109   3.710   0.244  1.0181 -0.0180  1.6102
 4406TP3      O25036   3.558   4.403   8.906 -0.3610  0.3991  0.0772
 4406TP3     H125037   3.479   4.411   8.852 -1.2127  1.9779  1.5107
 4406TP3     H225038   3.591   4.492   8.914  1.6893 -0.2654 -0.6221
 4407TP3      O25039   1.733   0.795   1.141 -0.2946  0.0721  0.6146
 4407TP3     H125040   1.650   0.763   1.106  0.0128  0.0657 -0.1208
 4407TP3     H225041   1.799   0.742   1.097  0.1269  0.4761  0.7599
 4408TP3      O25042   0.941   0.553   9.258  0.1659  0.0113  0.1549
 4408TP3     H125043   0.978   0.501   9.330  0.8059  1.1607  0.6700
 4408TP3     H225044   0.941   0.493   9.184  0.8288 -0.7610  0.7567
 4409TP3      O25045   0.819   5.105   0.981  0.0608 -0.1112  0.0811
 4409TP3     H125046   0.840   5.199   0.988  1.7703 -0.4678 -0.0224
 4409TP3     H225047   0.817   5.075   1.072 -1.9531  0.3091  0.2031
 4410TP3      O25048   0.252   1.568   2.174 -0.1065  0.0107 -0.2822
 4410TP3     H125049   0.298   1.490   2.203 -0.7314 -0.2429  0.0324
 4410TP3     H225050   0.320   1.635   2.168 -0.1917  0.5567  3.4888
 4411TP3      O25051   1.152   0.492   1.840 -0.3483  0.3777 -0.6399
 4411TP3     H125052   1.160   0.398   1.851  0.1182  0.4820 -0.0828
 4411TP3     H225053   1.081   0.517   1.900 -0.0366  0.4693 -0.3047
 4412TP3      O25054   1.846   5.106   1.985  0.7166 -0.0474  0.0733
 4412TP3     H125055   1.913   5.130   1.922  1.4594  0.7990  1.1659
 4412TP3     H225056   1.895   5.071   2.060 -0.1518 -1.0149  0.2090
 4413TP3      O25057   1.681   0.688   8.284 -0.4093  0.3518  1.0211
 4413TP3     H125058   1.600   0.669   8.237 -0.1387  0.8390  0.3606
 4413TP3     H225059   1.723   0.757   8.233  0.0479  0.6472  1.7889
 4414TP3      O25060   3.322   2.163   2.591 -0.1710 -0.3348  0.2973
 4414TP3     H125061   3.393   2.136   2.649 -0.1691  0.2032  0.5531
 4414TP3     H225062   3.317   2.258   2.603 -3.4099 -0.7472  3.2466
 4415TP3      O25063   0.896   2.593   8.877 -0.0007  0.2501 -0.0852
 4415TP3     H125064   0.974   2.646   8.860  0.0510 -0.4007 -2.0495
 4415TP3     H225065   0.928   2.503   8.876 -0.6981  0.0042 -0.4204
 4416TP3      O25066   3.195   1.386   1.763  0.0553 -0.4326  0.3404
 4416TP3     H125067   3.258   1.330   1.718 -0.2019 -0.8839  0.5377
 4416TP3     H225068   3.178   1.342   1.846 -0.3189 -0.1778  0.4007
 4417TP3      O25069   0.059   4.407   9.546  0.5049 -0.1750 -0.2896
 4417TP3     H125070   0.103   4.322   9.540  0.2584 -0.4343  1.3561
 4417TP3     H225071  -0.006   4.404   9.476  2.5299 -0.0965 -2.2464
 4418TP3      O25072   1.466   2.305   2.645 -0.5975 -0.0448  0.3615
 4418TP3     H125073   1.502   2.329   2.730 -0.6586  2.3214 -0.2629
 4418TP3     H225074   1.399   2.371   2.627 -1.6156 -1.3794 -0.8590
 4419TP3      O25075   3.979   0.735   2.853  0.3304  0.0889  0.5710
 4419TP3     H125076   4.039   0.760   2.783  0.4474 -0.6800  0.3863
 4419TP3     H225077   4.020   0.770   2.933  0.6079  0.2727  0.3499
 4420TP3      O25078   3.951   5.083   7.780  0.2672 -0.1222 -0.5017
 4420TP3     H125079   3.938   5.169   7.739 -0.1971  0.9107  1.7258
 4420TP3     H225080   4.042   5.062   7.762  0.6229  1.2409 -0.3716
 4421TP3      O25081   1.848   3.680   2.722  0.6257  0.0543  0.4434
 4421TP3     H125082   1.812   3.604   2.767  1.6389 -0.1294  0.9364
 4421TP3     H225083   1.899   3.643   2.650 -2.1029  0.3674 -1.7434
 4422TP3      O25084   1.014   4.770   0.533 -0.4717 -0.1727  0.3672
 4422TP3     H125085   1.034   4.861   0.510  2.7150 -0.9608 -0.2238
 4422TP3     H225086   1.051   4.759   0.620 -0.6266 -1.0048  0.3271
 4423TP3      O25087   3.961   0.689   1.954  0.3725 -0.1351  0.5441
 4423TP3     H125088   3.934   0.777   1.980 -0.8750 -0.0193 -1.0039
 4423TP3     H225089   3.878   0.641   1.943  1.0101 -1.2907  0.6894
 4424TP3      O25090   3.993   4.660   1.016  0.2973  1.1824  0.2632
 4424TP3     H125091   3.934   4.732   0.994  1.4597  2.0223 -0.1255
 4424TP3     H225092   4.081   4.698   1.011  0.8514  0.1082  1.4291
 4425TP3      O25093   3.416   4.167   2.814  0.5958 -0.5881  0.2195
 4425TP3     H125094   3.451   4.165   2.903 -0.9388  4.3401  1.1060
 4425TP3     H225095   3.322   4.185   2.825  0.2235 -0.6710 -2.3602
 4426TP3      O25096   2.680   1.554   1.252  0.2926  0.0457 -0.5053
 4426TP3     H125097   2.596   1.508   1.247 -0.1432  0.9502 -1.6247
 4426TP3     H225098   2.699   1.580   1.162  0.7048  1.7472  0.0436
 4427TP3      O25099   1.912   3.409   9.484 -0.0275 -0.5902 -0.6149
 4427TP3     H125100   1.837   3.469   9.481  1.0096  0.8378  1.1287
 4427TP3     H225101   1.941   3.412   9.575  1.1829 -2.3666 -0.9157
 4428TP3      O25102   0.783   2.027   0.291 -0.4481 -0.2790  0.0729
 4428TP3     H125103   0.820   2.067   0.369 -1.7020  0.4435  0.3043
 4428TP3     H225104   0.731   1.954   0.324 -2.3803  1.0756  0.0551
 4429TP3      O25105   1.586   4.887   1.818  0.4136  0.3068  0.1688
 4429TP3     H125106   1.657   4.827   1.795  0.8966  1.0835 -0.3758
 4429TP3     H225107   1.506   4.838   1.799  0.8011  0.2660 -1.4324
 4430TP3      O25108   3.345   2.475   2.002  0.1142  0.1066  0.2163
 4430TP3     H125109   3.312   2.416   2.069 -0.2703 -0.0547 -0.1172
 4430TP3     H225110   3.440   2.479   2.018  0.0436 -0.0472  0.6712
 4431TP3      O25111   1.515   0.886   0.394 -0.1878 -0.2498 -0.2728
 4431TP3     H125112   1.476   0.972   0.376 -2.4198 -0.7936  1.6094
 4431TP3     H225113   1.585   0.904   0.457 -0.6901  0.1908  0.1659
 4432TP3      O25114   0.369   2.207   7.928  0.1170  0.0038 -0.0072
 4432TP3     H125115   0.298   2.195   7.991  0.2033 -0.0156  0.0849
 4432TP3     H225116   0.325   2.242   7.850  0.1163  0.7140  0.3097
 4433TP3      O25117   0.132   0.068   3.474 -0.2162 -0.1785 -0.1291
 4433TP3     H125118   0.063   0.106   3.529 -0.1714  0.2014 -0.3321
 4433TP3     H225119   0.141   0.129   3.401  1.4576  0.6333  0.7189
 4434TP3      O25120   3.740   0.835   9.682 -0.1936  0.4071  0.4108
 4434TP3     H125121   3.731   0.844   9.777 -1.5830 -0.4346  0.3706
 4434TP3     H225122   3.755   0.742   9.668  0.3444  0.5784 -0.1719
 4435TP3      O25123   4.657   3.310   3.026  0.1380  0.0457  0.2045
 4435TP3     H125124   4.716   3.353   3.088  0.2167 -1.4834  1.2131
 4435TP3     H225125   4.591   3.268   3.081 -1.5637  1.1969 -0.8794
 4436TP3      O25126   0.208   0.548   2.091  0.4388 -0.3032 -0.0731
 4436TP3     H125127   0.231   0.544   2.184 -1.7026 -1.4546  0.4614
 4436TP3     H225128   0.197   0.642   2.073 -0.1918 -0.1337  1.1281
 4437TP3      O25129   4.733   2.216   1.730  0.2913  0.2344  0.1275
 4437TP3     H125130   4.712   2.290   1.673 -2.5751 -1.6578 -1.3600
 4437TP3     H225131   4.685   2.234   1.811  0.5154  0.5490  0.1933
 4438TP3      O25132   0.101   1.920   0.787  0.3652 -0.2295 -0.6510
 4438TP3     H125133   0.165   1.854   0.814  0.8175  0.0347 -1.0814
 4438TP3     H225134   0.083   1.901   0.695 -0.0973 -0.2361 -0.5620
 4439TP3      O25135   4.892   2.989   2.396  0.0507 -0.3961 -0.2248
 4439TP3     H125136   4.979   2.973   2.360  0.1453 -1.9077  0.6132
 4439TP3     H225137   4.842   3.025   2.323  1.1238 -0.3881 -0.9689
 4440TP3      O25138   1.532   1.866   2.695  0.1941 -0.0976 -0.0253
 4440TP3     H125139   1.615   1.823   2.677 -0.2848 -1.1233  0.1788
 4440TP3     H225140   1.527   1.936   2.631  0.8561 -0.5189 -0.5455
 4441TP3      O25141   2.178   3.316   9.966 -0.0721  0.3141 -0.5583
 4441TP3     H125142   2.214   3.316   9.877 -0.8732 -2.0024 -0.9203
 4441TP3     H225143   2.254   3.323  10.023  0.5102  0.9571 -1.3892
 4442TP3      O25144   2.496   5.110   3.700 -0.0718  0.1127 -0.6062
 4442TP3     H125145   2.508   5.043   3.632 -1.3488  1.6658 -2.4225
 4442TP3     H225146   2.579   5.158   3.701  0.4548 -0.7948 -0.0651
 4443TP3      O25147   3.490   3.090   2.263 -0.3405 -0.3518  0.0226
 4443TP3     H125148   3.400   3.056   2.260 -0.6843  0.2581  2.0718
 4443TP3     H225149   3.487   3.156   2.332  1.8567 -0.8010  0.5741
 4444TP3      O25150   1.044   4.529   2.750  0.3874 -0.1519 -0.0080
 4444TP3     H125151   1.054   4.531   2.655  0.0885 -0.7833 -0.0606
 4444TP3     H225152   1.105   4.461   2.779  0.3111 -0.1231  0.2259
 4445TP3      O25153   0.549   1.284   2.123  0.5240 -0.0320  0.2486
 4445TP3     H125154   0.582   1.360   2.171 -0.7554  1.0262 -0.5002
 4445TP3     H225155   0.619   1.219   2.129  1.1238  0.7534  1.9572
 4446TP3      O25156   4.125   4.380   9.174  0.4270 -0.0513  0.5715
 4446TP3     H125157   4.131   4.297   9.222 -0.2249  0.0261  0.7952
 4446TP3     H225158   4.045   4.371   9.121  0.3473  0.4391  0.6086
 4447TP3      O25159   4.972   1.283   2.247  0.1616  0.0997 -0.2868
 4447TP3     H125160   4.879   1.291   2.268  0.4742 -1.8952  2.0393
 4447TP3     H225161   5.011   1.363   2.282 -0.6892  1.0326 -1.4435
 4448TP3      O25162   4.525   1.763   8.547  0.4846  0.7729  0.4461
 4448TP3     H125163   4.439   1.722   8.556  0.8148 -0.3400 -1.1230
 4448TP3     H225164   4.535   1.817   8.625 -1.8905  1.3824  0.3543
 4449TP3      O25165   0.869   3.121   9.312  0.2333  0.2435 -0.0140
 4449TP3     H125166   0.852   3.098   9.221  2.2506 -0.1828 -0.3114
 4449TP3     H225167   0.911   3.044   9.349 -2.1741 -0.2571  1.7998
 4450TP3      O25168   1.356   4.767   0.568 -0.1815  0.1504  0.5656
 4450TP3     H125169   1.302   4.741   0.642  0.9405  1.3574  1.8171
 4450TP3     H225170   1.332   4.858   0.551  1.0587  0.5179  0.7646
 4451TP3      O25171   2.008   2.444   2.500 -1.1157  0.3049  0.1350
 4451TP3     H125172   2.079   2.506   2.481 -2.1553  1.8575  1.1966
 4451TP3     H225173   2.034   2.404   2.583 -1.6093  1.0747  0.6639
 4452TP3      O25174   1.312   0.139   2.805  0.2824  0.5170 -0.0474
 4452TP3     H125175   1.217   0.143   2.798  0.0738 -2.5201  0.2925
 4452TP3     H225176   1.330   0.148   2.898  0.0149 -2.6956  0.3674
 4453TP3      O25177   0.463   2.642   2.946  0.0009 -0.1567  0.4242
 4453TP3     H125178   0.515   2.598   2.878  0.2612  0.9350 -0.0934
 4453TP3     H225179   0.524   2.656   3.018  0.0205 -0.2735  0.4308
 4454TP3      O25180   2.589   2.911   1.279  0.0123  0.0328  0.3191
 4454TP3     H125181   2.644   2.981   1.315 -1.1469  1.5659 -0.8407
 4454TP3     H225182   2.625   2.895   1.192 -0.5595  0.1097  0.0686
 4455TP3      O25183   3.748   2.423   0.996 -0.9215 -0.7999  0.1281
 4455TP3     H125184   3.734   2.499   0.939  0.1095  0.1493  1.1129
 4455TP3     H225185   3.746   2.459   1.085  0.9113 -1.6886  0.5602
 4456TP3      O25186   3.899   2.389   2.761 -0.4998 -0.0652  1.0865
 4456TP3     H125187   3.962   2.372   2.831  0.5573 -2.3030 -0.3567
 4456TP3     H225188   3.826   2.330   2.780 -0.1736 -0.7346  0.2757
 4457TP3      O25189   0.832   0.717   9.648  0.8341  0.2793  0.3516
 4457TP3     H125190   0.927   0.713   9.647  0.8553  0.5995  0.8474
 4457TP3     H225191   0.805   0.639   9.697  0.7718 -0.7638 -1.3059
 4458TP3      O25192   1.460   1.033   9.920  0.7007 -0.0296  0.4363
 4458TP3     H125193   1.377   0.988   9.934  0.2791  0.4170 -0.6013
 4458TP3     H225194   1.461   1.054   9.827 -0.0412  3.9192  1.2422
 4459TP3      O25195   4.288   3.975   2.781  0.0979 -0.2874  0.2944
 4459TP3     H125196   4.261   3.884   2.766  2.5780 -1.0082  0.0195
 4459TP3     H225197   4.348   3.971   2.854  0.0699  1.1887  0.4243
 4460TP3      O25198   4.597   3.837   1.841  0.4131 -0.2152  0.1719
 4460TP3     H125199   4.613   3.786   1.762  0.7610 -0.4912  0.4144
 4460TP3     H225200   4.600   3.928   1.813 -0.3550 -0.3275 -0.2950
 4461TP3      O25201   3.082   3.044   1.783  0.0782 -0.0794  0.3154
 4461TP3     H125202   3.108   3.026   1.873 -0.5529 -0.7258  0.3774
 4461TP3     H225203   3.067   3.139   1.780  1.4085  0.1450  0.5386
 4462TP3      O25204   4.117   4.918   0.788 -0.3120 -0.9696 -0.0212
 4462TP3     H125205   4.098   5.009   0.812  0.6097 -0.8117  0.1122
 4462TP3     H225206   4.181   4.924   0.718  0.1302 -1.5324  0.3360
 4463TP3      O25207   1.949   3.855   2.950  0.1118  0.2625  0.0951
 4463TP3     H125208   1.945   3.814   2.864 -1.1423 -0.8082  0.6476
 4463TP3     H225209   1.898   3.935   2.941  0.3186  0.3567 -0.2546
 4464TP3      O25210   4.808   4.044   1.245 -0.6030 -0.3461 -0.1216
 4464TP3     H125211   4.836   3.953   1.256 -1.8215 -0.9351 -1.6406
 4464TP3     H225212   4.720   4.047   1.281 -0.3804  0.3618  0.3742
 4465TP3      O25213   4.854   4.871   0.153  0.3453  0.4251  0.1847
 4465TP3     H125214   4.947   4.886   0.164  0.2483  0.4100  1.0967
 4465TP3     H225215   4.848   4.787   0.108  0.7307 -0.9447  2.5896
 4466TP3      O25216   1.642   3.132   0.388 -1.0338  0.1472  0.0223
 4466TP3     H125217   1.731   3.165   0.389 -0.3368 -1.6784  1.2529
 4466TP3     H225218   1.589   3.204   0.421  0.0970  0.9528  0.0967
 4467TP3      O25219   4.226   0.533   9.119 -0.0408 -0.9486 -0.7757
 4467TP3     H125220   4.231   0.489   9.035  0.4893 -0.2406 -1.1128
 4467TP3     H225221   4.316   0.552   9.142 -0.1983 -0.9536 -0.1403
 4468TP3      O25222   2.324   2.539   2.152 -0.2641 -0.2920  0.2491
 4468TP3     H125223   2.347   2.499   2.236  0.8477  0.8831  0.5119
 4468TP3     H225224   2.391   2.606   2.137 -2.0540  1.4628 -0.1947
 4469TP3      O25225   3.509   0.896   0.670  0.2157  0.2792  0.2568
 4469TP3     H125226   3.531   0.832   0.602 -0.0514 -0.5722  0.9714
 4469TP3     H225227   3.464   0.966   0.622  3.1844  1.4326 -1.0440
 4470TP3      O25228   3.176   0.099   9.805  0.2278  0.3867 -0.1164
 4470TP3     H125229   3.216   0.168   9.858  0.5187 -0.7371  1.1878
 4470TP3     H225230   3.226   0.098   9.724  3.1418 -1.2193  1.6101
 4471TP3      O25231   4.612   4.575   3.002  0.2391  0.5046 -0.3299
 4471TP3     H125232   4.642   4.517   2.933  0.6360 -1.0230  1.0918
 4471TP3     H225233   4.685   4.636   3.016  1.2201 -0.8283  0.5160
 4472TP3      O25234   2.090   0.846   8.910  0.0838 -0.1402  0.4600
 4472TP3     H125235   2.070   0.851   8.817 -0.7113  1.7874  0.7342
 4472TP3     H225236   2.136   0.762   8.919 -0.9001 -0.9130 -1.4467
 4473TP3      O25237   5.303   1.626   1.705 -0.0978  0.7482 -0.1181
 4473TP3     H125238   5.389   1.589   1.684 -0.0923 -0.3838  1.7017
 4473TP3     H225239   5.276   1.672   1.626  0.2918 -2.4873 -2.2402
 4474TP3      O25240   4.179   1.544   2.814  0.4056  0.5893 -0.0188
 4474TP3     H125241   4.248   1.602   2.847  0.3162  0.5058  0.3140
 4474TP3     H225242   4.110   1.548   2.880  0.3604  0.1714 -0.0365
 4475TP3      O25243   1.261   3.791   0.954  0.0290 -0.8154  0.1225
 4475TP3     H125244   1.296   3.871   0.916 -0.0018 -1.2864 -0.9012
 4475TP3     H225245   1.332   3.758   1.010  0.4160 -0.6252 -0.2572
 4476TP3      O25246   2.367   1.772   1.378  0.4614 -0.3735  0.2145
 4476TP3     H125247   2.382   1.677   1.370 -0.7409 -0.4928 -0.7831
 4476TP3     H225248   2.415   1.810   1.304 -0.7830 -0.3944 -0.6074
 4477TP3      O25249   4.903   1.488   1.773 -0.4368  0.5107  0.0548
 4477TP3     H125250   4.990   1.494   1.814 -0.3786  0.0191 -0.0013
 4477TP3     H225251   4.847   1.540   1.831 -0.3902 -0.3096  0.8513
 4478TP3      O25252   4.877   1.743   3.375  0.0798  0.4855 -0.0043
 4478TP3     H125253   4.958   1.699   3.348  0.3380  0.4197  0.8413
 4478TP3     H225254   4.814   1.672   3.386 -0.4081  0.6353 -1.6974
 4479TP3      O25255   4.996   1.490   0.810  0.3564 -0.0408 -0.0088
 4479TP3     H125256   5.087   1.506   0.786  0.4758 -0.8875 -0.1397
 4479TP3     H225257   4.974   1.408   0.765  0.0188 -0.6709  1.2945
 4480TP3      O25258   2.564   4.069   3.026 -0.4651 -0.3040  0.6480
 4480TP3     H125259   2.480   4.114   3.017 -0.2583 -0.1701 -0.6908
 4480TP3     H225260   2.541   3.976   3.033 -0.6569 -0.4286 -1.3671
 4481TP3      O25261   0.699   3.079   1.393 -0.5815 -0.4535 -0.3080
 4481TP3     H125262   0.608   3.065   1.369 -0.2791 -0.1187 -1.6828
 4481TP3     H225263   0.702   3.063   1.487 -2.1869  0.1936 -0.1363
 4482TP3      O25264   3.817   0.438   1.593  0.3236  0.4919 -0.3186
 4482TP3     H125265   3.791   0.398   1.511  0.7535  0.5730 -0.4930
 4482TP3     H225266   3.738   0.433   1.648  0.3528 -0.5071 -0.3658
 4483TP3      O25267   4.307   0.435   1.617 -0.5698 -0.4638 -0.0992
 4483TP3     H125268   4.350   0.372   1.558 -1.3542 -0.2319 -0.9282
 4483TP3     H225269   4.261   0.495   1.559 -1.6896 -0.4656  0.7650
 4484TP3      O25270   4.914   0.175   2.180  0.5880 -0.4072  0.0123
 4484TP3     H125271   4.831   0.160   2.226  1.1269  0.8855  1.4687
 4484TP3     H225272   4.979   0.126   2.231  1.1489  0.8223  0.5096
 4485TP3      O25273   1.008   4.127   9.201  0.3460  0.2739 -0.1366
 4485TP3     H125274   0.924   4.125   9.156  1.1782  0.0356 -1.6923
 4485TP3     H225275   1.067   4.171   9.141  1.0025  1.7983  1.5743
 4486TP3      O25276   3.663   5.150   8.838  0.7411 -0.5225 -0.1264
 4486TP3     H125277   3.679   5.171   8.930 -2.6076  2.9140 -0.1812
 4486TP3     H225278   3.620   5.064   8.840 -0.1717 -0.0442  1.6097
 4487TP3      O25279   4.936   5.233   0.219 -0.3458 -0.0625  0.0826
 4487TP3     H125280   4.990   5.234   0.141 -0.5921  1.9620 -0.1060
 4487TP3     H225281   4.998   5.231   0.292 -0.1100 -1.5579 -0.1640
 4488TP3      O25282   3.505   0.132   9.783  0.2409  0.3934 -0.3204
 4488TP3     H125283   3.478   0.223   9.784 -1.9582 -0.2333 -0.7357
 4488TP3     H225284   3.443   0.089   9.725  1.1155 -1.4079  0.0469
 4489TP3      O25285   5.185   1.259   8.487 -0.2394 -0.0022 -0.3020
 4489TP3     H125286   5.216   1.323   8.423 -0.3490  0.1127 -0.2398
 4489TP3     H225287   5.251   1.189   8.485  0.5295  0.6807  0.5215
 4490TP3      O25288   0.117   1.076   1.176 -0.0204 -0.3549 -0.1466
 4490TP3     H125289   0.187   1.026   1.218 -1.3478 -2.4803 -0.4038
 4490TP3     H225290   0.137   1.168   1.198  2.6968 -0.9284 -0.0500
 4491TP3      O25291   4.622   5.053   2.614  0.1811 -0.6375 -0.0377
 4491TP3     H125292   4.673   4.975   2.591  2.4225  0.9562 -0.6392
 4491TP3     H225293   4.636   5.064   2.708  0.5325 -0.5064 -0.1039
 4492TP3      O25294   5.242   1.488   3.123  0.1527  0.1834  0.5709
 4492TP3     H125295   5.206   1.447   3.044 -0.2761  0.6582  0.5143
 4492TP3     H225296   5.335   1.497   3.106 -0.1797  1.7790 -0.5698
 4493TP3      O25297   5.238   2.091   1.541  0.0990 -0.2678 -0.2736
 4493TP3     H125298   5.144   2.087   1.560  0.1174 -0.6876 -0.2698
 4493TP3     H225299   5.255   2.014   1.487  0.5497 -0.5159  0.2105
 4494TP3      O25300   0.316   0.606   0.733 -0.2758 -0.3365  0.3332
 4494TP3     H125301   0.379   0.551   0.687  0.1887 -1.4756  2.2411
 4494TP3     H225302   0.366   0.682   0.761 -0.0405 -0.6490  0.7715
 4495TP3      O25303   2.195   4.298   0.140 -0.4172 -0.3928  0.4536
 4495TP3     H125304   2.136   4.266   0.072 -0.5318  0.4078  0.1772
 4495TP3     H225305   2.230   4.380   0.106  0.3363 -0.5162  0.9094
 4496TP3      O25306   4.695   1.945   3.419  0.5744  0.2013 -0.3007
 4496TP3     H125307   4.725   2.027   3.380 -0.5096  0.6824 -0.1595
 4496TP3     H225308   4.763   1.882   3.398  0.4699  0.6767 -2.1441
 4497TP3      O25309   3.858   4.185   0.748 -0.2826 -0.2880 -0.7234
 4497TP3     H125310   3.928   4.250   0.761  0.8276 -1.1813 -2.0860
 4497TP3     H225311   3.799   4.198   0.822  1.1557  0.7170  0.2720
 4498TP3      O25312   1.522   5.212   0.916  0.2871 -0.4656  0.0929
 4498TP3     H125313   1.508   5.282   0.981 -0.9186 -0.9817  0.4044
 4498TP3     H225314   1.591   5.246   0.859 -0.2495  0.9593  0.2719
 4499TP3      O25315   2.975   3.629   8.782  0.3741  0.3028 -0.5544
 4499TP3     H125316   3.054   3.631   8.835  0.2018  0.4712 -0.3008
 4499TP3     H225317   2.941   3.540   8.793  0.7435  0.1098 -0.9820
 4500TP3      O25318   1.700   1.560   0.753 -0.1430  0.0295  0.1191
 4500TP3     H125319   1.763   1.632   0.754 -0.2807  0.1302  1.7889
 4500TP3     H225320   1.754   1.481   0.750  0.0054  0.1771 -2.2041
 4501TP3      O25321   2.629   4.020   7.397  0.0421 -0.2516  0.4112
 4501TP3     H125322   2.685   3.953   7.358  0.6546  0.2503  0.4341
 4501TP3     H225323   2.543   3.978   7.402  0.4376 -1.0640  0.4939
 4502TP3      O25324   3.718   0.335   2.902  0.5576 -0.3477 -0.2906
 4502TP3     H125325   3.637   0.349   2.951  0.8945  1.0699 -0.1370
 4502TP3     H225326   3.763   0.264   2.950  0.4465  0.3778  0.9040
 4503TP3      O25327   0.691   2.662   1.333  0.2017  0.0277 -0.5948
 4503TP3     H125328   0.614   2.714   1.356 -0.7157 -1.9523  0.9630
 4503TP3     H225329   0.683   2.649   1.238 -1.6383 -0.5135 -0.3934
 4504TP3      O25330   2.658   3.537   1.995  0.3163 -0.3561  0.0468
 4504TP3     H125331   2.577   3.577   2.027  0.0258  0.0780 -1.1853
 4504TP3     H225332   2.635   3.503   1.908  0.5954 -3.0952  1.0029
 4505TP3      O25333   4.998   3.835   2.397 -0.0974 -0.0996  0.3827
 4505TP3     H125334   5.008   3.897   2.470 -0.2538  1.3532 -0.7951
 4505TP3     H225335   5.076   3.780   2.402  0.3687  0.6092  1.0827
 4506TP3      O25336   1.031   4.910   2.242  0.4623 -0.2369  0.4383
 4506TP3     H125337   1.079   4.992   2.234  0.4469 -0.4281 -1.7867
 4506TP3     H225338   0.941   4.933   2.220  0.7881 -1.1822 -2.0260
 4507TP3      O25339   2.242   1.793   1.639  0.0784  0.1933 -0.7997
 4507TP3     H125340   2.296   1.822   1.566  2.4476 -0.2957  0.7146
 4507TP3     H225341   2.235   1.699   1.629  1.4054 -0.0303  0.2305
 4508TP3      O25342   1.790   4.256   1.116 -0.3635  0.1219 -0.5296
 4508TP3     H125343   1.807   4.349   1.099  0.2972  0.0099 -0.5121
 4508TP3     H225344   1.874   4.213   1.098 -0.4539 -0.3721  0.2215
 4509TP3      O25345   0.128   2.827   3.331  0.2080  0.6285  0.0083
 4509TP3     H125346   0.179   2.791   3.404  0.9150  0.6345 -0.4823
 4509TP3     H225347   0.192   2.843   3.262 -0.7048 -1.1210 -1.3034
 4510TP3      O25348   3.274   3.274   2.718  0.6676 -0.1930 -0.0928
 4510TP3     H125349   3.350   3.217   2.716 -1.3549 -3.0927  1.4710
 4510TP3     H225350   3.279   3.319   2.802  0.3418 -0.8838  0.3043
 4511TP3      O25351   5.128   1.733   2.709 -0.4591 -0.2932 -0.2229
 4511TP3     H125352   5.183   1.682   2.768 -2.3472 -1.2981  0.6874
 4511TP3     H225353   5.144   1.824   2.734  0.5058 -0.5950  0.2801
 4512TP3      O25354   4.781   2.175   3.312  0.1219 -0.3631  0.1612
 4512TP3     H125355   4.865   2.150   3.273  0.7243 -0.0756  1.2614
 4512TP3     H225356   4.764   2.263   3.278  1.7757  0.8249  2.3294
 4513TP3      O25357   5.099   0.391   1.074  0.2558  0.3631  0.5549
 4513TP3     H125358   5.099   0.379   1.169 -0.0582  0.3022  0.5491
 4513TP3     H225359   5.013   0.429   1.055  0.2376  0.1826  0.2726
 4514TP3      O25360   0.618   4.239   1.177  0.2165  0.1863 -0.4526
 4514TP3     H125361   0.524   4.229   1.169  0.3472 -0.0221 -1.8895
 4514TP3     H225362   0.650   4.151   1.196  0.4679 -0.5011 -3.7950
 4515TP3      O25363   0.215   2.610   3.071  0.5682 -0.3708  0.0579
 4515TP3     H125364   0.298   2.646   3.042 -0.0997  0.2321 -1.1575
 4515TP3     H225365   0.231   2.579   3.160  1.6800  1.1031  0.3705
 4516TP3      O25366   0.249   4.184   2.530  0.5038  0.0657 -0.3422
 4516TP3     H125367   0.234   4.222   2.443 -1.2468 -0.4364 -0.2691
 4516TP3     H225368   0.343   4.195   2.544  0.5083  1.8433 -1.5039
 4517TP3      O25369   4.817   2.208   3.015 -0.3651 -0.1780 -0.4659
 4517TP3     H125370   4.788   2.282   3.067  0.1441  0.3273 -0.9059
 4517TP3     H225371   4.750   2.199   2.946 -1.0244 -0.8308  0.2446
 4518TP3      O25372   0.114   3.472   2.121 -0.4600 -0.2247  0.1186
 4518TP3     H125373   0.195   3.521   2.132 -1.3485  1.9759 -2.5721
 4518TP3     H225374   0.050   3.518   2.175 -0.7011  0.1103 -0.4442
 4519TP3      O25375   2.779   1.820   2.575 -0.2979  0.5534  0.2219
 4519TP3     H125376   2.769   1.765   2.497 -1.1021  0.0969  0.6487
 4519TP3     H225377   2.859   1.787   2.617 -1.8530 -1.6780  1.5730
 4520TP3      O25378   4.338   4.146   1.132  0.3822  0.0878  0.9615
 4520TP3     H125379   4.343   4.223   1.075 -0.9955 -0.3514  0.2204
 4520TP3     H225380   4.296   4.178   1.212 -1.5706 -0.1691  0.0862
 4521TP3      O25381   0.726   3.733   1.211 -0.2653  0.1417 -0.4302
 4521TP3     H125382   0.714   3.672   1.138 -0.4971 -1.0623  0.5953
 4521TP3     H225383   0.818   3.759   1.205  0.1462 -1.1856 -0.2390
 4522TP3      O25384   4.714   0.057   3.139  0.1587 -0.3074 -0.1354
 4522TP3     H125385   4.738  -0.034   3.155 -0.2415 -0.0804  1.9219
 4522TP3     H225386   4.796   0.101   3.116  0.5588 -0.9222  0.1201
 4523TP3      O25387   5.104   1.017   0.812  0.1460 -0.0935  0.0851
 4523TP3     H125388   5.140   0.948   0.757 -1.0987 -0.4808 -0.2491
 4523TP3     H225389   5.129   0.991   0.901  1.5311  0.1604 -0.2105
 4524TP3      O25390   3.413   3.801   0.385  0.7285  0.0694  0.1073
 4524TP3     H125391   3.354   3.738   0.343  1.4144 -0.9357  0.6372
 4524TP3     H225392   3.475   3.825   0.316 -0.0365  0.8236 -0.3367
 4525TP3      O25393   5.265   2.989   0.641 -0.1641 -0.0631 -0.3238
 4525TP3     H125394   5.181   2.944   0.639 -0.8196  1.0404  0.9722
 4525TP3     H225395   5.328   2.922   0.667 -1.1290 -0.2621  1.5916
 4526TP3      O25396   2.073   1.702   2.014  0.3312 -0.0211  0.4657
 4526TP3     H125397   2.129   1.629   1.986  1.1016  1.4202 -1.8483
 4526TP3     H225398   1.987   1.681   1.977 -0.1536 -1.1265  2.1628
 4527TP3      O25399   4.979   4.576   0.443 -0.2226 -0.5554  0.0854
 4527TP3     H125400   5.016   4.488   0.437 -2.0582 -1.3194 -0.7654
 4527TP3     H225401   5.035   4.629   0.387  1.2668 -1.0451  1.0876
 4528TP3      O25402   1.142   3.505   7.399 -0.2889  0.9924 -0.0811
 4528TP3     H125403   1.184   3.458   7.328  1.0156 -3.0646  3.1512
 4528TP3     H225404   1.048   3.493   7.384 -0.0007 -2.5141  0.4094
 4529TP3      O25405   0.808   0.880   7.456 -0.5779  0.1763  0.3356
 4529TP3     H125406   0.808   0.784   7.454  3.0929  0.0701  0.9645
 4529TP3     H225407   0.819   0.902   7.548 -1.8972  1.2372  0.2548
 4530TP3      O25408   3.488   2.888   2.055  0.0161 -0.2672 -0.7652
 4530TP3     H125409   3.491   2.965   2.112  0.9455 -1.0995  0.3450
 4530TP3     H225410   3.504   2.923   1.967  0.1868  0.8395 -0.3071
 4531TP3      O25411   1.101   1.047   1.444 -0.1382 -0.2808 -0.6555
 4531TP3     H125412   1.026   0.991   1.423 -0.3114  0.0280 -0.8619
 4531TP3     H225413   1.171   0.985   1.466 -0.1011 -0.6103 -1.6488
 4532TP3      O25414   1.150   3.560   0.862  0.2678  0.1475  0.2691
 4532TP3     H125415   1.184   3.646   0.884 -1.1186  0.7304  0.1435
 4532TP3     H225416   1.099   3.574   0.782 -0.3056 -0.7043  0.4734
 4533TP3      O25417   1.712   2.721   1.741 -0.3075 -0.6295 -0.0240
 4533TP3     H125418   1.645   2.787   1.725 -0.7031 -0.9373  0.3083
 4533TP3     H225419   1.662   2.640   1.755  0.0034 -0.4279  2.4444
 4534TP3      O25420   5.141   1.033   3.342  0.1066  0.4837  0.2561
 4534TP3     H125421   5.166   1.125   3.335 -1.2858  0.7039 -2.3086
 4534TP3     H225422   5.047   1.034   3.357 -0.0299 -0.5084 -0.4322
 4535TP3      O25423   0.745   2.288   2.312  0.0487 -0.1436 -0.8431
 4535TP3     H125424   0.822   2.345   2.314 -0.5507  0.6626  0.1265
 4535TP3     H225425   0.780   2.199   2.309  1.0012  0.2575 -2.2475
 4536TP3      O25426   4.638   4.768   1.834 -0.1021 -0.0432 -0.4694
 4536TP3     H125427   4.614   4.846   1.784 -1.1492  0.2111  0.4342
 4536TP3     H225428   4.560   4.712   1.831  1.2920 -1.9961 -2.8541
 4537TP3      O25429   3.744   3.362   0.790 -0.6491 -0.2530 -0.3391
 4537TP3     H125430   3.741   3.340   0.884  2.4109  1.7146  0.2732
 4537TP3     H225431   3.796   3.292   0.751  2.5823  1.6409  0.3709
 4538TP3      O25432   0.548   2.670   9.780 -0.2045  0.2211 -0.3146
 4538TP3     H125433   0.539   2.706   9.868  0.8045 -1.0477  0.3099
 4538TP3     H225434   0.468   2.618   9.767 -0.0036 -0.2015  0.1350
 4539TP3      O25435   0.140   2.235   3.729 -0.1459  0.2266  0.7577
 4539TP3     H125436   0.076   2.298   3.762 -0.1812  0.8599 -0.4746
 4539TP3     H225437   0.221   2.285   3.718 -0.3267  0.2059 -0.7752
 4540TP3      O25438   4.645   5.244   1.273  0.2431  0.2732  0.0436
 4540TP3     H125439   4.731   5.281   1.254 -0.0865  0.4528 -1.1599
 4540TP3     H225440   4.650   5.217   1.365  2.3444 -1.7537 -0.6028
 4541TP3      O25441   0.183   5.149   1.350 -0.4622  0.4047  0.2335
 4541TP3     H125442   0.153   5.151   1.259 -0.9136 -1.4049  0.3243
 4541TP3     H225443   0.133   5.077   1.390 -0.1453  1.0720  1.8661
 4542TP3      O25444   5.255   2.983   3.452  0.6317  0.4073 -0.3147
 4542TP3     H125445   5.320   2.928   3.409  2.5697  1.5060  1.1495
 4542TP3     H225446   5.246   3.059   3.393  0.6758  0.2534 -0.5204
 4543TP3      O25447   2.560   4.960   2.378 -0.6500  0.1304 -0.0744
 4543TP3     H125448   2.573   5.049   2.347 -0.3820 -0.3009 -1.2340
 4543TP3     H225449   2.644   4.916   2.361 -0.4551 -0.0951  1.3686
 4544TP3      O25450   0.243   2.698   0.739  0.3969  0.1634  0.4017
 4544TP3     H125451   0.285   2.624   0.782  1.1371  1.0259  1.2040
 4544TP3     H225452   0.165   2.715   0.791 -0.1156 -0.4545 -0.1626
 4545TP3      O25453   4.121   0.175   9.102 -0.0368  0.2125 -0.7080
 4545TP3     H125454   4.059   0.248   9.099  0.2083  0.4096 -0.9453
 4545TP3     H225455   4.201   0.210   9.063 -0.8440 -1.0688 -3.6398
 4546TP3      O25456   5.111   0.740   3.475 -0.1366  0.0642 -0.6933
 4546TP3     H125457   5.033   0.768   3.428 -1.8685 -0.6888  1.6337
 4546TP3     H225458   5.130   0.810   3.537  0.1066 -0.4481 -0.1752
 4547TP3      O25459   3.401   1.293   9.834 -0.2484  0.2822 -0.0031
 4547TP3     H125460   3.322   1.327   9.793  0.5540  1.1301 -0.8924
 4547TP3     H225461   3.379   1.286   9.927 -0.7626  2.3461  0.0552
 4548TP3      O25462   4.937   0.958   3.671 -0.1278 -0.1509 -0.2098
 4548TP3     H125463   4.904   0.989   3.587  2.0832  0.6355 -0.8388
 4548TP3     H225464   5.029   0.985   3.671  0.1238 -0.9498  2.0763
 4549TP3      O25465   0.694   1.477   9.433 -0.3557 -0.2302 -0.1090
 4549TP3     H125466   0.769   1.512   9.384 -0.1469  0.0956  0.4387
 4549TP3     H225467   0.693   1.527   9.514  1.1200 -2.7890  1.5365
 4550TP3      O25468   1.465   0.702   2.731 -0.0155  0.1019  0.5453
 4550TP3     H125469   1.391   0.752   2.766  0.3490  0.2355  1.1373
 4550TP3     H225470   1.434   0.612   2.730 -0.2339  0.1742  0.6766
 4551TP3      O25471   3.147   4.130   1.356 -0.6457 -0.1950 -0.0318
 4551TP3     H125472   3.151   4.194   1.427 -2.3666  1.6990 -1.5757
 4551TP3     H225473   3.225   4.076   1.368  1.0524  2.3998  1.1269
 4552TP3      O25474   1.112   0.895   1.791  0.2282  0.8636 -0.0925
 4552TP3     H125475   1.202   0.918   1.813  0.7580 -0.2043 -1.0594
 4552TP3     H225476   1.093   0.947   1.713  0.1793  0.7326 -0.1684
 4553TP3      O25477   4.163   2.417   2.250  0.0374  0.4516  0.1066
 4553TP3     H125478   4.166   2.370   2.333  1.0590 -0.0393 -0.1996
 4553TP3     H225479   4.070   2.435   2.236 -0.5344 -2.3760 -0.2330
 4554TP3      O25480   0.245   0.118   1.192 -0.5670 -0.3401 -0.0213
 4554TP3     H125481   0.179   0.059   1.226  0.1437 -0.7250  0.7077
 4554TP3     H225482   0.199   0.171   1.126 -1.7846 -0.0606  1.0442
 4555TP3      O25483   3.327   4.533   1.238 -0.4334  0.1344  0.6143
 4555TP3     H125484   3.280   4.530   1.321 -0.0337  1.3361  0.8904
 4555TP3     H225485   3.312   4.446   1.199 -0.0216 -0.7061  2.2708
 4556TP3      O25486   2.040   3.043   2.385  0.4453  0.5677 -0.4499
 4556TP3     H125487   2.117   2.986   2.394  0.3715  0.5481  0.0917
 4556TP3     H225488   2.010   3.056   2.475 -0.3626  0.3331 -0.6865
 4557TP3      O25489   2.018   4.957   9.628  0.0404  0.5245  1.2660
 4557TP3     H125490   2.018   4.862   9.630  1.3903  0.5175  1.5236
 4557TP3     H225491   1.960   4.984   9.699 -0.7905 -0.0988  0.8295
 4558TP3      O25492   4.635   3.706   0.194  0.3094  0.0713  0.4473
 4558TP3     H125493   4.596   3.793   0.197  0.4688  0.2145 -1.3015
 4558TP3     H225494   4.600   3.662   0.272  0.8505  1.9258  1.7831
 4559TP3      O25495   3.399   1.270  10.106  0.3988  0.3006 -0.0660
 4559TP3     H125496   3.449   1.216  10.167 -0.7488 -0.6508  0.0616
 4559TP3     H225497   3.347   1.328  10.162  1.0545  1.0070 -0.1876
 4560TP3      O25498   5.131   3.422   2.232 -0.0648  0.2811 -0.0059
 4560TP3     H125499   5.084   3.445   2.152  0.1637  1.6638  0.2425
 4560TP3     H225500   5.078   3.460   2.302  0.4337  0.2169  0.4087
 4561TP3      O25501   0.068   1.228   2.314  0.6297  0.0427  0.0190
 4561TP3     H125502   0.134   1.283   2.357  0.8758  0.7470 -1.2201
 4561TP3     H225503   0.098   1.221   2.223 -0.0963 -1.0658 -0.1476
 4562TP3      O25504   2.463   1.653   8.246 -0.1128 -0.2261 -0.6594
 4562TP3     H125505   2.396   1.685   8.307  0.3612 -0.5895  0.0652
 4562TP3     H225506   2.453   1.558   8.248  0.5733 -0.2991 -0.3572
 4563TP3      O25507   1.243   4.727   3.383  0.3824 -0.5676 -0.1099
 4563TP3     H125508   1.229   4.633   3.396  2.3254 -0.8057  0.4459
 4563TP3     H225509   1.199   4.768   3.457 -0.1691 -1.0658 -0.1584
 4564TP3      O25510   0.301   1.778   1.248 -0.0682 -0.1515  0.1623
 4564TP3     H125511   0.314   1.719   1.322  1.5900 -1.7049 -1.3021
 4564TP3     H225512   0.353   1.856   1.270  0.3132 -0.5545  0.6982
 4565TP3      O25513   4.925   2.406   1.390 -0.1269  0.4951 -0.3853
 4565TP3     H125514   4.888   2.464   1.323 -1.7197 -0.5918 -0.4729
 4565TP3     H225515   4.943   2.324   1.344  0.9171  0.4864  0.0208
 4566TP3      O25516   1.706   5.173   1.489  0.1786 -0.3305  0.0829
 4566TP3     H125517   1.664   5.147   1.571  1.7859  0.0247  1.0526
 4566TP3     H225518   1.766   5.244   1.515  1.6025 -1.0464 -1.1957
 4567TP3      O25519   2.955   5.246   1.989  0.3264 -0.0721  0.0962
 4567TP3     H125520   2.997   5.221   1.907 -0.4439  1.1518 -0.6966
 4567TP3     H225521   2.932   5.163   2.031  0.5033 -0.7074 -1.0514
 4568TP3      O25522   0.628   0.565   0.832 -0.2564 -0.4516 -0.4988
 4568TP3     H125523   0.566   0.637   0.842  1.2070  0.4211  2.9283
 4568TP3     H225524   0.693   0.598   0.770 -0.1303  0.8443  0.2963
 4569TP3      O25525   2.578   1.219   7.189 -0.5213  0.5129  0.3115
 4569TP3     H125526   2.565   1.314   7.194  0.1547  0.7256 -1.6125
 4569TP3     H225527   2.674   1.209   7.189 -0.5872 -0.2789  2.0877
 4570TP3      O25528   2.364   0.196   1.715 -0.3122  0.3511  0.2995
 4570TP3     H125529   2.295   0.227   1.773  0.3470  1.8411  0.3062
 4570TP3     H225530   2.443   0.239   1.747  0.5302 -0.8904 -0.0564
 4571TP3      O25531   1.649   0.359   2.240  0.5786  0.0055  0.0084
 4571TP3     H125532   1.694   0.442   2.223  0.6701  0.0236  0.3345
 4571TP3     H225533   1.562   0.370   2.200  0.1617  0.7038  1.0866
 4572TP3      O25534   0.640   1.846   9.460 -0.1638  0.0863 -0.2153
 4572TP3     H125535   0.676   1.856   9.548 -0.1058  0.0434 -0.2328
 4572TP3     H225536   0.682   1.915   9.408  0.6655 -0.5921 -0.4711
 4573TP3      O25537   4.513   2.470   2.042 -0.4237 -0.1399 -0.1671
 4573TP3     H125538   4.580   2.486   1.975  1.0486 -1.3823  0.9741
 4573TP3     H225539   4.494   2.557   2.078 -0.7477  0.4478 -1.7182
 4574TP3      O25540   3.932   0.390   2.425 -0.5221  0.0724 -0.0204
 4574TP3     H125541   3.922   0.310   2.477 -0.0676 -1.2652 -1.9251
 4574TP3     H225542   3.967   0.360   2.342  1.2652  2.4650 -0.2030
 4575TP3      O25543   0.858   1.652   2.838 -0.4362  0.3465  1.0994
 4575TP3     H125544   0.822   1.651   2.927 -0.1242 -0.6622  1.2258
 4575TP3     H225545   0.910   1.571   2.832 -2.6068 -0.9509 -0.8811
 4576TP3      O25546   0.349   0.366   2.464  0.2732 -0.1444 -0.0641
 4576TP3     H125547   0.339   0.434   2.398 -0.2820 -0.2002 -0.0365
 4576TP3     H225548   0.297   0.395   2.538 -1.2197 -1.3182 -0.6199
 4577TP3      O25549   1.595   2.794   0.898 -0.5473 -0.4294 -0.6088
 4577TP3     H125550   1.542   2.856   0.848  0.7231  1.0079 -0.1879
 4577TP3     H225551   1.684   2.825   0.888 -0.3476  0.5522  3.4652
 4578TP3      O25552   5.117   0.448   0.715  0.6390 -0.1069 -0.0614
 4578TP3     H125553   5.186   0.506   0.744  0.4724 -1.1433  2.5601
 4578TP3     H225554   5.092   0.399   0.794 -2.1705 -0.6647 -1.2311
 4579TP3      O25555   2.524   0.914   9.801  0.4828  0.5255  0.1876
 4579TP3     H125556   2.530   0.979   9.871 -0.1009  0.2448  0.5013
 4579TP3     H225557   2.478   0.960   9.730  0.7807  0.7073  0.1137
 4580TP3      O25558   0.438   3.142   1.337  0.6615  0.6122  0.1942
 4580TP3     H125559   0.397   3.198   1.404 -1.4713  2.2070 -2.3367
 4580TP3     H225560   0.364   3.101   1.292  2.1501 -2.5235  0.5009
 4581TP3      O25561   1.403   1.296   2.386  0.1054  0.2635 -0.5576
 4581TP3     H125562   1.357   1.357   2.443  0.9543 -1.3023  1.8587
 4581TP3     H225563   1.490   1.335   2.375  0.4638 -0.2260  0.5260
 4582TP3      O25564   4.332   4.297   2.464  0.0366 -0.3165 -0.9585
 4582TP3     H125565   4.395   4.300   2.536  0.1704  0.7141 -1.1093
 4582TP3     H225566   4.268   4.231   2.490 -0.5562  0.8553  0.6230
 4583TP3      O25567   2.530   1.333   1.131  0.8847 -0.0149 -0.3668
 4583TP3     H125568   2.479   1.255   1.112  0.2117  0.2398  0.3453
 4583TP3     H225569   2.592   1.340   1.059  2.0324 -2.1087  0.3872
 4584TP3      O25570   2.970   2.850   1.188  0.3451 -0.0803  0.0330
 4584TP3     H125571   3.061   2.832   1.209  0.0717 -2.9089 -0.9496
 4584TP3     H225572   2.925   2.850   1.273  1.5799  3.7219  0.7554
 4585TP3      O25573   2.232   3.296   2.854  0.8332 -0.0633 -0.3445
 4585TP3     H125574   2.140   3.320   2.842  0.9017  0.8220  0.8043
 4585TP3     H225575   2.230   3.207   2.889  0.4573 -0.4720 -1.3907
 4586TP3      O25576   2.506   0.905   2.550 -0.0245 -0.2308 -0.0882
 4586TP3     H125577   2.567   0.879   2.481  1.5004  0.9773  0.7616
 4586TP3     H225578   2.445   0.965   2.508  0.4220 -0.1081 -0.5565
 4587TP3      O25579   3.858   2.916   1.664  0.4247 -0.5247 -0.8294
 4587TP3     H125580   3.947   2.923   1.698 -0.0652  1.9527  0.0708
 4587TP3     H225581   3.869   2.906   1.569  1.6780  1.2675 -0.8977
 4588TP3      O25582   2.802   4.221   2.201  0.0332 -1.1014 -0.3339
 4588TP3     H125583   2.724   4.274   2.217  0.7666 -0.5406  1.5174
 4588TP3     H225584   2.808   4.215   2.106 -1.0124  0.6933 -0.5294
 4589TP3      O25585   3.943   3.109   2.716 -0.0895 -0.3645 -0.1650
 4589TP3     H125586   4.038   3.119   2.715 -0.1773  0.4709 -0.5628
 4589TP3     H225587   3.911   3.188   2.760 -0.6502 -0.1091 -1.0197
 4590TP3      O25588   2.671   0.413   0.714  0.3407  0.3508 -0.4216
 4590TP3     H125589   2.600   0.390   0.655  0.4787  1.2757 -0.9636
 4590TP3     H225590   2.655   0.504   0.737  1.0068  0.3841 -0.0575
 4591TP3      O25591   0.180   4.066   2.240  0.0371 -0.4188  0.2606
 4591TP3     H125592   0.104   4.007   2.249 -0.9468  0.5934 -1.2404
 4591TP3     H225593   0.224   4.037   2.161 -0.8674  1.2932 -0.8988
 4592TP3      O25594   4.687   4.214   0.063  0.2895  0.0825 -0.1870
 4592TP3     H125595   4.683   4.268   0.143  0.8911 -0.7389  0.4120
 4592TP3     H225596   4.781   4.204   0.047  0.1648  0.0944 -0.8987
 4593TP3      O25597   0.648   0.245   1.542 -0.4309  0.1422  0.6931
 4593TP3     H125598   0.685   0.168   1.586  0.8441  0.0800 -0.4647
 4593TP3     H225599   0.569   0.212   1.500  1.1809 -1.0534 -1.5139
 4594TP3      O25600   2.852   1.570   3.088  0.0341 -0.1214  0.2569
 4594TP3     H125601   2.764   1.608   3.088 -0.1261 -0.4840  0.8732
 4594TP3     H225602   2.872   1.557   3.181  1.1226  0.8558  0.1751
 4595TP3      O25603   0.502   3.520   1.263  0.5542  0.2360  0.0799
 4595TP3     H125604   0.478   3.604   1.224  1.6717  1.0250  1.0473
 4595TP3     H225605   0.498   3.536   1.358  0.2782 -0.9439  0.2664
 4596TP3      O25606   0.222   0.198   0.686  0.3803 -0.7572  0.3675
 4596TP3     H125607   0.278   0.186   0.609  0.5613 -1.5417  0.6179
 4596TP3     H225608   0.143   0.240   0.652  0.3612 -1.3072 -0.2890
 4597TP3      O25609   0.903   0.310   3.481 -0.3087  0.3127  0.3798
 4597TP3     H125610   0.857   0.395   3.486 -1.4564 -0.2357 -0.5090
 4597TP3     H225611   0.994   0.333   3.468 -0.6197  1.4242  0.0855
 4598TP3      O25612   2.136   1.441   2.307 -0.5079 -0.2376  0.0468
 4598TP3     H125613   2.130   1.530   2.341 -1.0766 -0.0010 -0.6565
 4598TP3     H225614   2.227   1.432   2.278 -0.3755  0.0104  0.3827
 4599TP3      O25615   1.451   0.348   8.100  0.1542 -0.1557  0.3594
 4599TP3     H125616   1.429   0.319   8.189 -2.9481 -0.1990 -0.3976
 4599TP3     H225617   1.367   0.353   8.054  1.7060 -0.1122 -2.5903
 4600TP3      O25618   1.510   3.850   9.598 -0.2088  0.0088  0.0653
 4600TP3     H125619   1.486   3.798   9.522 -0.4022 -0.0576  0.1709
 4600TP3     H225620   1.595   3.889   9.575 -0.1387 -0.2281 -0.0752
 4601TP3      O25621   0.363   2.687   1.989 -0.1342 -0.5234 -0.0352
 4601TP3     H125622   0.366   2.767   2.041  0.6320 -0.2306 -0.5184
 4601TP3     H225623   0.330   2.715   1.904 -0.1457 -0.7701 -0.1133
 4602TP3      O25624   4.395   4.866   9.637 -0.0583  0.3273 -0.5699
 4602TP3     H125625   4.322   4.807   9.623 -1.6082  1.7109  1.3475
 4602TP3     H225626   4.372   4.945   9.588  1.4971 -0.2072 -2.2444
 4603TP3      O25627   4.126   0.055   8.511 -0.3544  0.1092 -0.2891
 4603TP3     H125628   4.079   0.011   8.440 -1.7408  1.9088 -0.5153
 4603TP3     H225629   4.164  -0.017   8.562 -2.2781 -1.3344 -0.8267
 4604TP3      O25630   1.544   2.057   0.754  0.2961 -0.2562 -0.1102
 4604TP3     H125631   1.498   2.115   0.815  0.0387 -1.0884  0.5009
 4604TP3     H225632   1.596   2.116   0.700  0.1045  0.5398  0.5542
 4605TP3      O25633   1.951   1.110   1.033  0.0532 -0.2866 -0.8235
 4605TP3     H125634   1.894   1.113   1.109  1.3121  2.2843  0.0737
 4605TP3     H225635   2.040   1.114   1.069  0.6907  0.1106 -2.3788
 4606TP3      O25636   0.366   4.963   1.947 -0.1194 -0.7631  0.1730
 4606TP3     H125637   0.360   5.056   1.927 -0.8642 -1.2441 -1.9956
 4606TP3     H225638   0.447   4.954   1.996 -0.4161  1.1331  1.0360
 4607TP3      O25639   0.539   1.832   3.174 -0.1416  0.4117  0.3244
 4607TP3     H125640   0.608   1.772   3.144  0.2592  0.2367  1.5994
 4607TP3     H225641   0.458   1.784   3.158  0.1018  0.0744  0.0714
 4608TP3      O25642   0.729   3.759   1.919  0.2175 -0.0323 -0.4347
 4608TP3     H125643   0.678   3.831   1.957 -0.0344 -0.9037  0.9063
 4608TP3     H225644   0.801   3.802   1.874  0.3432  1.0481  0.7799
 4609TP3      O25645   1.234   4.042   0.234 -0.2745  0.2901 -0.2976
 4609TP3     H125646   1.286   4.116   0.263  0.6702 -0.1977 -0.7166
 4609TP3     H225647   1.297   3.971   0.223 -1.0170 -0.2987 -0.8628
 4610TP3      O25648   0.530   3.605   0.822  0.2183  0.3959 -0.1808
 4610TP3     H125649   0.584   3.636   0.749 -1.5698 -1.6159 -2.4495
 4610TP3     H225650   0.592   3.597   0.895  2.6452 -0.0785 -2.1838
 4611TP3      O25651   3.340   0.984   2.918 -0.1177  0.6554 -0.3331
 4611TP3     H125652   3.332   0.949   3.007  0.2624  1.1290 -0.1115
 4611TP3     H225653   3.404   1.054   2.926  0.1570  0.4847 -1.0462
 4612TP3      O25654   4.919   0.610   2.403  0.5075  0.0751 -0.1150
 4612TP3     H125655   4.915   0.574   2.315 -0.9275 -0.0885  0.0070
 4612TP3     H225656   5.012   0.618   2.422  0.8465 -2.6259 -0.5237
 4613TP3      O25657   3.641   0.616   9.398 -0.5337 -0.0991 -0.0404
 4613TP3     H125658   3.726   0.574   9.406  0.4537  1.9856  0.7447
 4613TP3     H225659   3.618   0.642   9.487 -0.3863  2.3993 -0.7036
 4614TP3      O25660   0.862   0.902   1.407 -0.5016 -0.0726 -0.4547
 4614TP3     H125661   0.837   0.810   1.397  2.8982 -1.1616  0.4010
 4614TP3     H225662   0.837   0.924   1.496  1.6914 -1.2371  0.4931
 4615TP3      O25663   4.492   3.587   7.236 -0.0106 -0.1129  0.2344
 4615TP3     H125664   4.501   3.568   7.143 -0.5451  0.0575  0.1441
 4615TP3     H225665   4.560   3.652   7.254 -2.0814  2.4266 -0.8063
 4616TP3      O25666   0.767   3.376   2.862  0.0070  0.0281  0.4771
 4616TP3     H125667   0.859   3.363   2.840  0.0200  1.6884 -0.4951
 4616TP3     H225668   0.767   3.396   2.956  0.5443 -0.7611  0.6522
 4617TP3      O25669   0.199   1.103   2.698 -0.1447  0.2066 -0.1790
 4617TP3     H125670   0.142   1.179   2.694 -0.2060  0.1724  0.0111
 4617TP3     H225671   0.143   1.033   2.732 -0.2437 -0.0723 -0.9147
 4618TP3      O25672   0.736   2.529   1.107  0.3041  0.0017  0.3943
 4618TP3     H125673   0.724   2.453   1.050 -3.3996 -0.5173  1.7554
 4618TP3     H225674   0.802   2.501   1.170  0.4976 -1.3014 -0.3650
 4619TP3      O25675   1.225   2.289   2.427 -0.2138 -0.1468 -0.0702
 4619TP3     H125676   1.142   2.274   2.471 -0.7109 -0.2060 -1.0061
 4619TP3     H225677   1.252   2.204   2.394 -1.5281  0.4289 -2.7598
 4620TP3      O25678   4.178   3.726   1.009 -0.1899 -0.4150  0.1280
 4620TP3     H125679   4.225   3.654   0.967 -1.1675 -0.8248 -0.2648
 4620TP3     H225680   4.247   3.787   1.036  0.5736 -1.0593 -0.3588
 4621TP3      O25681   1.144   3.147   2.496 -1.0818 -0.0080  0.1015
 4621TP3     H125682   1.167   3.098   2.417 -1.0841  0.2579 -0.0622
 4621TP3     H225683   1.223   3.143   2.550 -1.5648 -1.4642  0.7323
 4622TP3      O25684   2.378   4.522   1.995 -0.4595  0.1162  0.0695
 4622TP3     H125685   2.429   4.596   1.963  2.1423 -1.6600 -0.0843
 4622TP3     H225686   2.304   4.515   1.934  2.6847 -1.2536 -3.7897
 4623TP3      O25687   1.316   2.024   2.390 -0.0383 -0.2331  0.4864
 4623TP3     H125688   1.272   1.977   2.461 -0.9623  0.9992  0.7429
 4623TP3     H225689   1.406   2.036   2.422  0.4207 -2.4167  0.1210
 4624TP3      O25690   1.986   1.928   3.201  0.2294 -0.1414  0.0624
 4624TP3     H125691   2.023   2.010   3.233  0.1315 -0.3289  0.6605
 4624TP3     H225692   2.062   1.874   3.181  0.3103  0.4002 -1.1568
 4625TP3      O25693   1.022   0.655   1.647 -0.2775  0.2980  0.3308
 4625TP3     H125694   0.944   0.686   1.693 -0.4745  0.2612  0.0242
 4625TP3     H225695   1.075   0.614   1.715 -0.9976 -0.5834  0.3629
 4626TP3      O25696   3.491   2.778   2.759  0.0039  0.2722 -0.2538
 4626TP3     H125697   3.450   2.710   2.812  0.7322 -1.2956 -1.6402
 4626TP3     H225698   3.584   2.770   2.778 -0.0032  1.7628  0.5345
 4627TP3      O25699   5.193   5.109   1.579  0.3528 -0.1439  0.0894
 4627TP3     H125700   5.166   5.024   1.613 -1.7119  0.6085  0.4064
 4627TP3     H225701   5.235   5.152   1.653 -1.4289  0.3226  0.8413
 4628TP3      O25702   5.115   3.482   9.185  0.1830  0.4093 -0.2273
 4628TP3     H125703   5.206   3.481   9.214  0.2233  0.6480 -0.3473
 4628TP3     H225704   5.096   3.390   9.165  0.1955  0.2633  0.4182
 4629TP3      O25705   2.355   2.127   3.024 -0.4116 -0.2487 -0.2479
 4629TP3     H125706   2.376   2.197   2.962  0.3683 -0.4524 -0.2087
 4629TP3     H225707   2.404   2.051   2.992 -1.8572 -1.0107 -0.7483
 4630TP3      O25708   0.150   4.524   2.963  0.0663 -0.2309 -0.3015
 4630TP3     H125709   0.113   4.436   2.978  0.2965 -0.6292 -1.9777
 4630TP3     H225710   0.226   4.528   3.021  0.1006 -1.1634 -0.2715
 4631TP3      O25711   0.012   2.376   1.931  0.4289 -0.2773  0.0803
 4631TP3     H125712  -0.003   2.457   1.882 -1.4048  1.0628  2.7254
 4631TP3     H225713   0.011   2.307   1.864 -3.0141  1.3890 -1.7258
 4632TP3      O25714   1.140   3.457   3.712 -0.3173 -0.3896 -0.1004
 4632TP3     H125715   1.072   3.518   3.686 -1.3687 -1.5403 -0.0765
 4632TP3     H225716   1.210   3.469   3.647 -1.5117 -0.8566 -1.4798
 4633TP3      O25717   2.991   4.489   1.877  0.3793  0.1828 -0.0267
 4633TP3     H125718   2.925   4.522   1.938  0.3372  1.5636 -0.8111
 4633TP3     H225719   3.061   4.455   1.932  0.0801  0.8889  0.7820
 4634TP3      O25720   4.203   2.000   8.772  0.5997  0.0564 -0.5269
 4634TP3     H125721   4.264   2.068   8.743 -0.7225  1.5422  0.1342
 4634TP3     H225722   4.201   2.008   8.867 -0.7128  0.1049 -0.5503
 4635TP3      O25723   0.661   0.668   2.941  0.4863  0.1011 -0.1396
 4635TP3     H125724   0.741   0.695   2.986 -0.6600 -0.3862  2.2722
 4635TP3     H225725   0.640   0.583   2.979 -0.7977 -0.0897 -1.2569
 4636TP3      O25726   4.735   1.755   9.698 -0.1017 -0.0394  0.1107
 4636TP3     H125727   4.744   1.827   9.761 -1.7957  0.4091 -0.1417
 4636TP3     H225728   4.770   1.792   9.616 -0.6640  0.3814  0.0603
 4637TP3      O25729   4.979   4.198   1.073  0.0846  0.6430 -0.0245
 4637TP3     H125730   5.042   4.226   1.139 -0.6799  0.4743  0.7908
 4637TP3     H225731   4.902   4.170   1.124 -1.1406  2.0522 -1.0348
 4638TP3      O25732   0.862   2.757   0.937 -0.5304 -0.1065 -0.1232
 4638TP3     H125733   0.802   2.747   0.863 -1.0339 -0.9994  0.4088
 4638TP3     H225734   0.824   2.704   1.007  0.0763  0.5349  0.7034
 4639TP3      O25735   3.041   1.619   2.922  0.0717 -0.5221 -0.0454
 4639TP3     H125736   3.048   1.552   2.855 -2.2150  0.1325 -0.9899
 4639TP3     H225737   2.967   1.592   2.976 -1.3774  1.5859 -0.9000
 4640TP3      O25738   2.191   0.030   2.098  0.1512  0.3794 -0.1138
 4640TP3     H125739   2.202  -0.064   2.081  0.8482  0.3766  0.3190
 4640TP3     H225740   2.278   0.067   2.080 -0.1378  0.9478 -0.3415
 4641TP3      O25741   0.343   2.260   1.775  0.8006  0.1963 -0.5594
 4641TP3     H125742   0.317   2.321   1.844 -0.8939 -1.3285  0.1827
 4641TP3     H225743   0.386   2.188   1.821  3.3874  1.0932 -1.4910
 4642TP3      O25744   1.636   3.314   2.722  0.1626 -0.5284 -0.6179
 4642TP3     H125745   1.574   3.276   2.785  1.4943 -0.9036  0.4935
 4642TP3     H225746   1.667   3.394   2.764  0.4760 -0.3659 -1.1542
 4643TP3      O25747   2.692   4.363   6.520  0.4487 -0.7848 -0.2891
 4643TP3     H125748   2.703   4.275   6.555 -0.0131 -0.6237  0.2665
 4643TP3     H225749   2.701   4.421   6.596 -0.7034 -0.4460 -0.4010
 4644TP3      O25750   4.226   5.306   8.037 -0.2951 -0.2190 -0.1172
 4644TP3     H125751   4.206   5.380   7.980 -0.7970  0.8230  1.3648
 4644TP3     H225752   4.312   5.276   8.008  0.6495  1.9710  0.2861
 4645TP3      O25753   1.186   4.086   2.094 -0.3559 -0.2224  0.6123
 4645TP3     H125754   1.100   4.086   2.052 -0.9532  0.0881  1.8185
 4645TP3     H225755   1.171   4.125   2.180  1.1731  0.7331  0.4724
 4646TP3      O25756   1.622   3.453   1.538 -0.2101 -0.2449 -0.2858
 4646TP3     H125757   1.703   3.426   1.495 -0.5304 -2.0916  0.1906
 4646TP3     H225758   1.559   3.385   1.513 -1.5719  1.1032 -0.5474
 4647TP3      O25759   3.408   0.298   0.677  0.3165 -0.1106  0.0823
 4647TP3     H125760   3.480   0.352   0.646 -1.1315  1.4999 -0.5662
 4647TP3     H225761   3.450   0.223   0.719  2.3483  0.9843  0.0422
 4648TP3      O25762   1.495   3.448   2.524 -0.1416 -0.3680  0.1518
 4648TP3     H125763   1.544   3.388   2.580  2.0124  0.5228 -0.7415
 4648TP3     H225764   1.463   3.393   2.452  0.3543 -0.7795  0.2443
 4649TP3      O25765   3.288   1.592   2.014 -0.5650  0.0662  0.6952
 4649TP3     H125766   3.333   1.509   2.008 -0.6403  0.0922 -0.2479
 4649TP3     H225767   3.249   1.605   1.927 -0.6986  0.9938  0.8885
 4650TP3      O25768   1.104   1.039   3.310  0.0713  0.0825  0.0737
 4650TP3     H125769   1.015   1.076   3.307  0.2574  0.5549  0.2248
 4650TP3     H225770   1.159   1.108   3.271  0.2866 -0.4651 -0.5940
 4651TP3      O25771   0.579   3.426   2.682 -0.1471  0.0410 -0.2089
 4651TP3     H125772   0.511   3.433   2.748  0.4646  0.3347  0.4000
 4651TP3     H225773   0.660   3.413   2.732  0.2088 -0.5540 -0.9279
 4652TP3      O25774   1.668   4.190   2.768 -0.0849  0.0186 -0.4477
 4652TP3     H125775   1.685   4.166   2.859 -3.3679 -0.3910  0.1423
 4652TP3     H225776   1.676   4.108   2.719 -0.5265 -0.1923 -0.1672
 4653TP3      O25777   3.528   3.986   2.102 -0.1261 -0.0541  0.7921
 4653TP3     H125778   3.442   4.014   2.069  0.2823  0.7335  0.3882
 4653TP3     H225779   3.569   4.066   2.133  1.2784 -0.1161 -0.8612
 4654TP3      O25780   0.383   3.984   3.342 -0.1338  0.0138  0.4439
 4654TP3     H125781   0.443   4.058   3.356 -0.0158  0.4170 -1.9107
 4654TP3     H225782   0.297   4.025   3.331 -0.3738 -0.3505  0.9266
 4655TP3      O25783   5.230   1.353   0.071 -0.7550  0.3724  0.1713
 4655TP3     H125784   5.175   1.306   0.009 -0.3507 -0.4003  0.3830
 4655TP3     H225785   5.194   1.441   0.074 -1.1137  0.2637 -0.7470
 4656TP3      O25786   2.133   4.828   2.510 -0.2409  0.5049 -0.2958
 4656TP3     H125787   2.224   4.803   2.522  0.0794  2.5090  1.6909
 4656TP3     H225788   2.109   4.790   2.425  2.2322 -0.5598 -0.5649
 4657TP3      O25789   4.821   1.688   7.452 -0.0569  0.5911 -0.3906
 4657TP3     H125790   4.793   1.661   7.365 -0.6605 -0.1657  0.0267
 4657TP3     H225791   4.899   1.636   7.470 -0.1723  0.4414 -0.3170
 4658TP3      O25792   0.914   0.853   0.592 -0.4379 -0.0982  0.1628
 4658TP3     H125793   1.007   0.831   0.590 -0.1895  0.7787  1.1022
 4658TP3     H225794   0.869   0.774   0.562  0.5536 -0.9216  0.8107
 4659TP3      O25795   3.272   0.124   1.263  0.2860  0.4927  0.1395
 4659TP3     H125796   3.320   0.107   1.182  2.0494  1.0218  1.0468
 4659TP3     H225797   3.245   0.216   1.256  2.6567  1.3056  1.2444
 4660TP3      O25798   1.775   4.687   7.656  0.2710 -0.5648 -0.1633
 4660TP3     H125799   1.822   4.627   7.598 -1.0412 -2.2051  0.4368
 4660TP3     H225800   1.707   4.726   7.600 -0.3135 -1.3416  0.0029
 4661TP3      O25801   0.554   3.603   9.903 -0.3897  0.1615  0.6457
 4661TP3     H125802   0.626   3.646   9.859  0.7617  0.5002  2.7760
 4661TP3     H225803   0.593   3.565   9.982 -2.2057 -1.1252  0.9689
 4662TP3      O25804   0.350   4.529   8.366  0.2537  1.0906 -0.0124
 4662TP3     H125805   0.355   4.620   8.336  1.2352  1.5417  1.4586
 4662TP3     H225806   0.394   4.529   8.451  0.0677 -0.7218  0.1141
 4663TP3      O25807   1.660   0.735   0.725 -0.0698  0.2821  0.0993
 4663TP3     H125808   1.589   0.704   0.669 -0.2697  0.6519  0.1439
 4663TP3     H225809   1.639   0.702   0.812 -1.4501  2.3690  0.5920
 4664TP3      O25810   4.762   2.637   1.410  0.2868  0.6041  0.0732
 4664TP3     H125811   4.787   2.560   1.460 -0.1301  1.0322  0.9372
 4664TP3     H225812   4.769   2.609   1.318 -1.2750 -0.8907  0.4030
 4665TP3      O25813   2.780   0.231   2.638 -0.5984  0.0228 -0.2356
 4665TP3     H125814   2.853   0.285   2.669 -0.2588  0.2405 -1.4149
 4665TP3     H225815   2.715   0.239   2.708 -0.2534  1.3434 -0.0354
 4666TP3      O25816   3.514   1.168   2.343  0.1855 -0.0082 -0.1619
 4666TP3     H125817   3.448   1.136   2.282 -0.8821  0.6113  0.6404
 4666TP3     H225818   3.464   1.212   2.412  1.2819 -1.6775  1.7692
 4667TP3      O25819   5.173   2.964   2.260 -0.8162 -0.3169 -0.0013
 4667TP3     H125820   5.176   2.915   2.178 -2.9977 -0.0368 -0.2865
 4667TP3     H225821   5.203   3.052   2.236  0.1692 -0.6802 -0.1267
 4668TP3      O25822   0.603   1.250   0.512 -0.1884  0.1415 -0.1320
 4668TP3     H125823   0.680   1.303   0.536  0.8183 -1.5108  0.3868
 4668TP3     H225824   0.632   1.159   0.523 -1.3748 -0.5767 -2.5659
 4669TP3      O25825   4.501   0.658   9.975  0.7545  0.2133 -0.3970
 4669TP3     H125826   4.506   0.693   9.886  0.7189  0.5501 -0.2676
 4669TP3     H225827   4.496   0.563   9.963  1.5098  0.2097 -0.7332
 4670TP3      O25828   5.223   4.040   2.291  0.1309  0.0745 -0.7371
 4670TP3     H125829   5.139   4.063   2.252 -0.3642 -0.2960  0.1139
 4670TP3     H225830   5.222   4.082   2.377  0.5577 -0.4441 -0.4759
 4671TP3      O25831   2.204   2.438   0.719 -0.0681  0.0355  0.0597
 4671TP3     H125832   2.282   2.467   0.767 -0.5250  0.6906  0.4130
 4671TP3     H225833   2.236   2.419   0.631  0.5317  0.0890  0.2625
 4672TP3      O25834   4.276   2.052   2.556  0.8229 -0.2330  0.1869
 4672TP3     H125835   4.302   2.129   2.505  1.2786 -0.9141 -0.6304
 4672TP3     H225836   4.267   2.084   2.645  1.5441  0.6645 -0.0519
 4673TP3      O25837   1.127   4.458   2.182  0.4033  0.7776  0.0054
 4673TP3     H125838   1.152   4.374   2.220 -0.9290 -0.1590 -1.1297
 4673TP3     H225839   1.167   4.458   2.095  1.1366  1.7012  0.3385
 4674TP3      O25840   2.060   4.406   2.722  0.5116  0.9221  0.1945
 4674TP3     H125841   2.138   4.416   2.668  1.1560  0.7405  1.0882
 4674TP3     H225842   2.022   4.323   2.694  0.2469  1.3453 -0.7306
 4675TP3      O25843   3.704   0.364   3.207  0.7819  0.6117  0.1507
 4675TP3     H125844   3.754   0.301   3.155  1.5313  1.9061 -0.7199
 4675TP3     H225845   3.620   0.371   3.162  0.8162  0.4801  0.0660
 4676TP3      O25846   0.931   0.668   2.223  0.0702 -0.2791  0.5041
 4676TP3     H125847   0.948   0.700   2.311  1.8961  0.2166 -0.0084
 4676TP3     H225848   0.963   0.738   2.166  2.1707 -2.0730 -0.5875
 4677TP3      O25849   3.834   2.416   8.868 -0.1350  0.4158  0.1236
 4677TP3     H125850   3.881   2.499   8.875  0.8706 -0.3367  2.5776
 4677TP3     H225851   3.759   2.425   8.926 -0.9997  0.2199 -0.9313
 4678TP3      O25852   4.521   0.715   8.896 -0.2743 -0.6055 -0.6065
 4678TP3     H125853   4.608   0.730   8.932 -0.4448  0.0982 -0.4809
 4678TP3     H225854   4.472   0.795   8.917 -1.1668 -1.2964 -0.0339
 4679TP3      O25855   0.243   3.233   3.312 -0.2988 -0.8078 -0.1614
 4679TP3     H125856   0.290   3.162   3.268 -0.3955  0.6835 -2.8180
 4679TP3     H225857   0.150   3.211   3.298 -0.3415  0.7284 -2.6392
 4680TP3      O25858   1.413   2.642   1.877 -0.4416 -0.1277 -0.0874
 4680TP3     H125859   1.422   2.736   1.891  2.5490  0.2436 -3.7666
 4680TP3     H225860   1.467   2.603   1.945 -0.4064  0.8343  0.4517
 4681TP3      O25861   2.964   2.627   1.566  0.5702 -0.6175  0.4287
 4681TP3     H125862   2.887   2.581   1.533  1.3369 -1.1137 -0.6874
 4681TP3     H225863   2.995   2.573   1.639 -1.0654  0.4282  1.9374
 4682TP3      O25864   1.737   2.668   2.917  0.5321  0.7110  0.3542
 4682TP3     H125865   1.793   2.687   2.992  0.0911 -1.2186  1.2213
 4682TP3     H225866   1.716   2.574   2.926  1.5982  0.0996 -2.9484
 4683TP3      O25867   2.785   0.655   1.299  0.0046 -0.3811 -0.3022
 4683TP3     H125868   2.801   0.608   1.381  1.7404 -1.5370 -1.2714
 4683TP3     H225869   2.798   0.747   1.321  0.6688 -0.6962  0.6626
 4684TP3      O25870   4.510   4.749   2.160 -0.1961 -0.3053 -0.5548
 4684TP3     H125871   4.558   4.832   2.161  2.7497 -1.9436 -1.5866
 4684TP3     H225872   4.420   4.774   2.182  1.1100  2.8168  1.6568
 4685TP3      O25873   1.038   1.330   3.096  0.0712 -0.2928  0.2513
 4685TP3     H125874   0.985   1.386   3.153  0.8056 -0.2907  0.9333
 4685TP3     H225875   1.123   1.325   3.140  0.2971 -1.1852 -0.2886
 4686TP3      O25876   2.702   0.640   9.471 -0.0996 -0.0210 -0.2876
 4686TP3     H125877   2.704   0.547   9.448  0.2633  0.0061 -0.3658
 4686TP3     H225878   2.694   0.641   9.566  0.7933 -0.1371 -0.2061
 4687TP3      O25879   4.795   1.681   0.039  0.0843  0.0516 -0.0920
 4687TP3     H125880   4.760   1.687  -0.050 -1.7200  1.4724  0.6833
 4687TP3     H225881   4.848   1.760   0.049  0.5023 -0.2395  0.0169
 4688TP3      O25882   4.868   2.731   2.467 -0.1715 -0.2070  0.0143
 4688TP3     H125883   4.864   2.823   2.440 -1.9635 -0.7610 -1.7831
 4688TP3     H225884   4.941   2.695   2.416  0.4328  0.1777  0.6017
 4689TP3      O25885   0.301   4.466   9.997 -0.1434 -0.6283  0.1700
 4689TP3     H125886   0.253   4.384   9.990 -3.1353  0.9223  1.5148
 4689TP3     H225887   0.273   4.504  10.080  0.9713  1.8496 -0.5219
 4690TP3      O25888   0.964   1.372   3.429 -0.3371  0.5857 -0.1508
 4690TP3     H125889   1.043   1.411   3.467  0.3826 -0.6255 -0.3879
 4690TP3     H225890   0.928   1.442   3.374 -0.7560  1.9698  1.8171
 4691TP3      O25891   0.186   2.213   3.404  0.3358  0.3291 -0.3789
 4691TP3     H125892   0.132   2.291   3.417 -0.1449  0.2305 -1.6838
 4691TP3     H225893   0.175   2.162   3.484 -2.7789 -0.4291 -1.2321
 4692TP3      O25894   3.825   1.774   9.653 -0.2158 -0.1285 -0.0659
 4692TP3     H125895   3.740   1.802   9.620 -0.1203 -0.0505 -0.2451
 4692TP3     H225896   3.889   1.829   9.607 -0.0137 -0.8105 -0.6161
 4693TP3      O25897   4.950   3.212   1.980 -0.1059 -0.5688  0.2313
 4693TP3     H125898   5.029   3.181   1.936  0.3314 -0.4129  0.9076
 4693TP3     H225899   4.962   3.307   1.985 -0.2287 -0.5713  0.5521
 4694TP3      O25900   2.411   4.570   8.753 -0.0755 -0.7901 -0.0913
 4694TP3     H125901   2.461   4.501   8.797 -0.8962 -0.3277  1.6117
 4694TP3     H225902   2.478   4.630   8.721  0.5023 -0.1083  2.2884
 4695TP3      O25903   4.272   2.394   2.803 -0.2310 -0.4987  0.2125
 4695TP3     H125904   4.346   2.413   2.861  0.4354  0.3808 -0.8905
 4695TP3     H225905   4.199   2.378   2.862  0.4643  0.2335  1.3070
 4696TP3      O25906   0.938   2.633   1.719 -0.0995  0.3897 -0.0042
 4696TP3     H125907   0.887   2.620   1.639 -0.0899  1.6022 -0.2178
 4696TP3     H225908   1.027   2.648   1.688  0.2421 -0.8331  0.3292
 4697TP3      O25909   0.334   1.065   3.155  0.5649 -0.0315  0.2447
 4697TP3     H125910   0.331   0.981   3.108 -1.1578 -0.4604  1.0846
 4697TP3     H225911   0.277   1.122   3.104 -2.2795 -0.8452  2.4387
 4698TP3      O25912   5.036   1.177   2.717  0.0784 -0.1316 -0.1144
 4698TP3     H125913   4.994   1.092   2.732 -1.6523  0.6053 -0.6486
 4698TP3     H225914   5.070   1.171   2.628  0.0134 -0.3020 -0.1286
 4699TP3      O25915   1.884   3.047   2.910 -0.5270  0.0379 -0.1539
 4699TP3     H125916   1.943   2.986   2.955  0.0946  1.2444  0.6686
 4699TP3     H225917   1.823   3.076   2.978  0.4293  1.8769 -0.0414
 4700TP3      O25918   1.089   3.749   3.512  0.2447  0.7466  0.0197
 4700TP3     H125919   1.032   3.825   3.524  0.1829  0.7597 -0.3548
 4700TP3     H225920   1.040   3.691   3.453  0.4702  0.6023 -0.0255
 4701TP3      O25921   2.422   4.178   1.570 -0.1546  0.5332 -0.3558
 4701TP3     H125922   2.483   4.107   1.550  0.8378  1.0673  0.7188
 4701TP3     H225923   2.377   4.196   1.487  1.6368  0.5935 -1.3363
 4702TP3      O25924   5.086   4.289   1.874  0.1100 -0.0341 -0.7830
 4702TP3     H125925   5.031   4.354   1.830  0.3790 -0.6924 -2.1141
 4702TP3     H225926   5.034   4.260   1.949  0.2107  2.1180  0.1853
 4703TP3      O25927   4.843   5.121   2.265 -0.7328 -0.0141 -0.6725
 4703TP3     H125928   4.883   5.179   2.201 -0.1049 -1.5269 -1.6864
 4703TP3     H225929   4.912   5.102   2.328 -1.2300  1.1391  0.2353
 4704TP3      O25930   5.132   2.031   0.145  0.0028  0.4838  0.5833
 4704TP3     H125931   5.097   2.119   0.159  1.1849  0.8412  1.3386
 4704TP3     H225932   5.219   2.033   0.185  1.3779 -0.0259 -2.2335
 4705TP3      O25933   0.583   4.417   2.891  0.4489 -0.8045  0.0010
 4705TP3     H125934   0.594   4.443   2.983  0.1214  0.8376 -0.4084
 4705TP3     H225935   0.668   4.380   2.867  1.9794  2.6762 -0.2379
 4706TP3      O25936   2.092   2.313   3.378  0.2161  0.0104  0.7940
 4706TP3     H125937   2.035   2.363   3.319  0.9383  0.3306  0.3594
 4706TP3     H225938   2.035   2.245   3.415 -0.3937  0.1971  0.2070
 4707TP3      O25939   3.192   1.474   0.751 -0.0797 -0.3012 -0.0103
 4707TP3     H125940   3.127   1.430   0.806 -0.0341 -2.1422 -1.3760
 4707TP3     H225941   3.276   1.443   0.784  0.0354  0.4258  0.3876
 4708TP3      O25942   4.483   3.936   3.025  0.3567  0.7228  0.5285
 4708TP3     H125943   4.549   3.877   3.061 -0.2655  0.3379  1.0291
 4708TP3     H225944   4.520   4.024   3.040  0.4251  0.5425  1.4801
 4709TP3      O25945   5.061   5.034   2.466  0.4834  0.2257  0.1549
 4709TP3     H125946   5.133   5.093   2.487  1.0995 -0.5952  0.3589
 4709TP3     H225947   5.103   4.958   2.426 -0.5274  1.2187 -2.9729
 4710TP3      O25948   1.644   2.842   3.322 -0.8109  0.2557 -0.1109
 4710TP3     H125949   1.712   2.815   3.260  0.2471  1.2093  0.6348
 4710TP3     H225950   1.581   2.890   3.268 -0.4214  0.2054 -0.6223
 4711TP3      O25951   4.711   2.164   2.412  0.1864  0.3407  0.2038
 4711TP3     H125952   4.732   2.255   2.394 -0.5883  0.3828 -0.5330
 4711TP3     H225953   4.616   2.159   2.401  0.3722 -0.8198 -1.0049
 4712TP3      O25954   1.938   2.457   2.800  0.2037 -0.1029  0.0987
 4712TP3     H125955   1.872   2.458   2.870 -0.1360  1.2866 -0.2346
 4712TP3     H225956   1.985   2.539   2.809  1.9051 -1.0776  0.3118
 4713TP3      O25957   1.292   2.595   2.185  0.1815 -0.6758  0.2140
 4713TP3     H125958   1.234   2.611   2.110 -2.7995 -2.0377  2.1586
 4713TP3     H225959   1.319   2.504   2.175  1.0334 -0.3990 -0.0298
 4714TP3      O25960   2.354   2.182   0.776 -0.1350  0.4196 -0.3749
 4714TP3     H125961   2.308   2.265   0.767  0.7255  0.9273 -0.1747
 4714TP3     H225962   2.447   2.206   0.772  0.1281 -0.4258  0.5794
 4715TP3      O25963   0.096   2.511   3.682 -0.5060  0.0152  0.1595
 4715TP3     H125964   0.016   2.556   3.708 -2.0773 -1.9645 -1.0878
 4715TP3     H225965   0.138   2.571   3.620 -0.8955  1.1595  0.9896
 4716TP3      O25966   1.730   1.882   1.040 -0.3880  0.1781 -0.2822
 4716TP3     H125967   1.755   1.927   1.121 -2.1449  3.2985 -1.3566
 4716TP3     H225968   1.806   1.892   0.982 -0.0841  0.1638  0.1132
 4717TP3      O25969   5.196   2.127   2.612 -0.7833 -0.3246  0.1803
 4717TP3     H125970   5.284   2.113   2.578 -0.6400 -0.3702  0.5680
 4717TP3     H225971   5.151   2.175   2.542 -1.2487 -2.5789 -1.0931
 4718TP3      O25972   4.998   2.106   0.534  0.3433 -0.2674 -0.7073
 4718TP3     H125973   5.092   2.122   0.534  0.7697 -2.6457 -0.1007
 4718TP3     H225974   4.968   2.138   0.619  0.5944  0.4632 -0.8867
 4719TP3      O25975   2.525   0.795   0.982  0.2353 -0.2047 -0.3174
 4719TP3     H125976   2.487   0.732   1.043  0.7913 -0.5300 -0.3084
 4719TP3     H225977   2.536   0.746   0.900 -0.9906  0.3668 -0.8426
 4720TP3      O25978   5.270   0.074   0.368 -0.0176 -0.1725 -0.7746
 4720TP3     H125979   5.239   0.161   0.393 -0.6887 -0.8943  0.9975
 4720TP3     H225980   5.366   0.081   0.369 -0.0695  0.6762 -1.1939
 4721TP3      O25981   1.401   1.205   1.800 -0.4378 -0.9804 -0.1307
 4721TP3     H125982   1.443   1.249   1.874 -0.5529  0.5203 -0.9357
 4721TP3     H225983   1.428   1.256   1.723 -1.0783 -1.9489 -1.0147
 4722TP3      O25984   1.332   0.743   1.268 -0.4439 -0.1918 -0.0473
 4722TP3     H125985   1.371   0.663   1.301  3.2675  2.1722  1.5728
 4722TP3     H225986   1.290   0.783   1.344 -1.4611 -0.1264 -0.6341
 4723TP3      O25987   5.270   3.182   0.019  0.1047 -0.3056 -0.2359
 4723TP3     H125988   5.199   3.228  -0.026 -0.1152  0.8414  1.2414
 4723TP3     H225989   5.336   3.167  -0.049 -1.2339 -0.7626 -1.4691
 4724TP3      O25990   2.162   2.652   2.435  0.5465 -0.0962 -0.4120
 4724TP3     H125991   2.243   2.604   2.449  1.2888  1.1612 -0.2538
 4724TP3     H225992   2.185   2.743   2.456 -0.8423  0.3024 -0.5846
 4725TP3      O25993   1.898   2.319   1.046  0.4126 -0.0072 -0.3097
 4725TP3     H125994   1.821   2.350   0.997  0.4467  0.5853  0.0074
 4725TP3     H225995   1.916   2.389   1.109  0.7034 -0.5216  0.1816
 4726TP3      O25996   0.485   3.682   1.842 -0.1585  0.0476  0.0701
 4726TP3     H125997   0.460   3.762   1.795 -1.1486  0.2324  0.9019
 4726TP3     H225998   0.575   3.699   1.869 -0.8199  1.4655  1.4435
 4727TP3      O25999   3.772   3.434   9.487  0.0831  0.1952 -0.1273
 4727TP3     H126000   3.843   3.373   9.469  0.5568  0.3166  1.2304
 4727TP3     H226001   3.817   3.517   9.508 -0.4560  0.3217  0.5454
 4728TP3      O26002   5.085   4.514   0.053 -0.4724 -0.3112  0.1697
 4728TP3     H126003   5.017   4.557   0.001  0.3551 -0.0596 -0.7063
 4728TP3     H226004   5.103   4.576   0.124 -1.6597 -0.6916  0.8217
 4729TP3      O26005   2.370   1.838   2.942  0.5719 -0.1333  0.0464
 4729TP3     H126006   2.384   1.757   2.894  0.0216 -0.1101 -0.1562
 4729TP3     H226007   2.437   1.838   3.010  1.5152 -0.0483 -0.8733
 4730TP3      O26008   4.315   2.815   3.421  0.1810 -0.3465  0.1826
 4730TP3     H126009   4.351   2.888   3.371 -1.4972  0.2837 -0.1615
 4730TP3     H226010   4.372   2.741   3.401  0.1949  0.1718 -1.7836
 4731TP3      O26011   3.606   3.902   2.468 -0.6118 -0.1286  0.0221
 4731TP3     H126012   3.583   3.931   2.380 -1.4312 -1.6678 -0.2738
 4731TP3     H226013   3.523   3.905   2.517 -0.3616 -0.2903  0.4616
 4732TP3      O26014   2.647   1.320   0.144  0.4855 -0.0960 -0.2699
 4732TP3     H126015   2.686   1.400   0.180 -2.3517  0.4053  1.9241
 4732TP3     H226016   2.593   1.351   0.071  1.1198 -0.2881 -0.8204
 4733TP3      O26017   2.993   0.699   8.330 -0.0217 -0.1377 -0.0161
 4733TP3     H126018   2.976   0.653   8.248  0.2431  1.2361 -0.8609
 4733TP3     H226019   2.963   0.788   8.314  1.4195  0.5246  0.8573
 4734TP3      O26020   3.623   2.475   0.332  0.0557  0.3543 -0.0994
 4734TP3     H126021   3.623   2.558   0.379  2.1560 -0.1840  0.8881
 4734TP3     H226022   3.659   2.412   0.395 -1.4324 -1.3058 -0.8550
 4735TP3      O26023   0.230   3.020   9.796 -0.3582 -0.0462  0.0193
 4735TP3     H126024   0.294   3.071   9.747 -1.0533 -0.5475 -1.4292
 4735TP3     H226025   0.154   3.015   9.739 -1.2222 -0.5804  1.1841
 4736TP3      O26026   2.247   5.068   1.975 -0.1603 -0.3563  0.4537
 4736TP3     H126027   2.195   5.000   1.932 -0.7078 -0.4417  1.2423
 4736TP3     H226028   2.242   5.046   2.068  0.5400  0.1582  0.6144
 4737TP3      O26029   4.959   2.103   2.286 -0.2130  0.4327  0.1445
 4737TP3     H126030   4.865   2.090   2.300 -0.2281  1.1874  0.7620
 4737TP3     H226031   4.969   2.109   2.191 -0.4469 -2.1715 -0.0897
 4738TP3      O26032   2.734   2.818   1.063  0.4440 -0.0326 -0.5917
 4738TP3     H126033   2.753   2.769   0.983  0.3837  0.6293 -1.0150
 4738TP3     H226034   2.820   2.841   1.098  0.4628  0.1663 -0.7686
 4739TP3      O26035   2.638   1.725   0.395 -0.1913  0.3782 -0.4251
 4739TP3     H126036   2.643   1.686   0.308 -1.1303 -1.9106  0.4785
 4739TP3     H226037   2.721   1.771   0.406  0.0631  0.4190 -2.4050
 4740TP3      O26038   1.408   1.774   7.521 -0.0028 -0.0393  0.2662
 4740TP3     H126039   1.373   1.793   7.435  1.3038  1.1410 -0.0192
 4740TP3     H226040   1.352   1.823   7.581  1.9429  3.0475 -0.2940
 4741TP3      O26041   1.120   0.559   3.284  0.1595 -0.1964 -0.0227
 4741TP3     H126042   1.216   0.561   3.281  0.1061  1.7943 -1.7882
 4741TP3     H226043   1.097   0.468   3.266  1.7137 -0.6173  0.0646
 4742TP3      O26044   1.461   2.783   9.557 -0.1403  0.0849 -0.2960
 4742TP3     H126045   1.389   2.826   9.510 -0.9326  0.4145  1.1786
 4742TP3     H226046   1.448   2.689   9.539 -0.4520  0.2109 -0.7267
 4743TP3      O26047   0.342   4.757   1.790  0.1909  0.3354 -0.3517
 4743TP3     H126048   0.431   4.740   1.759  0.6779  1.6581  0.2309
 4743TP3     H226049   0.352   4.831   1.850 -1.4369  1.0906 -0.9708
 4744TP3      O26050   0.321   1.550   9.693  0.4884 -0.0849 -0.1282
 4744TP3     H126051   0.237   1.531   9.736 -0.0035  0.5530 -0.7983
 4744TP3     H226052   0.345   1.637   9.727 -0.0025  0.5118 -1.2845
 4745TP3      O26053   3.717   0.457   2.285 -0.4630  0.1758 -0.3322
 4745TP3     H126054   3.748   0.544   2.262 -0.1661  0.0024 -0.5938
 4745TP3     H226055   3.783   0.422   2.345 -0.4057  0.0015 -0.4949
 4746TP3      O26056   4.512   1.504   2.666 -0.3481  0.3518  0.0307
 4746TP3     H126057   4.585   1.522   2.607 -0.9776 -0.3392 -0.9739
 4746TP3     H226058   4.536   1.423   2.711 -0.9063 -0.4165 -1.0136
 4747TP3      O26059   0.490   0.904   9.886  0.0422  0.2005 -0.2248
 4747TP3     H126060   0.551   0.833   9.904 -0.9627 -0.8062 -0.7251
 4747TP3     H226061   0.534   0.959   9.821  1.0276  0.3140  0.5375
 4748TP3      O26062   2.017   1.835   0.989 -0.0709  0.6142 -0.4386
 4748TP3     H126063   2.026   1.925   1.018  2.0163 -0.1437  1.3672
 4748TP3     H226064   2.083   1.786   1.038 -1.2766 -1.9441 -1.2261
 4749TP3      O26065   3.380   4.708   1.674  0.3107  1.1148  0.9066
 4749TP3     H126066   3.348   4.754   1.752 -0.5857 -0.1763  1.3229
 4749TP3     H226067   3.333   4.750   1.602 -0.4768  0.8926  1.2776
 4750TP3      O26068   5.207   0.948   1.053 -0.1706 -0.3281 -0.2466
 4750TP3     H126069   5.277   0.988   1.106 -0.2111 -0.4744 -0.0786
 4750TP3     H226070   5.139   0.926   1.117 -1.2517  1.6565 -0.6752
 4751TP3      O26071   0.140   1.995   3.610  0.2599 -0.2707  0.3686
 4751TP3     H126072   0.156   2.075   3.660  0.3002 -0.4616  0.6654
 4751TP3     H226073   0.212   1.936   3.635 -0.3804 -0.7909  0.9865
 4752TP3      O26074   4.249   2.634   2.397 -0.5409  0.0028 -0.2555
 4752TP3     H126075   4.292   2.647   2.312  1.4116 -1.7370  0.4240
 4752TP3     H226076   4.194   2.557   2.384 -2.4191  1.3636 -0.6932
 4753TP3      O26077   1.462   1.994   8.205 -0.0890  0.2329  0.5838
 4753TP3     H126078   1.505   1.997   8.291  1.2797  1.1478 -0.1258
 4753TP3     H226079   1.493   1.913   8.165 -1.5353 -0.7224  1.3522
 4754TP3      O26080   4.593   2.776   2.859  0.5437  0.6476 -0.1657
 4754TP3     H126081   4.599   2.716   2.933  1.4101 -0.2301 -0.9391
 4754TP3     H226082   4.682   2.808   2.846  0.8725 -1.0112 -2.2957
 4755TP3      O26083   0.989   3.489   1.098 -0.2727  0.6542 -0.6452
 4755TP3     H126084   0.966   3.398   1.117  1.3320  0.5848  1.1016
 4755TP3     H226085   1.031   3.486   1.012  3.0088 -0.8265  0.9227
 4756TP3      O26086   0.578   3.150   0.645  0.6166  0.1328  0.1480
 4756TP3     H126087   0.589   3.194   0.729  1.2394  0.8940 -0.3290
 4756TP3     H226088   0.487   3.168   0.620  0.5099  0.1268  0.5345
 4757TP3      O26089   0.675   0.526   8.993 -0.2860 -0.0951  0.0339
 4757TP3     H126090   0.651   0.550   9.083  0.6132 -0.6229  0.4197
 4757TP3     H226091   0.639   0.597   8.939 -0.1882  0.6098  0.8822
 4758TP3      O26092   0.764   0.985   1.981  0.4439  0.2577  0.3289
 4758TP3     H126093   0.838   0.933   2.011 -0.3417 -1.6083 -0.8490
 4758TP3     H226094   0.751   0.957   1.890 -2.2130 -0.0670  0.7669
 4759TP3      O26095   0.996   2.320   2.721  0.5393  0.5338  0.8892
 4759TP3     H126096   0.974   2.337   2.813  2.2905  0.2372  1.3696
 4759TP3     H226097   0.959   2.395   2.674 -2.1347 -0.3035  1.5533
 4760TP3      O26098   2.855   2.097   2.273  0.3122  0.1183 -0.4406
 4760TP3     H126099   2.834   2.190   2.272  1.3793  0.3679 -1.3262
 4760TP3     H226100   2.891   2.080   2.360  1.4171  0.8456 -0.7497
 4761TP3      O26101   4.974   4.392   0.834  0.1454  0.0473 -0.1096
 4761TP3     H126102   4.878   4.392   0.834  0.1354  1.0791  0.2996
 4761TP3     H226103   4.998   4.440   0.914  1.0011  0.1849 -0.4387
 4762TP3      O26104   4.080   2.643   9.756  0.0009 -0.2333  0.0495
 4762TP3     H126105   4.091   2.606   9.843 -0.7181  0.2694  0.3626
 4762TP3     H226106   4.013   2.711   9.767  0.5156  0.4163 -0.7169
 4763TP3      O26107   0.753   2.779   2.226  0.0657  1.0400 -0.1138
 4763TP3     H126108   0.766   2.874   2.228  0.7348  0.9470  0.3138
 4763TP3     H226109   0.777   2.754   2.137 -0.4924  1.3203 -0.3452
 4764TP3      O26110   2.080   4.187   1.143  0.2405 -0.1564  0.1472
 4764TP3     H126111   2.148   4.150   1.086 -0.2049  0.7881 -1.0162
 4764TP3     H226112   2.080   4.280   1.121 -0.8043 -0.0038  0.7987
 4765TP3      O26113   0.087   0.602   8.844  0.1962  0.2208 -0.2980
 4765TP3     H126114   0.071   0.665   8.914 -0.3992 -2.0886  1.7025
 4765TP3     H226115   0.182   0.602   8.833  0.3216  0.3381  0.7647
 4766TP3      O26116   2.669   2.072   3.599  0.5272 -0.2659  0.4360
 4766TP3     H126117   2.765   2.068   3.608  0.4207 -0.8932  1.4544
 4766TP3     H226118   2.647   1.999   3.542  0.8370  1.1650 -1.5561
 4767TP3      O26119   0.997   3.761   2.897  0.3978 -0.1051 -0.2221
 4767TP3     H126120   0.997   3.693   2.829  1.1506 -0.0389 -0.2965
 4767TP3     H226121   0.985   3.713   2.979  1.6506 -0.4155 -0.2060
 4768TP3      O26122   0.490   5.233   2.394 -0.3342 -0.5769  0.0283
 4768TP3     H126123   0.510   5.310   2.447  1.7265 -1.3880  0.4688
 4768TP3     H226124   0.542   5.244   2.314 -1.3804 -0.6703 -0.6901
 4769TP3      O26125   2.309   3.817   2.426 -0.0431 -0.3307  0.4583
 4769TP3     H126126   2.386   3.763   2.407 -0.4515 -1.1917  1.1660
 4769TP3     H226127   2.332   3.865   2.505 -0.7734 -1.7316  1.5490
 4770TP3      O26128   2.575   5.176   8.695 -0.9553 -0.3062 -0.1504
 4770TP3     H126129   2.620   5.092   8.707  0.7851  0.6010 -0.1055
 4770TP3     H226130   2.490   5.164   8.735 -0.1201 -1.5598  1.2810
 4771TP3      O26131   1.374   3.166   2.044  0.6168 -0.4031  0.0654
 4771TP3     H126132   1.288   3.192   2.077 -0.4537 -2.0177 -1.3429
 4771TP3     H226133   1.405   3.099   2.105 -0.5636 -2.0939 -1.1404
 4772TP3      O26134   3.757   1.452   8.849 -0.2868  0.2014 -0.0282
 4772TP3     H126135   3.753   1.412   8.935  0.8089  1.4415  0.6117
 4772TP3     H226136   3.851   1.455   8.828 -0.5172  0.2158 -1.1182
 4773TP3      O26137   1.472   0.617   8.867  0.4917  0.5112 -0.6636
 4773TP3     H126138   1.509   0.560   8.935  0.2305  1.1093 -0.0094
 4773TP3     H226139   1.410   0.562   8.820 -0.0572  0.3704  0.2238
 4774TP3      O26140   0.591   3.793   9.013 -0.2995  0.0416  0.6404
 4774TP3     H126141   0.679   3.828   9.024 -0.2377 -0.0219  0.3580
 4774TP3     H226142   0.575   3.797   8.919 -0.5534 -0.0558  0.6786
 4775TP3      O26143   1.973   4.012   1.703 -0.2001  0.3279  0.2903
 4775TP3     H126144   1.977   3.923   1.736  1.1609 -0.2835 -1.4518
 4775TP3     H226145   1.922   4.007   1.623 -2.5922  1.6276  1.6797
 4776TP3      O26146   0.002   3.673   9.576 -0.2975  0.3467 -0.2655
 4776TP3     H126147   0.022   3.746   9.634  0.2292  0.9935 -1.2457
 4776TP3     H226148   0.008   3.710   9.488  0.5826 -1.0090 -0.7981
 4777TP3      O26149   5.084   0.805   2.057 -0.2020  0.0813 -0.4932
 4777TP3     H126150   5.144   0.733   2.038 -0.9682 -0.5859 -0.4384
 4777TP3     H226151   5.070   0.847   1.973 -1.6715 -1.3601 -0.9942
 4778TP3      O26152   3.639   0.444   0.636  0.0379 -0.0353 -0.1217
 4778TP3     H126153   3.625   0.508   0.566 -1.5808 -1.0982 -0.8046
 4778TP3     H226154   3.719   0.398   0.610  1.8050  2.3838  0.9141
 4779TP3      O26155   1.811   4.553   0.868 -0.7256 -0.6048 -0.0586
 4779TP3     H126156   1.876   4.527   0.803 -0.3723  1.1310 -0.4195
 4779TP3     H226157   1.751   4.479   0.874 -1.0983 -0.5552 -2.7916
 4780TP3      O26158   2.048   3.505   0.188  0.7661 -0.3179 -0.1947
 4780TP3     H126159   1.966   3.545   0.160  0.9766 -0.6314 -1.3246
 4780TP3     H226160   2.101   3.578   0.219  0.6876  0.1162 -1.0575
 4781TP3      O26161   0.577   2.735  10.056  0.3714 -0.2293 -0.4582
 4781TP3     H126162   0.609   2.644  10.061  0.5187 -0.1466  0.2349
 4781TP3     H226163   0.656   2.787  10.042  0.3152 -0.1871 -0.6152
 4782TP3      O26164   3.539   2.609  10.045 -0.1080 -0.2275  0.5239
 4782TP3     H126165   3.535   2.610  10.141  1.0032 -2.2151  0.6137
 4782TP3     H226166   3.484   2.535  10.019  2.5687 -2.0441 -0.1585
 4783TP3      O26167   0.786   4.127   2.307  0.1652  0.2891  0.4151
 4783TP3     H126168   0.711   4.093   2.355 -0.8229  2.1258  0.1775
 4783TP3     H226169   0.808   4.209   2.350  0.1472  1.2620 -1.3836
 4784TP3      O26170   0.417   4.711   1.499 -0.0887 -0.3311 -0.5640
 4784TP3     H126171   0.457   4.638   1.546  1.9428  0.7666 -0.4989
 4784TP3     H226172   0.324   4.708   1.522  0.5254 -0.9897  1.9629
 4785TP3      O26173   1.388   3.678   1.824 -0.2933 -0.3192 -0.0224
 4785TP3     H126174   1.480   3.704   1.824 -0.0382 -1.1417 -2.4987
 4785TP3     H226175   1.390   3.582   1.826 -1.1354 -0.3337  0.7571
 4786TP3      O26176   4.159   3.728   2.406  0.1437 -0.8660  0.1669
 4786TP3     H126177   4.106   3.676   2.466 -0.6770  0.3886  0.5551
 4786TP3     H226178   4.095   3.774   2.352  0.8432  0.1048  0.1520
 4787TP3      O26179   5.189   1.750   2.416 -0.0336 -0.3389 -0.6611
 4787TP3     H126180   5.283   1.747   2.400  0.0713  0.1024 -0.1200
 4787TP3     H226181   5.180   1.753   2.511 -0.5659  0.3139 -0.7211
 4788TP3      O26182   0.813   0.142   0.552  0.6550  0.2890 -0.0623
 4788TP3     H126183   0.879   0.210   0.542  0.5975  0.2323 -0.8144
 4788TP3     H226184   0.758   0.173   0.625  0.7468  0.9463 -0.2703
 4789TP3      O26185   3.623   4.421   0.769  0.1665 -0.3234 -0.1847
 4789TP3     H126186   3.707   4.433   0.725  0.8478 -1.7064  0.7144
 4789TP3     H226187   3.598   4.510   0.796  1.2568  0.1275 -0.6076
 4790TP3      O26188   4.926   3.880   1.660  0.0627  0.2512 -0.2535
 4790TP3     H126189   4.880   3.918   1.585 -0.8932 -0.4917 -0.0518
 4790TP3     H226190   4.895   3.930   1.735  0.7202  0.7311 -0.2977
 4791TP3      O26191   1.923   3.586   1.365  0.5965  0.3562 -0.0171
 4791TP3     H126192   1.899   3.494   1.369  1.6803  0.0536 -0.5405
 4791TP3     H226193   1.917   3.608   1.272 -0.5130  1.0532  0.2007
 4792TP3      O26194   2.326   4.566   0.196 -0.2481  0.1008  0.1643
 4792TP3     H126195   2.311   4.656   0.165 -2.0942 -0.3536 -0.3621
 4792TP3     H226196   2.395   4.532   0.139  0.1529  1.0311  0.0802
 4793TP3      O26197   4.651   3.941   0.958 -0.0026  0.8447  0.1911
 4793TP3     H126198   4.599   3.914   0.882  1.2918  1.8531 -1.0533
 4793TP3     H226199   4.715   4.002   0.924  2.7280 -1.1757  1.5260
 4794TP3      O26200   5.231   1.451   0.580  0.3574 -0.2862 -0.6166
 4794TP3     H126201   5.299   1.398   0.539 -0.2724  0.2117 -2.3406
 4794TP3     H226202   5.154   1.395   0.582  0.1325  0.0055 -0.9725
 4795TP3      O26203   1.400   4.769   1.160  0.1910  0.5492  0.1258
 4795TP3     H126204   1.349   4.841   1.123 -2.0850 -1.3645 -0.5645
 4795TP3     H226205   1.470   4.755   1.097  0.9956  2.4907  0.5454
 4796TP3      O26206   2.657   4.372   3.012  0.7803 -0.2185 -0.2261
 4796TP3     H126207   2.702   4.423   2.944  1.6431  1.0798  1.2642
 4796TP3     H226208   2.674   4.281   2.989  0.5420  0.1838 -2.0832
 4797TP3      O26209   3.437   1.698   1.690 -0.2409  0.5933  0.4008
 4797TP3     H126210   3.353   1.700   1.736 -1.3559  0.7673 -1.6153
 4797TP3     H226211   3.426   1.760   1.618  0.8040 -1.1797 -1.2968
 4798TP3      O26212   0.328   3.220   0.647  0.5512  0.5149  0.0110
 4798TP3     H126213   0.283   3.275   0.711 -2.7417 -2.5113  0.4657
 4798TP3     H226214   0.293   3.247   0.563  0.6971  0.7065  0.0113
 4799TP3      O26215   3.305   1.344   3.128  0.1508  0.1301 -0.3568
 4799TP3     H126216   3.312   1.415   3.192  1.1512  0.2021 -0.5367
 4799TP3     H226217   3.391   1.301   3.130 -0.1421 -0.4902 -0.9225
 4800TP3      O26218   1.030   4.311   1.070 -0.4409 -0.2506 -0.3641
 4800TP3     H126219   0.993   4.268   1.146 -0.0874  0.1190  0.0189
 4800TP3     H226220   0.956   4.355   1.028 -0.6416 -0.4930 -0.2607
 4801TP3      O26221   0.461   2.225   2.141  0.0702 -1.0366 -0.1151
 4801TP3     H126222   0.407   2.290   2.095  1.1598 -0.4492 -0.5638
 4801TP3     H226223   0.548   2.264   2.147  0.8243 -2.5775 -0.6540
 4802TP3      O26224   1.545   2.663   2.542  0.2536 -0.6926 -0.3028
 4802TP3     H126225   1.471   2.610   2.571  0.5473  0.1146  1.9962
 4802TP3     H226226   1.618   2.601   2.538 -0.1273 -1.1156 -0.8214
 4803TP3      O26227   0.622   1.774   1.521 -0.2095  0.2050  0.3294
 4803TP3     H126228   0.673   1.783   1.602  1.0432  2.2763 -0.6446
 4803TP3     H226229   0.592   1.862   1.501 -0.3854 -0.2518 -1.5541
 4804TP3      O26230   2.884   2.098   1.821 -0.1678 -0.5667  0.4321
 4804TP3     H126231   2.799   2.066   1.792 -0.1544  1.0476 -1.4940
 4804TP3     H226232   2.934   2.110   1.740  1.2233  0.3783  1.4027
 4805TP3      O26233   4.195   2.839   7.939 -0.3625  0.3043 -0.2103
 4805TP3     H126234   4.176   2.932   7.931 -1.4110  0.0989 -0.2157
 4805TP3     H226235   4.159   2.814   8.024 -2.9181 -0.7366 -1.5120
 4806TP3      O26236   4.583   3.506   1.304  0.1028 -0.1199 -0.1167
 4806TP3     H126237   4.574   3.475   1.394  0.1349 -0.4661 -0.2306
 4806TP3     H226238   4.657   3.566   1.306  0.5511 -0.6665 -0.0512
 4807TP3      O26239   3.999   0.950   0.999  0.4199  0.7013 -0.0579
 4807TP3     H126240   4.073   0.893   0.977 -0.5253 -0.0698 -1.3133
 4807TP3     H226241   3.930   0.924   0.938 -1.2643  0.6634  1.8391
 4808TP3      O26242   5.090   2.585   2.360  0.3765 -0.4655 -0.6586
 4808TP3     H126243   5.062   2.580   2.268 -0.4213  2.0633 -0.5925
 4808TP3     H226244   5.184   2.597   2.355  0.3674 -0.5493 -1.1338
 4809TP3      O26245   1.652   3.275   2.226 -0.7504 -0.3998 -0.0908
 4809TP3     H126246   1.716   3.335   2.264 -1.2795  0.6993 -0.8891
 4809TP3     H226247   1.660   3.289   2.131 -2.5848  0.2089 -0.1841
 4810TP3      O26248   2.043   1.610   9.210  0.1535  0.1328  0.0579
 4810TP3     H126249   1.990   1.592   9.133  0.4594  1.0995 -0.3854
 4810TP3     H226250   2.127   1.640   9.174  1.0687 -1.5477  0.7416
 4811TP3      O26251   3.630   0.673   8.850 -0.2678 -0.1947 -0.5361
 4811TP3     H126252   3.617   0.689   8.943 -0.4757 -0.0811 -0.5846
 4811TP3     H226253   3.542   0.659   8.815 -0.0446 -2.2654 -0.3379
 4812TP3      O26254   2.670   3.262   2.769  0.2009  0.1196  0.4507
 4812TP3     H126255   2.642   3.263   2.677 -0.1804  2.9809  0.5468
 4812TP3     H226256   2.739   3.329   2.774  1.3377 -1.1065  1.9470
 4813TP3      O26257   0.534   1.700   2.620 -0.6650 -0.9226  0.1135
 4813TP3     H126258   0.547   1.698   2.715 -0.2122 -1.1745  0.0470
 4813TP3     H226259   0.440   1.716   2.610 -0.6024 -0.2049  0.5961
 4814TP3      O26260   1.606   4.667   0.548 -0.7003  0.1362  0.0456
 4814TP3     H126261   1.586   4.574   0.558 -1.8692  0.4328  0.5662
 4814TP3     H226262   1.522   4.711   0.558  0.2923  1.4962  3.3133
 4815TP3      O26263   2.676   2.952   0.359 -0.1962 -0.1800 -0.2150
 4815TP3     H126264   2.742   3.007   0.400  1.0667 -2.0473  0.3125
 4815TP3     H226265   2.713   2.930   0.274 -1.4806  1.2043 -1.1576
 4816TP3      O26266   2.533   4.853   2.094  0.2542  0.4373 -0.2906
 4816TP3     H126267   2.487   4.923   2.140 -1.2106 -0.2544 -0.6863
 4816TP3     H226268   2.562   4.793   2.162 -2.1519 -0.7311 -0.2499
 4817TP3      O26269   2.004   1.640   7.856  0.5205  0.6627 -0.5143
 4817TP3     H126270   2.032   1.727   7.829 -0.6155  1.7365  1.6371
 4817TP3     H226271   1.937   1.615   7.793  1.1736  1.1434 -1.4019
 4818TP3      O26272   1.775   0.652   1.394 -0.1270  0.2814 -0.7237
 4818TP3     H126273   1.792   0.728   1.337  0.5968  1.0962  0.5490
 4818TP3     H226274   1.681   0.636   1.384  0.0850  0.0522 -2.5692
 4819TP3      O26275   3.645   1.682   1.411  0.0133  0.2985  0.3523
 4819TP3     H126276   3.567   1.736   1.426 -1.3354 -1.1573 -1.2403
 4819TP3     H226277   3.681   1.667   1.498 -1.1795  1.4320  1.0616
 4820TP3      O26278   2.061   2.724   3.511  0.5401  0.3662  0.1934
 4820TP3     H126279   2.086   2.638   3.543  0.4982 -0.0010 -0.7648
 4820TP3     H226280   1.967   2.730   3.527  0.6843  0.5596  1.0030
 4821TP3      O26281   1.398   4.265   1.426  0.2049  0.9401  0.3050
 4821TP3     H126282   1.472   4.233   1.374 -2.3177 -2.3750 -1.4543
 4821TP3     H226283   1.354   4.328   1.369 -0.4224  0.1236 -0.1193
 4822TP3      O26284   1.786   4.892   0.532 -0.6616  0.6392 -0.0348
 4822TP3     H126285   1.752   4.972   0.572 -1.1835 -0.7597  2.4431
 4822TP3     H226286   1.720   4.826   0.553  1.1572 -1.0531  0.5034
 4823TP3      O26287   3.267   2.896   1.615  0.8996  0.2812  0.0109
 4823TP3     H126288   3.307   2.843   1.684 -1.0907 -0.6695  0.4709
 4823TP3     H226289   3.211   2.958   1.662  0.7949  0.7250 -0.6896
 4824TP3      O26290   4.164   2.424   0.629  0.5834 -0.4605  0.5095
 4824TP3     H126291   4.218   2.495   0.595 -0.3181  0.8367  1.7103
 4824TP3     H226292   4.164   2.437   0.724 -1.4892 -0.6589  0.5610
 4825TP3      O26293   0.397   0.290   0.912 -0.1366  0.5366  0.7101
 4825TP3     H126294   0.318   0.269   0.862  0.2200 -0.5951  0.6131
 4825TP3     H226295   0.367   0.352   0.979 -1.0417  0.3449  0.4882
 4826TP3      O26296   2.944   4.699   8.404 -0.2363  0.6365  0.1079
 4826TP3     H126297   3.016   4.643   8.377  0.2940  0.6850  1.3817
 4826TP3     H226298   2.887   4.705   8.327  0.6373 -0.1581 -0.6004
 4827TP3      O26299   4.183   0.709   8.105  0.3426  0.0877  0.2212
 4827TP3     H126300   4.172   0.624   8.063  4.6886 -0.2250 -0.4724
 4827TP3     H226301   4.159   0.694   8.197  2.7463 -2.3865  0.4985
 4828TP3      O26302   3.301   3.073   9.708 -0.6364 -0.7246 -0.0701
 4828TP3     H126303   3.291   2.978   9.702  0.9144 -1.0352  1.6918
 4828TP3     H226304   3.374   3.085   9.768  0.8725  1.5750 -2.3134
 4829TP3      O26305   1.821   3.114   1.442  0.0029  0.2290  0.0970
 4829TP3     H126306   1.806   3.038   1.385 -0.2269  0.9268 -0.7838
 4829TP3     H226307   1.773   3.094   1.522 -0.8911 -0.0946 -0.5192
 4830TP3      O26308   2.685   1.963   1.708 -0.2286 -0.1546  0.0247
 4830TP3     H126309   2.625   2.024   1.666 -2.3634 -1.0225  1.7088
 4830TP3     H226310   2.659   1.877   1.675 -0.4368 -0.6192  1.3585
 4831TP3      O26311   3.179   4.956   0.785  0.3876 -0.1954  0.3585
 4831TP3     H126312   3.103   4.900   0.766 -0.5733  0.7674  1.3070
 4831TP3     H226313   3.142   5.034   0.825  1.7577  1.0152 -0.6932
 4832TP3      O26314   1.971   4.348   2.150  0.9508 -0.2687 -0.4571
 4832TP3     H126315   1.940   4.283   2.212  0.5559 -0.5124 -0.9099
 4832TP3     H226316   2.065   4.355   2.167  0.8204 -0.2213  0.2680
 4833TP3      O26317   2.944   1.832   3.423 -0.6552  0.2769  0.6542
 4833TP3     H126318   2.958   1.737   3.423  1.0333  0.5102  0.1158
 4833TP3     H226319   2.879   1.846   3.354  0.2505 -0.3412 -0.3382
 4834TP3      O26320   3.614   2.841   9.448  0.4676  0.1458 -0.6611
 4834TP3     H126321   3.601   2.934   9.470 -2.5567 -0.0746 -1.2030
 4834TP3     H226322   3.561   2.828   9.369  1.6338 -1.8288 -1.1489
 4835TP3      O26323   5.088   1.363   2.897  0.0975  0.5298 -0.1653
 4835TP3     H126324   5.062   1.302   2.827 -0.9679  1.7371 -0.8481
 4835TP3     H226325   5.048   1.327   2.976  2.0554 -1.3407  0.0076
 4836TP3      O26326   0.686   4.835   1.819 -0.0792  0.0077  0.3481
 4836TP3     H126327   0.763   4.872   1.862  0.6581 -0.9890 -0.0877
 4836TP3     H226328   0.721   4.763   1.767 -1.0262  0.8791 -1.5299
 4837TP3      O26329   2.885   4.331   0.685 -0.0824 -0.8911 -0.5103
 4837TP3     H126330   2.935   4.266   0.636 -0.5326 -1.1757 -0.5957
 4837TP3     H226331   2.948   4.401   0.704  0.4899 -1.5153 -0.1046
 4838TP3      O26332   2.013   3.535   2.475 -0.8700  0.1049  0.0573
 4838TP3     H126333   2.079   3.553   2.542 -1.9305  0.1706  1.0877
 4838TP3     H226334   2.039   3.590   2.401  1.2505 -1.1929 -0.2201
 4839TP3      O26335   2.671   4.428   1.625  0.5084 -0.1158 -0.0662
 4839TP3     H126336   2.602   4.408   1.689 -0.4471  1.4102 -0.5724
 4839TP3     H226337   2.713   4.345   1.608 -1.2731 -1.1065  0.2043
 4840TP3      O26338   4.277   0.599   9.707  0.0012 -0.5506 -0.1280
 4840TP3     H126339   4.197   0.594   9.758  0.4724 -3.0802  0.4029
 4840TP3     H226340   4.253   0.652   9.631 -2.0596 -0.9369  0.2238
 4841TP3      O26341   4.555   2.229  10.052  0.2094  0.0288 -0.3789
 4841TP3     H126342   4.646   2.221  10.083 -0.5135 -2.4041  1.2347
 4841TP3     H226343   4.514   2.290  10.113  0.0120 -1.1396  0.6734
 4842TP3      O26344   2.514   2.396   1.864  0.2425  0.2247 -0.5802
 4842TP3     H126345   2.520   2.331   1.793 -2.0570  0.2315 -0.8360
 4842TP3     H226346   2.533   2.346   1.943  0.5288 -0.3020 -0.9767
 4843TP3      O26347   0.986   3.880   1.303 -0.3819 -0.1753  0.4230
 4843TP3     H126348   1.080   3.895   1.317 -0.6618  0.1157  2.0218
 4843TP3     H226349   0.981   3.844   1.214  1.2614 -0.3851  0.4016
 4844TP3      O26350   2.700   4.524   7.742  0.3256  0.4704  0.1098
 4844TP3     H126351   2.629   4.541   7.681 -0.1785 -0.1786  0.5183
 4844TP3     H226352   2.673   4.446   7.791  1.4436  0.0415  0.0637
 4845TP3      O26353   3.251   1.077   9.271  0.5616  0.2212  0.3093
 4845TP3     H126354   3.257   1.138   9.345 -1.3124  1.9170 -0.8930
 4845TP3     H226355   3.263   1.132   9.193  3.8852 -1.7523 -0.6482
 4846TP3      O26356   0.164   3.903   2.517  0.1566 -0.1577  0.3946
 4846TP3     H126357   0.199   3.945   2.439 -0.7021 -0.5627 -0.2121
 4846TP3     H226358   0.174   3.968   2.586 -0.0616  0.5944 -0.2775
 4847TP3      O26359   3.928   2.013   2.685 -0.0414  0.4001 -0.4141
 4847TP3     H126360   4.023   2.016   2.675  0.0219  1.7456  0.4686
 4847TP3     H226361   3.914   1.985   2.775 -0.4788  0.0796 -0.5817
 4848TP3      O26362   3.464   3.081   9.420  0.0226 -0.2458  0.4147
 4848TP3     H126363   3.491   3.173   9.414  0.1440 -0.3236 -0.2318
 4848TP3     H226364   3.429   3.073   9.509 -0.7945  0.6416  0.1786
 4849TP3      O26365   5.059   1.817   0.878 -0.3578 -0.5342  0.0285
 4849TP3     H126366   4.998   1.747   0.902  0.0018  0.0857  2.9283
 4849TP3     H226367   5.131   1.772   0.833 -0.7819 -1.8507  0.6471
 4850TP3      O26368   2.275   4.577   1.372 -0.1592  0.1406 -0.6296
 4850TP3     H126369   2.216   4.599   1.300 -0.6338 -0.8576 -0.5581
 4850TP3     H226370   2.324   4.501   1.340 -1.8221 -1.6169  0.8428
 4851TP3      O26371   0.313   2.504   3.293 -0.3856  0.1180  0.5282
 4851TP3     H126372   0.353   2.424   3.259  0.9821  0.6252  0.9403
 4851TP3     H226373   0.377   2.539   3.356 -0.9131  1.5933  0.2665
 4852TP3      O26374   0.112   1.250   0.456 -0.4147 -0.3732 -0.4013
 4852TP3     H126375   0.150   1.233   0.541 -0.0851  1.3115 -0.1904
 4852TP3     H226376   0.182   1.291   0.405 -0.7222 -0.9923 -1.3544
 4853TP3      O26377   4.897   0.459   2.175 -0.3161 -0.2103 -0.2258
 4853TP3     H126378   4.822   0.494   2.126 -0.7399 -1.3321 -0.4017
 4853TP3     H226379   4.913   0.373   2.135  0.1142 -0.6122  0.8047
 4854TP3      O26380   3.170   1.665   8.923  0.5651  0.4854  0.4126
 4854TP3     H126381   3.113   1.677   8.999  0.1708 -0.1777  0.2268
 4854TP3     H226382   3.143   1.733   8.862 -0.5184 -0.2592  0.0380
 4855TP3      O26383   1.257   2.633   1.039 -0.1080  0.0106 -0.4009
 4855TP3     H126384   1.262   2.666   0.949  0.3268 -0.7674 -0.6589
 4855TP3     H226385   1.221   2.545   1.030 -1.2962  0.4144  0.3008
 4856TP3      O26386   4.126   4.678   0.346 -0.1004 -0.1206  0.2241
 4856TP3     H126387   4.099   4.632   0.426 -0.3577  1.8609  1.3127
 4856TP3     H226388   4.221   4.682   0.351 -0.2060  1.4946  1.3163
 4857TP3      O26389   0.855   0.425   1.375 -0.2928  0.3918 -0.1614
 4857TP3     H126390   0.818   0.495   1.429  0.5784  0.7600 -0.0290
 4857TP3     H226391   0.906   0.372   1.436  0.5205  0.6866 -0.5669
 4858TP3      O26392   0.139   1.746   2.378 -0.2314  0.1443  0.0329
 4858TP3     H126393   0.177   1.831   2.357 -0.0464  0.1524  0.4100
 4858TP3     H226394   0.163   1.691   2.303 -1.5287  0.7835 -0.8862
 4859TP3      O26395   5.168   4.767   0.873  0.4914  0.0650  0.3379
 4859TP3     H126396   5.157   4.684   0.919 -1.6612 -0.1144 -0.4588
 4859TP3     H226397   5.092   4.773   0.816  1.2285  2.0424 -0.4717
 4860TP3      O26398   1.376   3.248   2.922 -0.0476 -0.4283 -0.0436
 4860TP3     H126399   1.330   3.332   2.921  0.9690  0.1503 -2.2309
 4860TP3     H226400   1.445   3.260   2.987 -0.9610 -0.1823  0.8974
 4861TP3      O26401   1.168   3.161   9.952  0.0440  0.0363 -0.3698
 4861TP3     H126402   1.219   3.239   9.930 -0.0694  0.1642 -0.1833
 4861TP3     H226403   1.106   3.191  10.019  1.3095 -0.6526  1.1443
 4862TP3      O26404   4.991   2.150   1.743  0.0612  0.1499 -0.3823
 4862TP3     H126405   4.986   2.058   1.768  0.6062 -0.0383 -0.9412
 4862TP3     H226406   4.901   2.175   1.724 -0.0635 -0.3356 -0.4467
 4863TP3      O26407   2.204   3.668   2.789  0.0409  0.4305 -0.2498
 4863TP3     H126408   2.267   3.699   2.723 -0.0526  0.1956 -0.4500
 4863TP3     H226409   2.191   3.743   2.847 -1.7916  1.4521 -1.9417
 4864TP3      O26410   0.332   0.860   1.797 -0.0474 -0.2102 -0.5386
 4864TP3     H126411   0.308   0.878   1.888  1.1780  1.9658 -0.6094
 4864TP3     H226412   0.253   0.825   1.758 -1.0905  0.4134  0.9476
 4865TP3      O26413   1.948   2.480   3.154 -0.2064  0.5520 -0.1842
 4865TP3     H126414   2.017   2.469   3.088  1.5600  0.1937  1.6592
 4865TP3     H226415   1.873   2.433   3.119  1.6232 -2.1261 -0.6570
 4866TP3      O26416   1.878   2.196   8.200  0.0957  0.7887 -0.0724
 4866TP3     H126417   1.957   2.184   8.148  0.1226  0.4984  0.0363
 4866TP3     H226418   1.839   2.277   8.166 -0.1791  0.3102 -0.9173
 4867TP3      O26419   4.373   3.381   1.568  0.1878 -0.5977  0.1074
 4867TP3     H126420   4.436   3.315   1.597 -1.2448 -1.9714  0.1719
 4867TP3     H226421   4.327   3.406   1.648 -0.9709 -1.3697 -0.3073
 4868TP3      O26422   0.867   2.122   9.914  0.1084 -0.3304 -0.0025
 4868TP3     H126423   0.907   2.045   9.871  0.5187  0.5071 -1.1527
 4868TP3     H226424   0.917   2.133   9.994  1.2869 -0.1521 -0.7419
 4869TP3      O26425   2.896   3.257   0.049  0.4735 -0.3797  0.2383
 4869TP3     H126426   2.857   3.192  -0.011  0.0426  0.3049 -0.2313
 4869TP3     H226427   2.843   3.336   0.036  1.5431  0.3303  0.1737
 4870TP3      O26428   0.256   0.372   9.856 -0.2522  0.3350 -0.1829
 4870TP3     H126429   0.206   0.450   9.881 -0.4748  0.1476 -0.0390
 4870TP3     H226430   0.196   0.323   9.799 -0.0502  0.3568 -0.4114
 4871TP3      O26431   2.481   2.239   3.706 -0.1173  0.2462 -0.2424
 4871TP3     H126432   2.549   2.187   3.664  0.2991  2.6511 -2.6281
 4871TP3     H226433   2.422   2.174   3.745  1.3605 -1.9408 -1.5672
 4872TP3      O26434   3.568   3.126   8.908  0.1024  0.0696 -0.1110
 4872TP3     H126435   3.657   3.121   8.874  0.5837  1.1263  1.0109
 4872TP3     H226436   3.525   3.048   8.872  1.5969 -0.6895 -0.2782
 4873TP3      O26437   4.141   5.304   1.751  0.4445 -0.2156 -0.5087
 4873TP3     H126438   4.141   5.398   1.733 -0.4752 -0.1550 -0.2233
 4873TP3     H226439   4.060   5.290   1.801  0.1764 -1.2968 -1.2521
 4874TP3      O26440   3.556   0.375   1.065  0.1329  0.0397 -0.4686
 4874TP3     H126441   3.509   0.447   1.107  0.4330  0.7845 -1.4028
 4874TP3     H226442   3.627   0.417   1.017  1.5927 -1.0370  0.6774
 4875TP3      O26443   2.221   1.402   1.888  0.0019  0.2366  0.3749
 4875TP3     H126444   2.289   1.429   1.826  1.1416  0.9778  1.9253
 4875TP3     H226445   2.267   1.392   1.972 -1.5611 -0.5298  1.1647
 4876TP3      O26446   3.538   1.624   3.489  0.3106 -0.2288 -0.1955
 4876TP3     H126447   3.590   1.621   3.408  0.0868  0.3148 -0.3590
 4876TP3     H226448   3.508   1.534   3.502  3.4268 -1.1348  1.2797
 4877TP3      O26449   2.314   4.083   0.728 -0.7318  0.2526 -0.4539
 4877TP3     H126450   2.393   4.082   0.781 -1.1629  2.8533  0.3254
 4877TP3     H226451   2.340   4.046   0.644  0.6173 -1.4396  0.6933
 4878TP3      O26452   5.037   1.873   1.770  0.1575 -0.2532  0.3956
 4878TP3     H126453   5.114   1.849   1.821  1.3477 -1.6821 -1.9782
 4878TP3     H226454   4.966   1.822   1.808 -0.0782  2.3274  3.6991
 4879TP3      O26455   1.480   3.170   2.398 -0.0851  0.0954  0.1051
 4879TP3     H126456   1.523   3.120   2.467 -0.1632  2.2471  1.7589
 4879TP3     H226457   1.548   3.185   2.333  0.1793 -1.3250  0.0366
 4880TP3      O26458   1.823   2.122   2.400  0.3640 -0.3090  1.0011
 4880TP3     H126459   1.838   2.199   2.345 -2.0621 -0.6464 -0.1704
 4880TP3     H226460   1.838   2.047   2.343  0.1580 -0.6857  1.4299
 4881TP3      O26461   4.616   4.282   1.095  0.3666  0.3000 -0.3700
 4881TP3     H126462   4.645   4.279   1.186 -1.2845  0.3405  0.1666
 4881TP3     H226463   4.682   4.231   1.047  1.7906  1.1294  0.6757
 4882TP3      O26464   2.810   0.899   1.382  0.4868  0.9752  0.2397
 4882TP3     H126465   2.751   0.957   1.334  1.7603  1.4021 -0.8324
 4882TP3     H226466   2.855   0.957   1.444 -0.7951  0.5096  1.6268
 4883TP3      O26467   4.082   0.418   1.182  0.1093 -0.0597 -0.5948
 4883TP3     H126468   4.030   0.348   1.222  0.6764 -1.4733 -2.2713
 4883TP3     H226469   4.020   0.489   1.166 -0.6754 -0.5708  0.1599
 4884TP3      O26470   3.160   1.850   2.315  0.1935  0.0237 -0.1822
 4884TP3     H126471   3.190   1.939   2.295  0.7746 -0.5722 -2.0730
 4884TP3     H226472   3.238   1.796   2.309  0.0561 -0.4645  2.1295
 4885TP3      O26473   4.688   0.920   0.922 -0.1153 -0.0677  0.1281
 4885TP3     H126474   4.641   0.939   1.003  1.3009  0.6364  0.8018
 4885TP3     H226475   4.625   0.872   0.868 -2.7214  3.7119 -0.3639
 4886TP3      O26476   4.351   2.265   2.069 -0.1321  0.1482 -0.1905
 4886TP3     H126477   4.279   2.309   2.115  0.6783  0.6989  0.5679
 4886TP3     H226478   4.416   2.334   2.054  0.7071 -0.5677  0.0947
 4887TP3      O26479   1.845   2.919   0.874  0.0386  0.3148 -0.0452
 4887TP3     H126480   1.855   2.966   0.791  0.2567 -0.0629 -0.2287
 4887TP3     H226481   1.933   2.917   0.911  0.4953 -2.0438 -1.1542
 4888TP3      O26482   2.845   4.586   2.857 -0.8231  0.1660 -0.0520
 4888TP3     H126483   2.933   4.562   2.887 -0.6456  0.0166 -0.6955
 4888TP3     H226484   2.825   4.667   2.905  0.1958  0.9231 -0.8988
 4889TP3      O26485   4.664   1.567   1.247 -0.0159  0.0571 -0.0135
 4889TP3     H126486   4.750   1.580   1.288 -0.2325 -0.9035  0.7634
 4889TP3     H226487   4.614   1.645   1.272  0.4367  0.3413  0.0216
 4890TP3      O26488   2.612   3.867   2.108  0.3349 -0.9381  0.6398
 4890TP3     H126489   2.555   3.875   2.032  0.3024  0.3309  0.7777
 4890TP3     H226490   2.700   3.875   2.073  0.3110 -0.0912  0.7509
 4891TP3      O26491   2.585   3.678   1.678 -0.4391  0.4453  0.4277
 4891TP3     H126492   2.498   3.678   1.717 -0.8203  2.5476 -0.3415
 4891TP3     H226493   2.627   3.757   1.713  0.3525  0.6407 -0.9129
 4892TP3      O26494   0.726   1.861   0.799  0.0904 -0.4223 -0.0163
 4892TP3     H126495   0.784   1.810   0.743  0.0085  1.4391 -1.8493
 4892TP3     H226496   0.767   1.947   0.806 -1.0409  0.0650  0.9472
 4893TP3      O26497   3.113   2.465   0.795 -0.3386 -0.2069 -0.0986
 4893TP3     H126498   3.115   2.472   0.890  0.2702 -0.7089 -0.0652
 4893TP3     H226499   3.121   2.555   0.763  0.0478 -0.0889  0.3233
 4894TP3      O26500   1.475   0.313   8.678 -0.2762  0.4270 -0.2074
 4894TP3     H126501   1.557   0.334   8.634  0.3337  1.0524  1.1685
 4894TP3     H226502   1.477   0.218   8.690 -0.0432  0.3675 -0.7416
 4895TP3      O26503   2.536   2.809   2.836 -0.4201  0.1222  0.0793
 4895TP3     H126504   2.549   2.720   2.805  1.4413  0.2703  0.3647
 4895TP3     H226505   2.496   2.855   2.762  3.1196  0.2501 -1.8510
 4896TP3      O26506   2.548   0.112   1.511  0.1368 -0.0688 -0.2640
 4896TP3     H126507   2.611   0.108   1.584 -0.4331  1.0233  0.3008
 4896TP3     H226508   2.472   0.156   1.548 -0.6696 -0.6971 -1.1655
 4897TP3      O26509   4.539   1.396   8.648  0.9123 -0.6288  0.6086
 4897TP3     H126510   4.462   1.351   8.613  1.2184 -1.9145  1.5177
 4897TP3     H226511   4.504   1.474   8.692  0.2347 -0.6549  0.1162
 4898TP3      O26512   2.049   4.161   2.890 -0.4458 -0.8011  0.1597
 4898TP3     H126513   1.962   4.130   2.913 -0.7908  1.1815  1.6078
 4898TP3     H226514   2.041   4.256   2.886  1.6709 -0.5862  0.3586
 4899TP3      O26515   3.229   2.496   1.145 -0.3481 -0.3390  0.1132
 4899TP3     H126516   3.170   2.499   1.220  0.1506  1.9642  0.4495
 4899TP3     H226517   3.311   2.462   1.180 -0.2821  0.2133  0.4951
 4900TP3      O26518   4.058   2.678   1.320  0.4962 -0.0062  0.0377
 4900TP3     H126519   4.139   2.700   1.274  0.1861 -1.0257 -1.0326
 4900TP3     H226520   4.087   2.625   1.394  0.7745 -0.9449 -0.7248
 4901TP3      O26521   3.667   2.685   2.074  0.2438 -0.4528 -0.4474
 4901TP3     H126522   3.595   2.737   2.040 -0.7566 -0.0521  2.1590
 4901TP3     H226523   3.644   2.595   2.054  0.7569 -0.0864 -2.7496
 4902TP3      O26524   4.788   2.398   2.321  0.2031  0.8360  0.0889
 4902TP3     H126525   4.804   2.400   2.227 -0.9646  2.2592 -0.0843
 4902TP3     H226526   4.775   2.489   2.346  0.1553  0.4375  1.5797
 4903TP3      O26527   4.389   2.404   9.814 -0.2939  0.1095  0.0384
 4903TP3     H126528   4.411   2.435   9.726  0.0598 -0.4892 -0.0904
 4903TP3     H226529   4.325   2.335   9.800 -1.2252  0.9081  0.3339
 4904TP3      O26530   1.870   2.328   2.219 -0.4697  0.3704 -0.2536
 4904TP3     H126531   1.894   2.252   2.165  0.7635  1.1274 -0.8001
 4904TP3     H226532   1.950   2.379   2.225 -1.2653  1.5920  0.1888
 4905TP3      O26533   2.163   0.644   8.579 -0.4908 -0.4523 -0.1491
 4905TP3     H126534   2.213   0.663   8.499 -1.4433 -2.2357 -1.1972
 4905TP3     H226535   2.221   0.588   8.630 -0.5972 -0.8105 -0.4188
 4906TP3      O26536   3.511   1.312   1.115  0.3998  0.0144 -0.3248
 4906TP3     H126537   3.481   1.339   1.028 -0.1365 -1.0007 -0.4613
 4906TP3     H226538   3.567   1.237   1.098  2.6436  1.5683 -0.0246
 4907TP3      O26539   3.676   1.817   1.657  0.4905  0.3603  0.0052
 4907TP3     H126540   3.592   1.780   1.685  0.0973 -1.5847 -3.5329
 4907TP3     H226541   3.654   1.906   1.629 -0.3947 -0.0908 -0.7881
 4908TP3      O26542   0.287   1.550   8.171 -0.3947 -0.2521  0.2592
 4908TP3     H126543   0.287   1.569   8.265  2.6088  1.3946 -0.0206
 4908TP3     H226544   0.211   1.596   8.138 -1.1318 -0.3323  1.7672
 4909TP3      O26545   0.021   2.723   0.897  0.0052  0.0949 -0.3879
 4909TP3     H126546   0.094   2.711   0.957  0.8014  0.0977 -1.3283
 4909TP3     H226547  -0.024   2.801   0.929  0.6237  0.2956  0.0102
 4910TP3      O26548   2.144   0.869   0.413 -0.8374 -0.0387 -0.5334
 4910TP3     H126549   2.158   0.915   0.496 -1.8610  3.1074 -2.0214
 4910TP3     H226550   2.077   0.804   0.433 -0.3476  0.0164  1.3412
 4911TP3      O26551   1.135   1.098   8.933 -0.5943  0.7600 -0.4703
 4911TP3     H126552   1.101   1.070   9.018 -0.1923 -0.3263 -0.6552
 4911TP3     H226553   1.230   1.104   8.946 -0.6279  1.5522 -0.5752
 4912TP3      O26554   0.389   2.862   2.185 -0.2734  0.1183 -0.3352
 4912TP3     H126555   0.329   2.888   2.255 -0.9862 -1.7863 -0.1839
 4912TP3     H226556   0.424   2.944   2.151 -3.9080  1.3957 -1.2463
 4913TP3      O26557   2.528   0.103   2.533  0.1186 -0.5781 -0.4744
 4913TP3     H126558   2.584   0.179   2.544  0.0715 -0.4542 -1.0492
 4913TP3     H226559   2.584   0.039   2.488  0.0278 -0.7233 -0.3805
 4914TP3      O26560   4.801   0.788   0.424 -0.0472 -0.0864 -0.2498
 4914TP3     H126561   4.846   0.864   0.461 -0.3090 -1.0318  2.1442
 4914TP3     H226562   4.851   0.766   0.346  0.6884  1.8669 -0.3646
 4915TP3      O26563   3.778   3.147   2.476  0.2984  0.1387  0.2687
 4915TP3     H126564   3.803   3.185   2.392 -0.7003 -0.1344 -0.1606
 4915TP3     H226565   3.861   3.138   2.523  0.9277 -0.0959 -0.8442
 4916TP3      O26566   2.696   0.057   2.923 -0.0699 -0.5776  0.0375
 4916TP3     H126567   2.633   0.123   2.893 -1.1098 -1.5037  0.1342
 4916TP3     H226568   2.760   0.107   2.974 -1.7619  0.1485  1.5224
 4917TP3      O26569   5.287   3.191   2.200 -0.1200 -0.0317  0.2493
 4917TP3     H126570   5.343   3.202   2.278 -0.6878  0.3069  0.6155
 4917TP3     H226571   5.231   3.268   2.201 -1.3792 -0.9423  0.5256
 4918TP3      O26572   2.606   5.034   3.419  0.7426 -0.6718 -0.2813
 4918TP3     H126573   2.652   4.951   3.430  2.0114  0.1088  0.4026
 4918TP3     H226574   2.523   5.010   3.378  0.5207 -2.4465  1.1373
 4919TP3      O26575   4.569   5.299   0.350  0.4061  0.3945 -0.2321
 4919TP3     H126576   4.531   5.372   0.301 -0.3612  0.6179  0.6904
 4919TP3     H226577   4.634   5.262   0.290 -0.3256  0.8363 -1.3216
 4920TP3      O26578   2.388   3.181   1.677 -0.1451  0.0739  0.4119
 4920TP3     H126579   2.330   3.238   1.627 -2.2848 -2.4560 -0.0992
 4920TP3     H226580   2.354   3.184   1.766 -0.5074 -0.6851  0.3036
 4921TP3      O26581   3.278   4.455   1.725 -0.2861 -0.0598  0.0325
 4921TP3     H126582   3.327   4.536   1.721  0.1308 -0.2934  0.3172
 4921TP3     H226583   3.262   4.441   1.819 -0.3320 -0.3172 -0.0119
 4922TP3      O26584   3.086   3.898   9.580  0.0120  0.0536  0.2760
 4922TP3     H126585   3.025   3.965   9.549 -1.6455 -0.4524  2.2912
 4922TP3     H226586   3.049   3.815   9.549 -0.4537 -0.2659  1.6154
 4923TP3      O26587   2.283   4.167   3.031 -0.4283 -0.2968 -0.2317
 4923TP3     H126588   2.306   4.252   2.993  1.6880 -0.8749 -0.2909
 4923TP3     H226589   2.192   4.154   3.005 -1.4619  2.8631  1.4708
 4924TP3      O26590   4.882   4.682   3.125  0.3219  0.1608 -0.1350
 4924TP3     H126591   4.823   4.744   3.167 -1.3571 -1.7360  0.3934
 4924TP3     H226592   4.968   4.698   3.165 -0.4965  0.8475  1.3506
 4925TP3      O26593   0.596   3.978   2.005  0.5455 -0.0892  0.1463
 4925TP3     H126594   0.589   4.026   1.923  2.9019 -0.0009 -0.0482
 4925TP3     H226595   0.530   4.017   2.062 -0.7137  0.2297 -1.5152
 4926TP3      O26596   5.226   0.990   1.774 -0.1238 -0.1579  0.3084
 4926TP3     H126597   5.131   1.002   1.779 -0.1393 -0.0187 -0.2072
 4926TP3     H226598   5.259   1.019   1.859 -0.4330  0.9853  0.0521
 4927TP3      O26599   3.577   3.489   0.491  0.0759 -0.2406 -0.1750
 4927TP3     H126600   3.514   3.559   0.508  1.4581  0.6173  1.5640
 4927TP3     H226601   3.578   3.480   0.395 -2.0015  0.3418 -0.2688
 4928TP3      O26602   3.461   1.438   1.603 -0.1360 -0.4918 -0.2102
 4928TP3     H126603   3.432   1.433   1.512  2.4753  0.2036 -1.1234
 4928TP3     H226604   3.453   1.531   1.625  2.2975 -0.1221 -0.8076
 4929TP3      O26605   4.417   0.572   1.913 -0.3016 -0.6001  0.3115
 4929TP3     H126606   4.390   0.618   1.834 -0.3509 -2.0915 -0.5533
 4929TP3     H226607   4.349   0.591   1.977 -0.2667  0.6042  0.0030
 4930TP3      O26608   3.883   4.696   3.503  0.3620 -0.1096 -0.7033
 4930TP3     H126609   3.795   4.660   3.516  0.7059 -0.7415 -0.0998
 4930TP3     H226610   3.911   4.662   3.419  0.8664 -1.6371  0.0699
 4931TP3      O26611   1.011   1.601   0.712 -0.1992 -0.2617  0.4129
 4931TP3     H126612   1.080   1.637   0.768 -1.6821  1.1144  1.4126
 4931TP3     H226613   0.979   1.676   0.662 -0.5937 -0.9904 -0.4292
 4932TP3      O26614   5.172   1.528   8.070 -0.1849  0.1631  0.3184
 4932TP3     H126615   5.206   1.453   8.021 -0.0308  1.3401 -1.4201
 4932TP3     H226616   5.098   1.559   8.018  1.2317  2.6801 -0.2499
 4933TP3      O26617   3.710   4.747   2.763 -0.3832 -0.3393 -0.7540
 4933TP3     H126618   3.681   4.838   2.764 -1.5984 -0.7335 -0.4774
 4933TP3     H226619   3.685   4.713   2.848  1.7385 -0.4252 -0.1367
 4934TP3      O26620   4.523   3.306   2.806 -0.8433  0.3451 -0.2838
 4934TP3     H126621   4.562   3.226   2.771  1.3655  1.0434  0.4557
 4934TP3     H226622   4.579   3.329   2.881 -0.9763  2.9469 -0.9244
 4935TP3      O26623   3.422   5.082   8.486 -0.2318  0.1490 -0.1023
 4935TP3     H126624   3.354   5.148   8.500  0.5251  0.5244  1.8937
 4935TP3     H226625   3.504   5.130   8.491  0.3681 -1.0192  2.2180
 4936TP3      O26626   3.472   3.119   1.635 -0.3769 -0.3491  0.4024
 4936TP3     H126627   3.561   3.131   1.603 -1.4135 -1.0451 -2.8964
 4936TP3     H226628   3.476   3.039   1.688  1.1070  0.1335  1.0562
 4937TP3      O26629   3.047   4.825   1.076  0.1063 -0.2494  0.0174
 4937TP3     H126630   3.102   4.831   0.997  0.2497 -3.5358 -0.2257
 4937TP3     H226631   3.069   4.903   1.127  0.7219  1.4497 -2.7336
 4938TP3      O26632   1.945   2.111   2.066 -0.0649 -0.2151  0.0610
 4938TP3     H126633   1.922   2.068   1.984  0.9583 -1.0073  0.1905
 4938TP3     H226634   1.938   2.042   2.132 -0.8200  0.4034  0.6431
 4939TP3      O26635   3.666   1.083   1.089  0.0349  0.3612  0.2278
 4939TP3     H126636   3.700   1.060   1.003 -0.3064 -0.4605  0.3027
 4939TP3     H226637   3.661   1.000   1.136  1.3457  0.9673  1.4576
 4940TP3      O26638   4.835   1.991   0.272  0.2157 -0.0491  0.8897
 4940TP3     H126639   4.895   1.917   0.260  1.5099  0.9145  1.2109
 4940TP3     H226640   4.764   1.975   0.211  0.2359 -1.8127  1.3184
 4941TP3      O26641   2.025   0.652   1.921 -0.5402  0.4508 -0.6781
 4941TP3     H126642   2.086   0.651   1.847 -0.3611 -2.0520 -0.5172
 4941TP3     H226643   1.958   0.588   1.898 -0.1368 -0.8330  1.5893
 4942TP3      O26644   0.139   4.778   2.312  0.1543 -0.0922 -0.3506
 4942TP3     H126645   0.145   4.768   2.217  0.8975  0.5329 -0.3769
 4942TP3     H226646   0.201   4.848   2.333  1.2406 -1.3846  0.8085
 4943TP3      O26647   3.714   3.240   2.224  0.1034 -0.1012  0.2572
 4943TP3     H126648   3.655   3.303   2.183 -1.0841 -0.6997  1.0132
 4943TP3     H226649   3.661   3.161   2.236  0.3224  0.1213  3.1153
 4944TP3      O26650   3.258   3.827   2.946 -0.1723  0.9165  0.4381
 4944TP3     H126651   3.272   3.780   3.029 -0.6277  1.3928  0.7924
 4944TP3     H226652   3.335   3.883   2.937 -0.0044  0.6831  0.4176
 4945TP3      O26653   1.431   1.136   0.434  0.5897  1.1539 -0.1693
 4945TP3     H126654   1.353   1.181   0.467  1.1769  1.6487  0.5637
 4945TP3     H226655   1.472   1.100   0.513  0.2322 -0.5243 -0.7073
 4946TP3      O26656   2.056   2.393   0.314  0.1248  0.3622 -0.4649
 4946TP3     H126657   2.145   2.359   0.323  0.6664  1.9125  0.1525
 4946TP3     H226658   2.056   2.440   0.231  0.1655  1.2127  0.0140
 4947TP3      O26659   0.835   0.664   1.217  0.7668 -0.4214  0.1635
 4947TP3     H126660   0.889   0.593   1.253  0.4194 -0.0068  1.5326
 4947TP3     H226661   0.748   0.625   1.208  0.5704 -0.1703  0.9380
 4948TP3      O26662   0.954   5.181   8.173  0.1114 -0.3484  0.4364
 4948TP3     H126663   0.887   5.148   8.232  1.5953  0.7247  2.7784
 4948TP3     H226664   1.036   5.155   8.212  1.1767  1.8489 -0.2429
 4949TP3      O26665   0.263   1.295   9.510 -0.0375 -0.0528 -0.0952
 4949TP3     H126666   0.187   1.320   9.563 -1.0174 -0.4085 -1.3078
 4949TP3     H226667   0.300   1.220   9.556 -0.4647  0.0707  0.4612
 4950TP3      O26668   0.562   4.500   2.443  0.2338  0.0426  0.1085
 4950TP3     H126669   0.540   4.564   2.510  0.9830 -0.1974  0.5876
 4950TP3     H226670   0.478   4.480   2.401 -0.3556 -0.2955  1.4038
 4951TP3      O26671   4.187   2.345   2.520  0.2934  0.3775  0.0301
 4951TP3     H126672   4.101   2.387   2.528 -1.3090 -2.8524  0.8282
 4951TP3     H226673   4.221   2.345   2.610 -0.2320 -1.0377  0.2337
 4952TP3      O26674   0.214   1.483   1.694  0.3104 -0.1375 -0.6310
 4952TP3     H126675   0.273   1.533   1.750  0.0133  0.9047 -1.2233
 4952TP3     H226676   0.233   1.392   1.714  0.4180  0.2189  0.9455
 4953TP3      O26677   3.543   3.496   0.207 -0.5213  0.3107 -0.5031
 4953TP3     H126678   3.571   3.569   0.152 -0.8382  0.2453 -0.7535
 4953TP3     H226679   3.454   3.476   0.177 -0.4884 -0.0857 -0.3420
 4954TP3      O26680   4.217   1.053   0.351 -0.6613  0.0239 -0.6013
 4954TP3     H126681   4.295   1.008   0.320  0.1927  0.6613  0.5965
 4954TP3     H226682   4.183   1.098   0.274  1.4040  1.5601 -0.6396
 4955TP3      O26683   3.986   1.281   0.896 -0.0496  0.2281  0.0675
 4955TP3     H126684   3.946   1.205   0.854 -3.4760  2.4456 -0.9079
 4955TP3     H226685   4.022   1.332   0.824 -0.4068  1.0000  0.4357
 4956TP3      O26686   4.654   3.600   8.979  0.0299 -0.2102  0.0220
 4956TP3     H126687   4.632   3.512   8.949  0.0121  0.2001 -1.2002
 4956TP3     H226688   4.726   3.587   9.040  0.0920 -1.0623 -0.2215
 4957TP3      O26689   5.255   2.170   0.574  0.1866 -0.1122 -0.1959
 4957TP3     H126690   5.288   2.214   0.496 -0.1653 -0.8205 -0.7536
 4957TP3     H226691   5.303   2.087   0.576  1.0315  0.3829  0.9834
 4958TP3      O26692   4.372   2.447   1.663  0.1083  0.3477  0.0607
 4958TP3     H126693   4.358   2.367   1.714 -0.0288 -0.4200 -1.1573
 4958TP3     H226694   4.305   2.508   1.695  0.5998  0.1796  1.4091
 4959TP3      O26695   3.667   2.980   9.144 -0.5284 -0.0497 -0.4546
 4959TP3     H126696   3.641   3.022   9.062 -0.9887 -0.6435 -0.6172
 4959TP3     H226697   3.589   2.983   9.198 -0.8385 -1.4827 -0.7980
 4960TP3      O26698   4.761   1.421   7.089  0.0888 -0.0774  0.2030
 4960TP3     H126699   4.857   1.416   7.082  0.0819 -0.9243  0.6786
 4960TP3     H226700   4.745   1.499   7.142  0.5966 -1.1317  1.9268
 4961TP3      O26701   2.226   2.251   2.612 -0.7167  0.0070 -0.2192
 4961TP3     H126702   2.261   2.167   2.581 -0.2755 -0.4590  1.4836
 4961TP3     H226703   2.275   2.269   2.692 -2.0691  0.9995  0.4034
 4962TP3      O26704   0.956   1.821   0.583  0.5501 -0.0775  1.1878
 4962TP3     H126705   1.026   1.875   0.546  1.4350 -2.2634 -0.3944
 4962TP3     H226706   0.909   1.787   0.507 -1.8078  0.7829  2.2196
 4963TP3      O26707   1.092   0.686   9.045 -0.5507 -0.2899 -0.2829
 4963TP3     H126708   1.042   0.678   9.127 -0.8728 -0.7648 -0.5235
 4963TP3     H226709   1.065   0.610   8.993 -1.0746  0.5304 -1.2213
 4964TP3      O26710   3.090   0.355   1.508  0.3157  0.3369  0.2002
 4964TP3     H126711   3.125   0.371   1.420  0.2533  1.1612  0.3238
 4964TP3     H226712   3.004   0.316   1.492  0.6259 -0.2297 -0.1043
 4965TP3      O26713   1.869   0.438   1.820  0.4355  0.2007 -0.5003
 4965TP3     H126714   1.922   0.359   1.815 -0.1468 -0.1536 -1.0927
 4965TP3     H226715   1.823   0.441   1.736 -0.9733  0.1644  0.2753
 4966TP3      O26716   3.403   1.078   1.251 -0.1048 -0.1049 -0.0756
 4966TP3     H126717   3.495   1.053   1.253  0.3023  1.3189 -0.4531
 4966TP3     H226718   3.404   1.174   1.243 -1.6117 -0.1049 -0.4299
 4967TP3      O26719   1.951   2.550   0.579 -0.0235  0.0258  0.3878
 4967TP3     H126720   1.978   2.512   0.495  0.6305  2.4922 -0.5929
 4967TP3     H226721   1.999   2.501   0.645 -0.6070 -2.0178 -0.6772
 4968TP3      O26722   3.533   0.935   9.526 -0.7624  0.2772 -0.5323
 4968TP3     H126723   3.610   0.880   9.545 -1.1261 -0.4427 -1.1255
 4968TP3     H226724   3.493   0.950   9.612 -3.0808 -3.9715 -0.6944
 4969TP3      O26725   4.103   4.115   1.970  0.0130 -0.2267 -0.2648
 4969TP3     H126726   4.126   4.061   2.046 -0.8036 -0.2491 -0.0237
 4969TP3     H226727   4.007   4.113   1.968 -0.0279  1.1342 -0.3034
 4970TP3      O26728   2.731   2.189   9.848 -0.5485  0.1853 -0.4745
 4970TP3     H126729   2.688   2.262   9.804 -0.8121  0.6949  0.6096
 4970TP3     H226730   2.733   2.119   9.783 -3.3849  0.0074 -0.4323
 4971TP3      O26731   0.035   1.828   1.427 -0.2770  0.2619  0.5718
 4971TP3     H126732   0.085   1.805   1.349 -0.5844 -1.1192  0.7556
 4971TP3     H226733   0.101   1.853   1.492  0.2910 -2.4624  1.1145
 4972TP3      O26734   0.379   2.084   2.365 -0.0120  0.0882  0.3273
 4972TP3     H126735   0.318   2.032   2.311 -2.0912  2.6730  0.0923
 4972TP3     H226736   0.403   2.157   2.309  1.4629  0.3549  1.2963
 4973TP3      O26737   5.148   4.551   2.314 -0.0110  0.1664  0.0286
 4973TP3     H126738   5.057   4.551   2.284 -0.2645 -1.8368  0.7146
 4973TP3     H226739   5.190   4.480   2.265  0.7350 -0.0540  0.9604
 4974TP3      O26740   0.903   0.799   8.016  0.2941  0.1746  0.4939
 4974TP3     H126741   0.858   0.729   8.063  0.3965  0.5158  1.1061
 4974TP3     H226742   0.990   0.763   7.999 -0.0714 -0.3266 -0.3217
 4975TP3      O26743   0.704   3.524  10.119  0.8988 -0.3252  0.0577
 4975TP3     H126744   0.634   3.498  10.180  0.6997 -0.0180 -0.0372
 4975TP3     H226745   0.762   3.579  10.171 -1.1204  2.8547 -0.8806
 4976TP3      O26746   0.197   2.365   2.622 -0.0325 -0.0716  0.2179
 4976TP3     H126747   0.185   2.435   2.557 -1.3706 -0.2285  0.2823
 4976TP3     H226748   0.213   2.411   2.704  0.7755  0.1353 -0.0498
 4977TP3      O26749   1.678   4.863   9.932 -0.1386  0.4868 -0.5146
 4977TP3     H126750   1.712   4.931   9.991 -1.6160  0.0526  0.8560
 4977TP3     H226751   1.592   4.894   9.906 -0.5579 -0.5323 -0.3873
 4978TP3      O26752   3.731   5.118   2.508  0.4253 -0.2324 -0.1926
 4978TP3     H126753   3.679   5.050   2.550 -0.0781 -0.2887 -0.8945
 4978TP3     H226754   3.668   5.186   2.485  0.7430 -0.0538 -0.5571
 4979TP3      O26755   3.046   1.367   8.933 -0.0104 -0.2526 -0.6843
 4979TP3     H126756   2.985   1.299   8.960  0.3852 -0.4433 -0.2679
 4979TP3     H226757   2.994   1.447   8.932  0.2808  0.0339  2.0644
 4980TP3      O26758   4.613   0.373   1.999 -0.5608 -0.3567  0.4883
 4980TP3     H126759   4.625   0.444   1.935  0.3971 -0.8240  0.1327
 4980TP3     H226760   4.608   0.418   2.083  0.5129  0.1207  0.3093
 4981TP3      O26761   0.631   0.107   9.421  0.4027 -0.4260  0.0603
 4981TP3     H126762   0.576   0.044   9.375  1.0884 -1.7540  1.0357
 4981TP3     H226763   0.640   0.071   9.509  2.6560 -0.1021 -0.0232
 4982TP3      O26764   0.701   1.004   0.882 -0.2175 -0.5610  0.0149
 4982TP3     H126765   0.777   0.971   0.930  0.4043  0.9499  0.1006
 4982TP3     H226766   0.681   1.088   0.924 -1.5369 -0.6375 -0.4270
 4983TP3      O26767   3.208   4.450   7.741  0.1946  0.2189  0.2874
 4983TP3     H126768   3.216   4.414   7.830  1.1906 -0.2963  0.0036
 4983TP3     H226769   3.116   4.440   7.719 -0.3762  1.8007  1.8701
 4984TP3      O26770   0.574   2.079   0.127  0.2743  0.1186  0.2811
 4984TP3     H126771   0.599   2.043   0.042 -0.3081 -0.6867  0.4500
 4984TP3     H226772   0.653   2.073   0.181  0.7363  0.9245 -0.2931
 4985TP3      O26773   2.090   1.223   2.530 -0.3595 -0.0716 -0.3683
 4985TP3     H126774   2.011   1.168   2.531  0.4100 -1.2005  2.7224
 4985TP3     H226775   2.063   1.304   2.573  0.3205 -0.7291  1.3287
 4986TP3      O26776   1.493   3.802   0.694 -0.2321 -0.4691 -0.0038
 4986TP3     H126777   1.430   3.860   0.735 -1.3708 -0.8962 -1.0951
 4986TP3     H226778   1.439   3.735   0.651  0.9133 -0.2317 -1.8576
 4987TP3      O26779   4.023   1.626   2.324  0.2563  0.5694  0.0873
 4987TP3     H126780   4.063   1.576   2.396  0.1379 -0.4248 -0.5306
 4987TP3     H226781   4.087   1.622   2.253 -0.3816  0.0559 -0.4674
 4988TP3      O26782   4.651   4.302   8.516 -0.5104 -0.4459 -0.1510
 4988TP3     H126783   4.608   4.223   8.482 -0.6110 -0.3543 -0.2377
 4988TP3     H226784   4.654   4.288   8.611 -0.8180 -0.4135 -0.1340
 4989TP3      O26785   0.485   4.477   1.635  0.0346 -0.3665  0.0825
 4989TP3     H126786   0.528   4.446   1.715 -0.3149 -0.3399  0.2810
 4989TP3     H226787   0.506   4.411   1.569  2.2101  0.7378 -0.3800
 4990TP3      O26788   4.970   2.155   1.284 -0.1412 -0.2097 -0.1877
 4990TP3     H126789   5.049   2.127   1.238 -1.8274 -3.9739 -0.9474
 4990TP3     H226790   4.971   2.106   1.366 -0.4109  1.6631  0.9587
 4991TP3      O26791   3.852   3.237   1.366 -0.0361 -0.2838  0.3731
 4991TP3     H126792   3.827   3.268   1.453 -0.5534  2.4292 -0.7017
 4991TP3     H226793   3.775   3.191   1.333  0.2622 -1.5830  1.4422
 4992TP3      O26794   4.188   3.233   2.743 -0.2351 -0.7492 -0.0852
 4992TP3     H126795   4.200   3.228   2.837  2.9159 -1.4540 -0.4582
 4992TP3     H226796   4.138   3.314   2.729  0.3037 -0.0051  2.1000
 4993TP3      O26797   4.083   2.246   1.437  0.7660 -0.1334  0.0235
 4993TP3     H126798   4.103   2.192   1.361 -2.3441  0.3430 -1.2107
 4993TP3     H226799   4.014   2.199   1.483 -2.3334  2.8545 -1.3212
 4994TP3      O26800   1.095   1.785   2.853 -0.6193 -0.1098  0.0421
 4994TP3     H126801   1.085   1.866   2.901  0.6139 -0.0301  0.1860
 4994TP3     H226802   1.009   1.744   2.855 -0.9180  0.5787  1.0690
 4995TP3      O26803   4.776   4.117   3.225 -0.1232 -0.5777 -0.6252
 4995TP3     H126804   4.740   4.143   3.141 -0.8285 -0.4837 -0.3032
 4995TP3     H226805   4.751   4.025   3.235 -2.3630  0.1117  0.6435
 4996TP3      O26806   2.968   0.406   2.682  0.2985 -0.6043 -0.3510
 4996TP3     H126807   3.059   0.394   2.707  0.3454 -1.9585 -1.1253
 4996TP3     H226808   2.971   0.471   2.612  0.4365  1.0466  1.1696
 4997TP3      O26809   3.711   3.539   2.926  0.7905  0.6928 -0.1325
 4997TP3     H126810   3.735   3.592   3.002  1.6523 -0.1568  0.1974
 4997TP3     H226811   3.617   3.522   2.937  0.7166  1.3502  0.2501
 4998TP3      O26812   4.855   0.784   7.362  0.1093  0.3166  0.1606
 4998TP3     H126813   4.934   0.796   7.310  0.7015  0.3063  1.0686
 4998TP3     H226814   4.790   0.841   7.320  0.1300 -0.8741 -1.5608
 4999TP3      O26815   3.026   1.344  10.083 -0.0873 -0.5568 -0.0319
 4999TP3     H126816   3.059   1.339   9.994 -0.3038 -1.2012 -0.0761
 4999TP3     H226817   3.035   1.255  10.118  0.7469 -0.1336  0.8533
 5000TP3      O26818   5.295   4.553   1.742  0.1429  0.2484  0.3070
 5000TP3     H126819   5.264   4.520   1.826 -0.4111 -3.0900 -1.1302
 5000TP3     H226820   5.218   4.553   1.685  0.7751  1.2160 -0.5869
 5001TP3      O26821   0.367   0.688   2.794  0.1026 -0.2522 -0.0140
 5001TP3     H126822   0.392   0.598   2.815 -0.5031 -0.1897  1.0039
 5001TP3     H226823   0.304   0.678   2.722  0.0220 -0.6375  0.1062
 5002TP3      O26824   3.777   2.654   2.793  0.2536 -0.5982 -0.0297
 5002TP3     H126825   3.767   2.673   2.886  3.2235  0.5777  0.1065
 5002TP3     H226826   3.753   2.561   2.785 -1.1287 -0.3982  1.6974
 5003TP3      O26827   1.542   2.005   3.222 -0.1371  0.5190 -0.0001
 5003TP3     H126828   1.463   2.008   3.275 -0.5402  1.5062 -0.6509
 5003TP3     H226829   1.549   2.093   3.184  1.1010  0.3494 -0.1852
 5004TP3      O26830   4.053   4.389   1.062 -0.3667  0.0736  0.6079
 5004TP3     H126831   4.062   4.368   0.969 -0.5921  0.2467  0.5457
 5004TP3     H226832   4.000   4.469   1.063 -0.4299  0.0279  0.8877
 5005TP3      O26833   0.252   0.779   0.376 -0.1843  0.1929 -0.1616
 5005TP3     H126834   0.260   0.839   0.450  0.7225  0.6122 -0.6000
 5005TP3     H226835   0.248   0.836   0.299 -2.2875 -0.1848 -0.3688
 5006TP3      O26836   0.683   3.525   1.042  0.4164  0.3253  0.4461
 5006TP3     H126837   0.760   3.473   1.065 -1.8055 -3.0489  0.6120
 5006TP3     H226838   0.616   3.499   1.106 -1.7010  1.0299 -1.4100
 5007TP3      O26839   2.752   1.258   9.933  0.0158  0.1579 -0.5531
 5007TP3     H126840   2.684   1.195   9.957 -0.4372  1.3320  1.3940
 5007TP3     H226841   2.831   1.206   9.925 -0.6859 -0.9066 -0.6466
 5008TP3      O26842   0.097   3.371   1.343  0.6115  0.7082 -0.1257
 5008TP3     H126843   0.151   3.407   1.273  1.7431 -0.3526  0.1932
 5008TP3     H226844   0.160   3.343   1.410 -0.3760  0.3099  0.6472
 5009TP3      O26845   0.630   3.260   0.893 -0.4019  0.2499 -0.0199
 5009TP3     H126846   0.675   3.341   0.869  0.4056 -0.0399  0.5018
 5009TP3     H226847   0.570   3.285   0.963  1.2220  0.0498  1.4862
 5010TP3      O26848   1.943   1.076   0.503 -0.2493  0.3562 -0.0568
 5010TP3     H126849   1.856   1.048   0.530  0.3044 -0.4995  0.8822
 5010TP3     H226850   1.975   1.006   0.446  0.3995 -0.0413  0.7866
 5011TP3      O26851   0.523   2.579   2.195 -0.4467  0.8806 -0.1302
 5011TP3     H126852   0.450   2.621   2.151 -0.8558  0.6808  0.3520
 5011TP3     H226853   0.567   2.650   2.242  0.4663  1.2349 -1.4982
 5012TP3      O26854   3.390   1.101   0.545 -0.1933  0.4669 -0.3327
 5012TP3     H126855   3.310   1.093   0.597  0.2347 -0.6021  0.1886
 5012TP3     H226856   3.360   1.096   0.454 -0.8203  1.0367 -0.1587
 5013TP3      O26857   3.175   2.329   9.375 -0.0805  0.2759 -0.0281
 5013TP3     H126858   3.184   2.234   9.385  0.8310  0.5770  2.2183
 5013TP3     H226859   3.260   2.358   9.343 -0.2009  0.3878 -0.2416
 5014TP3      O26860   4.531   3.896   0.725 -0.9253  0.1640  0.1201
 5014TP3     H126861   4.603   3.907   0.663 -0.7468 -2.4880 -0.1991
 5014TP3     H226862   4.512   3.803   0.723 -3.2692  0.5740  1.4630
 5015TP3      O26863   5.058   5.280   0.732  0.1742  0.0790  0.1678
 5015TP3     H126864   5.083   5.276   0.640 -0.2100 -1.0269  0.0951
 5015TP3     H226865   5.139   5.295   0.779  0.3794  0.6027 -0.3503
 5016TP3      O26866   0.178   3.163  10.033 -0.0501  0.1017 -0.1240
 5016TP3     H126867   0.208   3.105   9.963  1.3813 -0.3511  0.8420
 5016TP3     H226868   0.223   3.246  10.016  3.1284 -1.0361  2.2224
 5017TP3      O26869   4.429   3.291   1.151 -0.7666 -0.7887  0.0277
 5017TP3     H126870   4.483   3.361   1.187 -1.6007  0.1510 -0.5201
 5017TP3     H226871   4.479   3.211   1.166 -0.9903 -0.4175  3.1063
 5018TP3      O26872   0.903   3.887   2.348 -0.1076  0.3337 -0.5135
 5018TP3     H126873   0.844   3.963   2.347 -0.7445 -0.1568 -2.8811
 5018TP3     H226874   0.883   3.843   2.431 -0.8950  1.8467  0.1219
 5019TP3      O26875   0.349   5.236   1.907 -0.0653 -0.2836  0.2191
 5019TP3     H126876   0.374   5.307   1.966  0.0535 -1.6171  1.8350
 5019TP3     H226877   0.384   5.262   1.821  1.6637  0.6937  1.1861
 5020TP3      O26878   2.591   1.614   1.998  0.0914  0.2241 -0.3605
 5020TP3     H126879   2.686   1.611   2.011 -0.1019 -2.1640  0.7836
 5020TP3     H226880   2.563   1.691   2.047  1.1002 -0.7793  1.8805
 5021TP3      O26881   1.211   1.305   9.808  0.1907 -0.2519  0.5111
 5021TP3     H126882   1.244   1.255   9.733  1.1880  0.4618  0.4571
 5021TP3     H226883   1.133   1.257   9.837  1.7515 -2.4589  1.1807
 5022TP3      O26884   0.151   2.088   2.541  0.1776 -0.0214  0.2369
 5022TP3     H126885   0.198   2.115   2.462  0.6581  0.8202  0.8008
 5022TP3     H226886   0.165   2.160   2.603  0.4435 -1.0214  1.3506
 5023TP3      O26887   5.262   0.902   2.415  0.5916  0.2699 -0.2040
 5023TP3     H126888   5.290   0.913   2.324  2.9686  1.8396  0.6619
 5023TP3     H226889   5.218   0.984   2.436 -0.0679 -0.1436  0.0195
 5024TP3      O26890   1.781   3.359   1.335  0.0820 -0.8192 -0.0736
 5024TP3     H126891   1.805   3.267   1.339  1.9757 -0.3263 -0.0109
 5024TP3     H226892   1.784   3.381   1.242  2.0112 -0.2056  0.1238
 5025TP3      O26893   3.358   4.955   9.195  0.0297 -0.3596  0.5774
 5025TP3     H126894   3.381   5.045   9.170 -1.7767  0.5419  1.9835
 5025TP3     H226895   3.437   4.904   9.180  0.9302  1.3780 -0.7401
 5026TP3      O26896   1.313   3.337   0.939  0.5805  0.0995  0.4905
 5026TP3     H126897   1.250   3.284   0.891  2.0293  0.2125 -1.5835
 5026TP3     H226898   1.276   3.425   0.939  0.9291  0.2544 -1.0945
 5027TP3      O26899   0.908   4.535   1.946 -0.6695  0.0192  0.4506
 5027TP3     H126900   0.887   4.582   1.866 -0.1746  0.8987  0.8262
 5027TP3     H226901   0.927   4.445   1.917 -1.2511  0.1449 -0.3145
 5028TP3      O26902   3.523   1.654   0.819  0.0653  0.1649  0.5953
 5028TP3     H126903   3.566   1.623   0.739  0.3571  2.1932 -0.0456
 5028TP3     H226904   3.545   1.747   0.824 -2.2437  0.6991  1.5408
 5029TP3      O26905   2.355   4.725   1.754  0.6094  0.0681  0.3641
 5029TP3     H126906   2.387   4.815   1.745 -2.3506  1.1155 -0.4053
 5029TP3     H226907   2.321   4.704   1.667 -3.7503  0.2961  1.8764
 5030TP3      O26908   3.950   0.951   1.261 -0.0144  0.0350  0.1240
 5030TP3     H126909   3.986   0.945   1.172  1.3522 -1.2084  0.7460
 5030TP3     H226910   3.914   1.040   1.266 -0.2561  0.0680 -1.7162
 5031TP3      O26911   3.642   0.005  10.015  0.7332  0.2572  0.3499
 5031TP3     H126912   3.570  -0.042  10.058  0.2502  0.9632  0.3172
 5031TP3     H226913   3.611   0.020   9.926  1.4274 -0.5244 -0.0314
 5032TP3      O26914   3.593   4.737   3.082  0.3343  0.4819  0.2728
 5032TP3     H126915   3.569   4.728   3.174  0.7251 -0.5104  0.2809
 5032TP3     H226916   3.657   4.668   3.066 -1.0558 -0.5184 -1.1884
 5033TP3      O26917   0.793   3.025   0.614  0.3329  0.3791 -0.7377
 5033TP3     H126918   0.711   3.070   0.632 -0.0094  0.0732 -1.5177
 5033TP3     H226919   0.857   3.070   0.669 -0.7599 -0.7890  1.5283
 5034TP3      O26920   1.499   2.320   1.946  0.1304  0.8680  0.0766
 5034TP3     H126921   1.456   2.327   2.032  0.0929  1.2620  0.0257
 5034TP3     H226922   1.432   2.349   1.884 -0.3026 -0.6980 -0.2155
 5035TP3      O26923   3.894   4.780   1.385 -0.1829 -0.1575 -0.0262
 5035TP3     H126924   3.804   4.810   1.393 -0.4859 -0.5383 -1.8385
 5035TP3     H226925   3.888   4.700   1.332  1.2755  0.2187 -0.7991
 5036TP3      O26926   0.581   3.689   2.535 -0.1084  0.1232  0.2949
 5036TP3     H126927   0.646   3.733   2.590 -0.6333 -0.0690  1.0817
 5036TP3     H226928   0.593   3.596   2.553  1.1145 -0.0880 -1.4957
 5037TP3      O26929   1.897   1.166   9.221  0.4153 -0.2255  0.2491
 5037TP3     H126930   1.825   1.225   9.244  0.0064 -0.7224  0.2496
 5037TP3     H226931   1.945   1.212   9.153  1.3933  1.0923  1.7716
 5038TP3      O26932   2.979   2.504   8.338 -0.5115 -0.1255 -0.0185
 5038TP3     H126933   3.022   2.419   8.346 -0.9118 -0.4089 -0.8264
 5038TP3     H226934   3.044   2.560   8.297 -0.6247 -0.3325 -0.4799
 5039TP3      O26935   5.257   3.509   1.524 -0.2879  0.4133 -0.0262
 5039TP3     H126936   5.302   3.470   1.599  0.9344  1.4388 -0.2048
 5039TP3     H226937   5.304   3.476   1.447 -2.6084 -2.0033 -0.4678
 5040TP3      O26938   3.640   3.125   1.260  0.1170  0.0627 -0.5305
 5040TP3     H126939   3.642   3.098   1.168  0.7039  0.9276 -0.7706
 5040TP3     H226940   3.568   3.074   1.298 -0.5373  0.1680 -1.6133
 5041TP3      O26941   5.195   0.978   3.615  0.3335  0.2102 -0.0023
 5041TP3     H126942   5.207   1.002   3.523 -1.6432  0.9737 -0.0967
 5041TP3     H226943   5.244   1.043   3.664  1.5068 -0.2781 -0.5157
 5042TP3      O26944   3.389   4.130   0.257  0.3897 -0.5650  0.6161
 5042TP3     H126945   3.455   4.177   0.309 -0.4850 -0.9282  2.0730
 5042TP3     H226946   3.319   4.194   0.244  0.1705 -0.7844  0.7221
 5043TP3      O26947   3.210   2.710   2.402  0.4990  0.0155 -0.1504
 5043TP3     H126948   3.216   2.624   2.445  0.6984 -0.0510 -0.3113
 5043TP3     H226949   3.175   2.690   2.315  0.9356  0.0508 -0.3345
 5044TP3      O26950   5.229   1.612   0.801  0.3545  0.1647 -0.2087
 5044TP3     H126951   5.250   1.575   0.715  3.8494 -2.0923  1.4766
 5044TP3     H226952   5.301   1.672   0.819 -1.0327  1.6115  0.5944
 5045TP3      O26953   5.053   2.647   0.227 -0.1424  0.4233 -1.0413
 5045TP3     H126954   5.122   2.683   0.171  0.8839  1.5706  0.9138
 5045TP3     H226955   5.011   2.725   0.265  0.9610 -0.3732  1.8936
 5046TP3      O26956   0.951   4.596  10.076  0.7425 -0.0735 -0.7935
 5046TP3     H126957   0.876   4.596  10.016  0.6094 -0.0469 -0.6277
 5046TP3     H226958   0.917   4.555  10.156  0.4549  1.3436 -0.1736
 5047TP3      O26959   1.106   4.769   8.846  0.2203 -0.6278  0.0634
 5047TP3     H126960   1.094   4.762   8.941 -0.1095 -0.9695 -0.0023
 5047TP3     H226961   1.123   4.679   8.817  0.6520 -0.4783 -0.1580
 5048TP3      O26962   0.872   4.021   9.552 -0.4097 -0.5315  0.2737
 5048TP3     H126963   0.804   4.085   9.574 -0.9632 -1.4003  1.1349
 5048TP3     H226964   0.823   3.945   9.520  0.2959 -0.0740 -1.9407
 5049TP3      O26965   5.210   4.494   2.007 -0.8927  0.2827 -0.1785
 5049TP3     H126966   5.169   4.411   1.984  0.3305 -0.1485 -0.8500
 5049TP3     H226967   5.270   4.473   2.078 -2.0237  0.9654  1.0041
 5050TP3      O26968   0.141   1.525   2.621  0.4809 -0.1770 -0.2563
 5050TP3     H126969   0.096   1.565   2.547  1.4091  0.9750 -0.2087
 5050TP3     H226970   0.161   1.597   2.680  0.0889 -1.0327  0.9513
 5051TP3      O26971   1.455   1.328   9.038  0.3862  0.3003 -0.4217
 5051TP3     H126972   1.532   1.384   9.025 -0.2205  0.8517 -1.7234
 5051TP3     H226973   1.404   1.338   8.958 -1.4516  0.5485  0.7475
 5052TP3      O26974   0.150   2.193   8.832 -0.4261 -0.8788  0.2983
 5052TP3     H126975   0.139   2.272   8.885 -1.5406 -1.7446  1.4056
 5052TP3     H226976   0.233   2.205   8.787  1.0245 -0.5315  2.9864
 5053TP3      O26977   0.591   0.881   2.767 -0.2344 -0.1241  0.3227
 5053TP3     H126978   0.647   0.876   2.845  0.5308 -0.8047 -0.2599
 5053TP3     H226979   0.526   0.812   2.780  0.6156 -1.0291 -0.1959
 5054TP3      O26980   3.237   3.680   3.169  0.0806 -0.2162  0.0824
 5054TP3     H126981   3.150   3.640   3.176  0.5283 -1.6112 -2.0830
 5054TP3     H226982   3.298   3.609   3.189  0.7721  0.6098  0.9917
 5055TP3      O26983   0.220   5.226   2.485  0.4248 -0.1029  0.2259
 5055TP3     H126984   0.209   5.289   2.555  0.0556  0.1862 -0.0882
 5055TP3     H226985   0.305   5.247   2.447  0.2278  0.3214  0.0114
 5056TP3      O26986   1.504   0.331   0.974  0.0216  0.0334  0.4300
 5056TP3     H126987   1.501   0.378   0.891  0.0929 -0.4487  0.1506
 5056TP3     H226988   1.583   0.278   0.968 -2.9558 -4.4605 -1.6476
 5057TP3      O26989   3.704   4.766   0.277 -0.0515  0.0724  0.0373
 5057TP3     H126990   3.724   4.842   0.222  0.8443  0.8497  1.4038
 5057TP3     H226991   3.619   4.786   0.315 -1.1340 -0.9196 -1.8180
 5058TP3      O26992   1.014   1.252   0.539  0.4920  0.7308  0.1937
 5058TP3     H126993   0.997   1.219   0.627  2.0252  1.0161  0.6142
 5058TP3     H226994   1.071   1.187   0.499 -0.2926  0.5447 -0.6378
 5059TP3      O26995   0.252   4.209   8.705 -0.2686 -0.1364  0.0394
 5059TP3     H126996   0.164   4.243   8.720  0.0526 -0.0090  1.6745
 5059TP3     H226997   0.293   4.207   8.791  0.9723 -1.2137 -0.5495
 5060TP3      O26998   0.854   4.900   2.666 -0.1440 -0.4500 -0.4400
 5060TP3     H126999   0.816   4.961   2.602  2.7710  1.2644 -0.5982
 5060TP3     H227000   0.847   4.814   2.624 -3.6799 -0.2117 -0.5011
 5061TP3      O27001   3.571   2.729   3.382  0.2082  0.2457  0.3297
 5061TP3     H127002   3.520   2.664   3.334 -1.4460  2.4391 -0.9704
 5061TP3     H227003   3.662   2.701   3.370 -0.5971 -3.7009  2.6758
 5062TP3      O27004   3.652   0.522   0.384  0.4806 -0.4846  0.2680
 5062TP3     H127005   3.728   0.507   0.328 -0.4914  0.9322 -1.4827
 5062TP3     H227006   3.591   0.453   0.359  0.0851  0.0898 -0.3778
 5063TP3      O27007   4.974   3.534   0.497  0.1623  0.0759  0.1786
 5063TP3     H127008   4.970   3.462   0.433 -0.4089  0.5430 -0.3066
 5063TP3     H227009   4.914   3.600   0.463  0.7269  0.8122  0.5967
 5064TP3      O27010   0.904   2.240   1.579 -0.3159 -0.2924  0.4232
 5064TP3     H127011   0.848   2.165   1.599 -1.7359  1.7258  4.6845
 5064TP3     H227012   0.843   2.309   1.551  0.7100  0.0664 -0.9792
 5065TP3      O27013   0.981   0.212   2.848  0.0369  0.4011 -0.1546
 5065TP3     H127014   1.019   0.171   2.926 -1.6974 -1.0445 -0.0511
 5065TP3     H227015   0.897   0.246   2.877 -0.3358  0.4260 -1.2414
 5066TP3      O27016   3.949   2.353   6.971 -0.1640  0.6530 -0.0658
 5066TP3     H127017   3.950   2.288   7.042  1.2615  0.2587 -0.4284
 5066TP3     H227018   3.943   2.437   7.015  1.0087  0.4228  0.5559
 5067TP3      O27019   3.969   3.512   1.420  0.1708  0.2142  0.2688
 5067TP3     H127020   3.916   3.445   1.463 -0.0201  0.2146  0.0327
 5067TP3     H227021   4.056   3.473   1.414 -0.2003 -0.4556 -0.8764
 5068TP3      O27022   2.202   3.882   3.026 -0.4027 -0.3219 -0.0963
 5068TP3     H127023   2.237   3.971   3.035 -1.6043  0.0246  1.3552
 5068TP3     H227024   2.111   3.895   2.998  0.0985 -1.1744 -2.2022
 5069TP3      O27025   1.665   2.293  10.110  0.0484  0.1191 -0.2871
 5069TP3     H127026   1.711   2.332  10.036 -0.3976 -0.1665 -0.7252
 5069TP3     H227027   1.687   2.348  10.185  1.9226 -0.6047 -0.2713
 5070TP3      O27028   3.141   3.045   2.984 -0.1858 -0.1763 -0.4457
 5070TP3     H127029   3.048   3.064   2.991  0.0499  1.3214 -1.1317
 5070TP3     H227030   3.184   3.130   3.000  1.0624 -0.9069  0.1593
 5071TP3      O27031   4.549   2.623   2.274  0.7709  0.2152  0.2481
 5071TP3     H127032   4.589   2.691   2.221  0.3703  1.4449  1.4745
 5071TP3     H227033   4.503   2.671   2.344 -2.9764 -1.0694 -1.1694
 5072TP3      O27034   4.092   2.936   9.422  1.0119 -0.1056 -0.2234
 5072TP3     H127035   4.031   2.908   9.354  1.8584 -0.0179 -1.0216
 5072TP3     H227036   4.135   2.855   9.450  1.4507  0.0133 -0.5610
 5073TP3      O27037   3.822   4.044   9.917 -0.4474 -0.5173  0.1877
 5073TP3     H127038   3.844   4.127   9.958  1.5441 -1.5911  1.3765
 5073TP3     H227039   3.733   4.026   9.945 -0.6332  0.8518  0.5186
 5074TP3      O27040   0.435   3.293   3.534 -0.3484  0.1762  0.6137
 5074TP3     H127041   0.461   3.208   3.571 -0.0806 -0.0588 -0.0915
 5074TP3     H227042   0.373   3.270   3.465 -0.5698  0.5817  0.6828
 5075TP3      O27043   3.732   0.827   9.953  0.2723  0.0323 -0.5836
 5075TP3     H127044   3.797   0.896   9.963  0.7381 -0.2783 -1.4320
 5075TP3     H227045   3.784   0.746   9.956 -0.3248 -0.3059  0.9484
 5076TP3      O27046   4.887   0.685   0.771  0.5722  0.1533 -0.9736
 5076TP3     H127047   4.864   0.765   0.819  2.1190 -0.0092  0.0579
 5076TP3     H227048   4.891   0.617   0.838  0.1870 -0.6032 -1.7147
 5077TP3      O27049   4.693   3.659   2.354 -0.3225  0.3908  0.2466
 5077TP3     H127050   4.760   3.665   2.285  0.0181  1.4484  0.6486
 5077TP3     H227051   4.615   3.699   2.314 -0.1866  0.8067  0.3876
 5078TP3      O27052   0.660   0.522   1.560  0.3106 -0.3451  0.1193
 5078TP3     H127053   0.659   0.430   1.533 -1.0345  0.3509 -2.3956
 5078TP3     H227054   0.589   0.528   1.624  0.8729 -1.2068  0.8300
 5079TP3      O27055   4.645   0.464   2.700  0.2820 -0.0190 -0.2711
 5079TP3     H127056   4.566   0.416   2.724 -0.3035  0.6032 -0.9197
 5079TP3     H227057   4.665   0.434   2.611 -0.3278  1.2263 -0.8439
 5080TP3      O27058   4.233   3.956   2.195 -0.5955 -0.0278 -0.2004
 5080TP3     H127059   4.302   4.016   2.224 -0.0401 -0.5876 -0.3628
 5080TP3     H227060   4.279   3.885   2.152 -1.2106 -0.9537  0.6462
 5081TP3      O27061   0.645   0.988   2.240 -0.0413 -0.2414 -0.4432
 5081TP3     H127062   0.690   1.053   2.294  0.0037  0.3586 -1.2016
 5081TP3     H227063   0.687   0.995   2.154 -1.3744  0.1067 -1.0695
 5082TP3      O27064   2.451   4.064   2.543 -0.5732  0.6220 -0.6180
 5082TP3     H127065   2.522   4.094   2.601  0.3574  0.0276 -1.4410
 5082TP3     H227066   2.495   4.043   2.461 -1.5239 -0.9847 -0.7238
 5083TP3      O27067   2.231   1.796   2.192  0.5196 -0.0110  0.5785
 5083TP3     H127068   2.166   1.750   2.139 -0.1304  1.1014  0.3714
 5083TP3     H227069   2.208   1.775   2.282 -0.8017  1.1981  0.5506
 5084TP3      O27070   4.574   2.742   2.596  0.4544 -0.2633 -0.6298
 5084TP3     H127071   4.657   2.778   2.565  0.2846  1.5254  0.9118
 5084TP3     H227072   4.565   2.777   2.685 -1.4471 -1.2886 -0.4036
 5085TP3      O27073   1.946   1.690   1.498 -0.0249  0.7575 -0.0219
 5085TP3     H127074   2.000   1.629   1.548 -1.1805 -1.0803 -0.9704
 5085TP3     H227075   1.998   1.771   1.494  0.3768  0.7539  3.5442
 5086TP3      O27076   3.459   1.865   3.621  0.0609 -0.5546 -0.1910
 5086TP3     H127077   3.459   1.779   3.579 -0.8781 -0.1820 -0.9688
 5086TP3     H227078   3.527   1.914   3.574 -1.3301  0.0253 -1.6578
 5087TP3      O27079   3.025   1.804   2.054  0.0372 -0.3144 -0.6217
 5087TP3     H127080   3.008   1.897   2.071  0.4205 -0.4026  0.2793
 5087TP3     H227081   3.093   1.780   2.117  1.9931 -0.5138 -2.7478
 5088TP3      O27082   4.433   1.939   2.922 -0.2450 -0.3853  0.1083
 5088TP3     H127083   4.356   1.925   2.977 -0.9066  1.7169 -0.2369
 5088TP3     H227084   4.427   1.871   2.855 -0.5329 -1.6894  1.4511
 5089TP3      O27085   1.788   3.094  10.045 -0.0953  0.1943 -0.2859
 5089TP3     H127086   1.835   3.156  10.100  0.7506  0.7186 -1.5664
 5089TP3     H227087   1.794   3.010  10.091  1.1330  0.4962  0.1118
 5090TP3      O27088   4.803   0.755  10.079 -0.3391 -0.2516  0.0697
 5090TP3     H127089   4.742   0.706  10.024  2.0394 -0.3656 -2.5674
 5090TP3     H227090   4.886   0.707  10.072  0.8290  1.5270  1.1875
 5091TP3      O27091   2.561   4.336   2.079 -0.0525 -0.1236  0.1644
 5091TP3     H127092   2.527   4.251   2.049 -0.4704 -0.0794  0.5054
 5091TP3     H227093   2.498   4.400   2.045  0.4329  0.0781 -0.3590
 5092TP3      O27094   0.389   1.607   1.877  0.3691 -0.1613  0.1246
 5092TP3     H127095   0.395   1.702   1.863 -1.3179 -0.2609 -1.4207
 5092TP3     H227096   0.407   1.596   1.971 -0.3406  1.7801  0.5192
 5093TP3      O27097   0.394   1.791   0.563  0.2576 -0.0859  0.4097
 5093TP3     H127098   0.391   1.854   0.634 -0.6333  1.1738 -0.7203
 5093TP3     H227099   0.385   1.843   0.483  0.5728 -1.5282 -0.6067
 5094TP3      O27100   0.746   0.302   2.892  0.3064 -0.2518  0.0526
 5094TP3     H127101   0.664   0.336   2.927  0.4832 -0.3641  0.5800
 5094TP3     H227102   0.759   0.351   2.810 -1.1660 -1.4564 -0.9350
 5095TP3      O27103   0.515   3.412   1.846  0.1191  1.0371  0.4183
 5095TP3     H127104   0.498   3.507   1.847  0.0318  1.0172  0.8986
 5095TP3     H227105   0.435   3.374   1.810 -0.1034  1.0927  0.8549
 5096TP3      O27106   1.922   1.989   9.982  0.0073 -0.2909 -0.2762
 5096TP3     H127107   1.904   2.025  10.068  1.0525  0.2112 -0.2584
 5096TP3     H227108   1.939   1.896   9.998 -1.0397 -0.4608 -0.1118
 5097TP3      O27109   1.143   3.513   8.753  0.1014  0.1079  0.0122
 5097TP3     H127110   1.120   3.606   8.747  1.0092  0.2954 -0.8110
 5097TP3     H227111   1.083   3.470   8.692  0.0532  0.2315 -0.0268
 5098TP3      O27112   3.160   1.831   0.337 -0.0213 -0.2738  0.1296
 5098TP3     H127113   3.155   1.895   0.408  0.8152  2.2779 -2.0362
 5098TP3     H227114   3.254   1.821   0.321 -0.1930 -1.0148 -0.4269
 5099TP3      O27115   2.982   3.355   1.468 -0.3983 -0.2525 -0.5444
 5099TP3     H127116   3.007   3.292   1.400 -2.3955 -2.0875  0.3631
 5099TP3     H227117   3.059   3.361   1.525  0.7761  0.2277 -2.1266
 5100TP3      O27118   3.862   2.824   9.292  0.3121  0.7387  0.8613
 5100TP3     H127119   3.779   2.834   9.339  0.0813 -1.6175  1.0541
 5100TP3     H227120   3.852   2.877   9.213 -1.1002  1.0693  1.2552
 5101TP3      O27121   0.042   5.177   1.116  0.0934  0.0746 -0.6971
 5101TP3     H127122   0.028   5.102   1.059 -1.9864 -0.5604  0.5983
 5101TP3     H227123  -0.037   5.231   1.105  0.2838  0.6301  0.5245
 5102TP3      O27124   3.940   2.223   1.065 -0.4561  0.2833 -0.0030
 5102TP3     H127125   4.033   2.238   1.045 -0.3475  0.2660  0.4787
 5102TP3     H227126   3.895   2.296   1.022 -0.3735 -0.5538 -1.5451
 5103TP3      O27127   0.596   4.784   1.221  0.0989 -0.1113  0.0882
 5103TP3     H127128   0.541   4.785   1.142  0.9791  2.9376 -0.5476
 5103TP3     H227129   0.534   4.770   1.293 -1.2754  1.1169 -0.8032
 5104TP3      O27130   5.220   0.592   2.005  0.1941  0.2946  0.3240
 5104TP3     H127131   5.287   0.550   2.058  1.8907 -0.2317 -2.1889
 5104TP3     H227132   5.153   0.525   1.993 -0.1163  0.3573  1.6000
 5105TP3      O27133   0.608   2.502   2.754 -0.1646 -0.0254  0.6374
 5105TP3     H127134   0.621   2.482   2.661  1.3405 -1.1451  1.0572
 5105TP3     H227135   0.695   2.528   2.785 -0.2095 -1.5328  2.1476
 5106TP3      O27136   1.191   1.467   2.547  0.2060  0.1870 -0.0281
 5106TP3     H127137   1.246   1.544   2.564  1.2531 -0.5465 -0.0496
 5106TP3     H227138   1.157   1.481   2.459  0.7564  0.4156 -0.2046
 5107TP3      O27139   4.856   1.663   0.976 -0.0690 -0.0211  0.4975
 5107TP3     H127140   4.850   1.629   1.065  0.3601  0.8417  0.8676
 5107TP3     H227141   4.903   1.595   0.928 -2.1068 -1.4068  0.4240
 5108TP3      O27142   0.705   3.562   1.577  0.1672 -0.0939 -0.2138
 5108TP3     H127143   0.788   3.595   1.612  0.5291 -1.5563  0.3142
 5108TP3     H227144   0.731   3.490   1.519 -0.9223 -2.5825  2.3268
 5109TP3      O27145   2.759   2.395   2.303  0.0063 -0.0093  0.0840
 5109TP3     H127146   2.729   2.418   2.215  0.1171 -0.2065 -0.0076
 5109TP3     H227147   2.768   2.479   2.348  0.5867  0.1374 -0.3033
 5110TP3      O27148   4.518   0.754   2.326 -0.1331 -0.2482  0.2856
 5110TP3     H127149   4.587   0.819   2.339  2.4555 -2.9813  0.5748
 5110TP3     H227150   4.520   0.734   2.233  0.4972 -1.4307  0.5456
 5111TP3      O27151   1.901   3.172   2.081 -0.1911  0.7358 -0.4056
 5111TP3     H127152   1.971   3.107   2.083 -0.1232  0.8404  1.9601
 5111TP3     H227153   1.908   3.217   2.165 -1.8661  2.0661 -0.9551
 5112TP3      O27154   0.282   3.634   2.564 -0.7426  0.0143  0.1854
 5112TP3     H127155   0.377   3.638   2.559 -0.8113 -0.0296 -1.1040
 5112TP3     H227156   0.251   3.709   2.514 -1.3826  0.4678  1.2298
 5113TP3      O27157   0.287   3.454   3.143 -0.1026 -0.9692 -0.5892
 5113TP3     H127158   0.252   3.368   3.166 -1.7817 -0.9607 -2.9376
 5113TP3     H227159   0.379   3.450   3.167 -0.9141 -2.1856  2.5705
 5114TP3      O27160   1.609   4.279   0.304 -0.1392 -0.2886  0.5672
 5114TP3     H127161   1.653   4.362   0.285 -1.3683  1.1595  3.6154
 5114TP3     H227162   1.635   4.220   0.233  2.2553  2.1473 -0.6354
 5115TP3      O27163   2.693   2.501  10.023  0.3938 -0.1537  0.4012
 5115TP3     H127164   2.724   2.426  10.072 -0.9468 -0.0438  1.4407
 5115TP3     H227165   2.613   2.471   9.979 -0.7528  0.9226  1.6739
 5116TP3      O27166   0.340   4.945   9.678 -0.1947  0.1507  0.3945
 5116TP3     H127167   0.319   4.856   9.707 -0.2851 -0.0051 -0.1436
 5116TP3     H227168   0.390   4.934   9.597  1.3736  0.5502  1.2971
 5117TP3      O27169   3.879   2.790   2.572 -0.1836 -0.0052  0.2767
 5117TP3     H127170   3.793   2.795   2.530  0.1547 -2.2969 -0.7628
 5117TP3     H227171   3.863   2.741   2.653  0.2800 -1.2862 -0.3881
 5118TP3      O27172   4.768   2.494   8.721  0.2684 -0.2524 -0.0454
 5118TP3     H127173   4.759   2.438   8.798  2.1430 -0.9149 -0.2991
 5118TP3     H227174   4.860   2.521   8.722 -0.4069  2.1690 -0.3783
 5119TP3      O27175   1.458   4.110   2.374 -0.1614  0.5863 -0.1292
 5119TP3     H127176   1.514   4.187   2.359 -0.1212  0.4199 -0.8516
 5119TP3     H227177   1.415   4.129   2.457  1.2614  0.5380  0.6411
 5120TP3      O27178   2.255   2.900   2.467  0.3989  0.0611 -0.3369
 5120TP3     H127179   2.293   2.903   2.555 -1.8523 -0.9811  0.7055
 5120TP3     H227180   2.285   2.982   2.426  1.5176  0.5368  1.3587
 5121TP3      O27181   2.717   1.163   9.564  0.4375 -0.0647 -0.2143
 5121TP3     H127182   2.630   1.143   9.597  1.2269 -0.1273  1.8907
 5121TP3     H227183   2.723   1.113   9.482 -1.4217 -0.1763 -0.3038
 5122TP3      O27184   5.160   3.119   1.795  0.4556  0.5628  0.1507
 5122TP3     H127185   5.255   3.116   1.786  0.4185 -0.1328 -0.0629
 5122TP3     H227186   5.128   3.132   1.706  0.3271  0.1220  0.1316
 5123TP3      O27187   2.033   5.212   1.805 -0.2231 -0.1695  0.0264
 5123TP3     H127188   2.072   5.124   1.800  0.6085  0.1557  0.6888
 5123TP3     H227189   2.103   5.267   1.841 -0.9286  0.6519  0.1473
 5124TP3      O27190   3.683   2.266   1.842 -0.4223  0.2890 -0.3299
 5124TP3     H127191   3.752   2.201   1.824 -2.6248 -2.6700  1.4791
 5124TP3     H227192   3.629   2.265   1.763  0.2866  0.9374 -0.8344
 5125TP3      O27193   2.962   0.673   0.813 -0.4981  0.0440 -0.1316
 5125TP3     H127194   2.920   0.756   0.792 -1.2390 -0.0954  0.7938
 5125TP3     H227195   2.938   0.656   0.904  0.9010 -0.4354  0.1631
 5126TP3      O27196   0.136   0.277   8.960 -0.1438  0.0007 -0.7803
 5126TP3     H127197   0.163   0.186   8.962  1.6034  0.4696 -1.8893
 5126TP3     H227198   0.206   0.324   9.005 -1.0895  0.7795 -0.1110
 5127TP3      O27199   0.581   0.731   2.289 -0.0453 -0.1225  0.1392
 5127TP3     H127200   0.610   0.820   2.268 -0.8938  0.3013  0.7489
 5127TP3     H227201   0.628   0.709   2.370 -0.1713 -0.0713  0.2249
 5128TP3      O27202   4.378   4.478   0.352  0.4124 -0.2996  0.1308
 5128TP3     H127203   4.443   4.540   0.318  1.7667 -2.2932 -0.9832
 5128TP3     H227204   4.333   4.445   0.274 -0.0596 -0.9989  0.6919
 5129TP3      O27205   1.252   2.171   3.263 -0.1208  0.5009  0.0680
 5129TP3     H127206   1.258   2.249   3.319  0.5845 -1.1824  2.4158
 5129TP3     H227207   1.164   2.175   3.226 -0.2173  2.2319  0.4180
 5130TP3      O27208   0.322   4.266   2.093 -0.3940 -0.4779  0.4366
 5130TP3     H127209   0.283   4.266   2.005  0.2976  0.5864  0.1153
 5130TP3     H227210   0.414   4.248   2.078 -0.0951  0.6403  0.8446
 5131TP3      O27211   2.169   3.351   1.191  0.6715 -0.3671  0.1194
 5131TP3     H127212   2.173   3.375   1.283  1.2036 -0.1462  0.0388
 5131TP3     H227213   2.140   3.260   1.191 -2.6785  0.6142  0.3913
 5132TP3      O27214   4.776   4.085   2.898 -0.5329  0.1933 -0.6261
 5132TP3     H127215   4.820   4.097   2.814  2.3171  1.4255  0.9907
 5132TP3     H227216   4.702   4.147   2.895  1.7768  3.0488 -0.7732
 5133TP3      O27217   3.649   4.467   2.294  0.2549  0.3677  0.8204
 5133TP3     H127218   3.646   4.562   2.306 -0.8124  0.7157 -1.7382
 5133TP3     H227219   3.601   4.432   2.369 -0.4112  1.9457  1.1545
 5134TP3      O27220   3.275   0.817   0.387 -0.5020 -0.5047 -0.1793
 5134TP3     H127221   3.265   0.898   0.337  0.1022 -0.1173  0.3215
 5134TP3     H227222   3.221   0.830   0.465 -0.4260 -0.5913 -0.1123
 5135TP3      O27223   2.461   4.363   1.761 -0.2840  0.1399  0.1491
 5135TP3     H127224   2.413   4.298   1.709  0.1813  1.2447 -1.6882
 5135TP3     H227225   2.392   4.416   1.802 -0.6485 -0.4643  0.3281
 5136TP3      O27226   4.158   5.050   1.791  0.2607  0.1361  0.0902
 5136TP3     H127227   4.075   5.024   1.832 -0.9600 -0.3326 -2.6127
 5136TP3     H227228   4.167   5.143   1.812  0.9013 -0.6306  3.4778
 5137TP3      O27229   5.257   2.464   0.019  0.3881  0.4520 -0.3391
 5137TP3     H127230   5.291   2.552   0.038  0.6213  0.1264  0.7908
 5137TP3     H227231   5.311   2.405   0.071 -1.1972 -0.1704  0.6707
 5138TP3      O27232   3.371   0.151   0.985 -1.0622 -0.1500 -0.1408
 5138TP3     H127233   3.441   0.089   0.966 -1.7301 -0.4944 -1.5192
 5138TP3     H227234   3.415   0.223   1.031 -0.0454 -0.9880  0.2128
 5139TP3      O27235   0.275   1.345   2.442 -0.3701  0.1554 -0.0108
 5139TP3     H127236   0.370   1.357   2.447 -0.5396  1.8296 -0.5460
 5139TP3     H227237   0.239   1.408   2.503 -1.1693 -0.0355 -0.2717
 5140TP3      O27238   0.858   2.592   2.909  0.2334  0.2119 -0.0890
 5140TP3     H127239   0.813   2.613   2.991  0.9354 -0.8538  0.5757
 5140TP3     H227240   0.898   2.507   2.924 -0.0087 -0.2055 -1.7071
 5141TP3      O27241   5.102   1.863   1.176  0.4407 -0.1232 -0.3942
 5141TP3     H127242   5.099   1.927   1.105  0.4245  1.7866  1.2800
 5141TP3     H227243   5.172   1.894   1.234 -1.2083 -0.1889  1.7196
 5142TP3      O27244   1.728   1.220   8.606 -0.1114  0.6993 -0.1283
 5142TP3     H127245   1.636   1.246   8.606  0.4952  2.9439 -0.3033
 5142TP3     H227246   1.726   1.125   8.605 -2.4349  0.7191  0.1464
 5143TP3      O27247   0.493   1.748   1.075 -0.2736 -0.0828 -0.0198
 5143TP3     H127248   0.545   1.703   1.142 -1.4463 -0.0802  0.9272
 5143TP3     H227249   0.408   1.763   1.118 -1.1553 -0.3789 -1.6332
 5144TP3      O27250   1.924   1.740   0.757 -0.4841 -0.7893 -0.2696
 5144TP3     H127251   1.962   1.763   0.841  1.2886 -0.9155 -1.0126
 5144TP3     H227252   2.000   1.727   0.699 -1.5961 -2.5635 -1.3944
 5145TP3      O27253   3.684   1.636   7.685  0.0180 -0.1412  0.1548
 5145TP3     H127254   3.768   1.596   7.709 -0.9815 -1.7864  1.0023
 5145TP3     H227255   3.698   1.669   7.596  0.5912 -3.3319 -1.0092
 5146TP3      O27256   0.335   4.465   2.296 -0.2118  0.4860  0.5914
 5146TP3     H127257   0.244   4.472   2.327 -0.9759  1.1946 -1.7192
 5146TP3     H227258   0.332   4.397   2.229  0.6615  1.5480 -0.5438
 5147TP3      O27259   4.052   4.336   0.784 -0.5068  0.0974  0.2283
 5147TP3     H127260   4.115   4.267   0.763 -0.0037  0.2985  1.0223
 5147TP3     H227261   4.084   4.413   0.737  1.2860  0.8559  2.6091
 5148TP3      O27262   4.725   1.186   2.571  0.0990  0.0580  0.1964
 5148TP3     H127263   4.780   1.114   2.602  0.3647  0.0051 -0.3851
 5148TP3     H227264   4.724   1.176   2.476  1.9023  2.0851 -0.0842
 5149TP3      O27265   2.285   1.989   2.530 -0.3662  0.5263 -0.0791
 5149TP3     H127266   2.357   1.930   2.554  1.0351  1.2733 -2.3675
 5149TP3     H227267   2.214   1.930   2.503  0.2858 -0.1623 -0.3095
 5150TP3      O27268   3.335   3.423   1.092 -0.4144 -0.5446 -0.6633
 5150TP3     H127269   3.361   3.512   1.067  0.1945 -0.5614 -0.1163
 5150TP3     H227270   3.356   3.418   1.185 -3.3635 -0.2101  0.0798
 5151TP3      O27271   3.330   3.491   0.066 -1.0764 -0.3651  0.7365
 5151TP3     H127272   3.258   3.434   0.041 -1.1096 -0.2882  0.6565
 5151TP3     H227273   3.287   3.568   0.104 -1.0301 -0.4338  0.9278
 5152TP3      O27274   2.930   0.484   0.584 -0.0906  0.2502 -0.4236
 5152TP3     H127275   2.861   0.430   0.622  2.4243 -1.1357  2.4209
 5152TP3     H227276   2.948   0.550   0.651 -0.9911  2.8088 -2.5943
 5153TP3      O27277   3.919   0.123   1.020  0.1233 -0.2132  0.0765
 5153TP3     H127278   3.979   0.155   0.953  2.8761 -1.8111  1.6729
 5153TP3     H227279   3.914   0.194   1.084  0.8335 -0.3246  0.2575
 5154TP3      O27280   0.250   4.264   1.836 -0.2200 -0.3955 -0.6752
 5154TP3     H127281   0.171   4.210   1.844 -0.9090  0.7046  0.0607
 5154TP3     H227282   0.224   4.335   1.777 -0.6179  1.4586  1.6753
 5155TP3      O27283   1.413   5.067   0.264 -0.1034 -0.8313 -0.2047
 5155TP3     H127284   1.494   5.022   0.240 -0.1895 -2.6338  2.7120
 5155TP3     H227285   1.348   5.031   0.204  1.2157  0.8454 -2.7785
 5156TP3      O27286   1.228   1.804   1.576  0.5086 -0.1339 -0.2779
 5156TP3     H127287   1.261   1.883   1.536  0.6535  0.0495  0.1988
 5156TP3     H227288   1.200   1.831   1.664 -0.9826 -0.2528 -0.6913
 5157TP3      O27289   1.567   2.069   2.501 -0.1881 -1.0737  0.3196
 5157TP3     H127290   1.652   2.062   2.456 -0.4562 -0.5415 -0.2894
 5157TP3     H227291   1.573   2.152   2.549 -0.2362 -1.2069  0.5565
 5158TP3      O27292   2.398   2.690   0.339  0.1909 -0.6337  0.2893
 5158TP3     H127293   2.315   2.735   0.324  1.6483  1.4332 -1.9940
 5158TP3     H227294   2.405   2.627   0.267  1.6172  0.8246 -0.9021
 5159TP3      O27295   3.880   4.529   1.863 -0.0553  0.6011  0.1535
 5159TP3     H127296   3.832   4.597   1.816 -0.1984  0.8816  0.6945
 5159TP3     H227297   3.883   4.455   1.803 -2.5036  0.0393  0.6575
 5160TP3      O27298   1.714   2.639   2.145 -0.3996  0.4023 -0.2042
 5160TP3     H127299   1.731   2.729   2.172 -3.1142  0.8969 -0.0208
 5160TP3     H227300   1.689   2.594   2.225  0.2514 -0.3597 -0.4203
 5161TP3      O27301   4.921   4.481   1.754  0.2469  0.5898 -0.1722
 5161TP3     H127302   4.934   4.538   1.678 -0.2085  2.5373  1.1639
 5161TP3     H227303   4.918   4.541   1.829 -1.7872 -1.0337  1.1245
 5162TP3      O27304   1.805   2.086   1.243 -0.6102 -0.1984  0.2295
 5162TP3     H127305   1.845   2.147   1.180  0.0699  0.2354  1.0754
 5162TP3     H227306   1.833   2.118   1.328 -0.7987 -1.3182  0.7167
 5163TP3      O27307   5.182   1.031   3.022  0.2225 -0.5049  0.1745
 5163TP3     H127308   5.092   1.010   3.048 -0.0068 -1.5212 -1.3633
 5163TP3     H227309   5.209   1.100   3.083 -1.7791  0.1748  0.3463
 5164TP3      O27310   0.963   3.698   9.956  0.0421  0.3377 -0.3608
 5164TP3     H127311   0.879   3.725   9.920  0.3690  2.0529  0.1226
 5164TP3     H227312   1.020   3.774   9.946  0.7622  0.1209  1.7757
 5165TP3      O27313   5.032   2.134   9.933  0.0849  0.4787  0.2028
 5165TP3     H127314   5.038   2.180  10.017  1.4881 -1.4298  1.1744
 5165TP3     H227315   5.119   2.142   9.895  0.0820 -0.6105 -0.0346
 5166TP3      O27316   2.329   3.006   2.697 -0.2352 -0.0039  0.3012
 5166TP3     H127317   2.290   3.085   2.660  0.5206  0.6643  0.9160
 5166TP3     H227318   2.289   2.998   2.784  0.2423  0.1251  0.5350
 5167TP3      O27319   2.488   4.008   0.923 -0.1451  0.1823 -0.7592
 5167TP3     H127320   2.424   3.937   0.931  0.5023 -0.2458  0.7688
 5167TP3     H227321   2.570   3.964   0.899  0.5262  0.2665  1.3142
 5168TP3      O27322   3.863   0.009   0.031  0.3593 -0.0929 -0.7122
 5168TP3     H127323   3.769   0.026   0.035 -0.0275 -2.3862  1.9106
 5168TP3     H227324   3.885   0.014  -0.062 -2.5435 -0.3958 -1.4555
 5169TP3      O27325   4.369   5.202   2.564 -0.3577 -0.1082 -0.2446
 5169TP3     H127326   4.430   5.144   2.518  0.2866  2.5272 -2.9120
 5169TP3     H227327   4.422   5.244   2.632 -0.0323 -0.3125 -0.3703
 5170TP3      O27328   3.983   3.570   2.540 -0.1601  0.1644 -0.5289
 5170TP3     H127329   3.974   3.474   2.540 -1.3244  0.2595 -1.0665
 5170TP3     H227330   3.910   3.600   2.595 -1.2968  0.8473 -2.3550
 5171TP3      O27331   1.123   0.295   3.160 -0.0966 -0.2018  0.1700
 5171TP3     H127332   1.109   0.206   3.127 -1.6476  0.3108 -0.5912
 5171TP3     H227333   1.216   0.312   3.143  0.0321 -1.3770 -0.4011
 5172TP3      O27334   0.001   1.998  10.003 -0.0787 -0.1153  0.2145
 5172TP3     H127335  -0.025   2.049   9.926  0.9624  0.0489 -0.0344
 5172TP3     H227336  -0.051   1.918   9.997 -0.4479  0.1630 -0.3367
 5173TP3      O27337   4.485   0.269   0.284  0.1081  0.0412 -0.4941
 5173TP3     H127338   4.397   0.286   0.317  0.7700 -0.3796  1.6307
 5173TP3     H227339   4.494   0.326   0.208 -1.3741  1.3995  0.3164
 5174TP3      O27340   1.452   4.782   3.170 -0.1732 -0.0150  0.5232
 5174TP3     H127341   1.464   4.877   3.169 -0.3783  0.0695  2.4235
 5174TP3     H227342   1.377   4.769   3.229 -1.2262 -1.2551 -1.0617
 5175TP3      O27343   1.628   3.749   1.711  0.1620 -0.6444 -0.2125
 5175TP3     H127344   1.573   3.779   1.639 -1.8142 -0.4336  1.3391
 5175TP3     H227345   1.632   3.824   1.771  1.0335 -1.1207  0.3397
 5176TP3      O27346   3.357   3.683   2.382  0.2668  0.2140 -0.1897
 5176TP3     H127347   3.343   3.599   2.426 -1.4338  0.9779  0.7662
 5176TP3     H227348   3.304   3.746   2.431  0.7442  1.6786 -1.4806
 5177TP3      O27349   0.875   4.551   2.225 -0.6541 -0.1085  0.3232
 5177TP3     H127350   0.859   4.579   2.134 -0.9892 -1.7665 -0.1447
 5177TP3     H227351   0.966   4.523   2.226 -0.6597 -0.1215  0.4911
 5178TP3      O27352   5.247   2.121   1.236 -0.3683 -0.1420 -1.2010
 5178TP3     H127353   5.251   2.131   1.141  0.5751  2.7460 -0.9024
 5178TP3     H227354   5.334   2.147   1.267 -1.0023 -0.0086  0.5319
 5179TP3      O27355   0.630   4.427   1.868  0.4197  0.2361  0.3465
 5179TP3     H127356   0.705   4.486   1.883  0.7096  0.1663 -0.8047
 5179TP3     H227357   0.644   4.355   1.928 -0.7729  2.0894  2.9575
 5180TP3      O27358   2.365   4.143   1.985  0.2258 -0.3537  0.3679
 5180TP3     H127359   2.306   4.169   1.914 -0.0543 -1.0219  0.3496
 5180TP3     H227360   2.318   4.073   2.031  0.4276  0.0452  1.1877
 5181TP3      O27361   4.799   1.813   2.372 -0.0521 -0.1010  0.5233
 5181TP3     H127362   4.753   1.844   2.294  1.8802  0.2154 -0.5325
 5181TP3     H227363   4.801   1.889   2.431 -0.1885  0.1200  0.2423
 5182TP3      O27364   2.462   0.535   1.581 -0.2788 -0.2444  0.0833
 5182TP3     H127365   2.493   0.468   1.642  0.6355  0.1834  0.0948
 5182TP3     H227366   2.403   0.590   1.633  0.2209 -0.0935  0.4891
 5183TP3      O27367   0.135   4.609   3.268  0.2974  0.2738 -0.3283
 5183TP3     H127368   0.083   4.686   3.244 -1.3993 -1.0375 -1.0461
 5183TP3     H227369   0.197   4.599   3.196  0.8094  1.2040 -0.0250
 5184TP3      O27370   0.244   4.008   1.332 -0.3894  0.4558 -0.4522
 5184TP3     H127371   0.257   4.069   1.405  0.8089  0.5890 -0.7676
 5184TP3     H227372   0.197   3.935   1.370  1.5506 -0.1741  0.8263
 5185TP3      O27373   0.792   4.283   2.780  0.5783 -0.2926  0.7100
 5185TP3     H127374   0.829   4.327   2.703 -0.9911  1.8999  1.1463
 5185TP3     H227375   0.868   4.253   2.829  1.6476 -0.1105 -0.7816
 5186TP3      O27376   3.394   2.394   8.819  0.1293  0.0056 -0.2072
 5186TP3     H127377   3.356   2.309   8.840 -1.3681  0.9042  0.8288
 5186TP3     H227378   3.320   2.455   8.823  1.2739  1.4352 -0.4299
 5187TP3      O27379   3.490   2.661   0.133 -0.3842  0.0305 -0.0341
 5187TP3     H127380   3.419   2.705   0.179 -0.3814 -1.6470  1.6276
 5187TP3     H227381   3.517   2.590   0.192  0.8417 -1.0448 -1.8323
 5188TP3      O27382   1.255   5.066   1.804  0.4410  0.5955 -0.3606
 5188TP3     H127383   1.168   5.100   1.825  0.4063 -0.0320  0.5410
 5188TP3     H227384   1.316   5.130   1.843  0.3848 -1.0494  2.5975
 5189TP3      O27385   1.721   3.822   0.825  0.4975 -0.4593 -0.0155
 5189TP3     H127386   1.711   3.910   0.862  1.0639 -1.3489  2.3647
 5189TP3     H227387   1.647   3.813   0.765  0.2721  1.5368 -0.0748
 5190TP3      O27388   2.382   4.806   2.475 -0.1008  0.0665  0.5127
 5190TP3     H127389   2.462   4.854   2.453 -0.1472  0.0127  0.2261
 5190TP3     H227390   2.394   4.720   2.435 -0.7034  0.3630 -0.3226
 5191TP3      O27391   0.967   2.402   9.521  0.0719  0.1307 -0.0666
 5191TP3     H127392   0.910   2.445   9.585 -0.9966  0.5347 -1.2620
 5191TP3     H227393   0.926   2.316   9.507 -0.7689  0.7666 -1.5992
 5192TP3      O27394   2.041   0.787   9.796  0.4382 -0.1008 -0.1269
 5192TP3     H127395   1.952   0.811   9.770  0.8172 -1.0547 -2.4743
 5192TP3     H227396   2.095   0.813   9.722  1.9208 -0.8105  0.6872
 5193TP3      O27397   2.151   4.974   3.151  0.1100 -0.0914  0.5870
 5193TP3     H127398   2.107   4.902   3.106  0.7144 -0.5307  0.6878
 5193TP3     H227399   2.095   5.049   3.137  0.2501 -0.2418 -0.8388
 5194TP3      O27400   1.085   4.478   3.401 -0.2224 -0.2881  0.3621
 5194TP3     H127401   1.057   4.426   3.326 -0.0360 -0.6269  0.5261
 5194TP3     H227402   1.026   4.452   3.472 -1.2754  1.0242 -0.0222
 5195TP3      O27403   5.251   0.893   9.281 -0.0237  0.3262  0.0322
 5195TP3     H127404   5.290   0.827   9.339  0.1670 -0.6144 -1.1457
 5195TP3     H227405   5.295   0.974   9.304 -0.0767 -0.0027  1.3278
 5196TP3      O27406   0.704   3.712   0.636  0.0784 -0.4265 -0.6176
 5196TP3     H127407   0.718   3.800   0.673 -0.1630 -1.0310  0.9409
 5196TP3     H227408   0.763   3.709   0.560  0.7351  0.7682 -0.1781
 5197TP3      O27409   1.858   1.329   0.682  0.4536 -0.7392  0.0628
 5197TP3     H127410   1.879   1.294   0.596  0.9398  1.8569 -0.9387
 5197TP3     H227411   1.941   1.368   0.712  0.1014 -0.9866  1.3865
 5198TP3      O27412   0.001   2.632   1.786 -0.3322  0.9034 -0.2061
 5198TP3     H127413  -0.058   2.703   1.809 -1.1593  0.2956 -0.4560
 5198TP3     H227414   0.059   2.669   1.720 -1.1938  1.1477 -0.8296
 5199TP3      O27415   4.913   4.554   2.187  0.5723 -0.7812 -0.3118
 5199TP3     H127416   4.884   4.637   2.225 -0.0236 -1.4926  0.8122
 5199TP3     H227417   4.911   4.570   2.092 -2.2365 -0.3694 -0.2453
 5200TP3      O27418   0.500   4.759   0.473  0.4482  0.1623  0.1452
 5200TP3     H127419   0.474   4.823   0.539 -0.3002  0.5920 -0.5690
 5200TP3     H227420   0.463   4.791   0.392 -1.2007 -1.9552  0.0167
 5201TP3      O27421   4.279   1.530   8.394  0.1354 -0.0608  0.4992
 5201TP3     H127422   4.265   1.465   8.325  0.1485 -1.2908  1.6471
 5201TP3     H227423   4.369   1.560   8.381  0.1465 -0.2988  0.0006
 5202TP3      O27424   0.256   4.612   2.727 -0.0168  0.5094 -0.2419
 5202TP3     H127425   0.241   4.559   2.805 -0.0382 -0.7932 -1.1180
 5202TP3     H227426   0.201   4.572   2.660  1.3738  0.5101 -1.4033
 5203TP3      O27427   5.273   3.843   0.238 -0.1124 -0.2391  0.8493
 5203TP3     H127428   5.247   3.908   0.172  0.7752 -0.9746 -0.2390
 5203TP3     H227429   5.190   3.807   0.269 -0.6187  1.4103  1.4825
 5204TP3      O27430   0.543   0.185   2.528 -0.1729  0.2061  0.7796
 5204TP3     H127431   0.463   0.234   2.508 -1.0633 -0.8591  1.7343
 5204TP3     H227432   0.603   0.210   2.457 -0.9683  1.8426  0.6501
 5205TP3      O27433   4.070   2.889   0.674 -0.3325 -0.3236  0.0115
 5205TP3     H127434   4.018   2.886   0.755 -1.0906 -0.8496 -0.4884
 5205TP3     H227435   4.005   2.891   0.604  0.3241  0.2704 -0.5864
 5206TP3      O27436   4.045   4.455   1.434  0.0446 -0.1786 -0.0138
 5206TP3     H127437   3.955   4.485   1.418  0.3917  0.5891 -0.5485
 5206TP3     H227438   4.038   4.402   1.514 -0.8258  0.1556  0.1444
 5207TP3      O27439   0.822   2.893  10.022  0.3210 -0.0456 -0.0351
 5207TP3     H127440   0.781   2.971   9.984 -0.5551 -0.1010  0.7570
 5207TP3     H227441   0.905   2.884   9.975  0.6779  1.6595  0.2166
 5208TP3      O27442   3.289   0.707   2.492  0.0751 -0.4251  0.2871
 5208TP3     H127443   3.293   0.697   2.397 -1.0946 -0.3844  0.2291
 5208TP3     H227444   3.362   0.655   2.525  0.1659 -0.8601 -0.6048
 5209TP3      O27445   3.544   2.367   1.490  0.5756 -0.2965 -0.0219
 5209TP3     H127446   3.605   2.323   1.431  1.9256 -0.5826  1.5642
 5209TP3     H227447   3.524   2.450   1.446 -0.5854 -1.6647 -2.1741
 5210TP3      O27448   0.401   2.484   9.362 -0.3491 -0.3196  0.0265
 5210TP3     H127449   0.317   2.461   9.403 -0.4628  0.1362  0.0466
 5210TP3     H227450   0.422   2.409   9.307 -0.5750 -0.6066  0.3288
 5211TP3      O27451   4.641   5.215   1.563  0.0570  0.1966  0.2122
 5211TP3     H127452   4.557   5.252   1.588 -0.5628 -0.3132 -1.0704
 5211TP3     H227453   4.639   5.125   1.595  0.6339  0.5465  1.2800
 5212TP3      O27454   0.980   0.787   2.468 -0.8069  0.0541 -0.5551
 5212TP3     H127455   0.965   0.881   2.479  1.7583  0.4156  0.1967
 5212TP3     H227456   0.981   0.752   2.557 -0.1588 -0.4067 -0.7381
 5213TP3      O27457   5.221   4.286   1.190 -0.0078 -0.0423  0.1199
 5213TP3     H127458   5.278   4.306   1.115  0.1102  0.1638  0.2630
 5213TP3     H227459   5.280   4.288   1.265 -0.1860  0.0795  0.2562
 5214TP3      O27460   1.977   3.494   2.071 -0.1892  0.8017  0.8559
 5214TP3     H127461   1.982   3.441   1.991  0.1538  1.7773  0.2276
 5214TP3     H227462   1.986   3.430   2.141 -2.8739 -0.3731  0.1964
 5215TP3      O27463   2.414   2.456   0.875  0.1878 -0.0659  0.1459
 5215TP3     H127464   2.402   2.549   0.890 -1.3915 -0.6422  2.6892
 5215TP3     H227465   2.470   2.427   0.947 -0.3984 -1.3328  0.0989
 5216TP3      O27466   0.173   4.500   3.519  0.2411  0.2492  0.5016
 5216TP3     H127467   0.194   4.512   3.427  0.7039 -0.5029  0.5081
 5216TP3     H227468   0.093   4.552   3.533  0.2894  0.5282 -0.2653
 5217TP3      O27469   0.748   0.792   9.994 -0.0281  0.3196  0.1234
 5217TP3     H127470   0.814   0.728   9.969  1.4306  1.0168  2.0398
 5217TP3     H227471   0.777   0.873   9.954  0.0881  0.5447  0.6574
 5218TP3      O27472   2.927   3.436   0.810  0.3982  0.2000  0.6912
 5218TP3     H127473   2.944   3.527   0.834  0.6044  0.5111 -0.6369
 5218TP3     H227474   2.832   3.426   0.820  0.2258  0.8742 -0.2347
 5219TP3      O27475   2.381   1.581   0.186  0.6419 -0.0152 -0.3043
 5219TP3     H127476   2.375   1.674   0.163  0.2703  0.3932  1.4095
 5219TP3     H227477   2.409   1.539   0.104  0.5346  1.5524 -1.1828
 5220TP3      O27478   0.825   4.229  10.052 -0.5665  0.1227 -0.0967
 5220TP3     H127479   0.910   4.230  10.007 -1.0247 -1.6478 -1.0482
 5220TP3     H227480   0.764   4.268   9.989 -0.7702 -0.1240 -0.0492
 5221TP3      O27481   3.496   5.022   0.499  0.0830  0.4016  0.3087
 5221TP3     H127482   3.583   5.010   0.536  0.4961  1.1290 -0.4128
 5221TP3     H227483   3.499   5.108   0.457 -1.3251  0.9291  1.2336
 5222TP3      O27484   1.307   4.709   2.942  0.0982  0.3138  0.5898
 5222TP3     H127485   1.372   4.725   3.011  1.4375  0.1366 -0.6207
 5222TP3     H227486   1.274   4.621   2.960 -0.2876  0.6529  1.5823
 5223TP3      O27487   5.264   3.105   0.939  0.1422 -0.3940 -0.2622
 5223TP3     H127488   5.241   3.198   0.945  1.4067 -0.1377  0.6203
 5223TP3     H227489   5.277   3.090   0.846  2.3435  0.9045 -0.1801
 5224TP3      O27490   4.988   3.542   1.338  0.1851  0.5209  0.4400
 5224TP3     H127491   4.913   3.601   1.327 -0.4343 -0.0117  1.6568
 5224TP3     H227492   4.999   3.535   1.433  1.2943 -0.0116  0.2759
 5225TP3      O27493   3.864   0.822   8.198  0.1544 -0.4540  0.2795
 5225TP3     H127494   3.811   0.746   8.221  0.2548 -0.6833 -0.2412
 5225TP3     H227495   3.954   0.789   8.199  0.1690 -0.4291 -0.2946
 5226TP3      O27496   3.118   3.393  10.144 -0.8019  0.5085  0.6463
 5226TP3     H127497   3.064   3.330  10.192  0.1522 -0.2101  0.8030
 5226TP3     H227498   3.149   3.344  10.068 -1.8396  1.4687 -0.4220
 5227TP3      O27499   2.320   2.970   1.023  1.2077  0.4227 -0.5902
 5227TP3     H127500   2.233   3.004   1.045  0.6878 -0.7926 -0.6821
 5227TP3     H227501   2.364   3.042   0.978  0.3874  1.1805 -0.1791
 5228TP3      O27502   2.896   2.158   1.510 -0.2496 -0.1144  0.3210
 5228TP3     H127503   2.833   2.094   1.477 -0.3872 -0.6663  1.6208
 5228TP3     H227504   2.844   2.236   1.530 -0.3990 -0.2997  0.6561
 5229TP3      O27505   3.152   4.086   2.615 -0.2380 -0.1671  0.0739
 5229TP3     H127506   3.240   4.049   2.616 -0.1248  0.0956 -0.0869
 5229TP3     H227507   3.146   4.137   2.695 -0.6947 -1.2256  0.7287
 5230TP3      O27508   4.847   1.783   0.642 -0.0872 -0.4765  0.2111
 5230TP3     H127509   4.805   1.707   0.682  1.2246 -0.2810  2.0106
 5230TP3     H227510   4.909   1.814   0.708  0.7399  1.0338 -1.2317
 5231TP3      O27511   1.192   3.697   3.221 -0.0272 -0.4529 -0.6244
 5231TP3     H127512   1.109   3.680   3.175 -0.1178 -1.0102 -0.2551
 5231TP3     H227513   1.235   3.611   3.225  1.6509  0.2355 -2.9144
 5232TP3      O27514   3.590   0.703   9.121 -0.2987 -0.2179 -0.0341
 5232TP3     H127515   3.612   0.796   9.113 -2.0178  0.2375  0.1255
 5232TP3     H227516   3.624   0.677   9.206 -0.2703  0.4191  0.1493
 5233TP3      O27517   2.211   1.123   1.967 -0.1207 -0.4687 -0.2612
 5233TP3     H127518   2.164   1.162   2.040  2.3181  1.4597  0.3775
 5233TP3     H227519   2.206   1.189   1.897 -0.5977 -1.3756 -1.0956
 5234TP3      O27520   2.202   3.967   2.711 -0.0826 -0.0440  0.0058
 5234TP3     H127521   2.298   3.961   2.711 -0.0846 -0.6023  2.9649
 5234TP3     H227522   2.180   4.013   2.792 -2.3192  0.1355 -0.6646
 5235TP3      O27523   5.182   3.780   1.509  0.2432  0.7090 -0.0573
 5235TP3     H127524   5.119   3.790   1.580 -0.0773 -0.1100 -0.2300
 5235TP3     H227525   5.212   3.690   1.516 -0.6219  0.2877 -1.6509
 5236TP3      O27526   1.800   3.943  10.057 -0.4255  0.2483  0.3093
 5236TP3     H127527   1.788   3.861  10.009  0.2004  0.6112 -0.4904
 5236TP3     H227528   1.885   3.932  10.101 -1.2374 -0.2932  1.7884
 5237TP3      O27529   5.146   2.508   1.544  0.1693  0.6842 -0.5385
 5237TP3     H127530   5.224   2.455   1.532  1.4811  2.6296 -0.8185
 5237TP3     H227531   5.092   2.489   1.467 -0.4087 -1.8959  0.4598
 5238TP3      O27532   3.426   4.799   8.238  0.0184 -0.4843 -0.1680
 5238TP3     H127533   3.490   4.852   8.189  0.6755 -1.6871 -0.6419
 5238TP3     H227534   3.341   4.835   8.211  0.4788  1.2525  0.6063
 5239TP3      O27535   4.331   0.248   8.386  0.0740 -0.0403 -0.4884
 5239TP3     H127536   4.363   0.160   8.406  1.0891  0.6542  1.0524
 5239TP3     H227537   4.246   0.234   8.344  1.4691 -1.8350 -2.7499
 5240TP3      O27538   4.968   0.162   0.921 -0.4619  0.5070 -0.2812
 5240TP3     H127539   5.043   0.156   0.980 -0.2583 -0.0813 -0.5958
 5240TP3     H227540   4.981   0.091   0.858 -1.3335  0.3351 -0.2727
 5241TP3      O27541   4.840   5.094   8.961  1.0894 -0.1110  0.1352
 5241TP3     H127542   4.916   5.107   9.018  1.0905 -0.9716  0.3437
 5241TP3     H227543   4.878   5.071   8.876  1.1226  2.6929 -0.6552
 5242TP3      O27544   3.329   3.334   1.725  0.5267 -1.0421 -0.0338
 5242TP3     H127545   3.312   3.288   1.807 -0.8664 -2.3909 -1.0566
 5242TP3     H227546   3.382   3.272   1.674  3.1172  0.5797  0.6066
 5243TP3      O27547   0.417   3.247   8.773 -0.1991  0.3028 -0.1608
 5243TP3     H127548   0.415   3.192   8.695 -0.5396  1.1646 -0.7673
 5243TP3     H227549   0.328   3.280   8.782 -1.3465 -3.2324  3.1118
 5244TP3      O27550   1.744   4.417   1.815  0.0322 -0.5523 -0.2572
 5244TP3     H127551   1.737   4.328   1.780  0.1909 -0.5604 -0.2686
 5244TP3     H227552   1.835   4.426   1.841 -0.2102 -0.7599  0.7156
 5245TP3      O27553   1.736   3.027   2.368 -0.2266  0.4408 -0.0116
 5245TP3     H127554   1.666   3.007   2.431 -1.4495  1.8626 -0.8645
 5245TP3     H227555   1.782   3.102   2.407 -1.0553  1.3946 -0.8236
 5246TP3      O27556   1.411   0.063   2.314  0.1177  0.0306 -0.1114
 5246TP3     H127557   1.358  -0.012   2.291  0.0102 -0.8200  2.6948
 5246TP3     H227558   1.496   0.026   2.338  0.0830  0.7744  1.2410
 5247TP3      O27559   2.184   1.243   8.852 -0.0806 -0.0534 -0.1727
 5247TP3     H127560   2.196   1.182   8.924  0.0332 -0.6024 -0.6535
 5247TP3     H227561   2.120   1.200   8.795  0.6306 -0.1031 -0.9355
 5248TP3      O27562   4.547   0.973  10.065 -0.4864 -0.4451  0.2252
 5248TP3     H127563   4.534   0.897  10.009 -1.3828 -0.9440  1.1010
 5248TP3     H227564   4.617   0.947  10.125 -0.9553 -0.6639  0.6771
 5249TP3      O27565   0.626   2.357   0.692 -0.7018 -0.3163  0.2215
 5249TP3     H127566   0.556   2.334   0.630 -2.0709 -0.2708  1.7109
 5249TP3     H227567   0.679   2.422   0.644 -3.7243  2.3500  0.2618
 5250TP3      O27568   0.449   0.168   2.011 -0.3049 -0.1000  0.3550
 5250TP3     H127569   0.399   0.162   2.093  1.5463  1.4157  1.6476
 5250TP3     H227570   0.453   0.261   1.992  0.1350 -0.3708 -0.9270
 5251TP3      O27571   3.880   1.556   1.532 -0.3824  0.2685 -0.4803
 5251TP3     H127572   3.861   1.601   1.615  0.6847 -2.2146  1.1835
 5251TP3     H227573   3.912   1.625   1.474  0.0389  1.8568  1.5824
 5252TP3      O27574   4.960   4.211   1.450 -0.2451 -0.3679 -0.0482
 5252TP3     H127575   4.907   4.175   1.379  0.6214 -2.5086  0.3649
 5252TP3     H227576   4.901   4.212   1.526  0.1894 -2.5434  0.3547
 5253TP3      O27577   0.491   4.220   3.370  0.9252  0.2220 -0.0176
 5253TP3     H127578   0.522   4.258   3.452  4.0911 -1.1241 -0.5065
 5253TP3     H227579   0.559   4.243   3.306 -0.5322 -0.3934 -1.8200
 5254TP3      O27580   1.272   4.813   1.777  0.0500  0.4107 -0.3587
 5254TP3     H127581   1.234   4.761   1.849  1.1184  0.0841 -0.0138
 5254TP3     H227582   1.242   4.902   1.794 -0.8769  0.0984 -0.3154
 5255TP3      O27583   4.086   1.024   0.748 -0.5597  0.0757 -0.0476
 5255TP3     H127584   4.129   1.028   0.834 -1.2027 -1.6792  0.3608
 5255TP3     H227585   4.141   1.080   0.692  2.4814 -2.3478  0.3604
 5256TP3      O27586   2.018   1.300   0.319 -0.0911 -0.5381  0.2110
 5256TP3     H127587   2.091   1.352   0.351  0.2212 -2.1296  2.2028
 5256TP3     H227588   1.991   1.247   0.394 -1.3881 -2.1082 -1.2957
 5257TP3      O27589   1.301   3.526   3.438  1.1296 -0.1083 -0.0762
 5257TP3     H127590   1.271   3.612   3.411  4.6852  0.7590 -1.5737
 5257TP3     H227591   1.311   3.476   3.357  2.8805 -0.5918  0.4051
 5258TP3      O27592   2.257   3.884   8.629 -0.2291  0.0502  0.1858
 5258TP3     H127593   2.266   3.815   8.694  0.2330  0.8490  0.9798
 5258TP3     H227594   2.190   3.853   8.569 -0.1014 -1.0313  0.6081
 5259TP3      O27595   0.632   3.903   1.557 -0.5056 -0.0765 -0.0990
 5259TP3     H127596   0.554   3.902   1.612 -0.0657 -1.4644  0.5271
 5259TP3     H227597   0.664   3.812   1.558 -0.5146 -0.1586 -2.6851
 5260TP3      O27598   4.059   1.277   8.385 -0.0351 -0.2067  0.6381
 5260TP3     H127599   3.987   1.217   8.408 -0.1239 -0.2422  0.2687
 5260TP3     H227600   4.103   1.234   8.312  0.0736  0.0477  0.5557
 5261TP3      O27601   0.833   2.026   9.074  0.0592  0.0195  0.4262
 5261TP3     H127602   0.909   2.069   9.114  1.1315 -0.0044 -1.5457
 5261TP3     H227603   0.762   2.089   9.086  0.6055  0.4675  1.4258
 5262TP3      O27604   3.568   4.309   9.776  0.0118 -0.1334 -0.0443
 5262TP3     H127605   3.657   4.291   9.747 -0.7072 -4.0534  0.0179
 5262TP3     H227606   3.575   4.392   9.823  3.1918  0.7445 -1.9059
 5263TP3      O27607   2.453   0.417   0.496  0.1101  0.2956  0.1940
 5263TP3     H127608   2.482   0.473   0.424 -0.4277 -0.5553 -0.6982
 5263TP3     H227609   2.366   0.449   0.518 -0.0606  0.0350 -0.0924
 5264TP3      O27610   4.825   3.984   1.902 -0.3090  0.5745 -0.3020
 5264TP3     H127611   4.744   3.959   1.946  1.8750 -2.0313  2.5163
 5264TP3     H227612   4.863   4.052   1.958  0.7626 -0.1987 -0.0664
 5265TP3      O27613   2.431   0.604   0.301  0.0388 -0.2788  0.2322
 5265TP3     H127614   2.352   0.601   0.246 -0.4317  0.6411  0.8429
 5265TP3     H227615   2.502   0.580   0.242 -0.6838 -1.0011 -0.3566
 5266TP3      O27616   1.070   0.747   2.737  0.3530  0.5766  0.0368
 5266TP3     H127617   1.155   0.771   2.773 -0.4177  0.9658  1.6279
 5266TP3     H227618   1.074   0.651   2.731  0.7315  0.5524  0.5690
 5267TP3      O27619   2.024   3.604   7.330  0.0838  0.1316  0.5459
 5267TP3     H127620   2.079   3.575   7.257  0.3294 -0.9799  1.1582
 5267TP3     H227621   2.018   3.699   7.319  0.1957 -0.0113 -0.8644
 5268TP3      O27622   1.729   0.106   2.220  0.1148  0.3254  0.1251
 5268TP3     H127623   1.678   0.072   2.293 -1.2165  0.8424 -0.5518
 5268TP3     H227624   1.712   0.200   2.220 -0.4188  0.2425 -1.2471
 5269TP3      O27625   0.199   4.431   1.636 -0.5578  0.1362  0.4192
 5269TP3     H127626   0.284   4.467   1.661 -0.0171 -2.6297  2.8123
 5269TP3     H227627   0.136   4.494   1.670  0.4653  0.8368  1.0616
 5270TP3      O27628   1.665   1.093   0.871 -0.5727 -0.5073  0.2408
 5270TP3     H127629   1.747   1.065   0.911  0.1525 -1.1113 -1.6518
 5270TP3     H227630   1.656   1.185   0.897  0.7725 -0.3886  0.3067
 5271TP3      O27631   2.247   4.555   0.866 -0.2279  0.4815  0.4429
 5271TP3     H127632   2.229   4.481   0.808 -1.8457 -1.0784  2.8381
 5271TP3     H227633   2.338   4.543   0.893 -0.5826 -0.8750  1.0930
 5272TP3      O27634   3.389   1.491   1.340 -0.4918  0.1225 -0.4367
 5272TP3     H127635   3.314   1.550   1.333 -0.8511 -0.5739 -2.9387
 5272TP3     H227636   3.365   1.415   1.288  1.1680 -0.9704  0.3330
 5273TP3      O27637   2.307   4.364   2.555  0.1808  0.6014  0.1850
 5273TP3     H127638   2.359   4.285   2.570  0.0906  0.3014 -1.0651
 5273TP3     H227639   2.222   4.332   2.526  0.0312  1.1518  0.0179
 5274TP3      O27640   0.381   1.410   0.933 -0.4840 -0.4204  0.6075
 5274TP3     H127641   0.395   1.405   1.028  0.8658 -2.0455  0.3650
 5274TP3     H227642   0.435   1.483   0.904  1.1128 -1.4962  0.7903
 5275TP3      O27643   1.345   2.366   8.753 -0.5446  0.3274  0.1404
 5275TP3     H127644   1.340   2.460   8.766  0.8705  0.4431 -0.0648
 5275TP3     H227645   1.436   2.343   8.774 -1.1588 -1.1619  1.2568
 5276TP3      O27646   4.933   4.431   9.165  0.1387 -0.6888 -0.0140
 5276TP3     H127647   4.933   4.523   9.140  2.3063 -0.0131  2.2202
 5276TP3     H227648   5.003   4.392   9.113  1.1689 -0.4109  1.1363
 5277TP3      O27649   0.168   3.407   2.661  0.5297  0.0140  0.4531
 5277TP3     H127650   0.141   3.425   2.751  2.2862 -2.1337  1.4619
 5277TP3     H227651   0.193   3.492   2.625 -0.2051  0.8851  1.9795
 5278TP3      O27652   4.100   2.523   1.532  0.0127 -0.4526  0.2876
 5278TP3     H127653   4.087   2.430   1.513 -0.4303 -0.4903  0.7748
 5278TP3     H227654   4.017   2.551   1.569  0.4295 -0.0582  0.9180
 5279TP3      O27655   4.554   0.435   2.305  0.2521  0.0842 -0.0794
 5279TP3     H127656   4.552   0.346   2.340  0.9682 -0.0056 -0.2579
 5279TP3     H227657   4.466   0.469   2.320 -0.2090 -0.8697 -0.5609
 5280TP3      O27658   4.882   3.050   0.900 -0.0108 -0.0190  0.3986
 5280TP3     H127659   4.890   3.102   0.979 -0.3699  1.1034 -0.2950
 5280TP3     H227660   4.911   3.108   0.830 -1.4153 -0.3773 -0.5049
 5281TP3      O27661   2.354   2.476   8.615 -0.1497 -0.6528  0.0876
 5281TP3     H127662   2.342   2.528   8.535 -0.7874 -0.2412  0.4405
 5281TP3     H227663   2.293   2.403   8.605 -0.5106 -0.3920  0.3666
 5282TP3      O27664   2.952   1.275   9.583 -0.1041  0.6906 -0.3589
 5282TP3     H127665   2.867   1.241   9.610  0.8961 -2.0984 -0.5005
 5282TP3     H227666   2.944   1.289   9.489  0.1942 -1.6161 -0.7638
 5283TP3      O27667   1.112   2.034   2.995  0.2070  0.1724 -0.0189
 5283TP3     H127668   1.202   2.064   2.984 -0.1231  0.9621 -0.5751
 5283TP3     H227669   1.073   2.095   3.057 -0.5514  1.1175 -1.3876
 5284TP3      O27670   2.707   2.887   1.724  0.3062 -0.6333  0.1903
 5284TP3     H127671   2.655   2.816   1.686  0.2248  0.2275 -1.3210
 5284TP3     H227672   2.691   2.962   1.668  0.6470  0.5148  1.6066
 5285TP3      O27673   0.151   2.807   1.597 -0.4530 -0.2626  0.0435
 5285TP3     H127674   0.113   2.881   1.549  0.0504 -1.6634 -2.5759
 5285TP3     H227675   0.206   2.849   1.664 -0.2627  1.7602 -1.3062
 5286TP3      O27676   1.591   2.927   2.146 -0.3922 -0.4337  0.5013
 5286TP3     H127677   1.632   2.977   2.217  0.2667 -1.2798  0.7353
 5286TP3     H227678   1.513   2.888   2.186 -0.1457 -0.7239  0.7021
 5287TP3      O27679   2.342   0.709   9.979  0.8756  0.2318  0.2737
 5287TP3     H127680   2.367   0.626   9.939 -0.4903  1.0986 -2.5484
 5287TP3     H227681   2.408   0.771   9.948 -0.6979  1.0944 -1.4529
 5288TP3      O27682   2.291   2.538   2.680 -0.0215  0.1740  0.2087
 5288TP3     H127683   2.323   2.472   2.740 -1.0512  0.0144  0.5982
 5288TP3     H227684   2.237   2.596   2.734  1.1067  1.5113 -0.0633
 5289TP3      O27685   3.749   3.658   2.693 -0.3927  0.9161 -0.2581
 5289TP3     H127686   3.657   3.655   2.666 -0.0101 -1.1964 -1.5029
 5289TP3     H227687   3.749   3.625   2.783 -0.7509 -0.2899 -0.6795
 5290TP3      O27688   1.201   4.536   0.974 -0.3839 -0.1630  0.0072
 5290TP3     H127689   1.195   4.462   0.914  0.3545  0.6592 -1.0798
 5290TP3     H227690   1.116   4.580   0.966 -0.8008 -0.8353  0.6080
 5291TP3      O27691   1.258   0.821   2.926  0.2425  0.0910  0.2848
 5291TP3     H127692   1.275   0.913   2.947  0.8809 -0.3104  1.6026
 5291TP3     H227693   1.203   0.789   2.997  1.0298 -0.8607  0.4806
 5292TP3      O27694   3.471   4.594   8.561 -0.1383  0.1916  0.0543
 5292TP3     H127695   3.459   4.678   8.607 -0.8964 -0.3033  0.7718
 5292TP3     H227696   3.431   4.529   8.619  2.1629 -0.9356  0.4361
 5293TP3      O27697   5.080   5.244   1.380 -0.4519 -0.6232 -0.0977
 5293TP3     H127698   5.121   5.327   1.402  2.1245 -1.6158 -0.9952
 5293TP3     H227699   5.105   5.185   1.452  0.3154 -1.4204 -1.0092
 5294TP3      O27700   3.560   4.323   0.379 -0.2426  0.1603 -0.2324
 5294TP3     H127701   3.484   4.374   0.406 -0.9057 -0.4905 -0.8501
 5294TP3     H227702   3.622   4.389   0.347  0.1155  0.8352  1.7818
 5295TP3      O27703   3.375   2.854   0.368  0.2470  0.1604  0.5274
 5295TP3     H127704   3.325   2.857   0.449  0.9831 -0.7212  1.0134
 5295TP3     H227705   3.459   2.815   0.392  1.2496  1.7749 -0.2543
 5296TP3      O27706   1.711   0.138   2.627  0.0493 -0.9689 -0.0951
 5296TP3     H127707   1.635   0.192   2.607  0.7931 -0.0486 -0.4724
 5296TP3     H227708   1.687   0.089   2.705 -1.5172 -1.8360 -1.1041
 5297TP3      O27709   3.750   2.834   1.309 -0.0776 -0.5077  0.6860
 5297TP3     H127710   3.823   2.808   1.253 -0.1655 -1.8545  1.1884
 5297TP3     H227711   3.787   2.897   1.370  0.0116  1.0182 -0.9066
 5298TP3      O27712   1.296   1.217   1.019 -0.9638  0.1626 -0.1534
 5298TP3     H127713   1.338   1.149   1.072 -1.2840 -0.1419 -0.2874
 5298TP3     H227714   1.369   1.259   0.973 -0.6886  0.4010  0.4950
 5299TP3      O27715   0.284   0.915   0.609 -0.1786 -0.4213 -0.2960
 5299TP3     H127716   0.308   1.008   0.612  3.1681 -1.2098 -0.1383
 5299TP3     H227717   0.268   0.893   0.701 -1.5295  0.1248 -0.3955
 5300TP3      O27718   0.721   1.611  10.078 -0.2080 -0.1395  0.0703
 5300TP3     H127719   0.813   1.605  10.050 -0.0884 -1.9187  0.7494
 5300TP3     H227720   0.677   1.658  10.007  1.2648  0.9748 -0.1454
 5301TP3      O27721   1.565   0.758  10.028  0.6461 -0.1428  0.6312
 5301TP3     H127722   1.633   0.764  10.095 -0.7280  0.5813  1.9714
 5301TP3     H227723   1.583   0.832   9.969  0.9719  0.1062  1.0396
 5302TP3      O27724   2.509   4.519   7.022  0.1694 -0.3192  0.4083
 5302TP3     H127725   2.479   4.438   7.064  0.1832 -1.1554 -1.1260
 5302TP3     H227726   2.604   4.512   7.022  0.2441  0.6398  2.0558
 5303TP3      O27727   0.158   1.060   8.880  0.0431 -0.0645 -0.2800
 5303TP3     H127728   0.181   0.996   8.812  0.4690 -0.8351  0.5838
 5303TP3     H227729   0.131   1.138   8.831  0.1753 -0.6739 -1.3367
 5304TP3      O27730   2.008   3.878   1.149  0.9214  0.4590 -0.6698
 5304TP3     H127731   1.992   3.972   1.156  0.5027  0.3008  0.7660
 5304TP3     H227732   2.101   3.868   1.168  0.8204  0.5154 -0.1439
 5305TP3      O27733   0.223   0.498   1.568 -0.4734  0.0022  0.1926
 5305TP3     H127734   0.217   0.574   1.625 -3.0093 -0.4939  0.6357
 5305TP3     H227735   0.182   0.427   1.617 -0.1835 -1.1088 -1.1248
 5306TP3      O27736   0.855   4.981   3.381 -0.3848 -0.7147 -0.0189
 5306TP3     H127737   0.814   5.025   3.456 -1.7916 -2.1021  0.0453
 5306TP3     H227738   0.794   4.994   3.309  0.4320 -0.3507 -0.6582
 5307TP3      O27739   2.558   0.453   1.242  0.0903  0.1990  0.1180
 5307TP3     H127740   2.621   0.521   1.215  1.4877 -1.2686 -0.4181
 5307TP3     H227741   2.613   0.376   1.258 -1.5200 -0.8957  0.3953
 5308TP3      O27742   0.424   2.278   2.836  0.3027  0.4529  0.2718
 5308TP3     H127743   0.404   2.215   2.767  0.4495 -1.4998  1.9776
 5308TP3     H227744   0.471   2.348   2.791  0.7873 -0.9963 -1.5326
 5309TP3      O27745   2.259   1.856   8.870 -0.0428  0.3955 -0.5612
 5309TP3     H127746   2.330   1.838   8.808 -0.1838 -1.1829 -0.3014
 5309TP3     H227747   2.260   1.781   8.929 -0.4098  1.5244  0.8935
 5310TP3      O27748   4.643   3.739   1.598 -0.4132 -0.1566 -0.1179
 5310TP3     H127749   4.683   3.767   1.515 -1.6343  1.5789 -0.1439
 5310TP3     H227750   4.686   3.656   1.618  1.5162  0.5151 -1.3347
 5311TP3      O27751   3.062   0.321   8.145  0.2418  0.7149  0.3013
 5311TP3     H127752   3.097   0.410   8.144 -0.7147  1.1335  1.6920
 5311TP3     H227753   2.971   0.331   8.116  0.7051 -0.0837 -1.4468
 5312TP3      O27754   3.793   3.678   1.933  0.3877  0.5479 -0.1439
 5312TP3     H127755   3.793   3.675   2.029  0.4616  0.7652 -0.1370
 5312TP3     H227756   3.750   3.597   1.907  1.6315 -0.1851  0.0597
 5313TP3      O27757   1.623   3.315   3.350  0.6777 -0.5873 -0.0217
 5313TP3     H127758   1.593   3.342   3.263  0.6840  1.7065  0.6635
 5313TP3     H227759   1.679   3.387   3.380 -0.8665 -0.4431  2.6847
 5314TP3      O27760   4.514   2.985   1.900  0.1840  0.1594  0.2040
 5314TP3     H127761   4.457   3.036   1.957 -0.3761 -0.0635 -0.1427
 5314TP3     H227762   4.515   3.033   1.817  1.3521  0.7163  0.5445
 5315TP3      O27763   4.245   0.430   8.051 -0.3228 -0.2936 -0.0751
 5315TP3     H127764   4.340   0.426   8.051 -0.3363 -0.7927  0.9719
 5315TP3     H227765   4.220   0.419   7.960  0.7647  3.5537 -0.9612
 5316TP3      O27766   4.307   4.412   1.467  0.2921  0.3411  0.1426
 5316TP3     H127767   4.213   4.424   1.452  0.0090 -1.7772  0.1457
 5316TP3     H227768   4.320   4.318   1.462  2.3652  0.5953  0.5533
 5317TP3      O27769   4.052   3.772   2.001  0.2039 -0.2554  0.1324
 5317TP3     H127770   4.023   3.797   2.088  0.2184  0.6746 -0.1252
 5317TP3     H227771   3.973   3.743   1.956  0.2948 -1.3313  0.6475
 5318TP3      O27772   0.646   1.721   7.673  0.2425  0.2512  0.0866
 5318TP3     H127773   0.697   1.678   7.604  0.3686  1.9012 -0.8739
 5318TP3     H227774   0.700   1.795   7.701  0.9954 -1.4577  3.2671
 5319TP3      O27775   3.991   0.553   9.256 -0.1764  0.0312  0.3658
 5319TP3     H127776   4.014   0.519   9.343  1.1011 -0.9529 -0.3328
 5319TP3     H227777   4.076   0.563   9.212 -0.7272  1.7203 -0.3346
 5320TP3      O27778   1.739   2.886   1.311  0.2214 -0.4085 -0.0624
 5320TP3     H127779   1.826   2.858   1.284  0.3103 -0.0379 -0.1622
 5320TP3     H227780   1.711   2.820   1.374  0.2287 -0.9934 -0.6659
 5321TP3      O27781   1.227   3.980   1.347  0.1805  0.1239  0.4614
 5321TP3     H127782   1.266   4.027   1.273 -1.8794  0.8462 -0.1951
 5321TP3     H227783   1.241   4.037   1.422 -0.8332  1.0628 -0.0340
 5322TP3      O27784   0.132   3.475   1.739 -0.0279  0.4897 -0.0296
 5322TP3     H127785   0.121   3.426   1.820 -0.7132  1.3782  0.4152
 5322TP3     H227786   0.205   3.430   1.694 -0.3138 -0.6215  0.5931
 5323TP3      O27787   1.442   4.570   2.637 -0.1189  0.5476  0.2416
 5323TP3     H127788   1.371   4.613   2.590  0.9544  0.6878 -1.3233
 5323TP3     H227789   1.499   4.641   2.666  0.9804  0.2981 -1.2255
 5324TP3      O27790   2.316   0.228   2.867  0.4402 -0.9324  0.3492
 5324TP3     H127791   2.236   0.178   2.850  0.0546 -0.3004  0.2733
 5324TP3     H227792   2.351   0.191   2.948  0.7434 -2.0477 -0.2908
 5325TP3      O27793   0.179   0.783   2.507  0.0842  0.5467 -0.1241
 5325TP3     H127794   0.095   0.826   2.491 -0.2581  0.2562  0.8842
 5325TP3     H227795   0.239   0.855   2.530 -0.2545  0.5902  0.6237
 5326TP3      O27796   0.216   2.709   1.125 -0.5596 -0.4463  0.4797
 5326TP3     H127797   0.300   2.669   1.103 -0.7540 -1.1367  0.9866
 5326TP3     H227798   0.162   2.637   1.156 -0.2349  0.5032  3.4278
 5327TP3      O27799   2.229   2.176   1.693 -0.2466 -0.7513 -0.3307
 5327TP3     H127800   2.175   2.104   1.660  1.2233 -1.3748 -1.4400
 5327TP3     H227801   2.205   2.184   1.785 -0.7001 -2.4166 -0.2879
 5328TP3      O27802   3.302   1.077   0.255 -0.0008  0.0954  0.0568
 5328TP3     H127803   3.359   1.040   0.187  0.2607 -1.0960  0.9213
 5328TP3     H227804   3.256   1.148   0.211 -0.0261 -0.8305 -1.4427
 5329TP3      O27805   4.297   5.091   3.516 -0.0145  0.2342 -0.1862
 5329TP3     H127806   4.230   5.031   3.481 -0.2912  0.5392 -0.1887
 5329TP3     H227807   4.284   5.171   3.465  0.0561  0.4433  0.1276
 5330TP3      O27808   2.387   1.496   1.413 -0.4661 -0.4361  0.4927
 5330TP3     H127809   2.335   1.422   1.380  0.0532 -0.7031  0.2659
 5330TP3     H227810   2.446   1.457   1.478 -0.1991 -0.2205  0.3790
 5331TP3      O27811   3.150   4.603   2.756 -0.7572  0.3777  0.2863
 5331TP3     H127812   3.140   4.555   2.838 -2.2836 -1.1899 -0.8157
 5331TP3     H227813   3.218   4.556   2.709 -2.5370 -0.9829 -0.9686
 5332TP3      O27814   2.507   1.246   2.331 -0.3563 -0.6257 -0.2672
 5332TP3     H127815   2.441   1.200   2.383 -0.3377  0.3088  0.6038
 5332TP3     H227816   2.584   1.190   2.336 -0.7602 -1.2066 -0.4156
 5333TP3      O27817   4.810   1.943   1.060 -0.3086 -0.0932  0.5193
 5333TP3     H127818   4.814   1.857   1.019 -0.0549 -0.1865  0.7330
 5333TP3     H227819   4.852   1.930   1.146 -1.8965 -0.1917  1.3047
 5334TP3      O27820   2.784   4.338   2.675  0.3111 -0.0503 -0.2819
 5334TP3     H127821   2.833   4.266   2.635  1.1260  0.7258 -0.7344
 5334TP3     H227822   2.852   4.392   2.717 -0.3554  0.1034  0.5954
 5335TP3      O27823   2.329   0.294   1.367  0.4221  0.1470  0.3076
 5335TP3     H127824   2.303   0.343   1.445  2.1372 -0.0748  1.0417
 5335TP3     H227825   2.412   0.334   1.340 -0.2181  0.3147 -1.5001
 5336TP3      O27826   2.016   1.735   9.448 -0.2102 -0.6592 -0.0668
 5336TP3     H127827   2.095   1.772   9.488 -0.3341 -0.8246  0.3376
 5336TP3     H227828   2.049   1.674   9.382  0.0055 -0.7397  0.1116
 5337TP3      O27829   3.085   1.296   1.343 -0.2391  0.3930 -0.5154
 5337TP3     H127830   3.036   1.378   1.340  0.4529  0.8850  1.0476
 5337TP3     H227831   3.051   1.252   1.422  0.0301 -0.4110 -0.8462
 5338TP3      O27832   0.787   0.026   2.736 -0.3941 -0.0846  0.4736
 5338TP3     H127833   0.831   0.109   2.715  1.8723 -1.7592 -1.6811
 5338TP3     H227834   0.817   0.005   2.825 -1.7265  1.8322  1.4148
 5339TP3      O27835   4.773   3.302   0.452 -0.5491 -0.2640 -0.6753
 5339TP3     H127836   4.678   3.292   0.442 -1.0575  1.0638  2.2114
 5339TP3     H227837   4.799   3.359   0.380 -2.1898  0.4954 -0.6903
 5340TP3      O27838   4.695   4.331   3.378  0.0411  0.2374  0.2886
 5340TP3     H127839   4.740   4.324   3.462  2.7359  0.9155 -1.0390
 5340TP3     H227840   4.732   4.261   3.325 -0.2062  1.0567 -0.9694
 5341TP3      O27841   4.216   3.847   0.547  0.0684 -0.1394  0.1110
 5341TP3     H127842   4.262   3.796   0.479  0.6412  1.1873 -0.5112
 5341TP3     H227843   4.174   3.781   0.602  0.8590 -1.2911 -0.6482
 5342TP3      O27844   1.347   2.099   2.881 -0.7039 -0.2971  0.0075
 5342TP3     H127845   1.422   2.157   2.897 -0.9277  0.2254 -0.7904
 5342TP3     H227846   1.324   2.115   2.790 -1.1772 -1.1788 -0.0304
 5343TP3      O27847   1.251   1.278   2.700  0.6806  0.7299 -0.3213
 5343TP3     H127848   1.322   1.318   2.749  0.9694  0.0123 -0.1489
 5343TP3     H227849   1.224   1.344   2.637  1.0058  1.2702  0.1100
 5344TP3      O27850   0.999   3.995   2.747 -0.4442  0.2480  0.8724
 5344TP3     H127851   0.984   4.064   2.812 -2.5761 -1.2137  2.0386
 5344TP3     H227852   0.997   3.914   2.798 -0.3549 -0.8183 -0.7784
 5345TP3      O27853   3.265   1.856   1.225  0.3005  0.1401  0.8199
 5345TP3     H127854   3.207   1.919   1.267  0.2582  0.2233  0.6344
 5345TP3     H227855   3.255   1.872   1.131  0.0974 -0.3157  0.7627
 5346TP3      O27856   0.424   3.997   0.958  0.2218  0.4573  0.3503
 5346TP3     H127857   0.474   3.946   0.894  1.3630  2.0568 -0.0697
 5346TP3     H227858   0.333   3.990   0.929  0.2602 -1.7477  0.6106
 5347TP3      O27859   1.929   4.930   1.539 -0.2544  0.8457 -0.1509
 5347TP3     H127860   1.913   4.991   1.467 -1.7609 -0.0437 -0.5869
 5347TP3     H227861   1.880   4.851   1.516  1.4139 -0.4244  0.5651
 5348TP3      O27862   0.609   1.514   0.409 -0.3666  0.0111  0.4519
 5348TP3     H127863   0.563   1.433   0.434 -0.6872  0.7969  2.5073
 5348TP3     H227864   0.697   1.504   0.444  0.4990 -0.6654 -1.8264
 5349TP3      O27865   4.683   4.311   2.564 -0.0212 -0.1709  0.0339
 5349TP3     H127866   4.652   4.221   2.569 -1.0096  0.1804  0.7006
 5349TP3     H227867   4.681   4.333   2.471  1.7313 -1.3287 -0.2834
 5350TP3      O27868   0.761   4.694   0.760  0.0776 -0.3036  0.2669
 5350TP3     H127869   0.671   4.718   0.738 -0.2854 -0.8876  1.0877
 5350TP3     H227870   0.782   4.623   0.700 -0.0376 -0.2292  0.1382
 5351TP3      O27871   1.731   3.658   2.007 -0.1296  0.0971  0.3267
 5351TP3     H127872   1.778   3.589   2.054 -0.7666 -0.2530  0.4437
 5351TP3     H227873   1.643   3.658   2.044 -0.3932  0.3788 -0.2840
 5352TP3      O27874   2.727   2.814   8.105  0.3887 -0.6143 -0.2605
 5352TP3     H127875   2.752   2.775   8.022 -0.6731 -2.5982  0.3235
 5352TP3     H227876   2.717   2.740   8.165 -2.7387  0.4110  0.5918
 5353TP3      O27877   2.220   4.922   0.306 -0.5872  0.1951  0.2980
 5353TP3     H127878   2.181   4.847   0.262 -0.9779  0.1234  0.7548
 5353TP3     H227879   2.219   4.898   0.399  2.6035 -0.7428  0.1448
 5354TP3      O27880   2.017   2.712   9.497 -0.3455 -0.6024 -0.2602
 5354TP3     H127881   1.950   2.778   9.512  0.2369 -0.6456  2.7898
 5354TP3     H227882   1.969   2.638   9.458 -1.9928 -0.4413  1.4063
 5355TP3      O27883   2.385   4.011   0.480 -0.4131 -0.4329  0.4025
 5355TP3     H127884   2.459   3.952   0.462  2.0803  2.2166  1.5351
 5355TP3     H227885   2.391   4.078   0.412 -2.0962 -0.4473  0.2244
 5356TP3      O27886   3.707   0.340   1.343  1.1364  0.0146 -0.4742
 5356TP3     H127887   3.686   0.333   1.250  0.5948  0.4945 -0.3936
 5356TP3     H227888   3.621   0.343   1.386  1.3851 -0.8291  0.0900
 5357TP3      O27889   3.023   4.777   2.037  0.5615 -0.4641 -0.2945
 5357TP3     H127890   3.015   4.738   2.124 -0.7408 -0.9397 -0.6085
 5357TP3     H227891   3.058   4.865   2.052  1.8202 -1.1097  0.5739
 5358TP3      O27892   0.173   4.896   0.516  0.0047  0.4293 -0.2510
 5358TP3     H127893   0.261   4.859   0.517  0.4532  1.4859 -0.1943
 5358TP3     H227894   0.181   4.976   0.465 -1.1753 -0.0598 -1.2288
 5359TP3      O27895   1.644   4.401   0.544 -0.1345  0.2793  0.0125
 5359TP3     H127896   1.732   4.439   0.544 -0.3460  0.7611 -0.3592
 5359TP3     H227897   1.648   4.332   0.477  0.3218 -0.5398  0.8635
 5360TP3      O27898   0.524   0.051   2.750  0.1783  0.4096  0.3891
 5360TP3     H127899   0.619   0.053   2.762  0.4564 -2.5848 -1.0212
 5360TP3     H227900   0.508   0.106   2.673  0.6891  1.4899  1.0527
 5361TP3      O27901   3.446   3.572   2.979  0.0338 -0.6951 -0.0948
 5361TP3     H127902   3.408   3.506   3.036  2.5404 -2.2100 -0.1283
 5361TP3     H227903   3.455   3.649   3.035 -1.8374 -0.6907  0.2500
 5362TP3      O27904   4.361   2.920   1.594 -0.0616  0.1075  0.0021
 5362TP3     H127905   4.434   2.859   1.605  1.0523  1.6715  1.4671
 5362TP3     H227906   4.332   2.906   1.503  1.3466 -1.2919 -0.2571
 5363TP3      O27907   2.516   1.374   9.440  0.0884  0.3175 -0.1992
 5363TP3     H127908   2.489   1.294   9.487 -0.4473 -0.0950 -1.1803
 5363TP3     H227909   2.433   1.417   9.417  0.3775  1.1735  0.3439
 5364TP3      O27910   2.007   0.851   1.412  0.3271  0.7559  0.0329
 5364TP3     H127911   2.001   0.860   1.507 -0.3056  1.0143 -0.0294
 5364TP3     H227912   1.933   0.901   1.379  0.0302 -0.0760 -0.5586
 5365TP3      O27913   4.438   4.306   2.796  0.9883  0.2099 -0.1931
 5365TP3     H127914   4.500   4.379   2.794 -0.9690  1.9603  1.0322
 5365TP3     H227915   4.362   4.337   2.749 -0.2255 -0.7192  1.1062
 5366TP3      O27916   2.223   4.028   2.260 -0.0059  0.5301 -0.9110
 5366TP3     H127917   2.190   4.099   2.315 -0.9034 -0.0367 -0.7063
 5366TP3     H227918   2.253   3.962   2.322  0.3732  0.5203 -1.1027
 5367TP3      O27919   0.719   4.045   2.646  0.2253  0.6886  0.0926
 5367TP3     H127920   0.770   4.098   2.706  2.1510 -0.9421 -0.0639
 5367TP3     H227921   0.643   4.016   2.697  1.7279 -0.5106  1.6734
 5368TP3      O27922   4.734   3.474   1.615 -0.0598  0.6075 -0.1582
 5368TP3     H127923   4.714   3.443   1.704 -0.5301 -2.4334 -1.2597
 5368TP3     H227924   4.828   3.489   1.615 -0.2729  2.0325  1.2608
 5369TP3      O27925   4.676   4.416   2.295 -0.1756 -0.1769  0.3566
 5369TP3     H127926   4.692   4.363   2.218  1.6617  0.3196  0.3668
 5369TP3     H227927   4.737   4.490   2.287 -0.6645  0.4075  1.7577
 5370TP3      O27928   3.062   2.912   2.739  0.6841 -0.8795  0.0964
 5370TP3     H127929   3.129   2.913   2.670  0.3642 -0.5770 -0.2140
 5370TP3     H227930   3.014   2.994   2.726  0.7708 -0.7177  0.8243
 5371TP3      O27931   4.127   2.881   1.750  0.1047 -0.1601 -0.7680
 5371TP3     H127932   4.210   2.889   1.703  2.2764 -1.7018  2.5601
 5371TP3     H227933   4.133   2.945   1.821 -1.5494 -0.3145 -0.4688
 5372TP3      O27934   0.657   0.593   8.573 -0.2728 -0.1275 -0.7055
 5372TP3     H127935   0.575   0.544   8.578 -0.4536  0.3293  1.0479
 5372TP3     H227936   0.660   0.644   8.654  0.1596  2.3886 -2.2508
 5373TP3      O27937   3.968   2.988   1.404 -0.0582 -0.1642 -0.0234
 5373TP3     H127938   3.946   3.080   1.387 -1.0924 -0.4481 -0.2454
 5373TP3     H227939   4.051   2.974   1.359 -0.8621  0.1310 -1.6132
 5374TP3      O27940   0.853   2.726   9.131  0.3159 -0.4483  0.0104
 5374TP3     H127941   0.842   2.679   9.049  2.2366  2.5051 -2.0241
 5374TP3     H227942   0.929   2.686   9.172  0.4845 -0.6823 -0.5319
 5375TP3      O27943   0.538   5.153   1.329  0.3424  0.3769  0.3203
 5375TP3     H127944   0.591   5.120   1.256  0.1994 -1.1383  0.8881
 5375TP3     H227945   0.454   5.176   1.289 -0.0187 -1.2099  0.1230
 5376TP3      O27946   0.405   0.652  10.100  1.0274  0.3890  0.0090
 5376TP3     H127947   0.324   0.669  10.051  0.7596 -1.1526 -0.0901
 5376TP3     H227948   0.424   0.736  10.142  0.5449  1.3771 -1.6717
 5377TP3      O27949   5.192   4.817   2.356 -0.2552  0.1273 -0.0091
 5377TP3     H127950   5.162   4.732   2.325 -0.1649  0.5897 -1.4137
 5377TP3     H227951   5.287   4.815   2.346 -0.4647  1.4595 -2.9752
 5378TP3      O27952   2.094   5.283   9.026 -0.1942  0.0556 -0.7740
 5378TP3     H127953   2.117   5.216   9.090 -1.1557 -0.0279 -0.5052
 5378TP3     H227954   2.006   5.311   9.052  0.7651  2.4313 -0.0399
 5379TP3      O27955   3.640   2.081   1.623 -0.3769 -0.2763 -0.0930
 5379TP3     H127956   3.546   2.074   1.638 -0.7638  1.7703 -1.4236
 5379TP3     H227957   3.648   2.131   1.542  1.9062  1.6639  1.2733
 5380TP3      O27958   1.024   3.296   0.843  0.2435 -0.0893 -0.1653
 5380TP3     H127959   0.992   3.356   0.776  0.4703 -1.0005 -1.1196
 5380TP3     H227960   0.951   3.235   0.858  0.2615 -0.0070  0.2751
 5381TP3      O27961   2.526   3.681   2.305 -0.5028  0.2284  0.4694
 5381TP3     H127962   2.564   3.757   2.260 -0.6820 -0.4672 -0.8931
 5381TP3     H227963   2.600   3.638   2.348 -0.3621  1.0272  1.0251
 5382TP3      O27964   3.387   2.336   0.565  0.7397 -0.2070  0.1892
 5382TP3     H127965   3.368   2.362   0.656  1.5008 -0.4291  0.4182
 5382TP3     H227966   3.483   2.326   0.563  0.6049 -1.4975 -0.2885
 5383TP3      O27967   3.776   3.685   0.891 -0.3727  0.2398  0.2617
 5383TP3     H127968   3.804   3.776   0.884 -1.3591  0.6008  1.0188
 5383TP3     H227969   3.817   3.652   0.971 -1.1371  0.4162  0.7235
 5384TP3      O27970   4.556   2.728   1.583 -0.2038 -0.1385  0.2042
 5384TP3     H127971   4.596   2.692   1.503  0.4984  0.4766  0.2710
 5384TP3     H227972   4.616   2.704   1.653  1.2740  2.6858  0.0165
 5385TP3      O27973   5.012   2.578  10.074  0.2118  0.8898 -0.0917
 5385TP3     H127974   5.032   2.534   9.991 -1.8580 -1.2024  0.4660
 5385TP3     H227975   5.090   2.562  10.128  0.1120 -0.8722 -0.4202
 5386TP3      O27976   2.261   2.982   0.123  0.5329  0.2451 -0.2342
 5386TP3     H127977   2.257   3.016   0.213  0.5696 -0.5117  0.0616
 5386TP3     H227978   2.199   2.909   0.122  1.6612 -0.7429 -0.3766
 5387TP3      O27979   2.717   4.276   3.364 -0.3058 -0.1972  0.2104
 5387TP3     H127980   2.743   4.330   3.439  1.6740  1.4221 -1.5849
 5387TP3     H227981   2.637   4.319   3.331  0.2608  0.6197 -0.1298
 5388TP3      O27982   2.596   4.897   1.827 -0.3857 -0.6163 -0.5124
 5388TP3     H127983   2.643   4.816   1.805  0.4914  0.2166 -1.7634
 5388TP3     H227984   2.570   4.886   1.918  0.7479 -1.8219 -0.3302
 5389TP3      O27985   3.866   2.778   9.976 -0.6637 -0.2712  0.3695
 5389TP3     H127986   3.852   2.871   9.955  0.4039 -0.1763  0.0398
 5389TP3     H227987   3.809   2.731   9.915 -2.4267  0.2047  1.6000
 5390TP3      O27988   3.197   4.519   1.477  0.2398  0.4114 -0.4591
 5390TP3     H127989   3.218   4.486   1.564 -1.8157 -0.6451 -0.3228
 5390TP3     H227990   3.102   4.531   1.479  0.1885  0.4813 -2.5144
 5391TP3      O27991   2.197   1.125   1.132 -0.2387 -0.3494  0.3424
 5391TP3     H127992   2.262   1.111   1.062  0.0046  0.4496  0.4041
 5391TP3     H227993   2.227   1.069   1.203  0.4822  0.1258  0.4249
 5392TP3      O27994   0.175   4.325   3.725  0.0223  0.1309 -0.2446
 5392TP3     H127995   0.213   4.246   3.687 -0.0984 -0.4075  0.7340
 5392TP3     H227996   0.191   4.394   3.660  3.2436  0.0672  0.4192
 5393TP3      O27997   0.639   1.812   0.404  0.2578  0.8526 -0.3592
 5393TP3     H127998   0.601   1.735   0.361  0.7213 -0.1437  0.9973
 5393TP3     H227999   0.597   1.814   0.490 -0.8240  2.9616 -0.8923
 5394TP3      O28000   4.637   0.448   1.521  0.2114  0.6047 -0.2853
 5394TP3     H128001   4.721   0.432   1.478  0.0836  1.8126 -1.0138
 5394TP3     H228002   4.572   0.436   1.451 -0.2484 -0.6493  0.3505
 5395TP3      O28003   2.962   1.336   3.493  0.4220  0.4228 -0.1251
 5395TP3     H128004   2.930   1.283   3.421  0.8086 -1.7607  1.2722
 5395TP3     H228005   2.970   1.276   3.567  0.0929  2.5777  1.7528
 5396TP3      O28006   3.287   3.860   1.035  0.0667  0.3209  0.2312
 5396TP3     H128007   3.241   3.786   0.996  0.4254 -0.4836  1.3168
 5396TP3     H228008   3.319   3.827   1.119  1.2556  1.3525  0.1949
 5397TP3      O28009   4.547   0.351   9.431  0.2099  0.3657  0.2364
 5397TP3     H128010   4.545   0.256   9.415  0.9976  0.4064 -0.1132
 5397TP3     H228011   4.597   0.386   9.357  0.5335  0.9772  0.7480
 5398TP3      O28012   1.199   0.828   0.629 -0.5297 -0.6739 -0.3673
 5398TP3     H128013   1.204   0.873   0.714 -1.4374 -0.2539 -0.5204
 5398TP3     H228014   1.267   0.761   0.633  0.7993  0.6631 -0.0965
 5399TP3      O28015   2.751   4.271  10.160  0.2226  0.3135  0.2398
 5399TP3     H128016   2.681   4.213  10.190  0.2728  0.1970  0.1320
 5399TP3     H228017   2.831   4.219  10.167  0.3341  0.5275  0.5938
 5400TP3      O28018   0.795   5.175   2.518  0.7622 -0.7615 -0.2636
 5400TP3     H128019   0.784   5.238   2.590  0.0907 -0.3169 -0.7494
 5400TP3     H228020   0.890   5.171   2.504  0.8829 -0.7274  0.5409
 5401TP3      O28021   2.326   2.104   2.194  0.1050 -0.0217  0.6144
 5401TP3     H128022   2.310   2.017   2.232 -3.3354  0.3098  0.1345
 5401TP3     H228023   2.262   2.161   2.238  0.8854  1.8396 -0.5945
 5402TP3      O28024   4.068   3.433   9.364  0.5318  0.7480 -0.0011
 5402TP3     H128025   4.058   3.431   9.269 -0.6583 -0.4044  0.1331
 5402TP3     H228026   4.062   3.341   9.390 -1.5367  1.2488  1.4054
 5403TP3      O28027   4.230   3.228   3.000  0.7850 -0.5306  0.0184
 5403TP3     H128028   4.314   3.228   3.045  1.0116  1.5153 -0.3346
 5403TP3     H228029   4.165   3.229   3.070  1.1114  1.0869  0.3175
 5404TP3      O28030   4.880   4.062   0.368  0.4370  0.3024  0.3394
 5404TP3     H128031   4.954   4.074   0.427  0.5448 -0.2196  0.3180
 5404TP3     H228032   4.887   4.133   0.305  0.8849  0.2899  0.3756
 5405TP3      O28033   4.294   4.788   8.108  0.1652 -0.2653  0.6136
 5405TP3     H128034   4.255   4.760   8.191 -1.6208  1.2383  0.3255
 5405TP3     H228035   4.366   4.846   8.134  1.2558 -1.8096  1.1240
 5406TP3      O28036   3.923   4.068   2.799  0.1435  0.5382  0.1707
 5406TP3     H128037   3.835   4.082   2.762  0.5693  2.1994 -0.2752
 5406TP3     H228038   3.947   4.154   2.835  1.3312 -0.0772  0.8585
 5407TP3      O28039   2.933   0.033   2.527 -0.1956  0.9069  0.3381
 5407TP3     H128040   2.879   0.095   2.575  0.9923  0.0218  2.9265
 5407TP3     H228041   2.901  -0.053   2.555 -0.9278  0.3168 -2.1681
 5408TP3      O28042   0.766   0.733   1.738  0.1392  0.1792  0.1918
 5408TP3     H128043   0.790   0.690   1.820  0.5831  0.3537  0.1589
 5408TP3     H228044   0.725   0.665   1.686 -1.0731  0.3230  0.9533
 5409TP3      O28045   0.549   2.094   1.930  0.0821  0.4279  0.0513
 5409TP3     H128046   0.631   2.056   1.961  1.1079  2.5286  0.0079
 5409TP3     H228047   0.498   2.109   2.009 -1.3297 -3.1123 -0.0853
 5410TP3      O28048   5.258   0.419   2.325 -0.6453 -0.7670  0.5143
 5410TP3     H128049   5.225   0.368   2.251 -0.6465 -1.6150  1.0856
 5410TP3     H228050   5.248   0.360   2.400  0.6443 -0.4388  0.9642
 5411TP3      O28051   1.454   0.021   1.665 -0.0837  0.2254 -0.1188
 5411TP3     H128052   1.361   0.033   1.687  0.3687  0.2985  1.8671
 5411TP3     H228053   1.483  -0.050   1.722  0.9323 -0.2460 -1.1957
 5412TP3      O28054   4.633   1.317   9.651  0.4081 -0.1784  0.1481
 5412TP3     H128055   4.646   1.300   9.744  1.7605  0.5851  0.1140
 5412TP3     H228056   4.592   1.404   9.649 -0.6462 -0.6777  0.0762
 5413TP3      O28057   0.305   3.350   7.952  0.0889 -0.2007  0.0293
 5413TP3     H128058   0.274   3.346   7.862 -0.3038  0.3342  0.1324
 5413TP3     H228059   0.389   3.305   7.952  0.1478 -0.0845 -0.6266
 5414TP3      O28060   0.099   5.140   2.107  0.1822 -0.1231 -0.1728
 5414TP3     H128061   0.140   5.182   2.031  1.9658  0.8558  1.2777
 5414TP3     H228062   0.167   5.082   2.141  0.9207  2.4896  3.0588
 5415TP3      O28063   1.417   0.426   2.168 -0.2696  0.4983  0.2416
 5415TP3     H128064   1.340   0.369   2.167 -0.6511  1.0016  0.1284
 5415TP3     H228065   1.406   0.482   2.092  0.7771 -0.1505 -0.3977
 5416TP3      O28066   2.559   3.813   3.362  0.1871 -0.5386  0.1534
 5416TP3     H128067   2.629   3.751   3.343 -1.3560 -1.3892 -3.0711
 5416TP3     H228068   2.512   3.823   3.279 -1.8772  2.0846  1.5489
 5417TP3      O28069   1.636   0.429   2.598 -0.7870  0.2914 -0.0107
 5417TP3     H128070   1.577   0.359   2.571  0.5911 -1.0028  0.3160
 5417TP3     H228071   1.656   0.410   2.690 -0.9576  1.5083  0.2908
 5418TP3      O28072   3.391   3.917   0.781  0.3334 -0.6819 -0.3357
 5418TP3     H128073   3.470   3.965   0.807  0.8856 -1.5789 -0.3201
 5418TP3     H228074   3.369   3.864   0.858 -0.3856 -0.3040 -0.2791
 5419TP3      O28075   2.892   3.931   2.072  0.0071  0.0373 -0.0164
 5419TP3     H128076   2.963   3.867   2.064 -0.2464 -0.6174  2.4560
 5419TP3     H228077   2.925   4.010   2.028  1.4011 -0.9423 -0.7384
 5420TP3      O28078   0.598   0.281   8.947  0.0575  0.3106 -0.2994
 5420TP3     H128079   0.616   0.268   9.040 -0.3893  1.8810  0.0189
 5420TP3     H228080   0.632   0.368   8.928 -1.6358  0.8063 -1.1305
 5421TP3      O28081   3.224   4.385   1.986  0.8051 -0.0161 -0.1624
 5421TP3     H128082   3.258   4.417   2.069 -0.5852 -0.2546  0.5129
 5421TP3     H228083   3.253   4.294   1.981 -0.0827 -0.3484  0.6165
 5422TP3      O28084   3.132   0.014   2.916  0.4306 -0.1059 -0.1161
 5422TP3     H128085   3.069  -0.057   2.928 -0.2668  0.6377  0.6372
 5422TP3     H228086   3.080   0.089   2.888  0.6779  1.0569  2.3459
 5423TP3      O28087   1.159   2.986   8.105 -0.0814 -0.0578  0.0177
 5423TP3     H128088   1.231   2.924   8.116  0.8295  1.1907  1.4131
 5423TP3     H228089   1.119   2.991   8.192 -0.4859  0.8730 -0.2221
 5424TP3      O28090   4.671   0.136   2.311  0.0647  0.1178  0.0486
 5424TP3     H128091   4.700   0.095   2.392  0.5109  0.2519 -0.0423
 5424TP3     H228092   4.575   0.138   2.318  0.1015  0.1351  0.5718
 5425TP3      O28093   1.379   2.888   0.084 -0.3871 -0.2592  0.7533
 5425TP3     H128094   1.330   2.947   0.026  2.9326 -0.0231 -2.0236
 5425TP3     H228095   1.332   2.805   0.079 -0.9393  0.1437 -1.2515
 5426TP3      O28096   1.045   4.842   3.573  0.3946  0.0857 -0.0026
 5426TP3     H128097   0.992   4.778   3.621  1.5556 -1.5906 -0.8967
 5426TP3     H228098   0.985   4.877   3.507  0.1553 -1.2203 -0.5002
 5427TP3      O28099   4.912   0.459   7.486  0.2552 -0.2736 -0.4216
 5427TP3     H128100   4.889   0.380   7.536 -1.2906 -0.4491 -1.3633
 5427TP3     H228101   4.883   0.531   7.542 -0.2611 -0.4389 -0.4653
 5428TP3      O28102   2.165   3.296   0.511 -0.0456  0.9695  0.2854
 5428TP3     H128103   2.194   3.377   0.553 -0.5611  0.9290  0.7309
 5428TP3     H228104   2.073   3.288   0.537 -0.2050  0.6410 -0.3872
 5429TP3      O28105   2.607   4.621   9.908  0.0409 -0.6582  0.1055
 5429TP3     H128106   2.552   4.589   9.837 -0.5182  1.5569 -0.4926
 5429TP3     H228107   2.564   4.701   9.937  2.4882  0.6474  0.2120
 5430TP3      O28108   0.794   2.787   1.949  0.3365 -0.0598 -0.4806
 5430TP3     H128109   0.779   2.880   1.929  0.2009  0.8253  3.2898
 5430TP3     H228110   0.738   2.740   1.889  1.0951  2.2478 -3.1171
 5431TP3      O28111   4.504   4.527   1.283  0.0788 -0.1036 -0.0471
 5431TP3     H128112   4.433   4.524   1.346  0.9510 -0.4677  0.9270
 5431TP3     H228113   4.469   4.482   1.206 -1.9335  2.6840 -0.8414
 5432TP3      O28114   3.268   2.310   2.985  0.0670  0.9670  0.2198
 5432TP3     H128115   3.276   2.294   3.079  0.1621  1.2491  0.2618
 5432TP3     H228116   3.313   2.237   2.944 -0.0648  0.7883  0.3909
 5433TP3      O28117   3.733   3.865   0.271 -0.4538  0.0062  0.5295
 5433TP3     H128118   3.730   3.960   0.286  0.2691  0.3563 -1.3376
 5433TP3     H228119   3.825   3.848   0.250 -0.9092 -0.8179 -0.8586
 5434TP3      O28120   1.906   5.194   0.273 -0.2488 -0.1999  0.6992
 5434TP3     H128121   1.900   5.277   0.226 -0.4722 -0.3191  0.5160
 5434TP3     H228122   1.998   5.188   0.298 -0.0681 -0.2823  0.0140
 5435TP3      O28123   2.088   2.100   8.756 -0.2035 -0.6919 -0.1769
 5435TP3     H128124   2.151   2.063   8.818  0.2742  1.5047  0.7117
 5435TP3     H228125   2.128   2.087   8.670  0.1923 -1.7398  0.1638
 5436TP3      O28126   4.113   1.399   1.126 -0.0367  0.1937  0.1047
 5436TP3     H128127   4.072   1.381   1.041  0.8688 -1.3653 -0.0157
 5436TP3     H228128   4.061   1.470   1.163 -1.3208 -0.0822 -1.1271
 5437TP3      O28129   0.894   3.416   0.615  0.4987  0.3771 -0.3777
 5437TP3     H128130   0.897   3.510   0.594  0.5905  0.6112  0.6479
 5437TP3     H228131   0.833   3.380   0.551 -0.4669  1.3509 -0.0318
 5438TP3      O28132   0.127   2.932   3.006  0.3225 -0.0567 -0.1821
 5438TP3     H128133   0.110   2.841   2.983 -1.3797 -0.4240  2.3218
 5438TP3     H228134   0.206   2.929   3.060  0.0773 -0.1044  0.1779
 5439TP3      O28135   0.984   3.773   1.053 -0.4251  0.3120 -0.1982
 5439TP3     H128136   1.013   3.685   1.074  0.2779  0.5649 -0.0789
 5439TP3     H228137   1.053   3.808   0.996 -1.8826 -0.0560 -2.2327
 5440TP3      O28138   1.414   4.946   2.284 -0.1897  0.6657  0.2959
 5440TP3     H128139   1.496   4.944   2.233 -0.6678 -1.4652 -0.4361
 5440TP3     H228140   1.363   5.017   2.244  0.6794  1.0160 -0.2087
 5441TP3      O28141   5.258   1.813   7.743 -0.0634 -0.0490  0.2142
 5441TP3     H128142   5.202   1.736   7.749 -0.1346  0.0725  1.0814
 5441TP3     H228143   5.346   1.779   7.731 -0.0269 -0.2680  1.1319
 5442TP3      O28144   2.260   3.325   2.135 -0.0142 -0.0375  0.5116
 5442TP3     H128145   2.300   3.407   2.106  1.7609 -1.4621 -1.1923
 5442TP3     H228146   2.176   3.352   2.172  0.9948  2.6604  0.9983
 5443TP3      O28147   2.357   3.622   2.082 -0.0284  0.2975  0.8318
 5443TP3     H128148   2.398   3.646   2.165  1.7579  0.6022 -0.0981
 5443TP3     H228149   2.358   3.703   2.031  0.3439 -0.2545 -0.0526
 5444TP3      O28150   0.466   0.631   1.723  0.0178  0.5284  0.1926
 5444TP3     H128151   0.514   0.615   1.805  0.7731  0.5041 -0.2512
 5444TP3     H228152   0.421   0.715   1.739  0.0376  0.4493  0.6879
 5445TP3      O28153   1.051   2.078   2.579 -0.0867  0.0748 -0.2489
 5445TP3     H128154   1.061   2.161   2.627 -1.3125  1.1839 -1.8227
 5445TP3     H228155   1.110   2.017   2.623  1.1228  1.8905  0.7192
 5446TP3      O28156   4.888   2.573   9.647  0.1778  0.4891  0.4687
 5446TP3     H128157   4.836   2.566   9.567  0.5492  0.5243  0.2252
 5446TP3     H228158   4.823   2.581   9.717 -0.1128  1.7950  0.0456
 5447TP3      O28159   1.155   0.489   1.457  0.3904  0.6638 -0.3353
 5447TP3     H128160   1.106   0.561   1.498  2.0922  0.8590  1.4211
 5447TP3     H228161   1.117   0.410   1.495  1.7985  0.8366  1.4943
 5448TP3      O28162   2.903   3.651   1.003  0.3034 -0.3979 -0.1032
 5448TP3     H128163   2.912   3.629   1.096 -0.2680  3.5214  0.9720
 5448TP3     H228164   2.816   3.690   0.995  0.5055 -0.3043 -2.2213
 5449TP3      O28165   4.864   1.010   3.390  0.5542  0.1686  0.0830
 5449TP3     H128166   4.842   0.922   3.359 -1.4478  0.1232  1.5455
 5449TP3     H228167   4.833   1.068   3.320  1.8855 -0.2584 -0.8880
 5450TP3      O28168   0.950   4.927   1.608  0.3103 -0.1133  0.0621
 5450TP3     H128169   0.943   4.840   1.568 -1.8154  0.5038 -0.9419
 5450TP3     H228170   1.001   4.978   1.546 -1.5378  0.3582 -1.1140
 5451TP3      O28171   2.422   1.088   0.948  0.1867  0.3935  0.3998
 5451TP3     H128172   2.449   1.116   0.861  1.8030  3.0043  1.6663
 5451TP3     H228173   2.451   0.997   0.954  0.8629  0.4686 -1.4507
 5452TP3      O28174   4.221   1.108   2.419 -0.3189 -0.2201 -0.2258
 5452TP3     H128175   4.296   1.155   2.456  0.3290 -1.6714  0.3719
 5452TP3     H228176   4.211   1.144   2.331  0.0908  1.0894  0.2506
 5453TP3      O28177   4.868   4.678   1.942  0.5252  0.1970 -0.6549
 5453TP3     H128178   4.914   4.762   1.944 -0.5599  0.7622  1.1225
 5453TP3     H228179   4.780   4.700   1.910 -0.0221 -0.1293  0.6142
 5454TP3      O28180   1.935   0.348   2.517 -0.6333 -0.3430  0.3267
 5454TP3     H128181   1.846   0.338   2.551 -0.9508 -3.9097 -1.3384
 5454TP3     H228182   1.932   0.313   2.428  1.8644  1.9702 -0.7529
 5455TP3      O28183   4.600   1.386   1.644 -0.4085 -0.5583 -0.1231
 5455TP3     H128184   4.610   1.412   1.736  0.6769 -0.5334 -0.2322
 5455TP3     H228185   4.529   1.322   1.645 -0.4128 -0.5497  0.7366
 5456TP3      O28186   3.921   5.071   2.108 -0.2003  0.4561  0.1411
 5456TP3     H128187   3.945   5.006   2.042 -0.5763  0.5705 -0.1107
 5456TP3     H228188   3.953   5.035   2.190 -0.5097 -0.1059  0.0174
 5457TP3      O28189   2.924   3.257   0.315  0.2191  0.3245 -0.0115
 5457TP3     H128190   2.995   3.319   0.332 -0.5041  0.9353  0.8608
 5457TP3     H228191   2.935   3.232   0.223  2.7276 -1.1232  0.6487
 5458TP3      O28192   2.651   4.967   0.962 -0.1240  0.2452  0.2272
 5458TP3     H128193   2.611   5.021   1.030 -0.0486 -0.3880  0.7752
 5458TP3     H228194   2.703   5.029   0.911  1.8337  0.3453  2.2423
 5459TP3      O28195   4.465   2.512   7.778  0.6042  0.0186 -0.1172
 5459TP3     H128196   4.502   2.593   7.743 -0.4433 -0.6451 -2.9424
 5459TP3     H228197   4.530   2.480   7.840  1.2963  2.7059  0.6008
 5460TP3      O28198   3.199   2.278   2.190 -0.2346  0.0810  0.1375
 5460TP3     H128199   3.143   2.219   2.141  2.7364 -1.2432 -1.7435
 5460TP3     H228200   3.240   2.223   2.256  1.2350  0.3910 -0.5115
 5461TP3      O28201   0.688   5.036   3.190 -0.3066 -0.3809  0.5081
 5461TP3     H128202   0.596   5.060   3.203 -0.1123  0.3915  0.4647
 5461TP3     H228203   0.700   5.038   3.096 -0.3575 -0.9235  0.4870
 5462TP3      O28204   0.676   3.056   0.217 -0.2220 -0.0746 -0.0405
 5462TP3     H128205   0.647   3.148   0.220 -0.8286 -0.2627 -0.0252
 5462TP3     H228206   0.609   3.009   0.265 -2.0041 -1.0637 -3.3177
 5463TP3      O28207   4.052   3.417   0.764  0.6397  0.0438  0.0302
 5463TP3     H128208   4.005   3.335   0.749  3.0024 -1.2644 -0.4790
 5463TP3     H228209   4.100   3.403   0.845  2.0825  0.4091 -0.7402
 5464TP3      O28210   2.684   0.935   7.475  0.0227  0.7118  0.2058
 5464TP3     H128211   2.690   0.839   7.469 -0.9772  0.6113  0.6384
 5464TP3     H228212   2.757   0.967   7.422  1.4626 -0.3049  1.5308
 5465TP3      O28213   1.707   4.191   0.743  0.4184 -0.0450 -0.0778
 5465TP3     H128214   1.625   4.199   0.791  0.6965  0.8383  0.2597
 5465TP3     H228215   1.691   4.237   0.660  1.1328  1.7090  0.7267
 5466TP3      O28216   3.862   5.132   1.116  0.1170  0.4227  0.0880
 5466TP3     H128217   3.862   5.218   1.158 -0.5719  0.3306  0.2694
 5466TP3     H228218   3.801   5.140   1.043  0.0099  0.0736  0.1361
 5467TP3      O28219   0.121   0.170   9.683  0.3513 -0.5591 -0.0509
 5467TP3     H128220   0.091   0.080   9.697  0.4537 -0.2318  2.5350
 5467TP3     H228221   0.044   0.216   9.649 -0.7956 -0.8046  2.1286
 5468TP3      O28222   3.432   0.327   0.408 -0.2126 -0.5250 -0.3779
 5468TP3     H128223   3.411   0.285   0.491 -0.4805  0.7386  0.2049
 5468TP3     H228224   3.367   0.397   0.399  0.5711  0.1347 -1.0521
 5469TP3      O28225   3.026   5.221   9.956  0.2572 -0.0262 -0.0909
 5469TP3     H128226   3.100   5.274   9.927  0.1771  0.1928  0.0952
 5469TP3     H228227   2.988   5.185   9.876  1.5975 -1.5369 -0.0572
 5470TP3      O28228   4.220   4.611   2.526  0.6527 -0.3201  0.1381
 5470TP3     H128229   4.280   4.681   2.555  0.1639 -0.3620  1.2956
 5470TP3     H228230   4.261   4.575   2.448  0.6505  1.6234 -0.7995
 5471TP3      O28231   4.486   4.540   1.968 -0.2840 -0.2530 -0.2562
 5471TP3     H128232   4.458   4.469   2.026 -1.4277  0.4614  0.0806
 5471TP3     H228233   4.503   4.613   2.026 -2.0331  0.6579 -0.8555
 5472TP3      O28234   4.626   3.897   9.733 -0.5153 -0.0272  0.6893
 5472TP3     H128235   4.635   3.890   9.638  0.9474 -1.5665  0.9000
 5472TP3     H228236   4.566   3.826   9.756 -0.9199  0.3863  0.9064
 5473TP3      O28237   1.688   2.687   9.733 -0.2360  0.2895 -0.1942
 5473TP3     H128238   1.690   2.712   9.641 -0.3723  0.1913 -0.2242
 5473TP3     H228239   1.738   2.755   9.778 -1.1327  0.9538 -0.2013
 5474TP3      O28240   2.021   0.017   2.637 -0.3881 -0.0544  0.2077
 5474TP3     H128241   1.931   0.047   2.647 -1.2586 -2.5186 -0.0018
 5474TP3     H228242   2.026  -0.014   2.547 -0.3822 -3.1868  1.2298
 5475TP3      O28243   0.519   0.716   1.431 -0.5597 -0.5035 -0.0618
 5475TP3     H128244   0.568   0.648   1.477  0.7398  0.4335 -0.0312
 5475TP3     H228245   0.495   0.675   1.347  1.2155 -0.6311 -0.5288
 5476TP3      O28246   1.910   0.156   0.260  0.4197  0.1017 -0.0327
 5476TP3     H128247   1.897   0.146   0.354  0.2551  0.7053  0.0120
 5476TP3     H228248   1.825   0.181   0.226  0.8344  1.4213 -0.1175
 5477TP3      O28249   4.123   1.227   9.714  0.2179 -0.1022 -0.9041
 5477TP3     H128250   4.091   1.144   9.680 -3.1915  0.5351  0.5775
 5477TP3     H228251   4.167   1.203   9.796  0.5243 -0.6021 -1.2128
 5478TP3      O28252   1.647   4.162   7.245  0.0313 -0.3260  0.2159
 5478TP3     H128253   1.570   4.184   7.192  1.0349  0.0580 -1.1068
 5478TP3     H228254   1.721   4.201   7.198  0.9902 -0.2674  1.7343
 5479TP3      O28255   2.927   3.018   0.433 -0.4702  0.0654 -0.5978
 5479TP3     H128256   2.974   2.961   0.373  0.4455 -0.1692  0.3243
 5479TP3     H228257   2.944   3.107   0.401 -0.6970 -0.1007 -1.1796
 5480TP3      O28258   4.209   5.094  10.080 -0.5051  0.1255 -0.1920
 5480TP3     H128259   4.177   5.121   9.994  0.1947 -0.7933 -0.7499
 5480TP3     H228260   4.238   5.004  10.068  1.3327  0.5876  0.5206
 5481TP3      O28261   2.406   3.719   3.160 -0.0233  0.0789  0.4961
 5481TP3     H128262   2.487   3.702   3.112 -0.1109 -0.2311  0.4554
 5481TP3     H228263   2.349   3.762   3.095  0.4035  1.0566  0.7657
 5482TP3      O28264   0.789   1.439   7.545 -0.0391  0.3104  0.5457
 5482TP3     H128265   0.696   1.452   7.527 -0.0074 -0.0953  0.0472
 5482TP3     H228266   0.792   1.364   7.604  0.0604 -0.8561 -0.9086
 5483TP3      O28267   1.499   3.278   1.134  0.3830 -0.6477  0.4440
 5483TP3     H128268   1.579   3.244   1.095  0.3937 -0.2773  0.1437
 5483TP3     H228269   1.430   3.253   1.073  0.4721  0.4288 -0.1044
 5484TP3      O28270   0.774   4.283   0.749 -0.3378  0.3425  0.1606
 5484TP3     H128271   0.763   4.217   0.680 -3.2295 -0.2867  1.1673
 5484TP3     H228272   0.781   4.366   0.701  0.3717 -0.3503 -0.9824
 5485TP3      O28273   2.186   4.591   2.867  0.1206  0.3826 -0.4218
 5485TP3     H128274   2.220   4.622   2.783  1.2787 -0.0677 -0.1179
 5485TP3     H228275   2.120   4.526   2.843 -0.6384  1.3323 -1.0052
 5486TP3      O28276   3.635   4.999   3.201  0.5206 -0.1448  0.0377
 5486TP3     H128277   3.569   5.013   3.269  0.5165 -1.6382  0.3607
 5486TP3     H228278   3.628   4.906   3.180  2.0374 -0.1662 -0.4325
 5487TP3      O28279   4.005   0.638   1.654 -0.3222  0.5167 -0.4332
 5487TP3     H128280   3.947   0.571   1.619 -0.5752  0.5229 -0.0250
 5487TP3     H228281   3.966   0.662   1.738  0.4291  0.3077 -0.0188
 5488TP3      O28282   4.648   4.287   1.372  0.3063 -0.5805  0.2260
 5488TP3     H128283   4.663   4.252   1.460  0.9395  0.9084  0.7434
 5488TP3     H228284   4.564   4.332   1.378  1.4102  1.5236  0.7710
 5489TP3      O28285   1.389   4.981   1.516  0.0016  0.1918  0.0998
 5489TP3     H128286   1.368   4.888   1.507  0.6808  0.0050  0.4383
 5489TP3     H228287   1.353   5.007   1.600 -3.0999  1.0496 -1.4128
 5490TP3      O28288   3.606   0.109   2.520  0.1330  0.0966 -0.0907
 5490TP3     H128289   3.617   0.202   2.541  0.0143 -0.4193  2.4695
 5490TP3     H228290   3.695   0.078   2.502  0.2096  0.6278 -0.6380
 5491TP3      O28291   4.206   1.662   2.117 -0.2666 -0.0394  0.2704
 5491TP3     H128292   4.162   1.670   2.032 -0.1384 -3.8605 -0.2323
 5491TP3     H228293   4.297   1.688   2.098 -0.6043  0.6905 -0.3858
 5492TP3      O28294   3.064   4.857   2.917  0.3402 -0.6437 -1.0363
 5492TP3     H128295   3.092   4.785   2.860 -0.6079 -0.5061 -1.6961
 5492TP3     H228296   2.969   4.857   2.909  0.2038 -0.5778  0.5114
 5493TP3      O28297   4.914   0.800   2.800 -0.5246  0.6300  0.0472
 5493TP3     H128298   4.826   0.806   2.763 -1.0672 -0.7674  1.0446
 5493TP3     H228299   4.908   0.847   2.883 -0.8377 -1.0189  0.9716
 5494TP3      O28300   0.950   4.987   1.862  0.3539 -0.0195 -0.1508
 5494TP3     H128301   0.960   4.963   1.769  0.2601 -1.8669  0.2864
 5494TP3     H228302   0.984   4.911   1.909 -0.5085  0.5055  1.3307
 5495TP3      O28303   1.769   4.417   1.487 -0.1011 -0.0007 -0.6484
 5495TP3     H128304   1.733   4.332   1.463 -0.6152  0.2418 -0.7510
 5495TP3     H228305   1.823   4.399   1.564  1.2284 -0.7076 -1.7373
 5496TP3      O28306   2.844   0.283   1.419 -0.1911  0.1405  0.1669
 5496TP3     H128307   2.773   0.221   1.407 -1.3396  1.4276  0.1349
 5496TP3     H228308   2.878   0.299   1.331 -0.5344  0.2894  0.0616
 5497TP3      O28309   4.133   1.502   7.962 -0.2177 -0.2956 -0.0533
 5497TP3     H128310   4.211   1.460   7.926  0.4326  0.8471 -0.0044
 5497TP3     H228311   4.166   1.582   8.004 -1.3491 -0.0517  0.3937
 5498TP3      O28312   2.138   0.001   2.898 -0.0162  0.1701 -0.0505
 5498TP3     H128313   2.073  -0.011   2.828 -0.6681 -0.9085  0.7173
 5498TP3     H228314   2.105  -0.053   2.970  1.5117 -0.0188  0.5139
 5499TP3      O28315   2.471   2.792   9.557  0.1143  0.0445  0.6144
 5499TP3     H128316   2.454   2.775   9.465 -1.2788 -1.6680  1.1464
 5499TP3     H228317   2.434   2.879   9.573  0.3663  0.3466 -0.4478
 5500TP3      O28318   4.383   1.583   2.368  0.0720 -0.1408  0.1944
 5500TP3     H128319   4.397   1.669   2.409 -1.0748 -0.0046  0.3091
 5500TP3     H228320   4.311   1.545   2.416 -0.5210 -0.4718 -0.9419
 5501TP3      O28321   4.311   0.055   3.468  0.1906  0.1005 -0.3299
 5501TP3     H128322   4.374   0.086   3.402  1.8995  0.6593  1.5118
 5501TP3     H228323   4.238   0.116   3.461  1.3901  1.6067 -0.1232
 5502TP3      O28324   1.817   1.391   1.697  0.1927  0.3836  0.8961
 5502TP3     H128325   1.811   1.458   1.765  2.6085  0.1586  1.3786
 5502TP3     H228326   1.828   1.309   1.746 -0.9307 -0.1453  0.2759
 5503TP3      O28327   1.486   1.767   2.249  0.7104  0.6852 -0.3400
 5503TP3     H128328   1.465   1.710   2.323  1.7795 -0.0975 -0.6233
 5503TP3     H228329   1.446   1.724   2.174  1.8194  0.1099 -0.6102
 5504TP3      O28330   4.299   0.792   2.914 -0.1538  0.7288 -0.5115
 5504TP3     H128331   4.376   0.849   2.920  1.3221 -1.2567 -0.3982
 5504TP3     H228332   4.283   0.764   3.004 -0.4898  0.4477 -0.6602
 5505TP3      O28333   0.834   4.343   2.472  0.3814 -0.1638  0.2394
 5505TP3     H128334   0.920   4.375   2.497  0.6690  0.1385 -1.1149
 5505TP3     H228335   0.785   4.421   2.447 -0.2096 -0.3564  0.7795
 5506TP3      O28336   3.878   3.590   0.546 -1.2161 -0.2341 -0.0842
 5506TP3     H128337   3.946   3.649   0.580 -1.9766  0.4598  0.2466
 5506TP3     H228338   3.894   3.586   0.452 -0.1163 -0.8527  0.1180
 5507TP3      O28339   2.640   3.355   2.513 -0.1049  0.5774 -0.1830
 5507TP3     H128340   2.726   3.332   2.476  0.6218  0.4038  1.5415
 5507TP3     H228341   2.638   3.451   2.509  0.3272  0.6018  0.1093
 5508TP3      O28342   2.428   4.559   2.362 -0.0387 -0.8171 -0.1282
 5508TP3     H128343   2.514   4.554   2.321  0.9089  0.2605  1.6685
 5508TP3     H228344   2.419   4.477   2.410  0.6106 -0.3247  0.8495
 5509TP3      O28345   3.593   1.575   2.288  0.0652  0.5624  0.4614
 5509TP3     H128346   3.673   1.629   2.287  0.9008 -0.6717  0.3721
 5509TP3     H228347   3.618   1.494   2.243 -1.4358  0.4346 -0.1638
 5510TP3      O28348   2.720   2.402   1.560  0.3387  0.2791 -0.3210
 5510TP3     H128349   2.761   2.392   1.645 -2.0079  0.8203  0.9354
 5510TP3     H228350   2.644   2.459   1.577 -2.4497 -2.7400 -1.9836
 5511TP3      O28351   0.806   4.969   1.259 -0.4467 -0.0584  0.1963
 5511TP3     H128352   0.738   4.903   1.246  1.1341 -1.6014 -0.4335
 5511TP3     H228353   0.887   4.919   1.264  0.7387  1.8139  0.1764
 5512TP3      O28354   3.917   4.986   2.365 -0.3267 -0.2932  0.3948
 5512TP3     H128355   3.885   4.907   2.410  1.7846 -0.6868  1.2556
 5512TP3     H228356   3.880   5.059   2.415 -1.1312 -0.7419  0.4570
 5513TP3      O28357   5.207   3.572   0.027 -0.2618 -0.2592  0.0782
 5513TP3     H128358   5.183   3.491  -0.016  3.1810  0.4675 -3.4921
 5513TP3     H228359   5.244   3.545   0.111  0.4075 -2.3740 -0.8677
 5514TP3      O28360   5.223   4.097   1.534 -0.5090 -0.2986  0.9134
 5514TP3     H128361   5.143   4.140   1.504 -0.4495  0.2770  1.5647
 5514TP3     H228362   5.211   4.005   1.511 -0.7215  0.0277 -0.3137
 5515TP3      O28363   3.427   5.023   2.405 -0.5388  0.0095 -0.4027
 5515TP3     H128364   3.500   5.026   2.342 -0.7089 -0.9140 -0.6563
 5515TP3     H228365   3.416   5.114   2.433 -0.6465  0.4820 -1.9298
 5516TP3      O28366   1.209   3.838   1.733  0.0174 -0.6986 -0.1048
 5516TP3     H128367   1.277   3.789   1.779  0.4176 -1.1791 -1.1802
 5516TP3     H228368   1.151   3.771   1.698 -0.5494 -0.3187  0.1107
 5517TP3      O28369   2.050   3.928   2.057 -0.4359 -0.0861 -0.3421
 5517TP3     H128370   1.990   4.002   2.054  0.8368  0.8969 -2.3033
 5517TP3     H228371   2.113   3.951   2.126 -1.1606 -0.2411  0.3792
 5518TP3      O28372   3.536   0.838   2.313 -0.1008  0.5598 -0.8900
 5518TP3     H128373   3.453   0.804   2.279 -0.4562  0.9736 -0.4472
 5518TP3     H228374   3.531   0.932   2.300 -0.4998  0.7989  0.8004
 5519TP3      O28375   0.420   4.779   0.962  0.2519 -0.3779  0.6428
 5519TP3     H128376   0.442   4.728   0.884  1.7051  0.8497  0.2117
 5519TP3     H228377   0.448   4.868   0.941  1.3784 -0.1618  2.8440
 5520TP3      O28378   5.110   5.056   0.987  0.0002  0.0060  0.3942
 5520TP3     H128379   5.099   4.991   1.057 -2.5150 -0.7622 -0.6787
 5520TP3     H228380   5.097   5.007   0.906  0.0525  1.4693 -0.5126
 5521TP3      O28381   5.088   4.052   0.865 -0.5864  0.2529 -0.5735
 5521TP3     H128382   5.043   4.085   0.942 -0.2616 -0.8993  0.1130
 5521TP3     H228383   5.162   4.112   0.853  0.0144 -0.2306  0.6848
 5522TP3      O28384   3.040   5.023   9.522 -0.4622  0.1367 -0.4346
 5522TP3     H128385   3.077   5.086   9.460  0.3987 -0.8877 -0.9825
 5522TP3     H228386   3.053   4.938   9.480 -0.9048 -0.4719  0.6411
 5523TP3      O28387   2.146   3.292   1.570 -0.4272  0.3621 -0.1721
 5523TP3     H128388   2.172   3.384   1.564 -0.3479  0.3953  0.5795
 5523TP3     H228389   2.081   3.291   1.641  0.1018 -0.2786  0.3041
 5524TP3      O28390   4.666   3.327   1.818  0.2634 -0.4290 -0.6582
 5524TP3     H128391   4.610   3.252   1.798  1.0803 -1.3886  0.5547
 5524TP3     H228392   4.753   3.289   1.830  0.4944  0.5726  0.9576
 5525TP3      O28393   0.056   1.664   2.873  0.4636  0.2456  0.6656
 5525TP3     H128394   0.095   1.752   2.875 -0.5140  0.6912  0.6358
 5525TP3     H228395   0.114   1.611   2.928  2.5804  0.2617 -1.5052
 5526TP3      O28396   0.155   2.910   2.687  0.2982 -0.6107 -0.3113
 5526TP3     H128397   0.168   2.997   2.725 -1.5775 -1.8035  3.3199
 5526TP3     H228398   0.205   2.912   2.605  1.5821  3.3207  0.4422
 5527TP3      O28399   4.390   3.455   3.180 -0.2477  0.0550  0.5723
 5527TP3     H128400   4.420   3.477   3.092 -1.4622 -1.8616 -0.3700
 5527TP3     H228401   4.413   3.363   3.191  0.7377  0.5148  2.6484
 5528TP3      O28402   3.202   2.264  10.073 -0.0207  0.4014 -0.1532
 5528TP3     H128403   3.209   2.169  10.064  1.6075  0.4190  0.7636
 5528TP3     H228404   3.116   2.285  10.036 -0.2126 -1.3665 -0.7769
 5529TP3      O28405   5.090   5.285   1.113  0.0906 -0.3595 -0.3030
 5529TP3     H128406   5.072   5.270   1.206  1.6110 -1.9907 -0.2452
 5529TP3     H228407   5.059   5.205   1.070  0.3709 -0.0589 -1.0702
 5530TP3      O28408   4.046   2.046   2.168  0.3466 -0.8198 -0.3802
 5530TP3     H128409   4.050   1.974   2.232 -1.2148 -1.3715 -0.8779
 5530TP3     H228410   3.984   2.108   2.206  1.5069  0.1434 -0.0705
 5531TP3      O28411   1.466   3.850   1.505  0.5476  0.0398 -0.3551
 5531TP3     H128412   1.395   3.903   1.541 -0.4418 -1.0304 -0.7090
 5531TP3     H228413   1.423   3.771   1.473  2.1242 -1.3534  0.9118
 5532TP3      O28414   3.611   4.685   8.874  0.4483 -0.2503 -0.4972
 5532TP3     H128415   3.678   4.754   8.876  0.1056  0.2897 -4.0155
 5532TP3     H228416   3.553   4.707   8.947  1.9550  1.5291  0.2226
 5533TP3      O28417   2.875   4.030   2.630 -0.7438  0.9406 -0.5437
 5533TP3     H128418   2.854   3.983   2.549  0.7550  0.7438 -0.8278
 5533TP3     H228419   2.969   4.046   2.625 -1.0690  3.2476 -0.0639
 5534TP3      O28420   1.904   0.817   9.180  0.1595  0.1690 -0.1433
 5534TP3     H128421   1.933   0.755   9.247  1.7102 -0.3095 -1.2079
 5534TP3     H228422   1.929   0.775   9.097 -1.5765  0.8186 -1.0068
 5535TP3      O28423   5.150   3.752   3.150 -0.1176 -0.5585  0.0798
 5535TP3     H128424   5.064   3.789   3.166  0.2204 -0.1012  0.8764
 5535TP3     H228425   5.211   3.821   3.177  0.4922 -0.9604 -0.2674
 5536TP3      O28426   2.303   3.699   1.711 -0.2112 -0.0087 -0.2956
 5536TP3     H128427   2.249   3.688   1.633 -1.4907 -0.6767  0.6695
 5536TP3     H228428   2.243   3.686   1.784  1.2579 -0.7784  0.8106
 5537TP3      O28429   1.596   1.086   9.594 -0.6159 -0.5258  0.9223
 5537TP3     H128430   1.648   1.164   9.610 -2.7053  0.8916  0.9578
 5537TP3     H228431   1.644   1.038   9.526  0.4842  0.9758  0.6366
 5538TP3      O28432   2.347   3.141   2.347  0.0723  0.4607  0.8817
 5538TP3     H128433   2.304   3.202   2.287 -1.0558 -1.6094 -0.4910
 5538TP3     H228434   2.342   3.184   2.432 -1.2215  2.0307  0.0445
 5539TP3      O28435   2.990   3.572   2.575 -0.6520 -0.6245  0.0177
 5539TP3     H128436   3.060   3.603   2.632 -1.2698  1.9681 -0.5636
 5539TP3     H228437   3.035   3.534   2.500  0.1540  0.7549 -0.2101
 5540TP3      O28438   1.517   2.254   7.760  0.5378 -0.8433  0.6925
 5540TP3     H128439   1.505   2.160   7.753 -0.8695 -0.5709 -0.7483
 5540TP3     H228440   1.581   2.276   7.693  0.1362 -0.6398  0.3734
 5541TP3      O28441   1.537   1.754   1.828  0.0240  0.6617 -0.0842
 5541TP3     H128442   1.623   1.716   1.848  0.5759  1.7734 -0.3261
 5541TP3     H228443   1.536   1.838   1.874 -1.5148  0.0091  1.1075
 5542TP3      O28444   2.421   3.130   0.816  0.1419  0.2014  0.1188
 5542TP3     H128445   2.414   3.114   0.722  0.8055  0.5992 -0.0050
 5542TP3     H228446   2.507   3.095   0.839  0.1838  0.5436  0.4841
 5543TP3      O28447   2.732   4.530   1.964 -0.0484 -0.3552  0.0139
 5543TP3     H128448   2.736   4.594   1.894 -0.2607  0.3770  0.6635
 5543TP3     H228449   2.664   4.469   1.938 -1.2492  0.8287  0.3505
 5544TP3      O28450   4.085   1.780   2.635  0.2607 -0.0705  0.5613
 5544TP3     H128451   4.097   1.689   2.608  1.7198  0.5007 -0.7933
 5544TP3     H228452   4.078   1.775   2.731  1.5873 -1.4846  0.6202
 5545TP3      O28453   1.868   1.420   2.176 -0.4174 -0.6844 -0.0351
 5545TP3     H128454   1.961   1.399   2.165  0.6879  2.8612  1.6330
 5545TP3     H228455   1.853   1.493   2.115 -1.4550  0.3377  1.4020
 5546TP3      O28456   5.057   3.868   2.003  0.0174  0.2167 -0.0306
 5546TP3     H128457   4.982   3.885   1.944  0.4099 -0.1016 -0.6298
 5546TP3     H228458   5.022   3.884   2.090 -0.8527 -0.2305 -0.2791
 5547TP3      O28459   4.378   0.279   1.836 -0.1126 -0.0550 -0.5509
 5547TP3     H128460   4.451   0.327   1.873 -1.9189  1.7418  0.8165
 5547TP3     H228461   4.341   0.337   1.770 -2.4785  0.6615  1.2959
 5548TP3      O28462   4.957   0.238  10.046 -0.7038  0.1411  0.6186
 5548TP3     H128463   4.970   0.309   9.984  1.1688 -0.6297  0.0724
 5548TP3     H228464   5.034   0.181  10.034 -3.0096 -2.9499 -0.2804
 5549TP3      O28465   0.517   1.658   2.893  0.3583  0.3743  0.2808
 5549TP3     H128466   0.455   1.675   2.964 -0.4188  0.1629 -0.3427
 5549TP3     H228467   0.601   1.647   2.937 -0.6198 -2.7757  1.5063
 5550TP3      O28468   0.401   3.493   2.889 -0.2898  0.6248  0.6254
 5550TP3     H128469   0.382   3.584   2.867 -0.5004  0.5723  0.5901
 5550TP3     H228470   0.348   3.475   2.966 -0.4426  0.4559  0.4823
 5551TP3      O28471   1.005   1.918   9.779  0.5746 -0.2928 -0.7514
 5551TP3     H128472   1.092   1.948   9.804  0.6103 -1.6893  0.9077
 5551TP3     H228473   1.009   1.823   9.789 -2.0157 -0.1707  2.4432
 5552TP3      O28474   5.198   5.098   8.275 -0.0482  0.6218 -0.3270
 5552TP3     H128475   5.183   5.138   8.362 -0.3973  2.0109 -1.0042
 5552TP3     H228476   5.284   5.057   8.282 -0.9835 -1.1096  1.3384
 5553TP3      O28477   1.595   1.349   0.967  0.3101  0.4630  0.1525
 5553TP3     H128478   1.637   1.346   1.053  1.0472 -0.2962 -0.2320
 5553TP3     H228479   1.601   1.441   0.941  2.6718  0.1870 -0.3600
 5554TP3      O28480   3.161   1.586   1.406 -0.5401  0.3918 -0.4112
 5554TP3     H128481   3.126   1.640   1.477 -1.6398 -1.5256  0.5734
 5554TP3     H228482   3.086   1.571   1.348  0.0923  1.0706 -1.4105
 5555TP3      O28483   2.910   2.744   1.855 -0.4237 -0.2881  0.3001
 5555TP3     H128484   2.874   2.820   1.810 -0.1239 -0.5302 -0.3562
 5555TP3     H228485   2.948   2.691   1.785  0.8276 -0.2422  0.9396
 5556TP3      O28486   1.964   4.737   1.909 -0.2357  0.0466  0.8109
 5556TP3     H128487   1.921   4.692   1.982  0.2786 -0.5370  0.7533
 5556TP3     H228488   1.896   4.744   1.842 -0.3746 -0.4630  0.8946
 5557TP3      O28489   4.302   3.488   2.888  0.4236 -0.0597 -0.4659
 5557TP3     H128490   4.223   3.435   2.898  0.4861 -0.1447 -0.4150
 5557TP3     H228491   4.369   3.424   2.860  0.0673  0.2937 -2.1747
 5558TP3      O28492   0.334   2.197   1.507  0.6445 -0.8725  0.2779
 5558TP3     H128493   0.335   2.238   1.593 -1.2452  0.7672 -0.4319
 5558TP3     H228494   0.382   2.257   1.450 -0.6916 -0.4388 -0.4193
 5559TP3      O28495   3.584   3.735   2.154 -0.0788  0.0595  0.6154
 5559TP3     H128496   3.512   3.733   2.217 -2.1325  1.6238 -1.5889
 5559TP3     H228497   3.580   3.822   2.115  3.7125  0.5656  1.1867
 5560TP3      O28498   1.637   0.209   0.526 -0.2671  0.6368  0.2623
 5560TP3     H128499   1.732   0.203   0.527 -0.2675  0.7849  1.2118
 5560TP3     H228500   1.610   0.150   0.455  0.4102 -1.1000  1.4226
 5561TP3      O28501   0.950   3.782   1.577  0.1306 -0.1978  0.1129
 5561TP3     H128502   0.950   3.844   1.504  1.7078 -0.7080 -0.3345
 5561TP3     H228503   0.984   3.701   1.540 -0.6463 -0.9466  1.0201
 5562TP3      O28504   5.085   2.305   2.437 -0.0692  0.4137  0.5676
 5562TP3     H128505   5.066   2.380   2.380 -0.1590 -0.3755 -0.4379
 5562TP3     H228506   5.026   2.236   2.407 -0.4847  0.1474  1.9512
 5563TP3      O28507   3.958   3.392   2.113  0.7449 -0.2116  0.1811
 5563TP3     H128508   3.877   3.363   2.155  0.5912  0.3750  0.2927
 5563TP3     H228509   4.017   3.411   2.187  1.1174 -0.9935  0.0987
 5564TP3      O28510   5.230   0.187   1.429 -0.0227  0.4679 -0.3869
 5564TP3     H128511   5.311   0.181   1.479  0.3358  1.2763 -0.8488
 5564TP3     H228512   5.250   0.251   1.360 -0.8953  0.2989 -0.8015
 5565TP3      O28513   3.196   0.104   2.606  0.0900  0.0717 -0.0737
 5565TP3     H128514   3.213   0.185   2.655  1.5138 -1.3605  1.9044
 5565TP3     H228515   3.101   0.096   2.605 -0.0184  0.9898  1.0476
 5566TP3      O28516   2.158   1.523   1.596 -0.0216 -0.0102 -0.0170
 5566TP3     H128517   2.241   1.479   1.577  0.2521  0.3184  0.3918
 5566TP3     H228518   2.123   1.476   1.671  0.1978  0.3695  0.3255
 5567TP3      O28519   1.136   1.364   8.163 -0.0629  0.1350  0.3319
 5567TP3     H128520   1.085   1.445   8.154 -0.0060  0.1673  0.3025
 5567TP3     H228521   1.087   1.312   8.227 -0.4393 -0.0739 -0.1171
 5568TP3      O28522   4.292   2.029   1.051 -0.3142 -0.1246  0.0014
 5568TP3     H128523   4.217   1.976   1.078  0.1997 -0.3646  0.9686
 5568TP3     H228524   4.281   2.112   1.096  1.2185 -0.9721  2.0234
 5569TP3      O28525   4.227   1.196   0.580  0.4021 -0.5844 -0.0405
 5569TP3     H128526   4.286   1.271   0.567 -0.2118 -0.3363 -1.6330
 5569TP3     H228527   4.222   1.155   0.493  0.4240 -2.2510  0.7306
 5570TP3      O28528   2.412   3.507   2.914 -0.4811  0.1492 -0.2784
 5570TP3     H128529   2.347   3.571   2.887 -1.4311 -0.3448  0.8030
 5570TP3     H228530   2.367   3.422   2.908  0.6415 -0.3914 -1.3301
 5571TP3      O28531   3.014   2.597   2.203 -0.1253 -0.2015  0.4004
 5571TP3     H128532   2.980   2.686   2.212  0.3148 -0.2287  2.8787
 5571TP3     H228533   2.946   2.548   2.158 -1.6912  0.6891  1.7523
 5572TP3      O28534   2.257   4.522   0.490  0.6159 -0.0847  0.7173
 5572TP3     H128535   2.276   4.606   0.531  4.9749 -0.6813  0.1328
 5572TP3     H228536   2.282   4.533   0.399  1.3994 -2.0698  0.6626
 5573TP3      O28537   1.923   3.237   0.951  0.1131 -0.0371  0.6948
 5573TP3     H128538   1.918   3.321   0.997  1.4085 -0.6716  2.0045
 5573TP3     H228539   1.915   3.261   0.858  0.4676  1.5343  1.0464
 5574TP3      O28540   4.569   0.896   3.000 -0.4422  0.3241 -0.2040
 5574TP3     H128541   4.619   0.975   3.022 -1.3694  1.6231 -2.4511
 5574TP3     H228542   4.617   0.857   2.927 -0.9056 -0.2236 -0.2192
 5575TP3      O28543   4.164   3.890   1.778  0.2981 -0.1846 -0.3087
 5575TP3     H128544   4.109   3.883   1.856  1.4189  0.8139  0.5996
 5575TP3     H228545   4.129   3.825   1.717 -0.3649 -1.2394  1.1768
 5576TP3      O28546   4.241   3.490   1.808  0.1038  0.1355  0.2308
 5576TP3     H128547   4.150   3.501   1.835  0.2634  0.0277  0.8103
 5576TP3     H228548   4.274   3.418   1.862 -0.0865 -1.2721 -1.4804
 5577TP3      O28549   1.253   4.436   1.268  0.1671 -0.1006  0.0950
 5577TP3     H128550   1.264   4.420   1.174  0.1345 -0.2762  0.1200
 5577TP3     H228551   1.218   4.524   1.273 -2.3920 -1.0661 -0.2039
 5578TP3      O28552   3.379   5.276   2.469 -0.0522 -0.0249  0.4616
 5578TP3     H128553   3.309   5.318   2.518 -0.3297  0.5604 -0.4187
 5578TP3     H228554   3.453   5.337   2.475 -0.2501  0.2925 -0.2739
 5579TP3      O28555   1.641   1.469   9.847  0.7466 -0.2795 -0.5962
 5579TP3     H128556   1.615   1.509   9.764 -0.3240  3.1500  1.3004
 5579TP3     H228557   1.706   1.530   9.883  0.7157 -1.3906  1.4010
 5580TP3      O28558   3.623   0.030   1.496 -1.4198  0.1222 -0.5257
 5580TP3     H128559   3.550   0.073   1.539 -1.1208 -0.5696  0.7082
 5580TP3     H228560   3.665  -0.021   1.565 -1.8332 -2.2549 -1.9464
 5581TP3      O28561   0.186   1.658   9.485 -0.3235  0.9470 -0.5035
 5581TP3     H128562   0.128   1.680   9.558 -0.5788  0.0058 -0.4158
 5581TP3     H228563   0.261   1.615   9.527 -1.3693 -1.3795 -0.9426
 5582TP3      O28564   1.997   5.027   2.193 -0.3220  0.2526  0.3648
 5582TP3     H128565   2.087   5.010   2.222  0.5489 -0.1179 -2.4219
 5582TP3     H228566   1.943   5.003   2.268  1.8317 -0.8211  1.6230
 5583TP3      O28567   0.332   2.161   0.851  0.0340 -0.1876 -0.3563
 5583TP3     H128568   0.385   2.128   0.924 -0.4170 -1.7560 -0.7418
 5583TP3     H228569   0.246   2.121   0.863 -0.2317  0.0573 -1.3897
 5584TP3      O28570   1.415   3.006   1.102 -0.1385  0.5054  0.1477
 5584TP3     H128571   1.476   2.961   1.044 -0.5519 -0.7483  0.6753
 5584TP3     H228572   1.465   3.079   1.137  1.0116 -0.4089  0.4267
 5585TP3      O28573   0.633   2.127   1.675 -0.0203 -0.1063  0.4172
 5585TP3     H128574   0.654   2.184   1.748 -0.4031 -0.0740  0.5057
 5585TP3     H228575   0.557   2.077   1.705 -1.0772  0.9365 -0.4894
 5586TP3      O28576   0.269   0.966   0.139  0.0605  0.4521 -0.1653
 5586TP3     H128577   0.248   0.966   0.046 -0.7318  1.1408  0.0017
 5586TP3     H228578   0.342   1.027   0.147 -1.7320  2.6494  0.0340
 5587TP3      O28579   2.772   3.040   7.199 -0.1597 -0.0365 -0.1840
 5587TP3     H128580   2.739   3.130   7.199 -0.2842 -0.0824 -0.0637
 5587TP3     H228581   2.756   3.009   7.288 -0.8027 -0.4370 -0.4409
 5588TP3      O28582   4.680   5.102   2.882 -0.2297  0.1299  0.6632
 5588TP3     H128583   4.705   5.105   2.974  3.7689  2.0687 -0.3568
 5588TP3     H228584   4.686   5.194   2.853 -0.1026 -0.6145 -1.8079
 5589TP3      O28585   5.111   1.205   2.030 -0.1420 -0.0359 -0.4927
 5589TP3     H128586   5.062   1.233   2.107  2.2350 -0.1997  1.1451
 5589TP3     H228587   5.104   1.278   1.969 -0.1307  1.0487  0.7972
 5590TP3      O28588   2.722   1.972   8.751 -0.3524  0.3402  0.0965
 5590TP3     H128589   2.787   1.985   8.820 -0.8761 -0.0286  0.6657
 5590TP3     H228590   2.770   1.932   8.680  0.0601  0.1392  0.4865
 5591TP3      O28591   3.673   1.114   1.992  0.0348 -0.3387 -0.2811
 5591TP3     H128592   3.668   1.164   1.910  1.5278  0.0328 -0.1590
 5591TP3     H228593   3.606   1.046   1.982 -1.1409  0.9002 -0.9824
 5592TP3      O28594   2.057   0.401   0.211  0.8402 -0.0290  0.4865
 5592TP3     H128595   1.988   0.437   0.156  0.7426 -0.6687  0.1778
 5592TP3     H228596   2.046   0.306   0.204  1.2387 -0.1252  1.0882
 5593TP3      O28597   0.169   0.148   8.495 -0.1374 -0.3605 -0.0945
 5593TP3     H128598   0.120   0.186   8.568 -2.8882 -2.1325 -0.9679
 5593TP3     H228599   0.176   0.219   8.431 -0.2476  0.3454  0.6692
 5594TP3      O28600   4.565   4.234   3.081 -0.3122 -0.0636  0.3293
 5594TP3     H128601   4.556   4.199   3.170 -1.3772 -0.9188 -0.1125
 5594TP3     H228602   4.476   4.256   3.055 -0.1827 -1.1873 -1.0821
 5595TP3      O28603   1.115   2.323   1.444 -0.2773  0.1662  0.1887
 5595TP3     H128604   1.080   2.402   1.401 -0.0872  1.2376  1.9904
 5595TP3     H228605   1.038   2.283   1.485  0.1221  1.0116  1.7763
 5596TP3      O28606   4.351   5.234   1.581 -0.3659  0.2600  0.1550
 5596TP3     H128607   4.261   5.243   1.613 -0.6326  1.7533 -0.9446
 5596TP3     H228608   4.365   5.312   1.527  1.3423 -0.3292 -0.2856
 5597TP3      O28609   0.408   3.889   1.684 -0.1884 -0.3960 -0.2646
 5597TP3     H128610   0.378   3.977   1.664 -1.6854 -0.0916  3.0450
 5597TP3     H228611   0.334   3.833   1.664  0.3952 -0.7987 -1.3406
 5598TP3      O28612   5.235   4.764   1.992 -0.0178 -0.4134  0.4779
 5598TP3     H128613   5.235   4.669   1.998  0.5161 -0.5695 -1.4897
 5598TP3     H228614   5.318   4.790   2.032 -0.3987 -0.7286  1.4846
 5599TP3      O28615   4.274   2.665   2.100  0.2355 -0.0721 -0.2969
 5599TP3     H128616   4.219   2.594   2.133 -1.0594  0.8486 -0.3979
 5599TP3     H228617   4.261   2.663   2.005  0.1775  0.2926 -0.3002
 5600TP3      O28618   4.980   0.463   9.820  0.4662  0.2435  0.3351
 5600TP3     H128619   4.899   0.509   9.843  0.3131 -0.7331  1.7950
 5600TP3     H228620   5.044   0.533   9.807 -1.1248  1.1618 -3.0994
 5601TP3      O28621   3.960   0.415   3.376  0.4724  0.6468  0.1083
 5601TP3     H128622   3.888   0.399   3.316 -1.2266  2.5478  1.5469
 5601TP3     H228623   3.942   0.503   3.411  3.6536  1.2817  0.2605
 5602TP3      O28624   3.617   5.005   0.162 -0.3426  0.5802  0.4445
 5602TP3     H128625   3.544   5.060   0.193  0.9122  1.7526  1.3681
 5602TP3     H228626   3.694   5.039   0.208  0.9713  0.0117 -1.2917
 5603TP3      O28627   0.204   1.948   7.868  0.1990 -0.5534 -1.0026
 5603TP3     H128628   0.176   1.866   7.909  1.0481  0.8233  2.5738
 5603TP3     H228629   0.291   1.928   7.832  1.1880 -0.8795  1.3865
 5604TP3      O28630   0.614   0.378   0.218  0.2638 -0.4426  0.1732
 5604TP3     H128631   0.584   0.469   0.223 -1.3099 -0.9580  0.3693
 5604TP3     H228632   0.710   0.385   0.212  0.1287  1.2430 -0.4360
 5605TP3      O28633   3.151   4.235   1.620 -0.1289  0.0449 -0.3473
 5605TP3     H128634   3.190   4.309   1.667 -1.0939  0.5165 -0.2688
 5605TP3     H228635   3.194   4.158   1.656  1.2707  0.5973 -0.8060
 5606TP3      O28636   3.886   3.196   8.219  0.3275 -0.3379 -0.2871
 5606TP3     H128637   3.973   3.180   8.257  0.7048 -0.4273 -1.1668
 5606TP3     H228638   3.840   3.113   8.230 -0.4909  0.4338  2.3439
 5607TP3      O28639   4.900   4.187   2.084 -0.1989 -0.3265 -0.1877
 5607TP3     H128640   4.903   4.187   2.180 -3.4901  1.5140  0.0062
 5607TP3     H228641   4.821   4.238   2.063 -0.1598 -1.6421 -3.8539
 5608TP3      O28642   4.129   3.068   1.949 -0.1791 -0.4049  0.7111
 5608TP3     H128643   4.120   3.027   2.035 -0.8405  0.2437  0.9526
 5608TP3     H228644   4.180   3.147   1.965  0.7317 -0.9093  0.3132
 5609TP3      O28645   2.573   0.978   0.422 -0.0205 -0.0314  0.2316
 5609TP3     H128646   2.648   0.936   0.381  0.4978  0.4422  0.6869
 5609TP3     H228647   2.519   0.906   0.456 -0.7779 -0.4708 -1.8164
 5610TP3      O28648   3.554   0.762   0.418 -0.4861 -0.2968  0.3484
 5610TP3     H128649   3.460   0.745   0.417 -0.7038  0.7835  1.0841
 5610TP3     H228650   3.594   0.675   0.421 -1.3705 -0.8632 -2.5286
 5611TP3      O28651   0.762   1.790   8.437  0.0735 -0.6527 -0.3459
 5611TP3     H128652   0.822   1.746   8.498 -1.7990 -0.8743  1.4021
 5611TP3     H228653   0.731   1.720   8.379  0.9263 -0.6783 -0.7754
 5612TP3      O28654   3.483   3.574   0.770  0.0256 -0.4842  0.1959
 5612TP3     H128655   3.475   3.588   0.864  1.4651 -1.8503  0.5384
 5612TP3     H228656   3.416   3.508   0.750 -0.1914 -0.2902  0.2729
 5613TP3      O28657   3.488   3.842   1.703  0.5241 -0.0525  0.2422
 5613TP3     H128658   3.583   3.838   1.698  0.8440  2.4710  2.9684
 5613TP3     H228659   3.464   3.766   1.757  0.9795 -0.6632 -0.4076
 5614TP3      O28660   2.110   4.163   2.514 -0.3113 -0.2101 -0.0745
 5614TP3     H128661   2.016   4.157   2.497 -0.1892  0.1972 -0.9098
 5614TP3     H228662   2.135   4.075   2.541 -1.1991  0.0187  1.5360
 5615TP3      O28663   1.320   4.691   1.524 -0.2501  0.0611  0.3719
 5615TP3     H128664   1.321   4.724   1.614  1.7838  1.7652 -0.2158
 5615TP3     H228665   1.381   4.617   1.524  1.0298  1.0997  0.0593
 5616TP3      O28666   2.426   5.120   1.776 -0.2503  0.1643 -0.1042
 5616TP3     H128667   2.480   5.042   1.769  0.7156  0.8035  0.2535
 5616TP3     H228668   2.365   5.101   1.847 -0.0593 -0.2833 -0.0608
 5617TP3      O28669   0.655   1.117   0.193 -0.1369 -0.7875  0.2820
 5617TP3     H128670   0.646   1.024   0.172 -0.9750 -0.9723  1.3839
 5617TP3     H228671   0.741   1.124   0.235  0.4763 -0.8383 -0.9620
 5618TP3      O28672   3.535   4.355   1.464  0.0128 -0.2806  0.0141
 5618TP3     H128673   3.450   4.396   1.449 -0.6391 -2.2531 -1.8707
 5618TP3     H228674   3.542   4.352   1.560 -0.5297  2.8616  0.2153
 5619TP3      O28675   4.918   2.879   1.971  0.0975  0.0282  0.0508
 5619TP3     H128676   4.882   2.924   2.048 -0.3737  0.0863 -0.1996
 5619TP3     H228677   4.871   2.795   1.969 -0.9499  0.6338 -1.0120
 5620TP3      O28678   2.381   0.167   0.410 -0.2384  0.4357  0.0966
 5620TP3     H128679   2.412   0.256   0.430  1.8215 -0.4599  1.0533
 5620TP3     H228680   2.387   0.160   0.315  0.2326  1.1001  0.0741
 5621TP3      O28681   4.100   3.026   3.352  0.4916 -0.1221 -0.4060
 5621TP3     H128682   4.098   3.036   3.448  2.1141 -1.6958 -0.1780
 5621TP3     H228683   4.148   2.944   3.338  0.8285  0.4341 -2.5942
 5622TP3      O28684   1.181   2.730   9.442 -0.1572  0.3071 -0.0796
 5622TP3     H128685   1.173   2.737   9.537 -3.6283  1.1885 -0.3539
 5622TP3     H228686   1.227   2.810   9.417 -0.3114  0.6785  0.7824
 5623TP3      O28687   4.375   1.376   2.155 -0.2013 -0.3805  0.4803
 5623TP3     H128688   4.322   1.450   2.127 -1.3425 -0.9250  1.1448
 5623TP3     H228689   4.447   1.415   2.205 -0.7988  0.2813  0.8365
 5624TP3      O28690   1.130   1.797  10.049 -0.0925 -0.6782 -0.0700
 5624TP3     H128691   1.148   1.707  10.022 -1.8893 -1.5572  1.5388
 5624TP3     H228692   1.099   1.789  10.139 -0.6634  1.5208 -0.0485
 5625TP3      O28693   0.485   0.972   1.611 -0.2066 -0.0664 -0.0914
 5625TP3     H128694   0.421   1.018   1.556  0.3764 -1.4853 -1.9712
 5625TP3     H228695   0.432   0.930   1.679 -1.1592 -0.2665 -0.9531
 5626TP3      O28696   0.492   1.713   2.167 -0.3543 -0.6895  0.2337
 5626TP3     H128697   0.525   1.802   2.178 -0.1257 -1.0375  2.4899
 5626TP3     H228698   0.558   1.657   2.206 -0.5908 -1.8705 -0.9923
 5627TP3      O28699   2.853   1.560   3.385  0.2656 -0.9104 -0.3088
 5627TP3     H128700   2.863   1.479   3.435  0.6734 -0.8329 -0.2674
 5627TP3     H228701   2.777   1.603   3.425  0.2893 -1.0825 -0.0761
 5628TP3      O28702   0.042   1.901   0.515  0.8835 -0.1820  0.4429
 5628TP3     H128703   0.049   1.942   0.429 -0.1740  0.4587  0.6491
 5628TP3     H228704   0.016   1.811   0.496  2.6799 -0.6337  0.0133
 5629TP3      O28705   4.715   1.280   8.926 -0.1887  0.3177 -0.2986
 5629TP3     H128706   4.747   1.199   8.965  1.8424  0.7753 -0.9291
 5629TP3     H228707   4.654   1.316   8.990  1.0770 -0.2745  1.2661
 5630TP3      O28708   0.891   0.051   1.062 -0.0444 -0.4706 -0.2519
 5630TP3     H128709   0.870   0.144   1.064 -1.8662 -0.8501 -0.7976
 5630TP3     H228710   0.979   0.047   1.024 -0.1829  0.9710 -0.7464
 5631TP3      O28711   2.878   1.605   1.966  0.4107  0.2944  0.5729
 5631TP3     H128712   2.919   1.685   1.997  0.3170 -0.3803  2.4760
 5631TP3     H228713   2.904   1.600   1.874  1.1491  2.0358  0.6590
 5632TP3      O28714   5.221   2.072   2.222 -0.6372 -0.0229  0.2720
 5632TP3     H128715   5.192   2.012   2.153 -0.9258  0.8438 -0.3669
 5632TP3     H228716   5.143   2.084   2.277 -0.3076 -0.9949  0.9591
 5633TP3      O28717   2.235   0.849   1.841  0.9680 -0.0648  0.7993
 5633TP3     H128718   2.194   0.928   1.806 -0.9471 -1.0527  0.7925
 5633TP3     H228719   2.285   0.880   1.917 -0.8221  0.9588  1.5825
 5634TP3      O28720   3.988   0.127   9.549 -0.3145  0.5152  0.2004
 5634TP3     H128721   3.977   0.093   9.461 -1.0734 -0.3083  0.6131
 5634TP3     H228722   3.903   0.115   9.591  0.1667  0.4780  1.1874
 5635TP3      O28723   3.574   2.808   0.976  0.1650 -0.4410 -0.4818
 5635TP3     H128724   3.624   2.768   0.904 -0.3372 -0.9730 -0.5380
 5635TP3     H228725   3.483   2.789   0.954 -0.0777  0.7204 -0.4953
 5636TP3      O28726   0.804   1.354   2.535 -0.4022 -0.2240  0.5572
 5636TP3     H128727   0.893   1.352   2.572 -0.1680  0.3831  0.0517
 5636TP3     H228728   0.813   1.409   2.457 -1.1135 -0.6097  0.2051
 5637TP3      O28729   2.228   1.078   9.786 -0.2844 -0.4157  0.3156
 5637TP3     H128730   2.192   1.025   9.857 -0.5493 -0.4174  0.1790
 5637TP3     H228731   2.178   1.159   9.787 -0.5848 -0.5904 -0.1453
 5638TP3      O28732   3.197   0.784   3.210  0.5645  0.4500 -0.0954
 5638TP3     H128733   3.248   0.865   3.219 -0.1478  1.0791 -1.7172
 5638TP3     H228734   3.262   0.714   3.225  0.8727  1.2874  2.9135
 5639TP3      O28735   2.867   0.205   1.812 -0.0645 -0.3778 -0.1946
 5639TP3     H128736   2.913   0.177   1.891  0.1167 -0.5300 -0.3528
 5639TP3     H228737   2.808   0.132   1.792 -0.2749 -0.2411 -0.0692
 5640TP3      O28738   3.720   5.082   0.865 -0.0813 -0.6170  0.0189
 5640TP3     H128739   3.716   5.066   0.771 -0.8700 -0.4951  0.0296
 5640TP3     H228740   3.633   5.058   0.897 -0.6785  1.8526  0.3164
 5641TP3      O28741   0.799   4.604   1.718  0.4445 -0.1515 -0.0188
 5641TP3     H128742   0.880   4.618   1.670 -0.3346  2.6679 -0.6107
 5641TP3     H228743   0.739   4.567   1.653  1.1907 -2.1973  0.4103
 5642TP3      O28744   4.412   3.333   2.505  0.3884  0.4529  0.5667
 5642TP3     H128745   4.497   3.290   2.511 -0.2397 -0.6078  2.2580
 5642TP3     H228746   4.370   3.315   2.589 -2.2515 -0.6345 -0.9227
 5643TP3      O28747   4.750   4.631   3.595  0.4652 -1.4076  0.5950
 5643TP3     H128748   4.815   4.678   3.542  0.8633 -1.7253  0.7989
 5643TP3     H228749   4.678   4.693   3.605  0.7519 -1.0382  0.3980
 5644TP3      O28750   1.052   3.545   1.502  0.4337  0.0818 -0.9606
 5644TP3     H128751   1.137   3.501   1.506  0.4592  0.1877 -0.3134
 5644TP3     H228752   0.988   3.474   1.501  0.4152  0.0244  1.4672
 5645TP3      O28753   3.712   5.113   1.675  0.0772  0.0216  0.7910
 5645TP3     H128754   3.711   5.021   1.698 -0.2980 -0.1395  0.1416
 5645TP3     H228755   3.789   5.123   1.618  0.2487  0.1599  1.0414
 5646TP3      O28756   4.569   4.637   2.408  0.7462 -0.1654 -0.3252
 5646TP3     H128757   4.553   4.647   2.314 -4.2880  0.3029  0.4491
 5646TP3     H228758   4.579   4.543   2.421 -2.3822 -0.6162 -0.8824
 5647TP3      O28759   3.330   0.678   1.546  0.0110 -0.3956  0.2808
 5647TP3     H128760   3.296   0.744   1.486  1.8974  1.6940  1.4554
 5647TP3     H228761   3.261   0.666   1.611 -0.2239  0.6801  0.2366
 5648TP3      O28762   0.029   2.368   3.083  0.2678 -0.0516 -0.3981
 5648TP3     H128763   0.125   2.365   3.087  0.2271 -0.6277  0.5283
 5648TP3     H228764   0.008   2.343   2.994  0.9813 -0.0633 -0.5686
 5649TP3      O28765   2.772   3.883   1.732 -0.8832 -0.2852  0.0032
 5649TP3     H128766   2.867   3.897   1.739 -1.0024  0.4561  0.1565
 5649TP3     H228767   2.734   3.970   1.745 -1.5691 -0.5213 -0.4320
 5650TP3      O28768   1.030   0.095   2.061 -0.2793 -0.4584  0.0282
 5650TP3     H128769   0.961   0.049   2.013  0.4560 -1.1986 -0.3366
 5650TP3     H228770   1.079   0.026   2.105  1.0976 -0.0865 -0.8716
 5651TP3      O28771   0.373   3.126   2.088  0.2999 -0.3741 -0.6473
 5651TP3     H128772   0.366   3.209   2.136  3.2407 -0.7249  0.5591
 5651TP3     H228773   0.331   3.143   2.004  0.1595  2.0972 -0.1326
 5652TP3      O28774   1.659   4.382   2.573  0.3369 -0.1965  0.0241
 5652TP3     H128775   1.655   4.315   2.642  1.8152 -0.5807 -0.2446
 5652TP3     H228776   1.611   4.456   2.610  0.2562 -0.7550  1.0751
 5653TP3      O28777   0.793   3.348   1.428  0.4589 -0.7170 -0.4568
 5653TP3     H128778   0.735   3.273   1.433 -0.4547  0.0582  0.6730
 5653TP3     H228779   0.822   3.350   1.337 -1.5085 -0.9424 -1.0977
 5654TP3      O28780   2.915   2.893   1.458  0.2525  0.1635  0.2908
 5654TP3     H128781   2.956   2.938   1.532  0.2521  0.4325  0.1319
 5654TP3     H228782   2.908   2.802   1.485 -0.2587  0.3628  0.8428
 5655TP3      O28783   0.803   4.476   0.556 -0.6098 -0.8266  0.4602
 5655TP3     H128784   0.873   4.422   0.519  1.1858  0.9891  1.1523
 5655TP3     H228785   0.769   4.526   0.482  1.1713  0.8214  0.7215
 5656TP3      O28786   4.220   4.439   2.740  0.2617 -0.4746  0.3379
 5656TP3     H128787   4.236   4.498   2.666 -0.7262 -0.4888  0.1115
 5656TP3     H228788   4.126   4.447   2.757 -0.1150 -2.8224 -0.4167
 5657TP3      O28789   0.696   1.405   1.364  0.3148 -0.3429  0.1409
 5657TP3     H128790   0.727   1.320   1.334  1.0069 -0.7196  1.8719
 5657TP3     H228791   0.647   1.385   1.445 -1.0138  0.6997 -0.3876
 5658TP3      O28792   4.540   3.590   0.412 -0.3783  0.2630  0.0087
 5658TP3     H128793   4.452   3.612   0.382 -0.9064 -2.5621 -0.5675
 5658TP3     H228794   4.530   3.575   0.506 -0.2110  1.3613  0.2117
 5659TP3      O28795   5.277   3.779   2.351 -0.1380 -0.4255 -0.1996
 5659TP3     H128796   5.338   3.802   2.421  1.5750 -0.8227 -1.5344
 5659TP3     H228797   5.241   3.863   2.322 -1.7826 -0.3456  1.9308
 5660TP3      O28798   0.738   4.999   2.915 -0.1515 -0.2673  0.1949
 5660TP3     H128799   0.784   4.937   2.859 -0.1203 -0.9177  0.9428
 5660TP3     H228800   0.786   5.082   2.903 -0.6640 -0.1892 -1.3865
 5661TP3      O28801   2.650   1.064   7.983 -0.6464  0.4614 -0.3353
 5661TP3     H128802   2.599   0.985   7.964 -2.2331  1.8437 -2.0192
 5661TP3     H228803   2.689   1.088   7.899  0.3326  1.1079  0.3040
 5662TP3      O28804   4.520   1.794   0.989  0.7215  0.0428 -0.0980
 5662TP3     H128805   4.554   1.706   0.998  0.7721  0.1864  1.1879
 5662TP3     H228806   4.515   1.828   1.079  2.6674  2.0932 -0.7168
 5663TP3      O28807   1.654   3.558   9.524 -0.1101  0.2250 -0.2403
 5663TP3     H128808   1.591   3.612   9.477  1.4127  1.6666 -0.6593
 5663TP3     H228809   1.691   3.617   9.590  1.2724 -0.4031 -0.4406
 5664TP3      O28810   0.919   2.000   1.971  0.0936  0.3839  0.2218
 5664TP3     H128811   1.003   2.009   1.927  0.1496 -0.7339  0.0829
 5664TP3     H228812   0.894   2.090   1.995  0.0701  1.0084 -2.0545
 5665TP3      O28813   1.300   2.516   0.159 -0.3645 -0.3826 -0.0875
 5665TP3     H128814   1.280   2.456   0.231 -0.0303 -0.5157 -0.1038
 5665TP3     H228815   1.377   2.565   0.190 -0.4377 -0.1911 -0.2087
 5666TP3      O28816   1.738   2.548   1.009  0.0392 -0.5309  0.4583
 5666TP3     H128817   1.680   2.615   0.971 -0.4587 -0.0403  2.0515
 5666TP3     H228818   1.682   2.501   1.071  0.9522 -1.0502  0.8897
 5667TP3      O28819   4.260   0.365   9.425 -0.0475  0.2109  0.0716
 5667TP3     H128820   4.254   0.270   9.420 -1.4918  0.3650 -1.2197
 5667TP3     H228821   4.352   0.384   9.406  0.4085 -0.9547  1.0276
 5668TP3      O28822   3.958   4.593   2.489 -0.0414 -0.3257  0.0502
 5668TP3     H128823   3.937   4.512   2.443  1.4105 -0.1953 -0.8684
 5668TP3     H228824   4.054   4.593   2.495 -0.1123  0.5766  1.4115
 5669TP3      O28825   0.740   1.920   9.688 -0.3177 -0.3884 -0.4673
 5669TP3     H128826   0.835   1.910   9.697 -0.3004 -0.3674 -0.6216
 5669TP3     H228827   0.705   1.892   9.773 -0.0425  1.6902  0.3513
 5670TP3      O28828   4.027   2.938   2.378 -0.0887  0.5222  0.2674
 5670TP3     H128829   4.018   2.879   2.453 -0.1935 -0.7912 -0.7455
 5670TP3     H228830   3.945   2.926   2.329  0.3898  0.6176 -0.5652
 5671TP3      O28831   2.862   4.058   9.524 -0.1711 -0.7951 -0.1199
 5671TP3     H128832   2.883   4.123   9.457  1.3340 -0.4765  0.6425
 5671TP3     H228833   2.773   4.081   9.552 -0.0843  0.2563 -0.6548
 5672TP3      O28834   4.228   4.583   3.844 -0.1408  0.3549  0.1906
 5672TP3     H128835   4.228   4.641   3.767 -0.7789  0.7804  0.5096
 5672TP3     H228836   4.148   4.531   3.834  1.0696 -1.3790 -0.7658
 5673TP3      O28837   0.765   2.708   2.511  0.0193 -0.0324  0.7109
 5673TP3     H128838   0.758   2.700   2.416  1.0104 -0.8194  0.6914
 5673TP3     H228839   0.734   2.797   2.530 -3.0910 -0.9121 -0.0094
 5674TP3      O28840   4.572   1.290   1.213 -1.2425  0.1427  0.1819
 5674TP3     H128841   4.620   1.372   1.203  0.3054 -0.7983 -0.2933
 5674TP3     H228842   4.481   1.312   1.191 -0.5191  1.3436 -1.7264
 5675TP3      O28843   0.744   2.431   1.483  0.1888  0.0425 -0.2440
 5675TP3     H128844   0.662   2.419   1.531 -0.8591 -1.5948 -2.3264
 5675TP3     H228845   0.734   2.516   1.439  0.0060  0.2880  0.2759
 5676TP3      O28846   0.362   4.186   1.124 -0.1917  0.2931 -0.0911
 5676TP3     H128847   0.314   4.134   1.188  1.1468 -0.3468  0.4013
 5676TP3     H228848   0.386   4.123   1.056 -0.6618  0.7608 -0.7002
 5677TP3      O28849   1.171   4.253   2.351  0.0074  0.5180 -0.3876
 5677TP3     H128850   1.115   4.184   2.388  0.0303 -0.0117 -1.3394
 5677TP3     H228851   1.238   4.268   2.417 -0.9033  0.7330  0.5075
 5678TP3      O28852   3.030   2.107   2.047  0.1740  0.1537  0.5583
 5678TP3     H128853   2.972   2.132   2.118 -0.7031 -0.4681  0.0740
 5678TP3     H228854   2.972   2.089   1.973  1.0620  0.7222 -0.2959
 5679TP3      O28855   1.157   1.209   1.868  0.4306  0.4396 -0.7009
 5679TP3     H128856   1.245   1.178   1.849 -0.1991 -1.3419 -0.8181
 5679TP3     H228857   1.126   1.244   1.784  1.7191  2.9735 -0.1955
 5680TP3      O28858   0.154   4.678   9.523 -0.2947 -0.4802  0.0507
 5680TP3     H128859   0.110   4.597   9.496  1.0345 -1.4544  0.7458
 5680TP3     H228860   0.151   4.734   9.445 -1.0039 -1.2862 -0.5091
 5681TP3      O28861   2.023   3.688   9.447 -0.1792 -1.2582  0.1935
 5681TP3     H128862   2.085   3.678   9.520 -1.2613 -0.7103  1.1992
 5681TP3     H228863   1.963   3.614   9.455  0.3877 -1.8527 -0.8547
 5682TP3      O28864   4.964   1.913  10.128  0.0935  0.2598 -0.2574
 5682TP3     H128865   4.947   1.991  10.076  2.6177  1.3580  0.4660
 5682TP3     H228866   5.019   1.944  10.200  0.9329 -2.1472  0.1821
 5683TP3      O28867   0.548   5.275   0.712  0.3909 -0.0024 -0.0060
 5683TP3     H128868   0.546   5.238   0.800 -0.3988 -1.2073 -0.5215
 5683TP3     H228869   0.556   5.369   0.726  1.9779 -0.3237  1.3273
 5684TP3      O28870   3.984   4.023   0.522  0.2548 -0.0834 -0.1827
 5684TP3     H128871   3.946   4.049   0.606 -1.7115  1.3773 -1.4748
 5684TP3     H228872   4.049   3.957   0.545  0.2893  0.8377  2.5492
 5685TP3      O28873   0.814   0.716   0.202  0.1806 -0.0435  0.4075
 5685TP3     H128874   0.862   0.732   0.283 -0.1872  1.1293  0.3885
 5685TP3     H228875   0.879   0.675   0.144  1.1467  1.4458  0.4115
 5686TP3      O28876   3.447   2.093   0.766 -0.7875 -0.1755 -0.2531
 5686TP3     H128877   3.440   2.096   0.862 -0.4994 -2.8837 -0.1038
 5686TP3     H228878   3.541   2.087   0.749 -0.8669 -0.2185 -0.6763
 5687TP3      O28879   1.860   3.190   8.097 -0.5105 -0.2196 -0.0403
 5687TP3     H128880   1.845   3.096   8.100 -1.9925  0.0228  0.3638
 5687TP3     H228881   1.954   3.198   8.079 -0.4547 -1.7652 -0.5546
 5688TP3      O28882   0.244   0.838   2.061  0.6568  0.0390 -0.7801
 5688TP3     H128883   0.311   0.872   2.121  1.2519 -0.4744 -1.1476
 5688TP3     H228884   0.168   0.894   2.076  0.7676 -0.1443  0.5238
 5689TP3      O28885   5.206   4.246   2.483 -0.0704  0.2546 -0.3575
 5689TP3     H128886   5.138   4.307   2.511 -1.8627 -1.2245 -1.3702
 5689TP3     H228887   5.264   4.238   2.559 -1.0985  1.4411  0.5676
 5690TP3      O28888   3.156   3.819   2.500  0.1134  0.0183 -0.0700
 5690TP3     H128889   3.164   3.899   2.553  0.7315  1.6936 -2.6018
 5690TP3     H228890   3.068   3.825   2.462  1.0623  0.7622 -2.1987
 5691TP3      O28891   4.939   0.442   1.466  0.2737  0.1264  0.4772
 5691TP3     H128892   5.020   0.481   1.500  0.9221 -0.5571 -0.2591
 5691TP3     H228893   4.905   0.508   1.406  1.3185 -0.3744 -0.6936
 5692TP3      O28894   3.734   4.103   1.810 -0.1355  0.1234  0.6839
 5692TP3     H128895   3.755   4.081   1.900 -0.1106 -1.5341  0.2884
 5692TP3     H228896   3.741   4.020   1.763  1.2585  1.2265 -1.1162
 5693TP3      O28897   1.608   3.302   1.958 -0.1421 -0.1152  0.1666
 5693TP3     H128898   1.549   3.229   1.975 -1.1411  0.7272  0.4099
 5693TP3     H228899   1.552   3.371   1.924 -0.0001  2.0243  3.9058
 5694TP3      O28900   1.913   2.171   1.477  0.2367  0.9245  0.9189
 5694TP3     H128901   1.966   2.110   1.527 -1.6621 -0.5206  1.2236
 5694TP3     H228902   1.869   2.224   1.544 -0.8491  0.2440  0.7534
 5695TP3      O28903   4.933   2.913   1.359  0.8877 -0.0538  0.2747
 5695TP3     H128904   5.019   2.873   1.342 -0.5872 -3.2321 -0.0770
 5695TP3     H228905   4.878   2.840   1.386 -2.6723  1.2461 -3.0629
 5696TP3      O28906   1.189   0.104   2.563 -0.1477 -0.0692 -0.1315
 5696TP3     H128907   1.196   0.067   2.475 -1.7159 -0.2797 -0.1875
 5696TP3     H228908   1.095   0.111   2.578  0.1137  0.8120  1.1796
 5697TP3      O28909   0.328   3.768   2.812  0.3249  0.1497  0.1351
 5697TP3     H128910   0.254   3.828   2.825  0.3079 -0.1814  1.6366
 5697TP3     H228911   0.310   3.726   2.728 -0.4164  1.1778 -0.2373
 5698TP3      O28912   4.460   2.364   2.409 -0.2211 -0.2430 -0.5420
 5698TP3     H128913   4.372   2.397   2.429 -0.1092 -0.6859  0.7314
 5698TP3     H228914   4.485   2.411   2.330 -1.4106  0.2579 -0.6385
 5699TP3      O28915   0.148   4.252   9.978  0.1462  0.4581 -0.3270
 5699TP3     H128916   0.057   4.277   9.961 -0.1673 -0.4593 -0.0142
 5699TP3     H228917   0.155   4.163   9.943  1.1179  0.7875 -0.9843
 5700TP3      O28918   1.473   2.916   0.389 -0.2977  0.0824 -0.1076
 5700TP3     H128919   1.532   2.992   0.381  0.0398 -0.2634 -0.9500
 5700TP3     H228920   1.388   2.949   0.359 -0.0105 -0.0433 -1.0501
 5701TP3      O28921   1.349   2.953   1.842  0.0188  0.4521  0.4742
 5701TP3     H128922   1.263   2.917   1.863  0.5876 -0.7010  0.8680
 5701TP3     H228923   1.360   3.027   1.902 -0.4360  0.2262  0.8351
 5702TP3      O28924   0.060   0.189   1.817 -0.6729  0.3336  0.0453
 5702TP3     H128925   0.149   0.202   1.784 -1.3599  1.0048 -1.5923
 5702TP3     H228926   0.068   0.201   1.912  1.3838 -1.8376  0.1962
 5703TP3      O28927   0.213   3.416   0.799  0.0219  0.0233  0.2046
 5703TP3     H128928   0.143   3.479   0.816  0.7288  0.4234  1.6868
 5703TP3     H228929   0.265   3.416   0.879 -0.3299 -2.9208  0.4808
 5704TP3      O28930   1.180   5.171   1.211  0.2543 -0.3228  0.3000
 5704TP3     H128931   1.270   5.149   1.185 -0.1210  0.6299 -1.9161
 5704TP3     H228932   1.135   5.189   1.129 -2.3825 -2.2069  1.2565
 5705TP3      O28933   2.553   2.857   0.707 -0.1476 -0.6939  0.6545
 5705TP3     H128934   2.617   2.926   0.690 -1.1753  0.6404  2.1711
 5705TP3     H228935   2.480   2.876   0.648 -0.3435 -0.6206  0.9228
 5706TP3      O28936   5.261   3.506   2.491  0.2888 -0.0802 -0.3564
 5706TP3     H128937   5.278   3.509   2.397  1.4429  0.7163 -0.1319
 5706TP3     H228938   5.334   3.455   2.527  1.0035  1.4159  0.3554
 5707TP3      O28939   4.807   2.164  10.150 -0.2618 -0.5960 -0.0395
 5707TP3     H128940   4.894   2.202  10.139 -0.3977 -0.2288  0.1353
 5707TP3     H228941   4.819   2.096  10.218 -0.0109 -0.8974 -0.3821
 5708TP3      O28942   1.363   3.719   1.214  0.4607  0.2044 -0.2813
 5708TP3     H128943   1.386   3.690   1.303 -0.7262  0.4480  0.1231
 5708TP3     H228944   1.307   3.796   1.229  0.7448  0.5992 -1.2579
 5709TP3      O28945   0.250   0.027   8.889 -0.3012 -0.3715 -0.2362
 5709TP3     H128946   0.326   0.054   8.838 -0.6578  0.6517 -0.2299
 5709TP3     H228947   0.185   0.002   8.823 -0.2625 -0.4326 -0.2514
 5710TP3      O28948   4.995   3.980   3.024 -0.1407  0.2262  0.6067
 5710TP3     H128949   4.931   4.035   2.980 -0.4310 -0.1809  0.5129
 5710TP3     H228950   4.945   3.934   3.091  0.3280  0.9510  1.4555
 5711TP3      O28951   2.103   4.165   1.439  0.2824 -0.4290 -0.0619
 5711TP3     H128952   2.070   4.177   1.350 -0.0995  1.0789  0.2663
 5711TP3     H228953   2.074   4.077   1.464  0.1290 -0.7439 -1.3073
 5712TP3      O28954   3.745   0.818   1.577  0.1300  0.5427  0.2409
 5712TP3     H128955   3.670   0.787   1.628 -0.8918  1.5878 -0.6126
 5712TP3     H228956   3.755   0.753   1.507  0.5828 -0.0660  0.8572
 5713TP3      O28957   4.827   1.050   0.509  0.2951  0.1260  0.0678
 5713TP3     H128958   4.734   1.036   0.527  0.0189 -0.3342 -1.6928
 5713TP3     H228959   4.828   1.111   0.435  1.3582 -1.9844 -1.6996
 5714TP3      O28960   5.198   5.173   1.848 -0.6552 -0.1263 -0.0316
 5714TP3     H128961   5.286   5.164   1.812 -0.6526  2.3823 -0.7529
 5714TP3     H228962   5.209   5.231   1.924 -1.7132  0.4933 -0.3406
 5715TP3      O28963   4.666   1.133   1.429  0.6580  0.6438 -0.4059
 5715TP3     H128964   4.610   1.187   1.373 -0.3504 -0.4306 -0.4728
 5715TP3     H228965   4.607   1.101   1.497  1.2583 -0.2642 -0.3101
 5716TP3      O28966   4.988   0.983   2.252  0.0563 -0.0492  0.2149
 5716TP3     H128967   5.014   1.056   2.195 -0.5329 -1.0299 -1.3511
 5716TP3     H228968   5.015   0.905   2.204 -1.5525 -0.9395  0.7034
 5717TP3      O28969   3.474   1.852   0.599  0.0191 -0.2359  0.0424
 5717TP3     H128970   3.479   1.901   0.517 -1.2385  0.0586  0.1337
 5717TP3     H228971   3.469   1.919   0.667  0.8120 -0.4831  0.3552
 5718TP3      O28972   4.157   4.595   0.694  0.3986  0.3358  0.5377
 5718TP3     H128973   4.200   4.640   0.622 -1.9920  3.3452  0.9156
 5718TP3     H228974   4.211   4.616   0.771  0.7656  0.3254  0.2844
 5719TP3      O28975   2.661   3.741   3.075 -0.0013 -0.1986  0.2025
 5719TP3     H128976   2.707   3.714   3.155 -1.4084  0.4690  1.2790
 5719TP3     H228977   2.727   3.738   3.006  2.0837  2.2784  1.9797
 5720TP3      O28978   4.317   4.277   3.027 -0.0567 -0.2759 -0.5184
 5720TP3     H128979   4.333   4.285   2.933  0.5365 -2.4447 -0.6379
 5720TP3     H228980   4.238   4.328   3.043  0.0670  0.4320 -2.1300
 5721TP3      O28981   0.485   2.715   9.233 -0.0898 -0.0643 -0.1145
 5721TP3     H128982   0.471   2.639   9.289  2.0486 -0.5200 -0.1687
 5721TP3     H228983   0.563   2.758   9.268 -0.8860  1.7519 -0.4809
 5722TP3      O28984   4.894   3.970  10.105  0.0795  0.0809  0.1755
 5722TP3     H128985   4.815   3.998  10.059  0.2771  1.4606  0.6396
 5722TP3     H228986   4.957   3.952  10.036 -0.7203 -1.2716 -0.2088
 5723TP3      O28987   0.164   2.841   8.994  0.5686  0.6405  1.0144
 5723TP3     H128988   0.101   2.883   8.936  0.9150  1.7805  1.4496
 5723TP3     H228989   0.112   2.778   9.044  0.1546  0.1191 -0.0649
 5724TP3      O28990   2.892   3.744   2.941 -0.0377 -1.0389  0.0746
 5724TP3     H128991   2.942   3.755   2.860 -1.8196  0.5838 -0.8427
 5724TP3     H228992   2.949   3.693   2.998  1.6350 -1.3636 -1.8535
 5725TP3      O28993   0.052   2.521   8.876  0.0434 -0.0788  0.6012
 5725TP3     H128994  -0.004   2.589   8.913  0.1319  0.2237  0.1828
 5725TP3     H228995   0.082   2.471   8.952 -2.0646 -1.2434  0.6906
 5726TP3      O28996   4.801   4.658   0.921 -0.5039  0.0538 -0.3795
 5726TP3     H128997   4.882   4.622   0.959 -0.2873  1.8805  0.9314
 5726TP3     H228998   4.830   4.702   0.841 -0.1690  0.9838  0.2609
 5727TP3      O28999   2.162   4.642   9.664  0.1073  0.1613  0.2017
 5727TP3     H129000   2.090   4.581   9.679  1.0937 -0.4814  2.4165
 5727TP3     H229001   2.149   4.711   9.730  0.3407  1.1516 -0.7628
 5728TP3      O29002   0.062   0.617   8.351  0.3874  0.6596 -0.0329
 5728TP3     H129003   0.084   0.664   8.271 -1.0586  1.7242  0.1718
 5728TP3     H229004   0.144   0.576   8.378  0.9207  0.3948 -1.9763
 5729TP3      O29005   3.980   1.282   2.247 -0.8073  0.2964 -0.2697
 5729TP3     H129006   3.947   1.193   2.237 -1.1771  0.4952 -0.8712
 5729TP3     H229007   3.901   1.335   2.259 -0.4977  0.3645  1.4869
 5730TP3      O29008   0.064   4.583   2.523  0.1159 -0.2855  0.1982
 5730TP3     H129009   0.108   4.649   2.469 -0.4790  1.7058  2.0511
 5730TP3     H229010  -0.023   4.574   2.484 -0.3662  1.2595  0.8758
 5731TP3      O29011   0.933   4.305   1.827 -0.3291 -0.4664 -0.4217
 5731TP3     H129012   0.924   4.245   1.901  0.5758  0.2988  0.3243
 5731TP3     H229013   0.950   4.248   1.752 -1.3271 -1.2545 -0.0638
 5732TP3      O29014   1.976   4.319   1.644 -0.1516 -0.1340  0.3844
 5732TP3     H129015   1.955   4.231   1.675 -0.1995 -0.0418  0.6141
 5732TP3     H229016   2.018   4.305   1.559 -2.9683 -0.2160 -1.0580
 5733TP3      O29017   2.188   5.129   0.809 -0.2618 -0.3547 -0.0162
 5733TP3     H129018   2.160   5.131   0.717 -2.3710  0.6810  0.6155
 5733TP3     H229019   2.241   5.049   0.816  0.0997 -0.3404 -2.1699
 5734TP3      O29020   0.002   4.729   2.992 -0.2827  0.3114 -0.0342
 5734TP3     H129021   0.060   4.655   2.974 -1.3077 -0.7287  0.9266
 5734TP3     H229022   0.030   4.761   3.078 -1.3116 -0.3566  0.5460
 5735TP3      O29023   0.593   5.015   9.772 -0.2366  0.1497 -0.1485
 5735TP3     H129024   0.607   5.038   9.864 -0.9389 -1.1981  0.3188
 5735TP3     H229025   0.498   5.013   9.762 -0.1921 -1.1748 -0.4927
 5736TP3      O29026   3.592   3.382  10.112 -0.4050  0.3631  0.2575
 5736TP3     H129027   3.519   3.428  10.154 -1.3963 -0.4049 -0.5622
 5736TP3     H229028   3.628   3.446  10.051  0.0817  0.9928  1.2153
 5737TP3      O29029   4.002   1.943   1.094 -0.2938 -0.2616 -0.0366
 5737TP3     H129030   3.972   2.028   1.064 -2.2226 -0.7144  0.5754
 5737TP3     H229031   3.995   1.947   1.190  1.8242 -0.2939  0.1450
 5738TP3      O29032   2.080   3.055   1.056 -0.0478 -0.0226 -0.1904
 5738TP3     H129033   2.039   3.050   1.143  0.1315  0.0529 -0.1017
 5738TP3     H229034   2.030   3.124   1.011  0.9998  1.1906  0.4708
 5739TP3      O29035   1.480   0.174   3.036 -0.0397  0.5302 -0.0970
 5739TP3     H129036   1.483   0.139   3.124 -1.5580 -0.6965 -0.5153
 5739TP3     H229037   1.489   0.269   3.047  2.8648  0.1399  1.1225
 5740TP3      O29038   5.153   1.501   1.882 -0.1641  0.3521  0.2753
 5740TP3     H129039   5.201   1.527   1.960 -0.7242 -1.7714  1.3728
 5740TP3     H229040   5.205   1.534   1.809  1.6250  0.2885  1.4982
 5741TP3      O29041   0.576   1.148   3.347  0.1470 -0.5612  0.4278
 5741TP3     H129042   0.589   1.066   3.395  0.9176 -0.6160  0.1260
 5741TP3     H229043   0.498   1.132   3.294 -1.4824 -0.0554  2.6140
 5742TP3      O29044   0.424   2.262   3.240  0.0279  0.4442  0.1206
 5742TP3     H129045   0.479   2.184   3.247 -0.8411 -0.1195  0.9387
 5742TP3     H229046   0.366   2.257   3.317 -1.0987  1.0559 -0.6709
 5743TP3      O29047   0.863   2.023   3.290  0.3709 -0.2964  0.5917
 5743TP3     H129048   0.935   1.980   3.336  0.2784 -0.4568  0.5857
 5743TP3     H229049   0.906   2.088   3.234  0.4590  0.1660  1.1913
 5744TP3      O29050   1.918   0.693   2.538 -0.4665 -0.3497 -0.3653
 5744TP3     H129051   2.000   0.733   2.510  1.1938 -2.6211  1.1339
 5744TP3     H229052   1.942   0.636   2.610 -3.8355  1.1226  2.0510
 5745TP3      O29053   5.236   0.257   2.547  0.6365 -0.1174 -0.9367
 5745TP3     H129054   5.151   0.214   2.539  0.4565 -0.4305  2.0297
 5745TP3     H229055   5.262   0.241   2.637  3.0714  1.4280 -1.3271
 5746TP3      O29056   0.106   3.149   0.245 -0.3242  0.7029 -0.1387
 5746TP3     H129057   0.048   3.180   0.175  0.8818  0.3399 -1.3149
 5746TP3     H229058   0.181   3.111   0.200 -0.6086 -1.7159  1.3335
 5747TP3      O29059   0.525   1.468   2.454 -0.5549 -0.1332  0.4093
 5747TP3     H129060   0.595   1.468   2.390 -2.2320  1.2811 -1.4816
 5747TP3     H229061   0.549   1.538   2.515 -0.8873  1.1362 -0.8903
 5748TP3      O29062   5.226   0.178   3.611 -0.3376  0.3704  0.0992
 5748TP3     H129063   5.185   0.129   3.682 -0.5776  0.0220 -0.2729
 5748TP3     H229064   5.158   0.182   3.543  0.3145 -0.4126 -0.6110
 5749TP3      O29065   3.139   2.944   2.047 -0.3517  0.0564  0.1104
 5749TP3     H129066   3.207   2.877   2.055 -0.4376 -0.2584 -1.5881
 5749TP3     H229067   3.059   2.901   2.078 -0.4180 -0.6567 -1.0286
 5750TP3      O29068   4.403   4.203   2.208 -0.1563 -0.0955 -0.4675
 5750TP3     H129069   4.332   4.252   2.165 -0.8716  0.4225  1.2438
 5750TP3     H229070   4.434   4.263   2.276  3.3868  0.5373 -2.5389
 5751TP3      O29071   0.515   3.294   1.130 -0.6164  0.1728  0.2563
 5751TP3     H129072   0.492   3.374   1.178  0.9540 -0.2019  1.7055
 5751TP3     H229073   0.498   3.224   1.192 -0.6294 -0.5017 -0.5099
 5752TP3      O29074   4.070   0.278   1.718 -0.0421 -0.3832 -0.5798
 5752TP3     H129075   4.155   0.319   1.709 -0.1212 -0.1529 -0.2643
 5752TP3     H229076   4.017   0.316   1.648  0.0981 -0.4967 -0.7500
 5753TP3      O29077   2.938   0.091   3.356 -0.0592  0.5551 -0.3740
 5753TP3     H129078   2.862   0.035   3.336 -0.3867  1.0223 -0.4575
 5753TP3     H229079   3.013   0.043   3.321 -0.2983  0.0051 -0.1299
 5754TP3      O29080   2.059   0.133   3.498  0.3990  0.0368 -0.0022
 5754TP3     H129081   1.973   0.154   3.536 -0.6097  0.1159 -2.2626
 5754TP3     H229082   2.122   0.175   3.556 -1.1330  0.6503  1.2501
 5755TP3      O29083   2.219   4.169   1.781  0.4920  0.3005 -0.0803
 5755TP3     H129084   2.129   4.139   1.795  0.5965  0.0028 -0.0574
 5755TP3     H229085   2.236   4.150   1.689  0.4915  0.4709 -0.1175
 5756TP3      O29086   2.223   0.873   2.762  0.3395  0.2047 -0.1554
 5756TP3     H129087   2.317   0.881   2.782  0.3987 -0.1760 -0.2804
 5756TP3     H229088   2.179   0.893   2.845  0.5146  0.8944 -0.2255
 5757TP3      O29089   3.242   1.528   3.323  0.0310 -0.0001 -0.1512
 5757TP3     H129090   3.160   1.478   3.320  0.2399 -0.3204 -0.6571
 5757TP3     H229091   3.281   1.507   3.407 -1.5552  1.9999  1.1481
 5758TP3      O29092   2.232   5.298   3.247 -1.0924  0.3908 -0.0338
 5758TP3     H129093   2.173   5.252   3.186  0.6861 -0.9462 -0.8013
 5758TP3     H229094   2.175   5.326   3.318 -2.6937 -0.7778 -0.8070
 5759TP3      O29095   1.805   0.700   3.451  0.2694 -0.4120 -0.8576
 5759TP3     H129096   1.896   0.671   3.442  0.6028  1.1822 -3.2998
 5759TP3     H229097   1.756   0.642   3.393  0.2012  0.6587 -1.8910
 5760TP3      O29098   3.547   0.411   1.665 -0.2087 -0.1653  0.1982
 5760TP3     H129099   3.553   0.366   1.749 -1.3846  0.5411  0.6627
 5760TP3     H229100   3.473   0.370   1.621 -1.5122  1.5494  0.7714
 5761TP3      O29101   2.772   0.995   3.511  0.0794  0.0983  0.2080
 5761TP3     H129102   2.786   1.059   3.441 -1.9913 -0.1508 -0.4706
 5761TP3     H229103   2.691   1.024   3.554 -1.8596 -2.9800 -1.1840
 5762TP3      O29104   4.003   4.071   2.328  0.0673 -0.0158  0.4487
 5762TP3     H129105   4.094   4.053   2.308  0.6793  2.0724  1.1437
 5762TP3     H229106   3.978   4.005   2.392  1.3689 -0.0773  0.8976
 5763TP3      O29107   3.614   0.557   3.428  0.1566  0.0003 -0.1012
 5763TP3     H129108   3.676   0.591   3.492  0.0522 -0.5649  0.2960
 5763TP3     H229109   3.658   0.480   3.391 -0.0404 -0.0263 -0.2797
 5764TP3      O29110   0.161   1.966   1.945  0.2867 -0.5994  0.0036
 5764TP3     H129111   0.100   2.029   1.907 -0.5376 -1.2182  0.2683
 5764TP3     H229112   0.110   1.885   1.951  1.4476 -1.3965 -0.6901
 5765TP3      O29113   1.841   1.230   3.613 -0.0065 -0.5414  0.1527
 5765TP3     H129114   1.791   1.149   3.604  0.6553 -1.0685  1.1036
 5765TP3     H229115   1.838   1.270   3.527 -0.6479 -1.4024 -0.2297
 5766TP3      O29116   4.860   2.346   9.191 -0.4655 -0.1347 -0.1796
 5766TP3     H129117   4.912   2.324   9.268  0.6480 -1.4699 -1.2770
 5766TP3     H229118   4.773   2.364   9.225 -0.0630 -1.0156  1.3516
 5767TP3      O29119   3.763   5.026   2.942 -0.1769 -0.0342 -0.4240
 5767TP3     H129120   3.693   4.996   3.001 -0.5876  1.2634 -0.2439
 5767TP3     H229121   3.799   5.103   2.985 -0.0185  0.5221 -1.5512
 5768TP3      O29122   2.665   5.088   0.229  0.1143  0.1968  0.2313
 5768TP3     H129123   2.713   5.005   0.228  0.8290  0.5700  2.0180
 5768TP3     H229124   2.725   5.151   0.189  0.9436  0.5536  1.9909
 5769TP3      O29125   1.019   1.438   2.838 -0.2518 -0.2298  0.4087
 5769TP3     H129126   1.107   1.434   2.801 -0.9003  0.6335 -1.2485
 5769TP3     H229127   1.029   1.405   2.927  1.4808 -1.4817 -0.2386
 5770TP3      O29128   3.059   4.978   3.151 -0.4073 -0.2637  0.2314
 5770TP3     H129129   3.081   4.922   3.076  0.4157  1.0819 -0.5618
 5770TP3     H229130   2.965   4.992   3.144 -0.5743 -1.3284  0.2904
 5771TP3      O29131   2.716   1.141   3.000 -0.4752  0.1365 -1.0055
 5771TP3     H129132   2.790   1.197   2.976  0.0150 -0.4388 -0.8591
 5771TP3     H229133   2.729   1.061   2.949 -0.2562 -0.4955  0.0240
 5772TP3      O29134   1.917   3.007   2.660  0.2784  0.0059 -0.2016
 5772TP3     H129135   1.908   3.024   2.754 -0.9770  0.5644 -0.4024
 5772TP3     H229136   1.844   2.949   2.639  1.2710 -1.1011 -0.6065
 5773TP3      O29137   0.138   0.227   3.269 -0.6902 -0.3592 -0.0414
 5773TP3     H129138   0.057   0.203   3.224 -0.7959  1.3575 -0.7906
 5773TP3     H229139   0.201   0.242   3.199  0.1688 -1.2565  0.5222
 5774TP3      O29140   0.054   2.448   3.431  0.0208  0.0715 -0.3534
 5774TP3     H129141   0.042   2.446   3.526  0.4386 -0.4592 -0.3124
 5774TP3     H229142   0.131   2.504   3.418  0.5195 -0.6002 -0.3223
 5775TP3      O29143   3.861   0.667   3.537 -0.1549 -0.5480  0.4910
 5775TP3     H129144   3.922   0.683   3.609  0.8177  0.8617 -0.6023
 5775TP3     H229145   3.847   0.754   3.498 -1.1286 -1.1918 -0.6423
 5776TP3      O29146   1.819   3.250   2.550  0.3256 -0.4314  0.4666
 5776TP3     H129147   1.860   3.179   2.600  0.4016 -0.7611 -0.0605
 5776TP3     H229148   1.743   3.275   2.602  0.8524 -0.2312  1.1463
 5777TP3      O29149   0.181   2.772   9.916  0.5176  0.4141  0.1268
 5777TP3     H129150   0.218   2.844   9.866 -0.3344 -0.0155 -1.1528
 5777TP3     H229151   0.210   2.693   9.869 -3.9727  0.1245 -2.3690
 5778TP3      O29152   4.395   0.382   2.690 -0.0066  0.3651 -0.8686
 5778TP3     H129153   4.360   0.471   2.686 -1.9476 -0.3524 -0.5590
 5778TP3     H229154   4.322   0.327   2.664  1.1834 -1.1482 -1.0500
 5779TP3      O29155   4.190   1.482   3.162  0.3669  0.7323 -0.0970
 5779TP3     H129156   4.167   1.516   3.248 -0.8443 -1.6059  0.5430
 5779TP3     H229157   4.124   1.518   3.103 -0.1834  0.4726  0.3567
 5780TP3      O29158   0.254   2.694   3.538  0.2027 -0.1984  0.4946
 5780TP3     H129159   0.300   2.755   3.596 -0.0243 -0.1199  0.5957
 5780TP3     H229160   0.323   2.641   3.499  0.5026  0.9222 -0.5148
 5781TP3      O29161   4.631   0.392   3.122 -0.0855 -0.2589 -0.5619
 5781TP3     H129162   4.588   0.477   3.126 -0.6882 -0.3322 -4.0275
 5781TP3     H229163   4.723   0.413   3.105  0.3133 -0.2539  1.4938
 5782TP3      O29164   3.219   1.854   3.285  0.3034  0.1423  0.0048
 5782TP3     H129165   3.260   1.772   3.315  1.0638  0.9291  1.1835
 5782TP3     H229166   3.151   1.872   3.351  0.6082  0.8209  0.1361
 5783TP3      O29167   0.765   4.961   9.217  0.2764  0.1851  0.5482
 5783TP3     H129168   0.683   4.938   9.173  0.7194  0.2275 -0.3063
 5783TP3     H229169   0.743   4.960   9.310 -0.8243  0.6782  0.3093
 5784TP3      O29170   5.116   2.279   3.272  0.3364 -0.3442  0.3743
 5784TP3     H129171   5.142   2.304   3.360  0.5282 -2.5603  0.9805
 5784TP3     H229172   5.179   2.324   3.215 -0.2546  1.6973  1.2991
 5785TP3      O29173   4.477   0.117   3.250 -0.0211  0.4647  0.1638
 5785TP3     H129174   4.510   0.207   3.251  0.0107  0.4631 -0.5726
 5785TP3     H229175   4.547   0.066   3.210  0.1118  0.0510  0.9327
 5786TP3      O29176   4.893   0.715   3.095 -0.0656 -0.1140  0.0140
 5786TP3     H129177   4.874   0.704   3.189  1.2796 -1.5727  0.1415
 5786TP3     H229178   4.859   0.635   3.055 -1.3203  0.8399 -0.8716
 5787TP3      O29179   5.046   2.069   0.971  0.6575  0.2503 -0.1990
 5787TP3     H129180   4.965   2.052   1.019  0.2215  1.5409 -0.4572
 5787TP3     H229181   5.052   1.998   0.907 -1.0336  0.9439 -1.1535
 5788TP3      O29182   0.550   3.364   3.149  0.1371  0.2866  0.4735
 5788TP3     H129183   0.559   3.278   3.191  1.3131 -1.1603 -2.6328
 5788TP3     H229184   0.639   3.398   3.145  0.1807 -0.0439 -1.7254
 5789TP3      O29185   0.176   4.007   2.826 -0.5108  0.4236  0.1582
 5789TP3     H129186   0.202   4.098   2.837 -1.3164  0.5470  1.1244
 5789TP3     H229187   0.096   3.998   2.878 -2.1519 -0.0876 -2.3653
 5790TP3      O29188   3.259   3.157   1.448  0.5120  0.1724  0.4161
 5790TP3     H129189   3.268   3.089   1.382 -2.0125 -0.1602  0.3659
 5790TP3     H229190   3.311   3.125   1.522 -1.2843 -2.2341  0.6978
 5791TP3      O29191   4.855   0.720   3.351 -0.1201 -0.0318  0.5892
 5791TP3     H129192   4.862   0.628   3.376 -1.9384 -0.8534 -1.6602
 5791TP3     H229193   4.778   0.752   3.397  0.5547  0.3952  1.4286
 5792TP3      O29194   1.129   2.736   2.625  0.2597 -0.1764 -0.0924
 5792TP3     H129195   1.066   2.807   2.618 -1.8046 -1.7993  1.3367
 5792TP3     H229196   1.204   2.775   2.670 -1.4033  0.7590  1.9578
 5793TP3      O29197   0.531   2.612   3.424 -0.2602 -0.4272  0.3999
 5793TP3     H129198   0.605   2.618   3.483 -0.1561 -1.6689  0.4256
 5793TP3     H229199   0.530   2.695   3.377  0.4434  0.0468  1.2130
 5794TP3      O29200   2.674   4.017   2.330 -0.5467  0.2187  0.0330
 5794TP3     H129201   2.740   4.082   2.305 -0.2118 -0.3107 -0.4679
 5794TP3     H229202   2.650   3.975   2.247  0.0846 -1.0983  0.5037
 5795TP3      O29203   2.437   0.587   2.181  0.0448 -0.3985 -0.2875
 5795TP3     H129204   2.381   0.612   2.254  0.5283  1.8044 -0.6485
 5795TP3     H229205   2.521   0.565   2.221  0.7071  2.0649 -0.2575
 5796TP3      O29206   0.713   2.683   0.708 -0.2830  0.4364  0.6796
 5796TP3     H129207   0.742   2.719   0.624 -1.0716 -0.8557 -0.1765
 5796TP3     H229208   0.618   2.700   0.710 -0.9203 -2.6524 -0.3428
 5797TP3      O29209   1.447   2.783   2.319 -0.4341 -0.1497  0.3450
 5797TP3     H129210   1.407   2.712   2.270  0.6387  0.8201 -1.9722
 5797TP3     H229211   1.510   2.740   2.377 -1.1852 -1.2391  0.3591
 5798TP3      O29212   0.095   3.493   2.919 -0.0402 -0.3981 -0.0521
 5798TP3     H129213   0.139   3.465   2.999 -0.4501 -2.4113 -0.4957
 5798TP3     H229214   0.005   3.511   2.946  0.2481  0.6058  0.2528
 5799TP3      O29215   4.780   0.219   1.196  0.1763  0.0329  0.3483
 5799TP3     H129216   4.817   0.290   1.145 -0.0140  0.9507  1.4675
 5799TP3     H229217   4.686   0.222   1.177  0.2993 -0.5500 -0.3662
 5800TP3      O29218   0.971   2.943   3.136  0.1106  0.2472  0.6415
 5800TP3     H129219   1.061   2.924   3.109  0.0217  0.1744  0.4004
 5800TP3     H229220   0.955   3.032   3.104 -0.4605 -0.3379 -0.7342
 5801TP3      O29221   1.160   3.225   3.592  0.4172 -0.0473 -0.3952
 5801TP3     H129222   1.141   3.295   3.654  1.8600 -1.0761  1.2572
 5801TP3     H229223   1.248   3.196   3.614 -0.8196 -3.6448  0.2506
 5802TP3      O29224   0.028   1.317   2.769 -0.1572  0.0435 -0.1185
 5802TP3     H129225   0.062   1.384   2.710  0.5477  0.6549  0.9466
 5802TP3     H229226  -0.053   1.355   2.804  0.4108  0.4908  0.7310
 5803TP3      O29227   1.932   3.297   0.667  0.3549 -0.1275 -0.1364
 5803TP3     H129228   1.883   3.345   0.601  1.6576  2.2534  0.5781
 5803TP3     H229229   1.900   3.207   0.659 -3.3166  1.1056 -0.4125
 5804TP3      O29230   5.113   2.891   2.767 -0.0684  0.0742  0.7121
 5804TP3     H129231   5.178   2.839   2.814  1.1397 -0.1799 -1.1927
 5804TP3     H229232   5.142   2.890   2.676 -3.1602 -0.6710 -0.3304
 5805TP3      O29233   0.984   2.517   2.527 -0.3614  0.4903 -0.5957
 5805TP3     H129234   1.066   2.552   2.563 -0.8305  1.5991 -0.6032
 5805TP3     H229235   0.922   2.590   2.532 -1.8396 -0.8228  0.9446
 5806TP3      O29236   1.207   2.772   9.692 -0.1074 -0.5916 -0.1280
 5806TP3     H129237   1.298   2.767   9.718 -0.0523 -0.1153 -0.2359
 5806TP3     H229238   1.162   2.809   9.768  0.2289  1.8879 -1.1123
 5807TP3      O29239   3.043   3.962   1.784  0.2510 -0.0492 -0.4041
 5807TP3     H129240   3.071   3.904   1.855  1.3496  0.1801 -0.6473
 5807TP3     H229241   3.121   3.974   1.730 -0.4070  0.3115 -1.2886
 5808TP3      O29242   0.920   0.190   9.458 -0.2678 -0.4182  0.1325
 5808TP3     H129243   0.970   0.127   9.406 -0.2931 -0.1141 -0.2591
 5808TP3     H229244   0.853   0.137   9.501  0.8589 -0.9458  1.2608
 5809TP3      O29245   2.099   2.673   2.854  0.2186  0.1767  0.1613
 5809TP3     H129246   2.146   2.718   2.925 -0.3250 -0.1551  0.7376
 5809TP3     H229247   2.061   2.744   2.802 -1.0248  0.4001  1.3291
 5810TP3      O29248   3.562   4.100   3.044 -0.1015 -0.6660 -0.0267
 5810TP3     H129249   3.564   4.010   3.009 -0.8586 -1.3796  1.7209
 5810TP3     H229250   3.518   4.092   3.128 -0.0850  1.3534  0.1938
 5811TP3      O29251   2.652   2.920   3.034  0.0313 -0.6335 -0.0485
 5811TP3     H129252   2.612   3.006   3.048  0.4659 -0.3310 -0.6511
 5811TP3     H229253   2.612   2.888   2.953 -0.8847 -1.4410  0.7300
 5812TP3      O29254   2.963   2.539   3.344 -0.2355 -0.1451  0.0472
 5812TP3     H129255   2.954   2.632   3.364  0.6643  0.4272 -2.0486
 5812TP3     H229256   2.931   2.495   3.423  0.8459  1.9309  1.7241
 5813TP3      O29257   2.860   3.084   2.957 -0.1282  0.3007 -0.5293
 5813TP3     H129258   2.800   3.009   2.961 -0.7331  0.5588 -3.4749
 5813TP3     H229259   2.825   3.140   2.888  2.0462  1.7837 -0.5128
 5814TP3      O29260   2.617   2.233   2.078  0.1611  0.4577 -0.1461
 5814TP3     H129261   2.585   2.158   2.028 -0.2038  0.7355 -0.3317
 5814TP3     H229262   2.567   2.231   2.160 -1.3884  1.7340 -1.0405
 5815TP3      O29263   1.037   3.449   2.229 -0.1572 -0.0141 -0.0556
 5815TP3     H129264   1.079   3.484   2.308  2.3622 -0.7617 -1.0077
 5815TP3     H229265   1.039   3.522   2.167 -0.8746  0.1439  0.1020
 5816TP3      O29266   3.514   2.699   3.084  0.0050  0.0025 -0.2748
 5816TP3     H129267   3.487   2.628   3.142 -0.4534  0.4373  0.0411
 5816TP3     H229268   3.609   2.689   3.076  0.1355  0.2467  0.9632
 5817TP3      O29269   3.770   1.965   2.077 -0.3991 -0.5844 -0.4756
 5817TP3     H129270   3.827   2.030   2.118 -0.3399 -1.0274  0.1609
 5817TP3     H229271   3.798   1.962   1.986 -1.4462  1.4249 -0.8998
 5818TP3      O29272   1.575   2.903   2.855  0.2021  0.0182  0.4196
 5818TP3     H129273   1.553   2.934   2.943  1.5739 -0.4384  0.9292
 5818TP3     H229274   1.649   2.844   2.868  0.0655 -0.4711 -0.9855
 5819TP3      O29275   4.810   2.036   2.644 -0.4902  0.0118 -0.2133
 5819TP3     H129276   4.806   2.098   2.572  0.7594  0.0373 -0.2776
 5819TP3     H229277   4.731   2.052   2.695 -0.6149  1.0355 -0.7272
 5820TP3      O29278   2.859   4.502   9.718  0.0140 -0.4516  0.1849
 5820TP3     H129279   2.913   4.445   9.664 -2.3344 -1.3724 -1.2971
 5820TP3     H229280   2.881   4.478   9.808  2.5117 -0.3232 -0.3688
 5821TP3      O29281   5.158   3.492   3.064  0.2015  0.0181 -0.3687
 5821TP3     H129282   5.111   3.443   3.133  3.0012 -2.0287  0.1727
 5821TP3     H229283   5.148   3.584   3.089 -1.5793 -0.5002  0.9705
 5822TP3      O29284   3.513   2.557   2.407  0.1043  0.0579  0.1056
 5822TP3     H129285   3.541   2.622   2.343 -0.6038  1.4694  1.2155
 5822TP3     H229286   3.586   2.496   2.413 -0.2137 -0.6811 -2.7889
 5823TP3      O29287   0.945   4.733   0.182 -0.2461  0.1377  0.0607
 5823TP3     H129288   0.850   4.745   0.179 -0.2089  0.5218  0.3812
 5823TP3     H229289   0.981   4.819   0.159  0.0297 -0.4636 -1.8170
 5824TP3      O29290   0.274   4.112   3.632  0.7661  0.1691  0.0770
 5824TP3     H129291   0.231   4.051   3.692  1.1169  0.9924  1.1889
 5824TP3     H229292   0.238   4.090   3.546 -1.1040  0.1510  0.8264
 5825TP3      O29293   3.640   4.200   2.199 -0.4417 -0.6327 -0.2249
 5825TP3     H129294   3.643   4.262   2.273 -1.1918  0.5979 -1.2123
 5825TP3     H229295   3.725   4.212   2.156 -0.9536  0.3795 -0.9540
 5826TP3      O29296   5.011   1.800   2.203 -0.1050  0.6610  0.0507
 5826TP3     H129297   5.093   1.804   2.252  0.2543 -2.7019 -0.1566
 5826TP3     H229298   4.944   1.794   2.272  0.3434 -3.2183  0.2589
 5827TP3      O29299   3.038   4.457   2.495 -0.0001  0.4083  0.0250
 5827TP3     H129300   3.088   4.410   2.429 -0.9039 -0.8759  0.2297
 5827TP3     H229301   3.098   4.463   2.570  1.0515  1.9427 -0.9089
 5828TP3      O29302   1.955   0.005   1.539  0.2083  0.6419 -0.2479
 5828TP3     H129303   1.998  -0.029   1.617 -0.0502  0.2518 -0.2745
 5828TP3     H229304   1.997  -0.041   1.466 -1.2690 -0.8586 -0.1888
 5829TP3      O29305   4.045   2.356   2.976  1.1400 -0.5882 -0.7241
 5829TP3     H129306   4.018   2.414   3.047 -0.1836 -1.8008 -0.2222
 5829TP3     H229307   4.066   2.273   3.020 -0.1715 -1.4997 -1.8032
 5830TP3      O29308   0.583   4.714   8.381 -0.4524 -0.0119  0.0084
 5830TP3     H129309   0.575   4.778   8.310  1.6110 -2.5291 -2.6388
 5830TP3     H229310   0.672   4.725   8.413 -0.1932 -1.3397 -0.2464
 5831TP3      O29311   1.386   4.323   2.581 -0.1426  0.4891 -0.2271
 5831TP3     H129312   1.422   4.411   2.592  1.1416 -0.4044  3.4816
 5831TP3     H229313   1.304   4.324   2.631 -2.0370  0.5993 -3.2222
 5832TP3      O29314   0.164   2.836   9.408  0.7726  0.5801 -0.4268
 5832TP3     H129315   0.105   2.778   9.359  1.6923 -0.5452 -0.2398
 5832TP3     H229316   0.247   2.832   9.359  1.7601 -0.7153  1.3204
 5833TP3      O29317   4.922   0.906   1.119  0.0801  0.2447 -0.3165
 5833TP3     H129318   4.921   0.998   1.146 -1.8334  0.0578  0.3055
 5833TP3     H229319   4.863   0.903   1.043  2.3837  0.0418 -2.1628
 5834TP3      O29320   3.662   4.328   3.053 -0.0236  0.2499  0.1302
 5834TP3     H129321   3.644   4.234   3.060 -0.1743  0.2531 -0.2062
 5834TP3     H229322   3.585   4.364   3.008  0.6970  0.2979 -1.0974
 5835TP3      O29323   0.723   4.298   3.274  0.6584 -0.1367 -0.1528
 5835TP3     H129324   0.770   4.245   3.210 -0.0136 -0.7962 -0.1035
 5835TP3     H229325   0.694   4.375   3.225 -1.2970 -1.4093 -1.0889
 5836TP3      O29326   5.290   4.019   2.999  0.4941 -0.0924 -0.1185
 5836TP3     H129327   5.306   3.989   3.089  1.3662 -0.5962 -0.4445
 5836TP3     H229328   5.195   4.009   2.988  0.6707 -2.0830  0.0073
 5837TP3      O29329   0.544   5.306   0.419 -0.2590 -0.2754  0.0621
 5837TP3     H129330   0.636   5.312   0.393 -0.8385 -0.2485 -2.0254
 5837TP3     H229331   0.546   5.257   0.502  1.6206 -0.2607  0.0473
 5838TP3      O29332   0.706   4.450   3.777 -0.0820 -0.5349 -0.2846
 5838TP3     H129333   0.646   4.394   3.728 -1.3672  1.2132 -0.7550
 5838TP3     H229334   0.660   4.534   3.786  1.7245  0.4171  0.5346
 5839TP3      O29335   0.091   4.270   2.982 -0.0226 -0.1976 -0.1184
 5839TP3     H129336   0.171   4.247   3.029  1.4432 -1.4298 -3.0999
 5839TP3     H229337   0.030   4.199   3.001  0.0250  0.0763  1.0958
 5840TP3      O29338   0.722   4.559   3.404 -0.0706  0.1980  0.0836
 5840TP3     H129339   0.676   4.583   3.323 -0.1302 -1.1335 -0.2904
 5840TP3     H229340   0.710   4.465   3.411  1.5085  0.0234  0.6709
 5841TP3      O29341   4.695   4.398   3.717  0.3762 -0.1322  0.0947
 5841TP3     H129342   4.616   4.425   3.763  1.3557  3.1824 -0.0609
 5841TP3     H229343   4.723   4.475   3.668  2.9122 -1.6564 -1.0104
 5842TP3      O29344   0.019   3.973   3.686 -0.5579 -0.3908  0.3404
 5842TP3     H129345  -0.076   3.972   3.697 -0.4705  1.6366  1.5936
 5842TP3     H229346   0.032   4.001   3.596 -1.1436 -1.2489 -0.0166
 5843TP3      O29347   0.392   5.287   3.446 -0.0405  0.1070  0.5020
 5843TP3     H129348   0.303   5.320   3.451  0.6222  1.7633  1.9432
 5843TP3     H229349   0.421   5.282   3.537  1.4503 -0.1004  0.0384
 5844TP3      O29350   0.297   0.093   2.998  0.2430 -0.5682  0.0488
 5844TP3     H129351   0.381   0.090   2.954 -0.1557 -0.4514 -0.7266
 5844TP3     H229352   0.283   0.186   3.018 -0.7025 -0.2886 -1.7926
 5845TP3      O29353   0.967   2.449   2.236 -0.1623 -0.5293 -0.0772
 5845TP3     H129354   0.986   2.488   2.321 -1.7268 -1.3185  0.6561
 5845TP3     H229355   0.990   2.516   2.172  2.5401 -0.5165  0.8722
 5846TP3      O29356   3.941   1.962   1.389 -0.7320 -0.4575 -0.5969
 5846TP3     H129357   3.985   1.878   1.378 -1.4964 -0.9224 -0.1947
 5846TP3     H229358   3.868   1.959   1.327 -0.4396  0.1306 -0.9663
 5847TP3      O29359   0.859   4.642   3.632  0.8276 -0.4935  0.1564
 5847TP3     H129360   0.813   4.637   3.548  0.9476 -1.8482  0.1648
 5847TP3     H229361   0.816   4.577   3.687  0.1390  1.0341  1.4671
 5848TP3      O29362   0.966   3.233   3.123  0.3567  0.3656 -0.5314
 5848TP3     H129363   0.907   3.306   3.139  1.1353  1.3787 -2.1352
 5848TP3     H229364   0.971   3.187   3.207 -0.5844  1.8163  0.3411
 5849TP3      O29365   3.382   5.064   3.335 -1.0226 -0.2809  0.1506
 5849TP3     H129366   3.348   5.101   3.417  0.1045  1.5856 -0.1869
 5849TP3     H229367   3.304   5.035   3.289 -1.8048  0.0411  1.2329
 5850TP3      O29368   2.250   3.304   3.569  0.2399 -0.7484 -0.1465
 5850TP3     H129369   2.231   3.379   3.512  0.5918 -1.9210 -1.8537
 5850TP3     H229370   2.304   3.340   3.639 -0.9325  0.9076 -0.0511
 5851TP3      O29371   2.437   0.983   2.112  0.1159  0.1225  0.1116
 5851TP3     H129372   2.378   1.043   2.067 -0.7090  1.2596  2.6334
 5851TP3     H229373   2.387   0.950   2.186  1.2924 -2.0500 -0.0167
 5852TP3      O29374   0.973   5.276   0.700  0.5661 -0.4607  0.0742
 5852TP3     H129375   1.038   5.346   0.697  0.2547 -0.1984 -0.4937
 5852TP3     H229376   0.893   5.315   0.667 -0.2685 -0.3850  2.0836
 5853TP3      O29377   0.553   4.358   9.899 -0.0901 -0.3736 -0.1077
 5853TP3     H129378   0.482   4.407   9.940 -0.3369 -0.5239 -0.3557
 5853TP3     H229379   0.514   4.274   9.877 -0.0476 -0.1717 -0.9537
 5854TP3      O29380   5.044   4.531   1.045 -0.5634 -0.1156 -0.0925
 5854TP3     H129381   5.130   4.521   1.085  0.0309 -0.0615 -1.3294
 5854TP3     H229382   4.986   4.556   1.118  1.0297  2.7726  0.2556
 5855TP3      O29383   2.624   4.096   1.815  0.6799  0.5385 -0.3950
 5855TP3     H129384   2.664   4.112   1.900  1.8784 -0.4276 -0.7432
 5855TP3     H229385   2.556   4.162   1.807 -1.2072 -0.9689  2.4229
 5856TP3      O29386   0.010   5.231   2.749 -0.1543  0.1828  0.3018
 5856TP3     H129387  -0.004   5.325   2.742 -0.1165  0.2457  1.0334
 5856TP3     H229388   0.061   5.220   2.830  0.7746 -0.3724 -0.3469
 5857TP3      O29389   2.806   0.669   2.624 -0.0949 -0.1619  0.0368
 5857TP3     H129390   2.859   0.678   2.703 -0.4989 -0.7438  0.3801
 5857TP3     H229391   2.866   0.633   2.559  0.0689 -0.3229  0.2740
 5858TP3      O29392   1.478   3.903   0.286  0.0485 -0.5165 -0.6293
 5858TP3     H129393   1.535   3.951   0.226 -0.2197  0.0631 -0.4134
 5858TP3     H229394   1.528   3.895   0.367 -0.0538 -0.2817 -0.5434
 5859TP3      O29395   2.204   4.776   1.991  0.4544  0.2687 -0.1294
 5859TP3     H129396   2.115   4.756   1.962  0.0743  0.8505  0.6244
 5859TP3     H229397   2.260   4.744   1.920 -0.3465 -0.1927 -0.5612
 5860TP3      O29398   3.055   4.709   2.293 -0.2478 -0.8063  0.1866
 5860TP3     H129399   3.142   4.744   2.310 -0.7204  0.0593  0.8770
 5860TP3     H229400   3.046   4.635   2.352 -0.0618 -0.7672  0.2638
 5861TP3      O29401   2.913   4.419   3.224  0.4138 -0.0147 -0.2662
 5861TP3     H129402   2.971   4.467   3.165 -0.5118 -0.2270 -1.3691
 5861TP3     H229403   2.840   4.391   3.168  0.1507 -1.3127  0.7183
 5862TP3      O29404   4.390   4.677   2.862 -0.1804 -0.2254  0.1822
 5862TP3     H129405   4.446   4.627   2.922  0.1544 -0.0135  0.0464
 5862TP3     H229406   4.305   4.682   2.906 -0.4466 -1.5971 -0.1438
 5863TP3      O29407   3.683   2.220   2.743 -0.3855 -0.1819 -0.0047
 5863TP3     H129408   3.732   2.139   2.728 -0.3479 -0.0328 -0.6679
 5863TP3     H229409   3.594   2.190   2.761  0.1557 -0.5256  2.3396
 5864TP3      O29410   3.395   2.522   2.841  0.1338 -0.1419 -0.0564
 5864TP3     H129411   3.358   2.449   2.891  1.3919 -1.1061 -0.5314
 5864TP3     H229412   3.376   2.500   2.750 -1.1644  1.0718 -0.1001
 5865TP3      O29413   2.652   3.186   3.585 -0.6082  0.1239 -0.3825
 5865TP3     H129414   2.635   3.101   3.545 -0.8377 -0.0204  0.0259
 5865TP3     H229415   2.743   3.180   3.616 -1.3663 -0.7846  1.6968
 5866TP3      O29416   1.958   3.347   1.839 -0.6934 -0.4173 -0.2722
 5866TP3     H129417   1.892   3.302   1.892  0.7621 -0.8648  1.2222
 5866TP3     H229418   1.911   3.419   1.797 -1.8146  0.1684  1.9316
 5867TP3      O29419   4.779   3.399   3.258  0.1406  0.3690 -0.3752
 5867TP3     H129420   4.748   3.486   3.283 -0.0213 -0.3971  2.2477
 5867TP3     H229421   4.871   3.398   3.285 -0.3156 -0.8489  1.1922
 5868TP3      O29422   4.410   5.275   3.709 -0.0794  0.3498  0.2182
 5868TP3     H129423   4.395   5.192   3.664  0.1997 -0.2906  1.3008
 5868TP3     H229424   4.381   5.341   3.646 -1.8492 -0.6171 -0.0330
 5869TP3      O29425   4.587   4.116   3.626  0.0805  0.6644 -0.2575
 5869TP3     H129426   4.628   4.197   3.654 -0.2354  1.0805 -0.9846
 5869TP3     H229427   4.601   4.055   3.699  0.7782  1.2086  0.0628
 5870TP3      O29428   4.436   4.531   9.414  0.2738  0.4112 -0.1213
 5870TP3     H129429   4.436   4.623   9.386  0.6093  0.4174 -0.1028
 5870TP3     H229430   4.350   4.517   9.452  0.1093  0.6328 -0.4113
 5871TP3      O29431   3.836   4.029   2.088 -0.0214 -0.4174 -0.0651
 5871TP3     H129432   3.787   3.947   2.097  1.3442 -1.2557 -0.0682
 5871TP3     H229433   3.879   4.041   2.173 -1.1041  0.8955  0.3120
 5872TP3      O29434   4.934   4.750   3.433 -0.5493  0.5366 -0.0206
 5872TP3     H129435   5.010   4.772   3.379 -0.5253  1.0074  0.2013
 5872TP3     H229436   4.866   4.810   3.403 -1.2640 -0.8354 -1.1949
 5873TP3      O29437   4.800   0.375   2.479  0.3820 -0.0114 -0.0541
 5873TP3     H129438   4.758   0.389   2.394 -2.2568  0.6802  1.3173
 5873TP3     H229439   4.850   0.456   2.495  0.2676  0.1651 -0.5838
 5874TP3      O29440   2.027   3.536   9.759 -0.8190  0.3170 -0.4457
 5874TP3     H129441   2.062   3.456   9.799 -0.8331  0.7451  0.4213
 5874TP3     H229442   2.105   3.585   9.733 -0.7549  1.2605  1.4661
 5875TP3      O29443   3.910   3.228   3.522 -0.1007 -0.1593  0.5149
 5875TP3     H129444   3.898   3.307   3.470  0.3192 -0.3407  0.1474
 5875TP3     H229445   3.830   3.177   3.507 -1.2732  1.0733  2.2960
 5876TP3      O29446   2.960   1.746   1.536 -0.1131 -0.0878 -0.1503
 5876TP3     H129447   2.880   1.789   1.506 -1.1117 -1.1509  0.9824
 5876TP3     H229448   2.930   1.671   1.586  1.6244 -1.5300 -1.2210
 5877TP3      O29449   4.457   4.439   3.860 -0.5096  0.8865  0.0085
 5877TP3     H129450   4.380   4.484   3.828 -0.8118  0.9388  0.8079
 5877TP3     H229451   4.427   4.389   3.936 -0.5081 -1.7617 -1.6362
 5878TP3      O29452   3.443   4.454   2.926 -0.0285 -0.0930 -0.0118
 5878TP3     H129453   3.395   4.525   2.968 -0.5856 -0.8665  0.6610
 5878TP3     H229454   3.422   4.462   2.833 -1.1556 -0.1943  0.2316
 5879TP3      O29455   0.067   5.250   3.039 -0.1711  0.2611 -0.2020
 5879TP3     H129456   0.150   5.296   3.051  0.7436 -1.5547  0.6441
 5879TP3     H229457   0.002   5.306   3.082  0.6599  1.5033 -0.5438
 5880TP3      O29458   4.484   4.077   3.364  0.5029 -0.1104  0.3741
 5880TP3     H129459   4.537   4.002   3.336 -0.5268 -0.1802 -1.5200
 5880TP3     H229460   4.518   4.100   3.450  0.6883 -2.9072  1.1088
 5881TP3      O29461   3.454   4.863   2.876 -0.7658  0.4968  0.1019
 5881TP3     H129462   3.363   4.836   2.888 -0.5654  0.7024  2.2590
 5881TP3     H229463   3.500   4.829   2.953  0.6019  2.0532  0.0092
 5882TP3      O29464   1.235   3.746   2.191 -0.1940 -0.1668 -0.9413
 5882TP3     H129465   1.306   3.694   2.153 -1.2199 -0.8019 -2.0130
 5882TP3     H229466   1.252   3.835   2.158  0.6596 -0.1271 -0.3971
 5883TP3      O29467   1.866   4.123   2.019 -0.1296  0.5311  0.3843
 5883TP3     H129468   1.785   4.098   1.974 -1.3882  1.6247  1.9728
 5883TP3     H229469   1.869   4.218   2.010  3.1220  0.1936 -3.1394
   5.30877   5.30877  10.16767
