Title
29469
    1NLYS     N    1   1.936   2.720   1.891 -0.4878 -0.6005 -0.1019
    1NLYS    H1    2   1.897   2.656   1.823  1.2781 -1.4035 -0.4296
    1NLYS    H2    3   1.870   2.796   1.899  1.2750  1.3692 -2.4333
    1NLYS    H3    4   1.941   2.678   1.982  1.0067  2.4151  1.3385
    1NLYS    CA    5   2.069   2.775   1.849 -0.0466 -0.3301  0.2396
    1NLYS    HA    6   2.133   2.698   1.806  2.0596  1.7046 -0.4344
    1NLYS    CB    7   2.052   2.875   1.725  0.7447 -0.5258  0.8706
    1NLYS   HB2    8   1.993   2.823   1.649  1.3069 -0.5434  0.4394
    1NLYS   HB3    9   1.996   2.964   1.753 -0.1444 -1.0134  0.6777
    1NLYS    CG   10   2.174   2.934   1.664 -0.0157 -0.0100 -1.1542
    1NLYS   HG2   11   2.137   3.021   1.610 -1.8905  0.2049  0.3854
    1NLYS   HG3   12   2.250   2.978   1.729  1.1460  1.5343 -3.4135
    1NLYS    CD   13   2.249   2.850   1.566  0.8567  0.4177  0.1924
    1NLYS   HD2   14   2.327   2.914   1.523  0.4641  0.8725  0.1464
    1NLYS   HD3   15   2.293   2.762   1.612  1.1368  1.2060  1.4864
    1NLYS    CE   16   2.171   2.814   1.443  0.0892 -1.1414  0.1332
    1NLYS   HE2   17   2.095   2.739   1.463 -0.3764 -1.1437 -1.4761
    1NLYS   HE3   18   2.117   2.901   1.405 -1.1103 -1.4906  0.9802
    1NLYS    NZ   19   2.262   2.765   1.335 -0.1326 -0.2222  0.5789
    1NLYS   HZ1   20   2.336   2.700   1.359 -1.0715 -2.1357 -1.3778
    1NLYS   HZ2   21   2.213   2.722   1.257  2.3437 -4.7278  1.1345
    1NLYS   HZ3   22   2.308   2.843   1.290 -1.0663  1.1792  1.9632
    1NLYS     C   23   2.132   2.853   1.970  0.0752 -0.5399  1.4249
    1NLYS     O   24   2.064   2.923   2.039 -0.4884 -0.3692 -0.0989
    2GLY      N   25   2.263   2.846   1.980  0.6544  0.0705 -0.6000
    2GLY      H   26   2.309   2.768   1.936  1.8580 -1.9924  3.7666
    2GLY     CA   27   2.335   2.908   2.085 -0.2167  0.6297  0.0978
    2GLY    HA2   28   2.307   3.013   2.075 -2.6263  0.0461 -0.0672
    2GLY    HA3   29   2.292   2.870   2.177 -1.0285 -1.5296 -1.0943
    2GLY      C   30   2.488   2.874   2.077  0.0115 -0.1327  0.0513
    2GLY      O   31   2.528   2.755   2.096  0.4370 -0.2863  0.1663
    3PRO      N   32   2.579   2.970   2.063  0.1024  0.4422  0.5922
    3PRO     CD   33   2.548   3.105   2.029  0.1475 -0.3659  0.8410
    3PRO    HD2   34   2.473   3.148   2.095  1.9373  1.4087  1.8416
    3PRO    HD3   35   2.515   3.124   1.927  2.6395 -0.3259 -0.0345
    3PRO     CG   36   2.674   3.183   2.052 -0.0573 -0.0472  0.5214
    3PRO    HG2   37   2.684   3.202   2.159 -0.6745  0.4073  0.5029
    3PRO    HG3   38   2.659   3.280   2.004  0.2050  0.0599  0.6538
    3PRO     CB   39   2.784   3.087   2.006 -0.2830 -0.0572 -0.0514
    3PRO    HB2   40   2.875   3.109   2.062 -0.9290  1.3879  0.4851
    3PRO    HB3   41   2.808   3.102   1.901 -0.5235 -1.3467 -0.2993
    3PRO     CA   42   2.727   2.950   2.045 -0.0708  0.2982 -0.0363
    3PRO     HA   43   2.748   2.881   1.964  1.6754  1.3827 -0.5539
    3PRO      C   44   2.798   2.900   2.176 -0.0472 -0.0379 -0.0905
    3PRO      O   45   2.911   2.847   2.161 -0.4075 -0.0176  0.1794
    4PRO      N   46   2.737   2.902   2.298  0.7283 -0.1196 -0.2307
    4PRO     CD   47   2.625   2.986   2.344 -0.4105 -0.3572  0.4406
    4PRO    HD2   48   2.529   2.945   2.313 -0.1875 -1.1685  0.8089
    4PRO    HD3   49   2.643   3.092   2.323  1.9029 -0.5944  0.9042
    4PRO     CG   50   2.611   2.968   2.494 -0.2738  0.2136  0.3250
    4PRO    HG2   51   2.551   2.883   2.524  1.9822 -1.3993  0.4991
    4PRO    HG3   52   2.571   3.057   2.542  1.6772  1.4454 -0.2021
    4PRO     CB   53   2.752   2.950   2.530 -0.8488  0.0871 -0.8325
    4PRO    HB2   54   2.762   2.911   2.632  1.7000  0.6277 -0.7962
    4PRO    HB3   55   2.798   3.049   2.532  0.8751 -0.6654 -1.0062
    4PRO     CA   56   2.814   2.867   2.418 -0.4470  0.1190  0.2794
    4PRO     HA   57   2.917   2.900   2.399 -0.8103  0.3144 -1.5623
    4PRO      C   58   2.820   2.720   2.451  0.0665 -0.2713  0.5097
    4PRO      O   59   2.785   2.637   2.375 -0.2383  0.0948  0.0427
    5ARG      N   60   2.867   2.692   2.575 -0.4425  0.2332 -0.0765
    5ARG      H   61   2.903   2.761   2.639 -0.8056 -0.2051  0.6061
    5ARG     CA   62   2.857   2.559   2.642 -0.8862  0.0470  0.7249
    5ARG     HA   63   2.918   2.484   2.591  1.8783  0.8720  2.5629
    5ARG     CB   64   2.914   2.563   2.780  0.5889  0.2349 -0.3241
    5ARG    HB2   65   2.905   2.465   2.826 -0.8296  0.3743 -0.2850
    5ARG    HB3   66   3.022   2.582   2.776  0.7603 -0.6352  0.0065
    5ARG     CG   67   2.841   2.661   2.872  0.1865  0.3769 -0.4020
    5ARG    HG2   68   2.854   2.762   2.835 -0.3039 -0.2296 -2.3583
    5ARG    HG3   69   2.737   2.630   2.867  0.9992 -2.5752 -2.0878
    5ARG     CD   70   2.896   2.656   3.010 -0.3931  0.3161 -1.0137
    5ARG    HD2   71   2.826   2.707   3.076  2.0599  0.4163  1.7251
    5ARG    HD3   72   2.904   2.552   3.040  0.6246  0.6690 -0.0198
    5ARG     NE   73   3.034   2.704   3.031 -0.3223  0.1734  0.3763
    5ARG     HE   74   3.057   2.793   2.989  0.4370  0.5751  1.5936
    5ARG     CZ   75   3.119   2.652   3.117 -0.6791  0.0544  0.2230
    5ARG    NH1   76   3.092   2.570   3.216  0.2307 -0.2334  0.1982
    5ARG   HH11   77   2.996   2.552   3.241  0.1293  0.6668  0.5096
    5ARG   HH12   78   3.169   2.521   3.260  0.8816 -0.7390 -1.4543
    5ARG    NH2   79   3.242   2.692   3.099 -0.0755 -0.1599  0.1219
    5ARG   HH21   80   3.260   2.763   3.030  0.8713 -1.8108 -1.3995
    5ARG   HH22   81   3.305   2.678   3.177  0.6108 -1.1482 -0.5732
    5ARG      C   82   2.721   2.504   2.641  0.8512  0.2678  0.1338
    5ARG      O   83   2.619   2.577   2.610 -0.4214 -0.1566 -0.4681
    6CARG     N   84   2.704   2.377   2.673 -0.1291 -0.1291  0.3231
    6CARG     H   85   2.793   2.333   2.689  0.1057  0.2298  0.0322
    6CARG    CA   86   2.576   2.299   2.692  0.3429  0.9392  0.3361
    6CARG    HA   87   2.519   2.317   2.600  0.4496  2.8099  0.6016
    6CARG    CB   88   2.601   2.150   2.709 -0.2611  0.4568  0.2778
    6CARG   HB2   89   2.509   2.092   2.717 -0.0119 -0.1429 -0.8703
    6CARG   HB3   90   2.649   2.127   2.614  2.5539 -0.0622  1.7306
    6CARG    CG   91   2.685   2.111   2.832  0.1333 -0.1298 -0.2443
    6CARG   HG2   92   2.767   2.180   2.852  0.4506 -0.3514 -0.7337
    6CARG   HG3   93   2.621   2.100   2.919 -1.3030  1.4000 -1.0620
    6CARG    CD   94   2.762   1.980   2.808 -0.5701  0.2364 -0.1485
    6CARG   HD2   95   2.683   1.906   2.797 -0.4831 -0.2572  2.1129
    6CARG   HD3   96   2.830   1.992   2.724  1.0987  0.6933  1.2047
    6CARG    NE   97   2.840   1.934   2.929  0.2181 -0.2745 -0.6474
    6CARG    HE   98   2.797   1.865   2.989  3.1941 -1.8572 -0.1479
    6CARG    CZ   99   2.965   1.964   2.956  0.1562  0.6839  0.2697
    6CARG   NH1  100   3.044   2.012   2.868 -0.4258  0.2689 -0.3868
    6CARG  HH11  101   3.015   2.032   2.773 -0.3842  0.5397 -0.3418
    6CARG  HH12  102   3.138   2.033   2.897  0.3647 -2.7503 -0.4375
    6CARG   NH2  103   3.018   1.928   3.066 -0.6136 -0.0337  0.2862
    6CARG  HH21  104   2.964   1.887   3.140 -0.0196 -1.2124  0.0826
    6CARG  HH22  105   3.116   1.947   3.085 -0.2199 -2.6892  1.4030
    6CARG     C  106   2.483   2.354   2.799  0.1300  0.3278 -0.0994
    6CARG     O  107   2.533   2.434   2.876 -0.5450  0.3267 -0.1817
    6CARG   OXT  108   2.364   2.316   2.807  0.0201  0.2403 -0.0524
    1PA    C116  109   2.994   2.745   5.663 -0.2359  0.5459  0.2953
    1PA    H16R  110   2.942   2.726   5.757 -2.0038 -1.2143 -0.9449
    1PA    H16S  111   2.956   2.836   5.616  0.4207  0.6749  0.0109
    1PA    H16T  112   3.100   2.760   5.681 -0.1551  2.5702 -1.4429
    1PA    C115  113   2.965   2.617   5.574 -0.7725  0.5214  0.3009
    1PA    H15R  114   2.865   2.575   5.587 -0.9615  1.1923  1.1140
    1PA    H15S  115   2.965   2.641   5.467 -1.4434  1.4792  0.4982
    1PA    C114  116   3.069   2.507   5.593 -0.1421  0.4847  0.3934
    1PA    H14R  117   3.054   2.426   5.522  0.8999  2.2906 -2.0032
    1PA    H14S  118   3.172   2.536   5.576 -0.0446  2.1358  3.0790
    1PA    C113  119   3.064   2.439   5.732 -0.1837 -0.1758  0.5161
    1PA    H13R  120   3.073   2.521   5.803  0.3241 -0.3274  0.6322
    1PA    H13S  121   2.967   2.396   5.758 -0.2165  0.1330  0.9151
    1PA    C112  122   3.178   2.331   5.745 -0.1517 -0.0420 -0.0808
    1PA    H12R  123   3.151   2.237   5.696 -0.3938 -0.5119  0.9143
    1PA    H12S  124   3.274   2.371   5.712  0.0611 -1.1362 -0.8394
    1PA    C111  125   3.195   2.291   5.891 -0.1776 -0.1595  0.3483
    1PA    H11R  126   3.236   2.376   5.946  1.1946  0.4036 -1.4214
    1PA    H11S  127   3.097   2.269   5.933 -0.4161 -3.0968 -1.4368
    1PA    C110  128   3.287   2.171   5.913 -0.1052 -0.3498  0.6200
    1PA    H10R  129   3.248   2.077   5.874  0.2080  0.0642 -0.7372
    1PA    H10S  130   3.384   2.195   5.869 -1.0663  2.5907 -0.0882
    1PA     C19  131   3.317   2.145   6.062 -0.2695 -0.3231  0.7665
    1PA     H9R  132   3.398   2.073   6.068  1.2771  1.2198 -0.6420
    1PA     H9S  133   3.354   2.240   6.101  0.7122 -0.5183  0.3376
    1PA     C18  134   3.198   2.100   6.142  0.2997 -0.2343 -1.1987
    1PA     H8R  135   3.126   2.181   6.131 -0.9695 -0.9585  1.1042
    1PA     H8S  136   3.147   2.008   6.110 -3.6674  0.3934  2.4052
    1PA     C17  137   3.229   2.072   6.293 -0.2838 -0.1293  0.1481
    1PA     H7R  138   3.308   1.998   6.308  0.7801  1.2692  1.8360
    1PA     H7S  139   3.266   2.167   6.330  1.1084  0.7802 -3.2501
    1PA     C16  140   3.098   2.021   6.365  0.4822 -1.1312  0.3149
    1PA     H6R  141   3.021   2.099   6.366  0.9536 -0.6495 -0.1506
    1PA     H6S  142   3.068   1.928   6.317  0.9820 -1.9234  1.4851
    1PA     C15  143   3.123   1.968   6.508 -0.3385  0.1984 -0.1750
    1PA     H5R  144   3.024   1.931   6.537  0.2384  0.3515  2.2589
    1PA     H5S  145   3.186   1.879   6.511 -0.4985  0.1034  1.1865
    1PA     C14  146   3.173   2.067   6.614 -0.6026  0.3450 -0.0997
    1PA     H4R  147   3.199   2.010   6.704  1.9423  1.3759 -0.0793
    1PA     H4S  148   3.270   2.102   6.578 -1.2885  1.5030 -0.8684
    1PA     C13  149   3.074   2.183   6.651  0.6881 -0.3873 -0.3518
    1PA     H3R  150   3.053   2.242   6.562 -0.7633 -0.0597  0.1687
    1PA     H3S  151   2.979   2.142   6.686 -1.2641  3.7326 -0.2056
    1PA     C12  152   3.133   2.273   6.758 -0.0089 -0.1478  0.1206
    1PA     H2R  153   3.166   2.218   6.846  2.1581 -1.5604 -1.4624
    1PA     H2S  154   3.222   2.322   6.719 -0.8642  1.6956  0.3394
    1PC     C11  155   3.035   2.384   6.793 -0.2276 -0.1361  0.1392
    1PC     O12  156   2.969   2.441   6.703  0.7577 -0.3521 -0.4909
    1PC     O11  157   3.037   2.415   6.918  0.3455  0.1723 -0.0134
    1PC      C1  158   2.930   2.498   6.967  0.3647  0.0744 -0.2532
    1PC      HR  159   2.967   2.550   7.055  1.9548  1.9601 -1.9451
    1PC      HS  160   2.893   2.570   6.894 -1.6431 -0.7745 -0.1584
    1PC      C2  161   2.813   2.407   7.018 -0.3899  0.1044 -0.8372
    1PC      HX  162   2.732   2.468   7.060  1.8547  1.9429  1.0829
    1PC      C3  163   2.864   2.335   7.143  0.1160  0.4389 -0.4401
    1PC      HA  164   2.971   2.317   7.135  0.4832  2.2165 -0.1320
    1PC      HB  165   2.851   2.395   7.233 -1.2976  0.2308 -0.4900
    1PC     O31  166   2.808   2.206   7.177 -0.0402  0.2592  0.1612
    1PC     P31  167   2.674   2.204   7.263 -0.0581  0.1170  0.4665
    1PC     O32  168   2.725   2.225   7.414  0.4704 -0.5617 -0.7689
    1PC     C31  169   2.819   2.138   7.477 -0.5161 -0.2101 -0.1263
    1PC     H1A  170   2.902   2.138   7.407 -0.8766  2.1723 -0.6333
    1PC     H1B  171   2.847   2.181   7.574  0.3486 -1.3806  0.1673
    1PC     C32  172   2.759   2.000   7.505 -0.8544 -0.0547 -0.0197
    1PC     H2A  173   2.709   1.956   7.419  0.4871 -1.7165 -0.0017
    1PC     H2B  174   2.840   1.932   7.533 -0.6999 -0.0138 -0.3589
    1PC     N31  175   2.656   1.993   7.621  0.3506 -0.2454  0.2632
    1PC     C33  176   2.720   2.000   7.752 -0.0064 -0.0448 -0.0994
    1PC     H3A  177   2.653   1.980   7.836 -1.5301  0.7902 -1.0921
    1PC     H3B  178   2.808   1.935   7.753 -1.4938 -2.1594 -0.6070
    1PC     H3C  179   2.749   2.104   7.765 -2.2037  0.6991 -0.7692
    1PC     C34  180   2.549   2.100   7.610  0.4063 -0.0932  0.3306
    1PC     H4A  181   2.604   2.194   7.620  1.4448 -0.6590  0.0766
    1PC     H4B  182   2.491   2.094   7.517 -2.5946 -0.5830  2.1208
    1PC     H4C  183   2.485   2.091   7.697  1.0102  1.0883  0.9238
    1PC     C35  184   2.591   1.856   7.621  0.3436  0.3032  0.6217
    1PC     H5A  185   2.669   1.782   7.641 -0.1186 -0.4462 -0.2858
    1PC     H5B  186   2.552   1.833   7.522  0.0234  1.0836  0.5627
    1PC     H5C  187   2.518   1.838   7.700  0.6082 -2.8427  0.2777
    1PC     O33  188   2.587   2.323   7.228  0.2094 -0.0970 -0.2284
    1PC     O34  189   2.616   2.069   7.249 -0.1915 -0.4419  0.4270
    1PC     O21  190   2.767   2.318   6.907  0.2849 -0.1697 -0.0814
    1PC     C21  191   2.672   2.359   6.821  0.5241 -0.8129 -0.8750
    1PC     O22  192   2.609   2.464   6.845 -0.3428 -0.5117  0.5473
    1OL     C12  193   2.662   2.272   6.696  0.6422 -0.3535 -0.4056
    1OL     H2R  194   2.579   2.202   6.707  1.7621 -1.7676 -0.6685
    1OL     H2S  195   2.742   2.198   6.696 -1.0188 -2.2698  1.4277
    1OL     C13  196   2.663   2.348   6.559  0.2089 -0.2426  0.7174
    1OL     H3R  197   2.749   2.416   6.554 -1.0181  1.3588  0.7808
    1OL     H3S  198   2.578   2.415   6.547  1.0454  0.5975 -0.9919
    1OL     C14  199   2.676   2.253   6.440 -0.2222 -0.5766  0.2433
    1OL     H4R  200   2.605   2.170   6.444 -0.2783 -0.4965  1.0424
    1OL     H4S  201   2.778   2.218   6.452  1.2706  2.2787 -2.5679
    1OL     C15  202   2.652   2.319   6.300 -0.3867  0.4881 -0.1596
    1OL     H5R  203   2.560   2.377   6.310  0.5522  2.7199 -2.9515
    1OL     H5S  204   2.637   2.242   6.224 -1.1036 -1.7270  2.1189
    1OL     C16  205   2.776   2.401   6.266  0.6841 -0.0001 -0.4404
    1OL     H6R  206   2.862   2.335   6.254  1.3339  0.7620 -0.0504
    1OL     H6S  207   2.788   2.475   6.345 -1.6754 -0.2282  0.2120
    1OL     C17  208   2.777   2.476   6.135  0.3413 -0.9911  0.3194
    1OL     H7R  209   2.760   2.412   6.048 -3.2512 -0.3421  0.3962
    1OL     H7S  210   2.880   2.510   6.122 -0.0999  0.0315 -0.6670
    1OL     C18  211   2.681   2.595   6.113 -0.0268  0.8279 -0.2764
    1OL     H8R  212   2.695   2.679   6.181 -0.7275 -0.5744  1.7259
    1OL     H8S  213   2.577   2.570   6.137  0.3685  1.0667  1.8693
    1OL     C19  214   2.692   2.641   5.976 -0.3320  0.4904  0.3446
    1OL     H9R  215   2.794   2.660   5.943 -0.7207  0.1580 -1.1219
    1OL    C110  216   2.591   2.639   5.885  0.2198  0.6626  0.3400
    1OL    H10R  217   2.614   2.655   5.780 -0.3199 -2.7537 -0.4143
    1OL    C111  218   2.449   2.582   5.913 -0.1140 -0.0735  0.8018
    1OL    H11R  219   2.455   2.478   5.946  3.1221 -0.3670 -0.4201
    1OL    H11S  220   2.397   2.578   5.817  0.0547  0.5988  0.6755
    1OL    C112  221   2.364   2.664   6.006  0.0084 -0.5904 -0.4423
    1OL    H12R  222   2.336   2.760   5.961  2.1101 -0.4531 -1.5904
    1OL    H12S  223   2.417   2.685   6.099 -0.7132 -0.2212 -0.1058
    1OL    C113  224   2.239   2.583   6.056  0.4633 -0.0953 -0.3811
    1OL    H13R  225   2.260   2.478   6.079  0.9768 -0.2596 -1.5437
    1OL    H13S  226   2.165   2.580   5.976  0.4215 -0.9276 -0.3207
    1OL    C114  227   2.176   2.660   6.177  0.0443 -0.2289 -0.0633
    1OL    H14R  228   2.168   2.764   6.147  0.6021 -0.3597 -0.6970
    1OL    H14S  229   2.251   2.659   6.256  1.0753 -1.3189 -1.0161
    1OL    C115  230   2.045   2.599   6.225  0.0062 -0.5806  0.0128
    1OL    H15R  231   2.020   2.625   6.328 -0.6890 -0.9215 -0.0624
    1OL    H15S  232   2.075   2.494   6.224  1.0367 -0.3556  2.1007
    1OL    C116  233   1.922   2.635   6.138  0.2955 -0.2951  0.5309
    1OL    H16R  234   1.946   2.623   6.032 -0.3120  0.8650  0.2520
    1OL    H16S  235   1.885   2.736   6.157  0.0658 -0.7686  2.8590
    1OL    C117  236   1.804   2.546   6.175  0.2750  0.0960  0.5893
    1OL    H17R  237   1.788   2.551   6.283 -0.9177 -0.0641  0.4327
    1OL    H17S  238   1.827   2.445   6.140 -2.1626  0.0170 -1.0073
    1OL    C118  239   1.677   2.585   6.099  0.5214  0.4471  0.4096
    1OL    H18R  240   1.588   2.523   6.108  0.7853  0.0313  0.2245
    1OL    H18S  241   1.715   2.584   5.996 -1.3757 -0.3311 -0.3332
    1OL    H18T  242   1.648   2.689   6.117 -0.2776  0.1611  0.8009
    1PA    C116  243   3.379   3.497   5.125 -0.0179 -0.0653  0.1539
    1PA    H16R  244   3.447   3.557   5.064  1.7027 -2.4579 -0.4070
    1PA    H16S  245   3.280   3.495   5.078 -0.5305  1.0791  1.1264
    1PA    H16T  246   3.437   3.405   5.131  0.9159  0.6054  2.7365
    1PA    C115  247   3.350   3.547   5.269 -0.4968 -0.1304  0.5033
    1PA    H15R  248   3.301   3.645   5.263 -0.7676 -0.2832  0.1785
    1PA    H15S  249   3.279   3.475   5.310 -1.5395 -0.7971 -2.2852
    1PA    C114  250   3.480   3.559   5.357  0.2614  0.2697 -0.9345
    1PA    H14R  251   3.556   3.489   5.320 -0.8623 -0.8341 -1.2398
    1PA    H14S  252   3.511   3.663   5.351 -1.1268  0.7707 -0.0502
    1PA    C113  253   3.451   3.545   5.506 -0.0453  0.4581 -0.1307
    1PA    H13R  254   3.539   3.588   5.555  0.1035 -0.1016  0.1036
    1PA    H13S  255   3.363   3.606   5.530  1.0976  1.5026  1.6946
    1PA    C112  256   3.432   3.405   5.555  1.1124 -0.1059 -0.0155
    1PA    H12R  257   3.354   3.361   5.492  0.7079  2.3331 -1.3240
    1PA    H12S  258   3.526   3.351   5.540  0.2768 -2.6480  2.9206
    1PA    C111  259   3.372   3.391   5.695  0.1265 -0.4003  0.5922
    1PA    H11R  260   3.263   3.398   5.702  0.0235 -0.6401 -0.4991
    1PA    H11S  261   3.393   3.286   5.717 -0.5407 -0.7593 -0.4108
    1PA    C110  262   3.457   3.472   5.797  0.7842 -0.3124 -0.2874
    1PA    H10R  263   3.563   3.469   5.771  0.6754 -2.3743 -0.6209
    1PA    H10S  264   3.436   3.579   5.803  2.0186  0.0847 -2.2419
    1PA     C19  265   3.435   3.406   5.935  0.0727 -0.1269 -0.3751
    1PA     H9R  266   3.490   3.311   5.930  0.4751  0.0740  0.1575
    1PA     H9S  267   3.487   3.470   6.006  1.1580 -1.6470  0.2691
    1PA     C18  268   3.292   3.393   5.979  0.1791  0.2102 -0.5054
    1PA     H8R  269   3.245   3.491   5.971  1.0001  0.5506 -1.2578
    1PA     H8S  270   3.237   3.322   5.917 -0.2071  1.3993 -1.5511
    1PA     C17  271   3.269   3.355   6.127 -0.2664 -0.6556  0.0391
    1PA     H7R  272   3.314   3.440   6.179  0.0218 -1.1759  0.6476
    1PA     H7S  273   3.165   3.357   6.162 -0.5878 -0.2764 -0.8777
    1PA     C16  274   3.333   3.217   6.171  0.6690  0.7163  0.1105
    1PA     H6R  275   3.279   3.134   6.125  0.3810  1.5035 -1.0038
    1PA     H6S  276   3.437   3.212   6.137  0.5951  1.0566 -0.1740
    1PA     C15  277   3.315   3.200   6.329 -0.0034  0.7559  0.0021
    1PA     H5R  278   3.376   3.272   6.383  0.5170  0.8952 -0.7568
    1PA     H5S  279   3.212   3.225   6.358 -0.9122 -2.4170 -0.1297
    1PA     C14  280   3.355   3.061   6.377  0.2304 -0.1224  0.8226
    1PA     H4R  281   3.317   3.061   6.480  0.3188  1.0258  0.8683
    1PA     H4S  282   3.304   2.978   6.328  0.8731  0.0426 -0.1463
    1PA     C13  283   3.512   3.037   6.375  0.6350 -0.2422  0.2927
    1PA     H3R  284   3.542   3.060   6.273 -0.5983  2.0549  0.3787
    1PA     H3S  285   3.572   3.105   6.436 -0.7802  1.1667  0.1569
    1PA     C12  286   3.566   2.897   6.422  0.1104  0.7338 -0.4926
    1PA     H2R  287   3.537   2.820   6.350  1.1482 -1.7516  1.5662
    1PA     H2S  288   3.674   2.902   6.441 -0.3117  1.6373  1.9446
    1PC     C11  289   3.514   2.847   6.562 -0.0841 -0.5331  0.7995
    1PC     O12  290   3.480   2.926   6.646 -0.4638 -0.0908 -0.4672
    1PC     O11  291   3.485   2.709   6.570 -0.0660 -0.5325 -0.2005
    1PC      C1  292   3.442   2.658   6.697 -0.3166 -0.6661  0.5024
    1PC      HR  293   3.454   2.550   6.714  2.9858 -0.7626 -1.5764
    1PC      HS  294   3.495   2.709   6.777 -0.5584  0.7801 -0.2353
    1PC      C2  295   3.292   2.685   6.706  0.1541 -0.3695  0.7794
    1PC      HX  296   3.272   2.788   6.675  1.2669 -1.3071 -3.7404
    1PC      C3  297   3.226   2.653   6.835  0.7343 -0.0066 -0.4702
    1PC      HA  298   3.119   2.672   6.829  1.1770  2.3261 -2.3463
    1PC      HB  299   3.246   2.550   6.867  0.5680 -0.5179 -1.9435
    1PC     O31  300   3.283   2.748   6.929 -0.1319  0.0152 -0.2333
    1PC     P31  301   3.201   2.775   7.065  0.1651  0.3660 -0.1293
    1PC     O32  302   3.219   2.626   7.122 -0.0532 -0.7839 -0.0399
    1PC     C31  303   3.344   2.587   7.177  0.2289  0.9361  1.0637
    1PC     H1A  304   3.353   2.481   7.154  1.4148  1.3973 -0.8175
    1PC     H1B  305   3.428   2.627   7.120  1.0762  0.2050  1.7861
    1PC     C32  306   3.343   2.628   7.327 -0.5148 -0.4594 -0.3246
    1PC     H2A  307   3.428   2.583   7.377 -1.8694 -0.4709  2.1378
    1PC     H2B  308   3.336   2.734   7.352 -0.1169 -0.6376  0.6061
    1PC     N31  309   3.235   2.567   7.409 -0.6868 -0.2651  0.0150
    1PC     C33  310   3.216   2.425   7.376 -0.3849 -0.1794  0.4131
    1PC     H3A  311   3.314   2.378   7.369  0.4408  1.7244 -2.5952
    1PC     H3B  312   3.149   2.380   7.449  1.9866 -2.4984  1.3328
    1PC     H3C  313   3.165   2.426   7.280 -0.0722  1.2690  0.2336
    1PC     C34  314   3.267   2.585   7.555  0.8262 -0.1840  0.6815
    1PC     H4A  315   3.289   2.692   7.562 -1.6111  0.5597 -1.4376
    1PC     H4B  316   3.183   2.546   7.612  1.4811  1.3182  2.8262
    1PC     H4C  317   3.361   2.532   7.573  1.6312  1.0000  0.1260
    1PC     C35  318   3.099   2.624   7.394  0.5140 -0.5242  0.2473
    1PC     H5A  319   3.038   2.564   7.461  0.5381 -1.2865 -0.3972
    1PC     H5B  320   3.069   2.619   7.289 -0.6728 -1.0203  0.5984
    1PC     H5C  321   3.105   2.727   7.430  0.8009  0.1942 -1.7005
    1PC     O33  322   3.274   2.870   7.149  0.3322  0.0448  0.3948
    1PC     O34  323   3.061   2.801   7.027  0.0384 -0.4628  0.2667
    1PC     O21  324   3.229   2.585   6.615  0.5861 -0.0429  0.2149
    1PC     C21  325   3.138   2.633   6.525  0.1817  0.7023  0.8755
    1PC     O22  326   3.097   2.746   6.529  0.2115  0.4143 -0.0436
    1OL     C12  327   3.105   2.540   6.416  0.4326 -0.1535 -0.8290
    1OL     H2R  328   3.020   2.574   6.357 -1.2072 -0.0326  1.4553
    1OL     H2S  329   3.071   2.443   6.455  0.6045 -0.6991 -1.9988
    1OL     C13  330   3.233   2.512   6.336 -0.5982 -0.3786  0.2010
    1OL     H3R  331   3.248   2.405   6.317 -1.3320 -0.1558 -1.8407
    1OL     H3S  332   3.326   2.530   6.390  0.7491 -0.0482 -2.0960
    1OL     C14  333   3.236   2.576   6.197 -0.0541  0.1019 -0.2430
    1OL     H4R  334   3.146   2.540   6.146 -0.2312 -1.3668  1.0291
    1OL     H4S  335   3.321   2.532   6.144 -0.4948 -0.4350 -0.5210
    1OL     C15  336   3.238   2.724   6.206 -0.3404 -0.4481 -0.2927
    1OL     H5R  337   3.334   2.758   6.246  0.7368 -0.7778 -2.4170
    1OL     H5S  338   3.150   2.752   6.264  0.2343 -2.2468  1.5511
    1OL     C16  339   3.238   2.776   6.054  0.0624  0.8802  0.1896
    1OL     H6R  340   3.231   2.885   6.045  3.8389  1.2074 -0.7132
    1OL     H6S  341   3.156   2.727   6.002  0.5294  0.1001  0.1744
    1OL     C17  342   3.372   2.737   5.985 -0.4644 -0.1416 -0.4687
    1OL     H7R  343   3.356   2.724   5.878 -0.9193  1.7539 -0.6716
    1OL     H7S  344   3.422   2.648   6.024 -0.4654  0.2924  0.5580
    1OL     C18  345   3.478   2.850   5.991  0.2923  0.5645 -0.3744
    1OL     H8R  346   3.563   2.802   5.942 -1.0361 -0.9653 -1.2598
    1OL     H8S  347   3.502   2.868   6.096  0.5568  0.2626 -0.3832
    1OL     C19  348   3.440   2.974   5.914 -0.3968  0.2159  0.1072
    1OL     H9R  349   3.399   3.048   5.983 -1.7897 -0.0645 -0.3960
    1OL    C110  350   3.449   2.985   5.779  0.7264  0.2305 -0.2403
    1OL    H10R  351   3.417   3.073   5.725  1.5688 -0.5843 -2.1718
    1OL    C111  352   3.496   2.867   5.689 -0.2338 -0.3206  0.2769
    1OL    H11R  353   3.521   2.776   5.744  1.4166  0.0107  0.1074
    1OL    H11S  354   3.588   2.898   5.640 -0.5256  1.4875  0.8034
    1OL    C112  355   3.393   2.849   5.579 -0.2282  0.2694  0.1792
    1OL    H12R  356   3.389   2.937   5.515 -1.5056 -1.2543 -1.9815
    1OL    H12S  357   3.293   2.831   5.619 -0.0923 -0.6654  0.1198
    1OL    C113  358   3.440   2.730   5.489  0.3046 -0.7669 -0.2845
    1OL    H13R  359   3.439   2.635   5.544 -0.4304  1.0579  3.1261
    1OL    H13S  360   3.539   2.754   5.450 -0.6202 -0.3535 -2.5037
    1OL    C114  361   3.350   2.719   5.368  0.1780 -0.1043  0.4579
    1OL    H14R  362   3.378   2.807   5.309 -0.7244  0.6628  1.1426
    1OL    H14S  363   3.244   2.742   5.382  0.3770  0.1031  1.7267
    1OL    C115  364   3.381   2.598   5.274  0.4403  0.0122  0.0012
    1OL    H15R  365   3.340   2.626   5.177 -1.7742  2.4549  1.5136
    1OL    H15S  366   3.315   2.520   5.313 -1.1584  1.1417 -0.3376
    1OL    C116  367   3.530   2.561   5.273 -0.3296 -0.0493  0.1177
    1OL    H16R  368   3.557   2.527   5.373 -1.3327 -1.9468 -0.2158
    1OL    H16S  369   3.596   2.643   5.242  0.4890 -0.3950  0.9003
    1OL    C117  370   3.556   2.447   5.172 -0.0454 -0.4228  0.5306
    1OL    H17R  371   3.471   2.379   5.173 -0.6570  0.2634 -1.3242
    1OL    H17S  372   3.640   2.382   5.201  0.4285  0.6117  1.5413
    1OL    C118  373   3.564   2.485   5.020  0.7475  0.3957 -0.2381
    1OL    H18R  374   3.468   2.498   4.970  0.3401 -1.6717 -0.0636
    1OL    H18S  375   3.606   2.400   4.967 -1.6299 -0.4491 -0.8969
    1OL    H18T  376   3.631   2.571   5.010  1.9487  0.0098  3.0525
    1PA    C116  377   4.044   1.917   5.114 -0.4992  0.1756  0.1066
    1PA    H16R  378   4.047   1.903   5.006  0.6673  2.3169 -0.1971
    1PA    H16S  379   3.975   1.846   5.160  0.2211 -1.5653 -1.3787
    1PA    H16T  380   4.138   1.877   5.154 -0.7399 -0.0437  0.4533
    1PA    C115  381   4.029   2.064   5.158  0.0885  0.3506  0.1914
    1PA    H15R  382   4.084   2.117   5.081  2.9795 -0.9276  1.2291
    1PA    H15S  383   3.927   2.100   5.146 -0.1435  0.1241  1.3331
    1PA    C114  384   4.099   2.096   5.297 -0.0094  0.3952  0.3218
    1PA    H14R  385   4.208   2.084   5.288 -0.0755  0.9090 -1.5511
    1PA    H14S  386   4.076   2.200   5.320  2.0389  0.5484  2.0214
    1PA    C113  387   4.051   2.008   5.417 -0.3958  0.1027  0.0635
    1PA    H13R  388   3.944   2.019   5.431 -0.2158  0.1964  1.5340
    1PA    H13S  389   4.070   1.907   5.380 -0.9705 -0.3861  1.0570
    1PA    C112  390   4.140   2.034   5.542  0.4492 -0.0185  0.0853
    1PA    H12R  391   4.120   1.971   5.629  2.8498 -0.8630  0.1067
    1PA    H12S  392   4.240   2.003   5.509  0.9145 -1.2394  2.4402
    1PA    C111  393   4.162   2.179   5.591  0.1773 -0.0151  1.0449
    1PA    H11R  394   4.224   2.220   5.511  1.5506 -0.8072  1.6749
    1PA    H11S  395   4.070   2.236   5.598 -0.5904 -1.0692  0.0893
    1PA    C110  396   4.249   2.176   5.720 -0.5063 -0.9224 -0.2026
    1PA    H10R  397   4.328   2.102   5.709 -0.1199 -0.3308 -1.5851
    1PA    H10S  398   4.297   2.273   5.722 -1.2328 -0.5663  0.4008
    1PA     C19  399   4.171   2.155   5.850  0.2274 -0.0365  0.0427
    1PA     H9R  400   4.068   2.189   5.836  0.2739  0.7623  1.4942
    1PA     H9S  401   4.173   2.046   5.860  1.8312  0.0092  0.4030
    1PA     C18  402   4.227   2.223   5.979  0.1910  0.1008 -0.4484
    1PA     H8R  403   4.335   2.207   5.992  0.0191 -1.2242 -0.5305
    1PA     H8S  404   4.221   2.330   5.958 -1.6435  0.3743  1.2248
    1PA     C17  405   4.145   2.186   6.105  0.0652 -0.7988  0.1565
    1PA     H7R  406   4.188   2.226   6.197 -0.6088 -0.2836  0.2534
    1PA     H7S  407   4.045   2.229   6.092 -0.2319 -0.6893  2.4299
    1PA     C16  408   4.122   2.034   6.137  0.1838 -0.0476  0.1073
    1PA     H6R  409   4.068   1.983   6.057  0.7312 -2.1205  0.9930
    1PA     H6S  410   4.219   1.985   6.155  0.7133  0.2934 -1.6682
    1PA     C15  411   4.047   1.999   6.271 -0.2665 -0.3161  0.3008
    1PA     H5R  412   3.953   2.054   6.268 -0.4367 -0.6135 -1.8152
    1PA     H5S  413   4.023   1.895   6.248 -2.4818  0.5014 -1.5539
    1PA     C14  414   4.130   2.018   6.405  0.6372  1.2747  0.2052
    1PA     H4R  415   4.170   1.925   6.446 -2.8588 -0.0914  0.8023
    1PA     H4S  416   4.214   2.083   6.380  0.0522  2.1280  0.4127
    1PA     C13  417   4.054   2.090   6.522 -0.6015  0.0610  0.4846
    1PA     H3R  418   4.138   2.118   6.587  2.1267 -0.0265 -2.7181
    1PA     H3S  419   4.010   2.184   6.487 -0.3465  0.4415  1.1537
    1PA     C12  420   3.956   1.997   6.593 -0.3538  0.6925  0.0136
    1PA     H2R  421   3.903   1.932   6.522  1.9007 -2.2991  0.8659
    1PA     H2S  422   4.008   1.925   6.657  0.9824  0.4311 -1.3172
    1PC     C11  423   3.866   2.080   6.684  0.1507 -0.4413  0.3198
    1PC     O12  424   3.870   2.199   6.679  0.0907 -0.5024 -0.1869
    1PC     O11  425   3.795   2.003   6.770 -0.2769  0.4660  0.9332
    1PC      C1  426   3.712   2.063   6.873 -0.0465 -0.7019  0.1633
    1PC      HR  427   3.733   2.004   6.963  2.3333 -0.1481  0.0149
    1PC      HS  428   3.746   2.166   6.882  2.0223 -1.2973 -0.2722
    1PC      C2  429   3.563   2.059   6.836 -1.1689 -0.2131 -0.5701
    1PC      HX  430   3.517   2.110   6.921  1.1616  0.2197  0.5144
    1PC      C3  431   3.505   1.920   6.845  0.1979  0.3106  0.1219
    1PC      HA  432   3.401   1.929   6.813  0.5913  0.3475 -1.1952
    1PC      HB  433   3.557   1.849   6.780 -1.2927 -1.7568  1.0343
    1PC     O31  434   3.514   1.885   6.989 -0.5485 -0.6853  0.0733
    1PC     P31  435   3.382   1.872   7.074  0.1332  0.0677  0.0555
    1PC     O32  436   3.315   1.735   7.023 -0.8853  0.5562 -0.3450
    1PC     C31  437   3.368   1.608   7.078  0.5262 -0.2463 -0.8281
    1PC     H1A  438   3.442   1.634   7.154  0.1844 -0.1756 -0.5200
    1PC     H1B  439   3.286   1.553   7.124 -2.0370  1.8329 -2.5717
    1PC     C32  440   3.427   1.519   6.969  0.2089  0.1146 -0.1274
    1PC     H2A  441   3.515   1.563   6.922  0.6663 -0.7938 -0.1427
    1PC     H2B  442   3.468   1.429   7.014  1.7364  0.7875 -0.1025
    1PC     N31  443   3.334   1.471   6.854 -0.0483  0.1169 -0.2025
    1PC     C33  444   3.309   1.584   6.761  0.5883  0.9783  0.3477
    1PC     H3A  445   3.395   1.604   6.697 -0.1973  3.0606 -0.1626
    1PC     H3B  446   3.228   1.557   6.693  1.8946 -0.2488 -0.7828
    1PC     H3C  447   3.279   1.674   6.815  0.3390  3.0844 -2.9962
    1PC     C34  448   3.397   1.355   6.781  0.3605  0.2337  0.3788
    1PC     H4A  449   3.413   1.276   6.854 -0.9720  0.8785  1.4091
    1PC     H4B  450   3.327   1.335   6.700  0.5428  1.0459  0.0118
    1PC     H4C  451   3.493   1.370   6.732 -0.0638 -1.8391 -1.2271
    1PC     C35  452   3.206   1.425   6.908  0.3360  0.0146 -0.7313
    1PC     H5A  453   3.151   1.413   6.815  1.2603  0.8111 -1.4044
    1PC     H5B  454   3.173   1.507   6.972  1.9998 -0.0277  0.2424
    1PC     H5C  455   3.223   1.328   6.954 -1.0280 -0.5591 -1.3865
    1PC     O33  456   3.416   1.855   7.215  0.2925  0.1893 -0.4125
    1PC     O34  457   3.292   1.984   7.043  0.9617 -0.8037  0.3276
    1PC     O21  458   3.537   2.113   6.702  0.0141  0.6953  0.2688
    1PC     C21  459   3.495   2.239   6.680  0.7845 -0.9997 -0.7418
    1PC     O22  460   3.476   2.319   6.773  0.0640  0.0115  0.0470
    1OL     C12  461   3.491   2.268   6.526  0.9548  0.4102 -0.9686
    1OL     H2R  462   3.413   2.345   6.525  0.2977 -0.1119  1.6445
    1OL     H2S  463   3.453   2.183   6.470 -0.4099  0.2948  0.0747
    1OL     C13  464   3.625   2.325   6.483  0.0177 -0.3721 -0.0589
    1OL     H3R  465   3.710   2.276   6.530  0.1627  0.5375  0.6510
    1OL     H3S  466   3.634   2.427   6.521  1.6926 -0.1622 -0.9009
    1OL     C14  467   3.645   2.325   6.328 -0.8207 -1.1961 -0.5002
    1OL     H4R  468   3.740   2.375   6.306  1.0809 -2.5465  3.6759
    1OL     H4S  469   3.563   2.380   6.281 -1.3650 -0.7497  0.9241
    1OL     C15  470   3.657   2.178   6.274  0.0775 -0.5114 -0.8526
    1OL     H5R  471   3.557   2.138   6.291 -0.6202  1.9488  1.7195
    1OL     H5S  472   3.733   2.123   6.330  1.4928  1.7922 -0.3407
    1OL     C16  473   3.689   2.164   6.126 -0.3625 -0.1472 -0.4935
    1OL     H6R  474   3.788   2.202   6.100  0.0748 -2.5832 -2.9146
    1OL     H6S  475   3.608   2.215   6.074 -0.8414 -1.0646 -0.6747
    1OL     C17  476   3.712   2.017   6.085  0.1067 -0.2305 -0.2800
    1OL     H7R  477   3.624   1.954   6.103  0.7117 -0.4602  2.1200
    1OL     H7S  478   3.797   1.978   6.141  0.5116  2.5075  1.1531
    1OL     C18  479   3.761   2.012   5.942  1.1235 -0.6389 -0.7099
    1OL     H8R  480   3.863   1.973   5.933  0.4790 -2.1826 -1.7033
    1OL     H8S  481   3.756   2.113   5.900 -1.9604 -0.5553 -0.3603
    1OL     C19  482   3.668   1.917   5.860  0.0617 -0.5218  0.0907
    1OL     H9R  483   3.560   1.924   5.876  0.2017  1.0391  0.5626
    1OL    C110  484   3.714   1.831   5.779  0.3293 -0.2523 -0.2684
    1OL    H10R  485   3.644   1.769   5.723  0.2116 -1.0608  0.7339
    1OL    C111  486   3.854   1.796   5.746  0.2688 -0.1287  0.6082
    1OL    H11R  487   3.863   1.693   5.780 -0.2260 -0.9470 -1.5492
    1OL    H11S  488   3.931   1.867   5.779  1.5887 -1.7073  1.0419
    1OL    C112  489   3.866   1.776   5.596 -0.1298  0.4504  0.6863
    1OL    H12R  490   3.970   1.760   5.566 -0.3311  1.2492 -0.4704
    1OL    H12S  491   3.836   1.868   5.545  1.3749  0.0191 -1.1061
    1OL    C113  492   3.768   1.671   5.540  0.2238  0.5973 -0.3920
    1OL    H13R  493   3.670   1.718   5.540 -0.0482  0.0907  1.1428
    1OL    H13S  494   3.764   1.584   5.605  2.2589  1.8074  1.4803
    1OL    C114  495   3.807   1.611   5.404 -0.1351  0.0732 -0.2426
    1OL    H14R  496   3.812   1.694   5.333 -1.6178  1.9849  1.7518
    1OL    H14S  497   3.723   1.546   5.380  0.4288 -2.2968  3.3958
    1OL    C115  498   3.938   1.526   5.417 -0.0507 -0.1493 -0.2627
    1OL    H15R  499   3.916   1.448   5.490  0.6770 -1.0414 -0.9732
    1OL    H15S  500   4.013   1.598   5.453 -0.0968 -0.0775 -0.3109
    1OL    C116  501   3.989   1.455   5.291  0.0763 -0.0634 -0.0722
    1OL    H16R  502   4.093   1.424   5.301  0.3287 -0.2426 -2.5249
    1OL    H16S  503   3.990   1.522   5.205 -1.4124 -0.5190 -0.4727
    1OL    C117  504   3.917   1.322   5.258  0.5844  0.0990 -0.4323
    1OL    H17R  505   3.917   1.254   5.343  2.5456  0.7649  0.1489
    1OL    H17S  506   3.982   1.268   5.188 -0.3902 -0.5726 -0.8428
    1OL    C118  507   3.778   1.344   5.190 -0.4273  0.1173  0.1563
    1OL    H18R  508   3.780   1.410   5.103 -1.1104  0.3104  0.2823
    1OL    H18S  509   3.691   1.372   5.250 -0.2218 -0.2761  0.6420
    1OL    H18T  510   3.745   1.245   5.156  0.2607  0.7403 -2.6195
    1PA    C116  511   3.161   1.541   4.855 -0.0575  0.0535 -0.0048
    1PA    H16R  512   3.160   1.650   4.852  1.2339  0.0854  0.4094
    1PA    H16S  513   3.161   1.501   4.754  2.9801 -0.5350  0.1410
    1PA    H16T  514   3.255   1.513   4.903  0.0431 -1.1710 -0.8690
    1PA    C115  515   3.037   1.488   4.937  0.3133  0.4295  0.2951
    1PA    H15R  516   2.951   1.505   4.872 -1.9218 -0.3512  2.8297
    1PA    H15S  517   3.043   1.382   4.965 -0.4385  0.7570  1.8367
    1PA    C114  518   3.004   1.566   5.066 -0.5072 -0.7359 -0.2152
    1PA    H14R  519   2.957   1.662   5.043  2.5312  0.4988 -2.0223
    1PA    H14S  520   2.935   1.498   5.116 -0.2741 -2.1140 -1.6758
    1PA    C113  521   3.120   1.597   5.169  0.2710  0.7899  0.0426
    1PA    H13R  522   3.160   1.495   5.180  0.3184  0.6729 -1.0440
    1PA    H13S  523   3.200   1.664   5.136 -0.8091  0.8969 -2.5994
    1PA    C112  524   3.083   1.640   5.311 -0.3752 -0.2820 -0.5837
    1PA    H12R  525   3.054   1.745   5.307  1.5293  0.3667  1.1160
    1PA    H12S  526   3.000   1.575   5.343 -0.7303  1.2605  1.9158
    1PA    C111  527   3.203   1.626   5.403 -0.3851  0.5922  0.2828
    1PA    H11R  528   3.248   1.527   5.396 -1.0481  0.1196  2.1296
    1PA    H11S  529   3.277   1.700   5.371 -0.7679  1.6329  1.7096
    1PA    C110  530   3.170   1.664   5.552  0.1762  0.0926  0.2133
    1PA    H10R  531   3.109   1.755   5.552  0.1436  0.0725  1.1044
    1PA    H10S  532   3.122   1.574   5.589  0.2410 -0.7006 -1.5226
    1PA     C19  533   3.296   1.699   5.637  0.4215  0.1898 -0.4709
    1PA     H9R  534   3.358   1.610   5.649 -1.6134 -1.0894  1.2358
    1PA     H9S  535   3.360   1.765   5.578 -0.0805  0.0608 -1.1721
    1PA     C18  536   3.263   1.753   5.783 -0.3788  0.8364 -0.1008
    1PA     H8R  537   3.336   1.832   5.799 -0.4173  1.0683 -0.9909
    1PA     H8S  538   3.171   1.812   5.785  1.6530  4.3351  3.3725
    1PA     C17  539   3.249   1.650   5.893  0.0576  0.8005 -0.5212
    1PA     H7R  540   3.160   1.590   5.871  0.2910  0.3302 -0.1960
    1PA     H7S  541   3.320   1.568   5.903 -1.7081 -0.5241  2.5300
    1PA     C16  542   3.213   1.709   6.032 -0.3821  0.4722 -0.3329
    1PA     H6R  543   3.298   1.774   6.051 -0.5325  1.0165 -1.4435
    1PA     H6S  544   3.122   1.770   6.025 -0.3949  0.4607 -0.2603
    1PA     C15  545   3.191   1.600   6.135 -0.1106  0.1959 -1.0912
    1PA     H5R  546   3.116   1.530   6.098 -0.8878  0.1079  0.5877
    1PA     H5S  547   3.284   1.543   6.145 -1.4314 -1.7705  0.9505
    1PA     C14  548   3.145   1.665   6.269  0.1591  0.1340  0.6020
    1PA     H4R  549   3.218   1.743   6.293  1.4566 -1.8034  3.4472
    1PA     H4S  550   3.046   1.707   6.251  0.2193  0.1644  0.3267
    1PA     C13  551   3.156   1.560   6.385 -0.1427 -0.3687 -0.1574
    1PA     H3R  552   3.258   1.522   6.392  0.2260  0.3402 -1.3945
    1PA     H3S  553   3.134   1.618   6.475  2.6128 -0.8066  0.9082
    1PA     C12  554   3.055   1.452   6.375  0.1551  0.6276  0.2808
    1PA     H2R  555   2.950   1.483   6.369 -0.0040 -0.2063 -2.2849
    1PA     H2S  556   3.067   1.398   6.281 -2.2858 -1.5101  1.0694
    1PC     C11  557   3.065   1.352   6.483 -0.5387  0.0192  0.2933
    1PC     O12  558   3.158   1.351   6.564  0.5739  0.0250 -0.5300
    1PC     O11  559   2.962   1.264   6.488  0.6225 -0.1925 -0.1689
    1PC      C1  560   2.947   1.174   6.603  0.3368 -0.2206 -0.2695
    1PC      HR  561   2.898   1.083   6.567  0.2972 -0.8190  1.2119
    1PC      HS  562   3.047   1.153   6.642  1.0114  2.6505 -0.2814
    1PC      C2  563   2.857   1.232   6.712  0.1433  1.2817  0.4961
    1PC      HX  564   2.899   1.325   6.750 -0.8995  1.4623  1.2621
    1PC      C3  565   2.848   1.130   6.824 -0.5656 -0.0490 -0.0308
    1PC      HA  566   2.755   1.154   6.876 -1.5285  1.4191 -2.2340
    1PC      HB  567   2.846   1.030   6.780  0.0383  0.1817 -0.6095
    1PC     O31  568   2.970   1.152   6.906 -0.9883 -0.1306  0.4785
    1PC     P31  569   2.961   1.209   7.053 -0.5348  0.1134 -0.5776
    1PC     O32  570   2.921   1.365   7.026 -0.0319 -0.6356  0.4235
    1PC     C31  571   2.788   1.420   7.024  0.4008  0.4385 -0.0203
    1PC     H1A  572   2.769   1.471   6.930 -0.4602 -1.0818 -0.7140
    1PC     H1B  573   2.714   1.340   7.031  0.8184  0.1086  0.7955
    1PC     C32  574   2.777   1.529   7.135 -0.4248 -0.5257  0.1368
    1PC     H2A  575   2.680   1.578   7.141 -0.2668 -0.3546  1.7469
    1PC     H2B  576   2.793   1.489   7.235  0.4903  0.7087  0.5030
    1PC     N31  577   2.868   1.658   7.119  0.5541  0.1764  0.8841
    1PC     C33  578   2.886   1.708   6.986  0.0997  0.2064 -0.3854
    1PC     H3A  579   2.935   1.805   6.994  1.7864 -0.4987 -1.4196
    1PC     H3B  580   2.942   1.640   6.921 -1.3409 -1.5247  0.0853
    1PC     H3C  581   2.788   1.728   6.943 -0.9368  0.2175  1.8544
    1PC     C34  582   2.827   1.764   7.215 -0.4920  0.4882  0.6719
    1PC     H4A  583   2.914   1.829   7.225 -0.5107  0.9902 -1.7803
    1PC     H4B  584   2.739   1.811   7.170  0.9497 -0.8803 -4.1251
    1PC     H4C  585   2.802   1.719   7.311 -1.9867  1.4340  0.7622
    1PC     C35  586   3.006   1.615   7.163 -0.4203 -0.0224 -0.3921
    1PC     H5A  587   3.071   1.702   7.151  0.3237 -0.5824 -0.4193
    1PC     H5B  588   3.044   1.532   7.103  0.3284 -0.5063  0.7303
    1PC     H5C  589   3.006   1.597   7.270 -0.3400  2.2579  0.0455
    1PC     O33  590   2.856   1.138   7.124 -0.2069  0.3512 -0.1771
    1PC     O34  591   3.100   1.207   7.115  0.7580 -0.1018 -0.0970
    1PC     O21  592   2.726   1.238   6.653 -0.3577 -0.5081  0.3269
    1PC     C21  593   2.678   1.359   6.613  0.3985 -0.0026 -0.6523
    1PC     O22  594   2.748   1.455   6.591  0.1389  0.4404  0.3285
    1OL     C12  595   2.533   1.350   6.560  0.1853  0.6657  0.4083
    1OL     H2R  596   2.473   1.387   6.644 -0.9620 -0.4554  0.1186
    1OL     H2S  597   2.502   1.245   6.557  2.2015 -0.1208  2.9089
    1OL     C13  598   2.505   1.415   6.424  0.1432 -0.5314  0.3118
    1OL     H3R  599   2.526   1.522   6.431  1.0076 -0.7933  2.6069
    1OL     H3S  600   2.397   1.407   6.407  0.1612  1.9510 -1.3811
    1OL     C14  601   2.573   1.340   6.303  0.2993  0.3933  0.0326
    1OL     H4R  602   2.559   1.234   6.324  1.0345  0.2901  0.0510
    1OL     H4S  603   2.682   1.354   6.303  0.1314  2.4003  2.6486
    1OL     C15  604   2.509   1.371   6.167  0.4761 -0.7183 -0.6956
    1OL     H5R  605   2.501   1.479   6.155  1.9322 -0.5117 -0.0052
    1OL     H5S  606   2.412   1.323   6.158  1.3250 -3.3585  2.3655
    1OL     C16  607   2.592   1.337   6.039 -0.5501  0.6756 -0.9207
    1OL     H6R  608   2.523   1.333   5.955 -0.2908 -1.3554 -1.0993
    1OL     H6S  609   2.627   1.236   6.065 -2.4775  0.1001 -0.3906
    1OL     C17  610   2.719   1.419   6.028 -0.4368 -0.3345  0.2017
    1OL     H7R  611   2.778   1.402   6.119  0.6008  0.1646 -0.3656
    1OL     H7S  612   2.691   1.524   6.027 -1.2382 -0.5475 -0.0880
    1OL     C18  613   2.804   1.396   5.903 -0.1901  0.4198 -0.0958
    1OL     H8R  614   2.734   1.369   5.824 -0.2476 -0.2382  0.1696
    1OL     H8S  615   2.864   1.308   5.926  0.0196  0.8017  0.8711
    1OL     C19  616   2.905   1.507   5.878  0.3426 -0.2781  0.1736
    1OL     H9R  617   2.987   1.517   5.949 -0.7313 -2.4982  1.8456
    1OL    C110  618   2.894   1.602   5.788 -0.5464 -0.0070  0.2757
    1OL    H10R  619   2.970   1.680   5.784  1.0661 -1.4926  0.7364
    1OL    C111  620   2.781   1.606   5.682  0.3623  0.2758  0.3568
    1OL    H11R  621   2.687   1.574   5.727  0.2236 -2.5788 -1.6790
    1OL    H11S  622   2.796   1.535   5.601  1.8089 -1.3454  1.9502
    1OL    C112  623   2.775   1.748   5.615 -0.3634 -0.2056  0.1486
    1OL    H12R  624   2.875   1.776   5.581 -0.4622 -1.0210 -0.8565
    1OL    H12S  625   2.730   1.819   5.685  2.3391 -0.3292  2.1663
    1OL    C113  626   2.674   1.740   5.496  0.1954  0.0191  0.1518
    1OL    H13R  627   2.572   1.715   5.528  0.5838  0.4713  1.8275
    1OL    H13S  628   2.705   1.655   5.435 -3.0109  0.3735 -2.2487
    1OL    C114  629   2.659   1.867   5.416 -0.0972  0.5331  0.5872
    1OL    H14R  630   2.618   1.941   5.485  0.4798 -1.1674  2.8566
    1OL    H14S  631   2.589   1.844   5.335  0.7916  3.8784 -1.3111
    1OL    C115  632   2.790   1.904   5.345  0.3062 -0.3493 -0.3296
    1OL    H15R  633   2.824   1.814   5.294 -0.7230 -2.6766  2.7546
    1OL    H15S  634   2.872   1.937   5.409  1.7085 -0.1992 -2.1327
    1OL    C116  635   2.764   2.018   5.249  0.6121 -0.2600 -0.4946
    1OL    H16R  636   2.864   2.038   5.208 -0.4347  2.6297 -1.9083
    1OL    H16S  637   2.737   2.109   5.302  0.4685 -0.9310  0.6131
    1OL    C117  638   2.681   1.977   5.126  0.2449 -0.3285 -0.5145
    1OL    H17R  639   2.577   1.954   5.153 -0.8626  3.3217 -1.1093
    1OL    H17S  640   2.728   1.884   5.093  0.3003 -1.4534  2.4386
    1OL    C118  641   2.688   2.084   5.013 -0.1492  0.7240  0.0536
    1OL    H18R  642   2.793   2.105   4.988 -0.0388  0.3574  0.1978
    1OL    H18S  643   2.629   2.171   5.042 -2.6806 -0.7688 -0.3583
    1OL    H18T  644   2.633   2.047   4.927 -0.1779  1.9155 -0.4618
    1PA    C116  645   1.909   3.394   5.352  0.3075  0.1309  0.4403
    1PA    H16R  646   1.865   3.337   5.434  0.1701  0.4440  0.5895
    1PA    H16S  647   2.009   3.361   5.324  0.4964 -0.3986  1.6756
    1PA    H16T  648   1.833   3.383   5.275 -0.0246 -0.0650  0.7910
    1PA    C115  649   1.902   3.543   5.388  0.1324  0.4424 -0.6959
    1PA    H15R  650   1.929   3.613   5.309 -0.1025  0.6269 -0.6128
    1PA    H15S  651   1.800   3.573   5.411 -0.6828 -2.4153 -0.2033
    1PA    C114  652   1.988   3.581   5.511  0.5040 -0.1100  0.0617
    1PA    H14R  653   1.986   3.689   5.532  0.7395 -0.3768  1.6112
    1PA    H14S  654   1.949   3.530   5.599  1.9057  2.2759  2.2259
    1PA    C113  655   2.142   3.548   5.494  0.8443  0.0410 -0.1801
    1PA    H13R  656   2.146   3.443   5.464  0.7591 -0.7041  2.2004
    1PA    H13S  657   2.188   3.608   5.415 -1.8318  0.2918 -1.6778
    1PA    C112  658   2.222   3.534   5.622 -0.6851  0.2043  0.0144
    1PA    H12R  659   2.212   3.629   5.675 -1.2155 -0.2010  0.6551
    1PA    H12S  660   2.173   3.453   5.676 -1.4007  0.2201 -0.6011
    1PA    C111  661   2.370   3.481   5.617  0.6067  0.6539  0.3510
    1PA    H11R  662   2.380   3.376   5.589  1.3547  1.4407 -2.7911
    1PA    H11S  663   2.435   3.545   5.556  0.8593  1.8744  1.8510
    1PA    C110  664   2.424   3.498   5.761  0.0924 -0.0535 -0.2169
    1PA    H10R  665   2.416   3.603   5.789 -1.0028 -0.2504  0.2529
    1PA    H10S  666   2.373   3.442   5.840  0.5211 -2.1281 -1.3202
    1PA     C19  667   2.579   3.463   5.774 -0.1653  0.3382  0.3266
    1PA     H9R  668   2.586   3.357   5.750  1.3108  0.2510  1.0126
    1PA     H9S  669   2.636   3.524   5.703  1.4257 -1.4444  0.0106
    1PA     C18  670   2.637   3.464   5.917  1.3953  0.2633  0.1139
    1PA     H8R  671   2.615   3.367   5.961  2.7947 -0.7597 -1.3158
    1PA     H8S  672   2.746   3.464   5.911  1.4165 -0.5196  0.3780
    1PA     C17  673   2.589   3.575   6.000  1.4235 -0.6832  0.9900
    1PA     H7R  674   2.618   3.671   5.957  2.0768 -1.2025  0.2564
    1PA     H7S  675   2.479   3.574   6.000  1.4050  0.5798  0.5446
    1PA     C16  676   2.646   3.561   6.142 -0.2707 -0.3586  0.5019
    1PA     H6R  677   2.619   3.467   6.189  1.2635 -0.0615  2.0791
    1PA     H6S  678   2.754   3.575   6.147 -0.4423  0.6860  1.6900
    1PA     C15  679   2.601   3.675   6.230 -0.4397  0.7685  0.2984
    1PA     H5R  680   2.610   3.761   6.164  1.1390  1.1130  0.9334
    1PA     H5S  681   2.499   3.659   6.268 -0.0230  2.2847  2.2015
    1PA     C14  682   2.679   3.698   6.355  0.0046  0.3609 -0.2765
    1PA     H4R  683   2.686   3.600   6.402 -1.0663 -0.6279 -2.0707
    1PA     H4S  684   2.784   3.722   6.341  0.1523 -0.0963  0.0078
    1PA     C13  685   2.606   3.797   6.454 -0.3068 -0.4510 -0.1516
    1PA     H3R  686   2.597   3.889   6.395  1.8164  0.1166  0.3391
    1PA     H3S  687   2.507   3.771   6.493 -0.0185  2.0764  2.6557
    1PA     C12  688   2.684   3.828   6.581 -0.3206 -0.6403  0.4189
    1PA     H2R  689   2.788   3.855   6.560  0.0151 -0.4876  2.1344
    1PA     H2S  690   2.645   3.915   6.635  1.4863 -0.4728  1.5436
    1PC     C11  691   2.694   3.705   6.667 -1.0673  0.6036 -0.2764
    1PC     O12  692   2.791   3.624   6.651  0.2906  0.0862  0.5461
    1PC     O11  693   2.600   3.696   6.765 -0.1029 -0.5852 -0.7700
    1PC      C1  694   2.618   3.590   6.867  0.0491 -0.0346  0.0791
    1PC      HR  695   2.722   3.557   6.868  0.2029  0.2962 -1.7988
    1PC      HS  696   2.597   3.640   6.962  2.1000  2.3053 -0.6121
    1PC      C2  697   2.528   3.467   6.843  0.8368  0.2882  0.3705
    1PC      HX  698   2.424   3.495   6.828  0.5242  0.1828  2.0706
    1PC      C3  699   2.538   3.363   6.950 -0.7753  0.4104 -0.3029
    1PC      HA  700   2.484   3.275   6.913 -2.5221  0.6271  1.5478
    1PC      HB  701   2.643   3.352   6.977 -1.3705  1.1542  2.6809
    1PC     O31  702   2.453   3.418   7.056 -0.6033 -0.2964  0.1126
    1PC     P31  703   2.507   3.485   7.191  0.1554 -0.3274  0.5894
    1PC     O32  704   2.475   3.372   7.293 -0.1714  0.0590  0.3260
    1PC     C31  705   2.545   3.246   7.290  0.4873 -0.0053 -0.0997
    1PC     H1A  706   2.496   3.184   7.214 -1.0502  0.6994  0.2801
    1PC     H1B  707   2.651   3.255   7.264  0.9859 -1.3870  1.3114
    1PC     C32  708   2.529   3.177   7.431  0.1042 -0.1722  0.3118
    1PC     H2A  709   2.565   3.250   7.503  1.5054 -0.8381  0.3220
    1PC     H2B  710   2.422   3.167   7.450 -0.3091 -0.7582 -2.0319
    1PC     N31  711   2.591   3.036   7.460  0.4418  1.0802  0.5453
    1PC     C33  712   2.538   2.928   7.379  0.9670  0.0732 -0.2459
    1PC     H3A  713   2.443   2.967   7.342  1.3268 -0.7299 -2.1732
    1PC     H3B  714   2.593   2.917   7.285  3.3988  2.2364  0.8237
    1PC     H3C  715   2.531   2.833   7.434  0.8778 -0.4542 -1.1383
    1PC     C34  716   2.742   3.044   7.453 -0.3433  0.4030 -0.8770
    1PC     H4A  717   2.777   3.050   7.350  1.0702  0.0559 -0.4283
    1PC     H4B  718   2.772   3.133   7.510 -0.5604 -0.7538  1.1418
    1PC     H4C  719   2.787   2.957   7.500 -0.9421 -0.1053 -1.2347
    1PC     C35  720   2.549   3.022   7.603  0.9096  0.2650 -0.0991
    1PC     H5A  721   2.444   2.995   7.599  1.0411 -0.6591  1.6381
    1PC     H5B  722   2.568   3.121   7.646  1.8790 -0.1473  0.4501
    1PC     H5C  723   2.603   2.943   7.655 -0.4054 -1.9840 -1.9652
    1PC     O33  724   2.650   3.510   7.184  0.0315 -0.2328 -0.1726
    1PC     O34  725   2.419   3.602   7.222 -0.2620 -0.5614  0.5997
    1PC     O21  726   2.566   3.403   6.715  0.2769 -0.5333  0.2906
    1PC     C21  727   2.471   3.329   6.648  0.0838 -0.3823 -0.2428
    1PC     O22  728   2.363   3.309   6.701  0.2432 -0.7609  0.8033
    1OL     C12  729   2.524   3.261   6.525 -0.0326 -0.4635  0.1825
    1OL     H2R  730   2.581   3.172   6.552  3.1727  1.5398  0.5507
    1OL     H2S  731   2.597   3.329   6.480  1.5597 -2.0510  0.2289
    1OL     C13  732   2.418   3.227   6.421  0.1343  0.0013  0.3212
    1OL     H3R  733   2.365   3.322   6.411 -0.0788 -0.2160 -0.7571
    1OL     H3S  734   2.352   3.152   6.464  0.9777 -0.9520 -0.0159
    1OL     C14  735   2.464   3.188   6.275 -0.0048  0.1075  0.7700
    1OL     H4R  736   2.548   3.253   6.251 -1.0468  1.6228  1.1028
    1OL     H4S  737   2.393   3.212   6.196  0.2276 -1.8039 -0.0749
    1OL     C15  738   2.498   3.040   6.253  0.6356  0.5890  0.3049
    1OL     H5R  739   2.401   2.991   6.249  0.1669  1.5552 -2.3482
    1OL     H5S  740   2.560   2.997   6.331 -0.1914  0.7790  1.0794
    1OL     C16  741   2.568   3.025   6.116 -0.0589 -0.6486  0.2110
    1OL     H6R  742   2.506   3.066   6.036  0.5137  2.3808  1.1918
    1OL     H6S  743   2.571   2.917   6.099 -1.1147 -0.4258 -1.6233
    1OL     C17  744   2.706   3.092   6.115 -0.6623  1.4147  0.7201
    1OL     H7R  745   2.756   3.065   6.208 -0.1677 -3.4168 -0.6432
    1OL     H7S  746   2.708   3.201   6.110 -0.8460  1.4035  0.3702
    1OL     C18  747   2.800   3.032   6.011 -0.2650  0.1448  0.8737
    1OL     H8R  748   2.759   3.053   5.912 -0.3117  0.4102  0.9479
    1OL     H8S  749   2.810   2.923   6.017  1.0893  0.2853  1.4923
    1OL     C19  750   2.945   3.081   6.023 -0.3558 -0.0514 -0.7425
    1OL     H9R  751   2.969   3.086   6.128 -1.8267 -1.7717 -0.2726
    1OL    C110  752   3.042   3.102   5.938 -0.3700  0.2919  0.6061
    1OL    H10R  753   3.139   3.126   5.981 -0.0880 -0.7924  0.5951
    1OL    C111  754   3.037   3.080   5.787  0.0091  0.0584 -0.0987
    1OL    H11R  755   2.946   3.024   5.762 -0.8332  1.4745 -0.3080
    1OL    H11S  756   3.116   3.010   5.758  0.0802 -0.0898  0.4535
    1OL    C112  757   3.037   3.214   5.713  0.4581 -0.1400  0.4361
    1OL    H12R  758   3.120   3.282   5.732 -0.3643  1.2799 -0.8086
    1OL    H12S  759   2.956   3.276   5.752  1.0025  0.4001  0.7230
    1OL    C113  760   3.017   3.205   5.563  0.6966 -0.3736  0.5335
    1OL    H13R  761   2.989   3.307   5.539  1.3690 -0.2399  0.2768
    1OL    H13S  762   2.927   3.148   5.539  1.6185 -1.0915 -1.5640
    1OL    C114  763   3.122   3.169   5.463  0.4295  0.8777 -0.4000
    1OL    H14R  764   3.123   3.060   5.461 -0.0005  0.8430  0.5486
    1OL    H14S  765   3.226   3.185   5.493  0.9895 -1.0817 -1.1648
    1OL    C115  766   3.100   3.217   5.325  0.0457 -0.2340 -0.4955
    1OL    H15R  767   3.075   3.324   5.322  0.4172 -0.1493 -0.5715
    1OL    H15S  768   3.012   3.161   5.293 -0.8496  0.2821  0.9213
    1OL    C116  769   3.201   3.190   5.214 -0.7589 -0.1631 -0.1992
    1OL    H16R  770   3.284   3.261   5.211 -0.0253 -1.0431 -1.0848
    1OL    H16S  771   3.146   3.210   5.123  1.5189  1.4772 -1.3111
    1OL    C117  772   3.257   3.049   5.198  0.4894  0.4408  0.3692
    1OL    H17R  773   3.324   3.013   5.276 -0.4128 -2.0554  0.0697
    1OL    H17S  774   3.323   3.042   5.112  0.1803  1.7540  0.0011
    1OL    C118  775   3.137   2.944   5.168 -0.3179 -0.2783  0.0441
    1OL    H18R  776   3.092   2.912   5.262 -0.8068 -0.5430 -0.2773
    1OL    H18S  777   3.182   2.860   5.115  1.9056  0.0862  1.2110
    1OL    H18T  778   3.056   2.979   5.104  0.2975 -1.2961 -1.3347
    1PA    C116  779   2.366   2.179   5.130 -0.1803 -0.3239  0.0884
    1PA    H16R  780   2.402   2.218   5.035 -1.0759  0.6431  0.1330
    1PA    H16S  781   2.261   2.157   5.112 -0.5768  2.0735 -0.7727
    1PA    H16T  782   2.410   2.081   5.150  1.0530  0.3120  0.6427
    1PA    C115  783   2.385   2.267   5.250 -0.1474  0.0136 -0.7269
    1PA    H15R  784   2.491   2.289   5.265 -0.2651 -0.0499  0.2668
    1PA    H15S  785   2.321   2.354   5.234 -1.5867 -0.7662  0.5244
    1PA    C114  786   2.330   2.207   5.375  0.7332 -0.0288  0.3513
    1PA    H14R  787   2.342   2.292   5.442  1.1145  0.5997 -0.5004
    1PA    H14S  788   2.229   2.168   5.357  0.9822  0.4121 -2.5690
    1PA    C113  789   2.418   2.096   5.431 -0.0320 -0.6643 -0.2285
    1PA    H13R  790   2.421   1.997   5.384  0.8521 -1.8773  2.1772
    1PA    H13S  791   2.518   2.140   5.434 -0.4542  0.2908  0.2020
    1PA    C112  792   2.384   2.066   5.583 -0.4787  0.8951  0.0905
    1PA    H12R  793   2.282   2.028   5.583 -0.3078  0.4279 -0.1975
    1PA    H12S  794   2.448   1.984   5.614  1.7396  1.5074 -2.4538
    1PA    C111  795   2.396   2.177   5.690 -0.5198  0.1128  0.3403
    1PA    H11R  796   2.304   2.235   5.702  1.0369  2.2753  3.0528
    1PA    H11S  797   2.389   2.121   5.784 -0.8666 -2.4112 -1.0975
    1PA    C110  798   2.522   2.268   5.698  0.3309  0.4532  0.7608
    1PA    H10R  799   2.566   2.281   5.599  1.6263  0.1274  1.2669
    1PA    H10S  800   2.489   2.369   5.722 -0.6992  0.0788  0.9625
    1PA     C19  801   2.628   2.241   5.802 -0.0737  0.1471 -0.4545
    1PA     H9R  802   2.697   2.326   5.805  1.8575 -1.3669 -0.3651
    1PA     H9S  803   2.586   2.227   5.902 -2.0990  0.9711 -1.1404
    1PA     C18  804   2.709   2.111   5.769 -0.2213  0.4074  0.2224
    1PA     H8R  805   2.636   2.030   5.776 -0.4613  0.4863 -1.0675
    1PA     H8S  806   2.733   2.117   5.663 -0.9465  1.1143  0.0878
    1PA     C17  807   2.837   2.059   5.843  0.2726  0.5542 -0.2458
    1PA     H7R  808   2.895   1.998   5.774  0.0701 -0.1601  0.2037
    1PA     H7S  809   2.895   2.144   5.879  1.7477 -0.3564 -0.4030
    1PA     C16  810   2.802   1.959   5.956 -0.5668 -0.5166  0.7225
    1PA     H6R  811   2.736   1.887   5.909  0.4197 -2.5596  2.3091
    1PA     H6S  812   2.897   1.913   5.985 -0.2818  0.1020  0.7946
    1PA     C15  813   2.731   2.035   6.072 -0.0149  0.6818 -0.2328
    1PA     H5R  814   2.800   2.098   6.128  2.9340  0.8615 -3.6730
    1PA     H5S  815   2.645   2.095   6.040 -1.4559 -0.3734  1.5277
    1PA     C14  816   2.657   1.929   6.156 -0.3067  0.0253  0.2580
    1PA     H4R  817   2.623   1.987   6.242  0.3764  1.1839 -0.2430
    1PA     H4S  818   2.565   1.894   6.107  0.1241 -1.5176  0.4870
    1PA     C13  819   2.747   1.818   6.195 -0.0792  0.0823  0.0647
    1PA     H3R  820   2.773   1.762   6.104  0.1585 -0.3356  0.3886
    1PA     H3S  821   2.844   1.860   6.223 -0.9087  2.1864 -0.0706
    1PA     C12  822   2.686   1.720   6.296 -0.2435  0.3175  0.1315
    1PA     H2R  823   2.586   1.695   6.261  0.3383  2.2826 -3.4579
    1PA     H2S  824   2.751   1.634   6.310  0.3765  0.6772 -0.4837
    1PC     C11  825   2.670   1.782   6.432 -0.3082 -1.0841  0.1287
    1PC     O12  826   2.763   1.795   6.505 -0.2926 -0.6738  0.1108
    1PC     O11  827   2.548   1.835   6.452 -0.2757  0.1658  0.2980
    1PC      C1  828   2.514   1.876   6.585 -0.0059  0.1044 -0.9778
    1PC      HR  829   2.601   1.918   6.636  0.1436 -2.3413  0.9732
    1PC      HS  830   2.437   1.953   6.582 -2.3726 -2.0061  1.0060
    1PC      C2  831   2.468   1.760   6.687  0.5204  0.2683 -0.0882
    1PC      HX  832   2.408   1.802   6.768  1.0033 -2.2698  1.6987
    1PC      C3  833   2.575   1.683   6.766  0.6269 -0.2360  0.5565
    1PC      HA  834   2.647   1.645   6.692 -0.2897 -0.1224 -0.4119
    1PC      HB  835   2.631   1.746   6.836 -0.4070 -0.3443  1.5046
    1PC     O31  836   2.531   1.569   6.835  0.2706 -0.0585 -0.1983
    1PC     P31  837   2.459   1.584   6.972  0.5842 -0.5190 -0.4138
    1PC     O32  838   2.305   1.607   6.939  1.1759  0.2037 -0.2233
    1PC     C31  839   2.214   1.506   6.890  0.1859  0.4713  0.1620
    1PC     H1A  840   2.126   1.552   6.842 -0.2698  0.8576  1.3461
    1PC     H1B  841   2.264   1.450   6.810  1.0377 -1.9282  2.2552
    1PC     C32  842   2.178   1.406   6.997  0.7949  0.5226 -0.4262
    1PC     H2A  843   2.109   1.330   6.958  1.2433 -0.1458  0.0564
    1PC     H2B  844   2.268   1.350   7.024  0.4962 -0.8968 -2.1122
    1PC     N31  845   2.125   1.459   7.126 -0.1515  0.0814 -0.6042
    1PC     C33  846   2.050   1.351   7.192  0.4734  0.4116 -0.4647
    1PC     H3A  847   2.049   1.366   7.300 -1.1900  1.4408 -0.5939
    1PC     H3B  848   1.947   1.367   7.159  0.9093  3.1141 -0.8148
    1PC     H3C  849   2.084   1.251   7.166 -1.5029 -0.7271  1.1559
    1PC     C34  850   2.234   1.487   7.222  0.1474 -0.4144  0.2835
    1PC     H4A  851   2.287   1.392   7.215  0.2361 -0.2303 -2.7499
    1PC     H4B  852   2.309   1.557   7.185  0.7110 -1.9260 -1.5997
    1PC     H4C  853   2.210   1.515   7.325 -2.2622  0.9236 -0.5569
    1PC     C35  854   2.036   1.568   7.111 -0.7089 -0.6748  0.4678
    1PC     H5A  855   2.090   1.653   7.070 -1.4124  0.4792  1.8076
    1PC     H5B  856   2.005   1.605   7.209  2.4308  1.7228  0.7043
    1PC     H5C  857   1.956   1.538   7.043 -1.5816 -0.8730  1.5480
    1PC     O33  858   2.478   1.453   7.034  0.4383 -0.3898 -0.2251
    1PC     O34  859   2.495   1.711   7.042 -0.5319  0.6078  0.0660
    1PC     O21  860   2.388   1.660   6.609 -0.9083 -0.2373  0.2500
    1PC     C21  861   2.262   1.709   6.580 -0.8806 -0.7169 -0.0565
    1PC     O22  862   2.208   1.800   6.636 -0.5034  0.1578 -0.1408
    1OL     C12  863   2.190   1.629   6.477 -0.1635  0.0888 -0.1428
    1OL     H2R  864   2.085   1.640   6.504  0.2077  2.6140  0.5164
    1OL     H2S  865   2.222   1.525   6.482 -0.7116 -0.1143 -0.7379
    1OL     C13  866   2.221   1.688   6.337 -0.8155 -0.2389  0.2590
    1OL     H3R  867   2.330   1.690   6.324 -0.7483 -1.3755  0.5268
    1OL     H3S  868   2.188   1.792   6.329  1.0296  0.3619 -0.1141
    1OL     C14  869   2.155   1.603   6.230 -0.2402 -1.0864 -0.5264
    1OL     H4R  870   2.048   1.601   6.250 -0.2899  0.4735 -0.5585
    1OL     H4S  871   2.184   1.498   6.243 -0.5489 -1.1108 -0.0034
    1OL     C15  872   2.171   1.655   6.087 -0.7601  1.2455  0.1156
    1OL     H5R  873   2.160   1.763   6.076 -0.4987  1.1156 -1.5334
    1OL     H5S  874   2.091   1.615   6.026  0.6649  0.4865 -1.3179
    1OL     C16  875   2.311   1.624   6.018 -0.3129 -0.2609 -0.2412
    1OL     H6R  876   2.344   1.521   6.032  2.2164  0.5597  0.3447
    1OL     H6S  877   2.386   1.680   6.074  0.9152 -3.0383  1.0961
    1OL     C17  878   2.324   1.670   5.873 -0.0374  0.4611  0.4096
    1OL     H7R  879   2.423   1.637   5.840 -0.7872 -1.2326 -0.3024
    1OL     H7S  880   2.311   1.778   5.861 -0.4054  0.2702 -1.0995
    1OL     C18  881   2.224   1.601   5.776 -0.0061 -0.3288  0.3549
    1OL     H8R  882   2.124   1.638   5.796 -0.8071 -2.6115  0.8832
    1OL     H8S  883   2.228   1.492   5.783  0.5157 -0.2771  0.9020
    1OL     C19  884   2.251   1.640   5.630  0.9942 -0.0794 -0.9680
    1OL     H9R  885   2.259   1.746   5.610 -0.1235 -0.3044 -2.8625
    1OL    C110  886   2.266   1.559   5.523  0.1718  0.6602 -0.0695
    1OL    H10R  887   2.279   1.603   5.425 -1.8757  2.9561  0.6017
    1OL    C111  888   2.240   1.414   5.542  0.6607  0.0746  0.0907
    1OL    H11R  889   2.204   1.379   5.445  2.0489  0.2412 -0.5029
    1OL    H11S  890   2.172   1.392   5.624 -0.2792  1.2538 -0.3433
    1OL    C112  891   2.373   1.337   5.556 -0.4645 -0.3945  0.4445
    1OL    H12R  892   2.417   1.356   5.654  3.0360  2.6853 -1.4761
    1OL    H12S  893   2.446   1.380   5.487 -1.2217  1.1543  0.5803
    1OL    C113  894   2.358   1.187   5.534 -0.1541  0.1183 -0.3623
    1OL    H13R  895   2.301   1.163   5.443  1.4315 -1.4738 -1.0110
    1OL    H13S  896   2.302   1.144   5.618  0.3900 -0.5997 -0.3585
    1OL    C114  897   2.495   1.114   5.509  0.2899 -0.0594  0.4522
    1OL    H14R  898   2.540   1.152   5.417 -0.4756  0.5949  0.3310
    1OL    H14S  899   2.470   1.008   5.496  0.2445  0.2780 -3.9054
    1OL    C115  900   2.599   1.120   5.627 -1.0533 -0.2643 -0.3235
    1OL    H15R  901   2.553   1.078   5.717 -1.5430 -1.6888 -1.2160
    1OL    H15S  902   2.626   1.224   5.645 -1.5488 -0.2207  0.1978
    1OL    C116  903   2.729   1.049   5.585  0.1206  0.8963 -0.2998
    1OL    H16R  904   2.708   0.951   5.543  2.2604 -1.6088  3.8570
    1OL    H16S  905   2.771   1.022   5.682 -0.4818  1.8791  0.2576
    1OL    C117  906   2.823   1.124   5.494 -0.7102 -0.4201 -0.1009
    1OL    H17R  907   2.768   1.137   5.400 -0.1480 -1.0654 -0.5312
    1OL    H17S  908   2.919   1.073   5.480  0.1262  0.7899  0.9446
    1OL    C118  909   2.861   1.261   5.551 -0.5770 -0.1712 -0.7840
    1OL    H18R  910   2.945   1.314   5.506 -0.4968  2.5638  2.1939
    1OL    H18S  911   2.898   1.244   5.653  0.4499 -1.3844 -1.3295
    1OL    H18T  912   2.775   1.327   5.537 -0.5213 -0.2060 -1.2872
    1PA    C116  913   2.874   3.872   4.967 -0.3141 -0.0350 -0.2390
    1PA    H16R  914   2.859   3.772   4.926 -2.6520  0.1863 -0.0412
    1PA    H16S  915   2.934   3.937   4.902 -0.8697  1.4279  0.6622
    1PA    H16T  916   2.776   3.918   4.982 -0.6517 -0.9539  0.4723
    1PA    C115  917   2.947   3.865   5.102 -0.1315 -0.0718  0.3431
    1PA    H15R  918   3.055   3.859   5.087  0.3187  3.0583  1.5784
    1PA    H15S  919   2.923   3.958   5.153  2.1349  0.6902  0.1518
    1PA    C114  920   2.894   3.745   5.182 -0.1187 -0.6348  0.0890
    1PA    H14R  921   2.787   3.749   5.205 -0.6732 -2.2033 -1.8689
    1PA    H14S  922   2.909   3.654   5.122  0.9723 -0.1137 -0.4495
    1PA    C113  923   2.988   3.731   5.305  0.1996 -0.1121 -0.4461
    1PA    H13R  924   3.093   3.717   5.278  0.3758  0.4678 -0.0760
    1PA    H13S  925   2.986   3.824   5.361  0.6618 -0.7683  0.6904
    1PA    C112  926   2.951   3.606   5.382 -0.0914  0.6809 -0.2132
    1PA    H12R  927   2.843   3.596   5.400  0.3717  0.1277  2.7930
    1PA    H12S  928   2.970   3.512   5.330 -1.4090  1.6109 -2.5189
    1PA    C111  929   3.024   3.587   5.517 -0.0045  0.0899  0.4095
    1PA    H11R  930   2.979   3.498   5.561 -0.3401 -0.0036 -0.1082
    1PA    H11S  931   3.131   3.566   5.513 -0.3338 -2.1232  1.4801
    1PA    C110  932   2.999   3.695   5.621 -0.1806  0.3009 -0.1990
    1PA    H10R  933   3.029   3.788   5.572 -0.8069  0.0024 -1.1797
    1PA    H10S  934   2.890   3.693   5.636 -0.2073 -0.6177 -0.4615
    1PA     C19  935   3.078   3.679   5.750 -0.3605 -0.1761 -0.3711
    1PA     H9R  936   3.057   3.580   5.791  2.4036 -1.5268 -1.8750
    1PA     H9S  937   3.184   3.668   5.725 -0.2325  0.0363  0.0645
    1PA     C18  938   3.060   3.786   5.858  0.2120 -0.2196 -0.2734
    1PA     H8R  939   3.121   3.872   5.828  1.1521 -0.2328  1.4360
    1PA     H8S  940   2.957   3.822   5.852  1.0172  2.0392 -2.3048
    1PA     C17  941   3.107   3.748   5.999 -0.6656  0.1083  0.1236
    1PA     H7R  942   3.038   3.669   6.031 -1.6207  0.9098  0.0874
    1PA     H7S  943   3.208   3.706   5.995 -0.4281  0.7206 -0.6721
    1PA     C16  944   3.091   3.862   6.103 -0.2745  0.0874 -0.4297
    1PA     H6R  945   3.180   3.925   6.100 -1.4423  1.9031  0.6341
    1PA     H6S  946   3.009   3.931   6.083  0.9965  2.2954  1.4447
    1PA     C15  947   3.067   3.806   6.238  0.0021  0.4655 -0.6328
    1PA     H5R  948   2.973   3.752   6.243  0.1024  0.2839 -0.6814
    1PA     H5S  949   3.140   3.729   6.264  0.1593  0.8756  0.1886
    1PA     C14  950   3.074   3.925   6.335  0.9432  0.0959  0.4976
    1PA     H4R  951   3.172   3.972   6.321  0.3613  1.0936 -0.2966
    1PA     H4S  952   3.003   4.000   6.300  1.6440  0.2935 -0.5438
    1PA     C13  953   3.059   3.896   6.490  0.7364  0.0128  0.2855
    1PA     H3R  954   2.975   3.829   6.510  0.0262  0.5646 -0.7328
    1PA     H3S  955   3.151   3.845   6.519 -0.7063 -3.4851 -0.6639
    1PA     C12  956   3.048   4.027   6.571  0.7197 -0.3502 -0.5425
    1PA     H2R  957   3.138   4.089   6.565 -1.2545  2.6556 -1.0427
    1PA     H2S  958   2.969   4.092   6.532  1.5031  0.8170 -0.2440
    1PC     C11  959   3.031   3.994   6.721 -0.2371 -0.0136  0.3352
    1PC     O12  960   2.925   3.956   6.759 -0.1855  0.0793  0.0787
    1PC     O11  961   3.131   4.035   6.798  0.0843  0.5179  0.2784
    1PC      C1  962   3.108   4.004   6.937 -0.1924  0.0856 -0.0201
    1PC      HR  963   3.164   4.080   6.991  0.1009 -0.7710  0.9176
    1PC      HS  964   3.005   4.015   6.973  0.2525  0.0536  1.3267
    1PC      C2  965   3.168   3.863   6.964 -0.2500  0.6675 -0.3735
    1PC      HX  966   3.109   3.783   6.919 -2.5391  1.2275  1.4681
    1PC      C3  967   3.153   3.825   7.111  0.2077 -0.0577  0.2130
    1PC      HA  968   3.191   3.913   7.164  0.2477  0.0463  0.0143
    1PC      HB  969   3.050   3.813   7.146  0.2841  1.3739  1.0184
    1PC     O31  970   3.235   3.705   7.133 -0.6273  0.2695  0.3719
    1PC     P31  971   3.183   3.552   7.133  0.3325 -0.0346 -0.2528
    1PC     O32  972   3.171   3.503   6.977  0.6903  0.4906 -0.4899
    1PC     C31  973   3.285   3.454   6.906 -0.5627  1.1309 -0.2023
    1PC     H1A  974   3.288   3.484   6.801 -1.3961 -1.1027 -0.9241
    1PC     H1B  975   3.377   3.487   6.955  1.3621 -0.8675 -2.2282
    1PC     C32  976   3.291   3.306   6.911  0.2770  0.4272  0.5897
    1PC     H2A  977   3.385   3.266   6.872 -0.3631  0.9369 -1.5764
    1PC     H2B  978   3.289   3.270   7.014  0.2759 -1.9631 -0.1833
    1PC     N31  979   3.190   3.218   6.846  0.0825  0.9120  0.2097
    1PC     C33  980   3.244   3.085   6.860  0.1972  0.4076  0.4739
    1PC     H3A  981   3.259   3.074   6.967 -1.9545 -0.3514  0.7578
    1PC     H3B  982   3.171   3.016   6.818 -0.8532  0.3847  2.2492
    1PC     H3C  983   3.337   3.074   6.804 -0.1809 -0.6282  0.0289
    1PC     C34  984   3.062   3.233   6.918 -1.1536  1.2424  0.2255
    1PC     H4A  985   3.043   3.338   6.941 -1.0574  0.9054  1.9621
    1PC     H4B  986   2.983   3.181   6.862 -1.3299  1.9232 -0.1689
    1PC     H4C  987   3.071   3.194   7.019  3.6564  1.8430  0.2689
    1PC     C35  988   3.187   3.255   6.700 -0.1378  0.3270 -0.2191
    1PC     H5A  989   3.112   3.334   6.698 -0.2563  0.2150 -1.9168
    1PC     H5B  990   3.144   3.178   6.635  2.6486  0.1552 -2.0409
    1PC     H5C  991   3.283   3.289   6.662  1.0804 -0.3426  2.0859
    1PC     O33  992   3.277   3.472   7.209 -0.2740 -0.0962  0.1578
    1PC     O34  993   3.042   3.563   7.170  0.3077 -0.2966 -0.2568
    1PC     O21  994   3.313   3.861   6.922  0.4625  0.0677 -0.0108
    1PC     C21  995   3.337   3.803   6.801  0.0248  0.9799 -0.1753
    1PC     O22  996   3.257   3.742   6.730 -0.1832 -0.9805 -0.2071
    1OL     C12  997   3.482   3.823   6.759 -0.2448  0.1890 -0.6325
    1OL     H2R  998   3.533   3.741   6.809  1.3381  2.4952  1.7728
    1OL     H2S  999   3.511   3.923   6.791 -0.8518  0.1284  0.1353
    1OL     C13 1000   3.499   3.819   6.607  0.2799  0.4537 -0.3810
    1OL     H3R 1001   3.445   3.740   6.554  0.9080 -0.0626 -0.2556
    1OL     H3S 1002   3.600   3.797   6.572  0.4589 -0.4713  0.6556
    1OL     C14 1003   3.459   3.960   6.546  0.1333  0.1439 -0.0523
    1OL     H4R 1004   3.520   4.042   6.585  2.5290 -1.0831 -1.0217
    1OL     H4S 1005   3.355   3.982   6.569  0.1937  0.6145 -0.2295
    1OL     C15 1006   3.476   3.968   6.396  0.3232 -0.7432 -0.3289
    1OL     H5R 1007   3.408   3.893   6.354  0.8973 -0.3860 -1.9689
    1OL     H5S 1008   3.577   3.937   6.367  0.8648  0.2083  0.5005
    1OL     C16 1009   3.449   4.106   6.335  0.0571 -0.6497 -0.5226
    1OL     H6R 1010   3.344   4.133   6.347  0.2376 -0.0705 -0.2048
    1OL     H6S 1011   3.508   4.179   6.390 -1.0174 -0.3462  0.2655
    1OL     C17 1012   3.475   4.102   6.183  0.5042  0.3265 -1.3861
    1OL     H7R 1013   3.394   4.043   6.139  1.3485 -1.1560 -1.0177
    1OL     H7S 1014   3.571   4.051   6.173  0.7463  0.1324  1.3329
    1OL     C18 1015   3.496   4.251   6.134  0.5130  0.1322 -0.4901
    1OL     H8R 1016   3.570   4.302   6.197 -0.7959 -0.1481  1.3452
    1OL     H8S 1017   3.405   4.310   6.148  1.0980  0.6853  1.2887
    1OL     C19 1018   3.532   4.230   5.986  0.0386  0.4802  0.1888
    1OL     H9R 1019   3.635   4.205   5.963  0.0902  1.2825 -0.4569
    1OL    C110 1020   3.446   4.238   5.884 -0.1277  0.4245  0.2207
    1OL    H10R 1021   3.481   4.216   5.784 -0.8829 -0.9703  0.2342
    1OL    C111 1022   3.308   4.281   5.897  0.1149 -0.0474  0.0337
    1OL    H11R 1023   3.279   4.315   5.797  0.2040  2.3557  0.7619
    1OL    H11S 1024   3.306   4.369   5.961  0.1975 -0.0184 -0.0046
    1OL    C112 1025   3.217   4.165   5.948  0.2293 -0.3033  0.1879
    1OL    H12R 1026   3.231   4.163   6.057 -0.4774 -0.5988  0.2771
    1OL    H12S 1027   3.251   4.068   5.910 -1.9072 -0.6508 -0.9589
    1OL    C113 1028   3.066   4.188   5.921  0.0656  0.4039  0.8285
    1OL    H13R 1029   3.031   4.290   5.938  3.0559  1.3074  2.3122
    1OL    H13S 1030   3.014   4.129   5.997 -1.1012  1.1186  0.6095
    1OL    C114 1031   3.030   4.151   5.776 -0.0351 -0.1257 -0.0600
    1OL    H14R 1032   3.069   4.050   5.764  2.0730  0.4810  1.2644
    1OL    H14S 1033   3.069   4.222   5.703  0.0258 -0.8785 -0.7700
    1OL    C115 1034   2.874   4.141   5.747 -0.0828  0.2195  0.3467
    1OL    H15R 1035   2.822   4.237   5.747 -0.0013  0.2666 -0.1357
    1OL    H15S 1036   2.834   4.079   5.828  3.4393 -3.1096 -0.1644
    1OL    C116 1037   2.859   4.070   5.609 -0.6819  0.2617  0.5402
    1OL    H16R 1038   2.936   3.993   5.594 -0.4714  0.7131 -0.8320
    1OL    H16S 1039   2.878   4.142   5.530 -0.0615 -1.0368 -0.5493
    1OL    C117 1040   2.721   4.007   5.583 -0.8534 -0.7204 -0.6203
    1OL    H17R 1041   2.653   4.091   5.593  1.6140  1.3209  0.0892
    1OL    H17S 1042   2.695   3.948   5.671 -1.6090 -0.3972 -0.6156
    1OL    C118 1043   2.709   3.933   5.449 -0.2207  0.2228  0.0399
    1OL    H18R 1044   2.775   3.846   5.459 -1.2832 -0.9597 -2.3795
    1OL    H18S 1045   2.737   3.992   5.362  0.6343  1.2845  0.9982
    1OL    H18T 1046   2.614   3.880   5.444  0.7356 -1.8237  1.6776
    1PA    C116 1047   3.365   3.981   4.989  0.8915 -0.6702  0.1738
    1PA    H16R 1048   3.367   3.958   5.096  0.6944 -0.0785  0.3040
    1PA    H16S 1049   3.465   3.991   4.946  0.8742 -1.0443  0.0393
    1PA    H16T 1050   3.319   3.895   4.939 -1.4273  0.8896 -0.5395
    1PA    C115 1051   3.273   4.098   4.958 -0.3859  0.8339  0.0964
    1PA    H15R 1052   3.270   4.114   4.850  0.1683  2.4233  0.2937
    1PA    H15S 1053   3.171   4.068   4.985 -1.1087  2.5456 -0.5964
    1PA    C114 1054   3.295   4.234   5.034 -0.4889 -0.1951 -0.8048
    1PA    H14R 1055   3.389   4.279   5.001 -0.1820  0.5501  0.9579
    1PA    H14S 1056   3.218   4.308   5.007  1.5522  1.4242 -2.5794
    1PA    C113 1057   3.297   4.217   5.193  0.3151 -0.1666  0.4171
    1PA    H13R 1058   3.377   4.143   5.204  0.5502 -0.1380 -0.9489
    1PA    H13S 1059   3.330   4.308   5.244 -1.5919  0.0779  1.3113
    1PA    C112 1060   3.174   4.164   5.263 -0.0838 -0.4419 -0.2317
    1PA    H12R 1061   3.092   4.236   5.265  0.5086  0.3252 -1.8415
    1PA    H12S 1062   3.136   4.075   5.212  2.3605 -1.4731 -0.4019
    1PA    C111 1063   3.207   4.124   5.411 -0.2217  0.2691  0.5188
    1PA    H11R 1064   3.233   4.205   5.479  2.6941 -1.4972  1.7493
    1PA    H11S 1065   3.117   4.077   5.450 -0.3050 -1.0530 -1.1302
    1PA    C110 1066   3.318   4.015   5.428 -0.7556 -0.3088  0.3619
    1PA    H10R 1067   3.308   3.947   5.343 -0.6172  0.6870 -0.4728
    1PA    H10S 1068   3.415   4.065   5.420  0.3401 -2.4441 -0.7749
    1PA     C19 1069   3.304   3.966   5.575 -0.0830  0.1696 -0.0274
    1PA     H9R 1070   3.251   4.043   5.631 -2.7567 -0.2468 -1.7918
    1PA     H9S 1071   3.245   3.875   5.562  0.8565 -0.4900  0.2183
    1PA     C18 1072   3.442   3.920   5.632  0.2202  0.3019 -0.6659
    1PA     H8R 1073   3.481   3.836   5.575  0.9700 -0.4786  0.9582
    1PA     H8S 1074   3.521   3.993   5.614  1.4422 -1.1556 -1.4103
    1PA     C17 1075   3.443   3.882   5.781  0.5533 -0.5276 -0.2986
    1PA     H7R 1076   3.428   3.975   5.837  0.4387 -1.4294  1.2199
    1PA     H7S 1077   3.363   3.811   5.803  0.5556 -0.2803  0.5167
    1PA     C16 1078   3.591   3.826   5.813  0.8813 -0.5283  0.0985
    1PA     H6R 1079   3.609   3.728   5.770  1.4939  0.4911 -2.1015
    1PA     H6S 1080   3.662   3.899   5.773  1.1598  0.7982  2.7548
    1PA     C15 1081   3.618   3.819   5.963  1.1202  0.5832  0.0745
    1PA     H5R 1082   3.598   3.919   6.001  1.8300  1.1009 -0.8991
    1PA     H5S 1083   3.544   3.746   5.996 -0.3962 -0.5922 -4.9945
    1PA     C14 1084   3.753   3.763   6.010 -0.3936  0.5445  0.2442
    1PA     H4R 1085   3.784   3.695   5.930 -1.0949  0.6300 -0.1093
    1PA     H4S 1086   3.830   3.839   5.999 -1.1673  1.1928 -0.9808
    1PA     C13 1087   3.759   3.698   6.150 -0.1147  0.2870 -0.2738
    1PA     H3R 1088   3.729   3.762   6.233  2.0622  1.1416 -0.0568
    1PA     H3S 1089   3.695   3.610   6.154 -1.7875  1.4567 -0.1764
    1PA     C12 1090   3.896   3.646   6.183  0.4228  0.4901  0.0118
    1PA     H2R 1091   3.945   3.585   6.107 -0.5615 -0.7216  0.3073
    1PA     H2S 1092   3.966   3.726   6.207  1.1287 -0.5595  1.6331
    1PC     C11 1093   3.904   3.566   6.307  1.6091 -0.6468 -0.5889
    1PC     O12 1094   3.848   3.458   6.319 -0.2046 -0.3978 -0.4385
    1PC     O11 1095   3.956   3.634   6.412  0.1698  0.3289 -0.1934
    1PC      C1 1096   3.949   3.567   6.545 -0.3427 -0.3062  0.7518
    1PC      HR 1097   3.842   3.546   6.560 -0.5223  0.1092  0.0936
    1PC      HS 1098   4.003   3.472   6.538  0.6898  0.2602  0.9362
    1PC      C2 1099   4.000   3.650   6.660 -0.2699 -0.3322  0.5299
    1PC      HX 1100   4.004   3.589   6.751  1.1470 -0.2434  0.5484
    1PC      C3 1101   3.908   3.768   6.699  0.4391  0.3036  0.3902
    1PC      HA 1102   3.915   3.835   6.612  1.6968  0.8158  0.8646
    1PC      HB 1103   3.809   3.729   6.722  0.1179  1.7874  1.7345
    1PC     O31 1104   3.944   3.842   6.820  0.2807 -0.4043 -0.7322
    1PC     P31 1105   3.960   3.775   6.964  0.5939  0.8921 -0.0360
    1PC     O32 1106   4.097   3.707   6.962  0.2885 -0.0880  0.2133
    1PC     C31 1107   4.223   3.782   6.947  0.3211  0.1631  0.3976
    1PC     H1A 1108   4.289   3.722   6.885  0.7695  1.5816 -0.5508
    1PC     H1B 1109   4.204   3.868   6.882 -0.7561 -1.5192 -1.6281
    1PC     C32 1110   4.276   3.834   7.076 -0.3497  0.3574 -0.7676
    1PC     H2A 1111   4.375   3.877   7.061 -0.5092  1.4308  1.0241
    1PC     H2B 1112   4.213   3.912   7.118  0.5980  0.5636  0.3409
    1PC     N31 1113   4.305   3.732   7.188 -1.1822 -0.0289 -0.4266
    1PC     C33 1114   4.392   3.789   7.298 -0.4097  0.2703  0.6365
    1PC     H3A 1115   4.484   3.831   7.256  0.2663 -1.6463  0.0591
    1PC     H3B 1116   4.332   3.866   7.345 -0.0783  0.9235  0.0123
    1PC     H3C 1117   4.415   3.705   7.364  0.7962 -0.5435 -0.7531
    1PC     C34 1118   4.188   3.688   7.257  0.2842  0.1605  0.4315
    1PC     H4A 1119   4.156   3.765   7.327  0.9574 -0.3678  1.3415
    1PC     H4B 1120   4.114   3.674   7.178  2.2804 -2.2239 -1.1602
    1PC     H4C 1121   4.205   3.594   7.310  0.4185 -0.9673 -1.4937
    1PC     C35 1122   4.383   3.620   7.136 -0.2397 -0.6910  0.2233
    1PC     H5A 1123   4.436   3.563   7.213  2.0172 -0.8644 -1.3674
    1PC     H5B 1124   4.462   3.663   7.075 -0.3255  0.3739  0.8463
    1PC     H5C 1125   4.322   3.556   7.071 -0.1581 -2.4225  1.7475
    1PC     O33 1126   3.956   3.891   7.056 -0.1777  0.0688  0.1183
    1PC     O34 1127   3.853   3.672   6.980 -0.0979 -0.5353 -0.3405
    1PC     O21 1128   4.133   3.715   6.638  0.1287  0.2489 -0.0694
    1PC     C21 1129   4.232   3.628   6.630 -0.6041 -0.6519 -0.2149
    1PC     O22 1130   4.217   3.511   6.661  0.1248  0.5691 -0.0521
    1OL     C12 1131   4.360   3.700   6.592  0.5381  0.3545  0.3010
    1OL     H2R 1132   4.435   3.628   6.626 -0.1910 -1.4818 -1.6850
    1OL     H2S 1133   4.362   3.795   6.645 -0.3643  0.6904 -0.2452
    1OL     C13 1134   4.371   3.726   6.441  1.1015  0.2982  0.0076
    1OL     H3R 1135   4.313   3.653   6.384  0.0350  2.1062 -1.3576
    1OL     H3S 1136   4.475   3.724   6.406  1.2511 -3.0384  0.3155
    1OL     C14 1137   4.316   3.863   6.405  0.4579  0.0268 -0.1581
    1OL     H4R 1138   4.361   3.935   6.474 -1.4337  0.8482  0.2966
    1OL     H4S 1139   4.207   3.866   6.419  0.1701 -0.1270 -2.0986
    1OL     C15 1140   4.334   3.915   6.256  0.0160  0.1519  0.1524
    1OL     H5R 1141   4.439   3.945   6.254  0.7666 -2.2047 -1.5187
    1OL     H5S 1142   4.275   4.004   6.236  0.3822 -0.0684 -2.2298
    1OL     C16 1143   4.308   3.799   6.147 -1.0623 -0.4275 -0.3090
    1OL     H6R 1144   4.209   3.759   6.172 -0.2895 -0.8756  2.3291
    1OL     H6S 1145   4.380   3.718   6.155  0.7580  1.1607 -0.0210
    1OL     C17 1146   4.312   3.856   6.003 -1.1404 -0.3051 -0.7008
    1OL     H7R 1147   4.311   3.761   5.951 -1.1092 -0.2723 -0.7609
    1OL     H7S 1148   4.401   3.919   5.998 -1.3706  0.2218  0.9833
    1OL     C18 1149   4.195   3.933   5.953  0.0635 -0.2578 -0.1372
    1OL     H8R 1150   4.166   4.013   6.022 -2.2641 -1.7026  0.6784
    1OL     H8S 1151   4.104   3.872   5.952  0.7505 -1.3427  1.1019
    1OL     C19 1152   4.209   3.989   5.817 -0.1780 -0.1649  0.0492
    1OL     H9R 1153   4.262   4.084   5.814 -0.1584 -0.1036  1.5544
    1OL    C110 1154   4.161   3.923   5.718  0.5233 -0.2925 -0.5791
    1OL    H10R 1155   4.153   3.981   5.626  0.8292  3.8856  1.7808
    1OL    C111 1156   4.098   3.783   5.709 -0.3202 -0.4073  0.2909
    1OL    H11R 1157   4.118   3.727   5.799  1.7999  0.0852  0.1705
    1OL    H11S 1158   4.138   3.732   5.621  0.8699  3.0919 -1.4047
    1OL    C112 1159   3.954   3.783   5.683 -0.0297  0.0499  0.3892
    1OL    H12R 1160   3.899   3.847   5.752 -0.4260 -1.1362  1.2015
    1OL    H12S 1161   3.919   3.682   5.704  1.7568 -0.3324  1.7255
    1OL    C113 1162   3.929   3.826   5.534  0.6505 -0.7047  0.5238
    1OL    H13R 1163   3.990   3.770   5.463  2.3641  1.5244  0.1059
    1OL    H13S 1164   3.958   3.929   5.512 -0.9944 -0.4255 -0.5097
    1OL    C114 1165   3.782   3.804   5.483  0.2730  0.4903 -0.2633
    1OL    H14R 1166   3.719   3.851   5.558  2.7009  2.4209  0.7415
    1OL    H14S 1167   3.761   3.698   5.474 -0.1145  0.6409 -1.3339
    1OL    C115 1168   3.748   3.869   5.348 -0.0181 -0.2317  0.5356
    1OL    H15R 1169   3.745   3.977   5.357  0.5910  0.1586 -2.7373
    1OL    H15S 1170   3.647   3.832   5.327  0.7251 -1.7466 -0.6189
    1OL    C116 1171   3.842   3.837   5.235  0.7571 -0.3628 -0.0885
    1OL    H16R 1172   3.856   3.729   5.237  1.0591 -0.3185  0.7874
    1OL    H16S 1173   3.937   3.886   5.259  0.6216 -1.2532  2.6324
    1OL    C117 1174   3.799   3.876   5.090 -0.1876 -0.6629 -0.3787
    1OL    H17R 1175   3.881   3.859   5.020  0.6135  1.3314  0.0167
    1OL    H17S 1176   3.766   3.980   5.082 -2.3074 -1.3630 -1.3636
    1OL    C118 1177   3.678   3.792   5.039  0.1238  0.0210  0.4635
    1OL    H18R 1178   3.639   3.829   4.944  1.8078  1.1025  0.1405
    1OL    H18S 1179   3.601   3.792   5.116 -0.6665 -0.8037 -0.3121
    1OL    H18T 1180   3.697   3.687   5.016 -1.3050 -0.0556 -0.4943
    1PA    C116 1181   3.612   2.035   5.306  0.7621 -0.2799 -0.4437
    1PA    H16R 1182   3.588   2.101   5.222  1.7505 -0.3688 -0.8039
    1PA    H16S 1183   3.634   1.932   5.276 -1.0463 -1.9245  3.2034
    1PA    H16T 1184   3.696   2.075   5.363 -0.1336 -0.3826  1.0026
    1PA    C115 1185   3.490   2.020   5.406  0.6423 -0.1308 -0.0749
    1PA    H15R 1186   3.403   1.980   5.353  1.3823  0.3614 -1.7150
    1PA    H15S 1187   3.517   1.944   5.480  1.0785  0.1426  0.0467
    1PA    C114 1188   3.432   2.144   5.474 -0.9257  0.2562  0.1970
    1PA    H14R 1189   3.369   2.197   5.404  1.5248  0.8566 -1.7025
    1PA    H14S 1190   3.359   2.126   5.553 -0.0928  1.6030  1.3249
    1PA    C113 1191   3.554   2.234   5.522  0.3031 -0.4810  0.4018
    1PA    H13R 1192   3.621   2.256   5.438 -0.0150 -1.4588 -0.1244
    1PA    H13S 1193   3.512   2.328   5.558 -1.4944 -1.5110  1.1055
    1PA    C112 1194   3.639   2.171   5.634  0.1918  0.0527 -0.1321
    1PA    H12R 1195   3.574   2.153   5.719  2.1226 -1.6349  1.0729
    1PA    H12S 1196   3.680   2.079   5.589  2.6598  2.0021 -2.1999
    1PA    C111 1197   3.765   2.259   5.672 -0.2730 -0.7577  0.0089
    1PA    H11R 1198   3.827   2.203   5.743  0.0895  1.0547  1.2053
    1PA    H11S 1199   3.832   2.280   5.589 -1.4262 -2.9357 -1.5776
    1PA    C110 1200   3.729   2.383   5.742 -0.2758 -0.4322 -0.1897
    1PA    H10R 1201   3.716   2.460   5.665  1.6184 -1.1507 -1.3153
    1PA    H10S 1202   3.641   2.372   5.804  0.0785 -0.0586  0.3878
    1PA     C19 1203   3.843   2.424   5.833 -0.6747 -0.2068 -0.3082
    1PA     H9R 1204   3.851   2.344   5.907  0.3213  0.3349  0.2018
    1PA     H9S 1205   3.934   2.431   5.773 -1.3908  0.7367 -1.3081
    1PA     C18 1206   3.814   2.558   5.906 -0.1597  0.0577  0.6789
    1PA     H8R 1207   3.805   2.630   5.825 -0.3249 -1.2155 -0.4738
    1PA     H8S 1208   3.724   2.544   5.966  0.7612 -0.2205  2.0417
    1PA     C17 1209   3.923   2.607   6.005 -0.3041 -0.3314 -0.3006
    1PA     H7R 1210   4.020   2.616   5.955 -0.3967 -0.7539 -0.5584
    1PA     H7S 1211   3.900   2.705   6.048 -0.1429 -0.2367 -0.4315
    1PA     C16 1212   3.936   2.514   6.129  0.3218 -0.3911 -0.4112
    1PA     H6R 1213   3.849   2.513   6.195  0.4068  1.3091 -0.2278
    1PA     H6S 1214   3.956   2.413   6.092 -1.1516 -0.4789 -1.0385
    1PA     C15 1215   4.041   2.567   6.226  0.2319 -0.8287 -0.5462
    1PA     H5R 1216   4.144   2.562   6.189  0.6176 -2.4618  0.6016
    1PA     H5S 1217   4.015   2.669   6.253  0.1043 -1.1250  0.4735
    1PA     C14 1218   4.029   2.494   6.358 -0.0572 -1.1486 -0.5370
    1PA     H4R 1219   3.936   2.523   6.407  0.6164  2.0988 -0.9153
    1PA     H4S 1220   4.032   2.385   6.350 -1.1182 -1.1431 -1.1663
    1PA     C13 1221   4.139   2.546   6.455  0.0850  0.5540 -0.1264
    1PA     H3R 1222   4.235   2.567   6.408  0.8203  1.1467  1.5785
    1PA     H3S 1223   4.107   2.629   6.518 -1.8694 -0.7464  0.7410
    1PA     C12 1224   4.179   2.429   6.548 -0.3749 -0.4159 -0.6542
    1PA     H2R 1225   4.093   2.391   6.604 -0.5489 -0.5004 -0.9760
    1PA     H2S 1226   4.221   2.343   6.496 -0.8008  0.2319 -2.1421
    1PC     C11 1227   4.281   2.478   6.645 -0.1154  0.4471 -0.3603
    1PC     O12 1228   4.399   2.473   6.625 -0.0693 -0.0877  0.9232
    1PC     O11 1229   4.221   2.529   6.754 -0.1758  0.1859 -0.0263
    1PC      C1 1230   4.302   2.585   6.860 -0.4273  0.2015  0.1257
    1PC      HR 1231   4.241   2.601   6.948  1.2762  1.2771  1.1692
    1PC      HS 1232   4.376   2.508   6.883 -0.5010 -0.3780 -1.4606
    1PC      C2 1233   4.372   2.721   6.824  0.6387 -0.4748 -0.0653
    1PC      HX 1234   4.414   2.705   6.724  0.8996  3.9416 -0.8515
    1PC      C3 1235   4.481   2.761   6.921 -0.7198 -0.7110 -0.2693
    1PC      HA 1236   4.569   2.698   6.909 -1.9205 -2.0747 -2.4696
    1PC      HB 1237   4.505   2.866   6.899 -2.6633 -0.3548 -0.8937
    1PC     O31 1238   4.431   2.746   7.054 -0.1372 -0.0478  0.0784
    1PC     P31 1239   4.402   2.874   7.142  0.0277  0.1583 -0.3358
    1PC     O32 1240   4.243   2.895   7.117  0.0235 -0.0665 -0.1900
    1PC     C31 1241   4.149   2.792   7.142  0.2053 -0.3173 -0.4393
    1PC     H1A 1242   4.140   2.711   7.069 -1.7361 -0.4296 -0.1311
    1PC     H1B 1243   4.171   2.738   7.235 -1.7112 -1.0544 -0.3687
    1PC     C32 1244   4.004   2.861   7.149 -0.2731 -0.2743 -0.3707
    1PC     H2A 1245   3.984   2.884   7.045 -0.3817 -1.1168 -0.5436
    1PC     H2B 1246   3.923   2.796   7.182  0.7655 -1.8869 -0.8676
    1PC     N31 1247   3.983   2.983   7.233 -0.7564  0.1686  0.5274
    1PC     C33 1248   4.044   3.111   7.171 -0.0607  0.2737 -0.2789
    1PC     H3A 1249   4.028   3.190   7.245  2.5935 -0.0321  0.7163
    1PC     H3B 1250   4.153   3.109   7.166  0.0284 -2.9259  1.0439
    1PC     H3C 1251   4.000   3.128   7.072  0.5218 -2.6212 -1.1259
    1PC     C34 1252   3.838   3.020   7.239  0.4169 -0.8400  0.5353
    1PC     H4A 1253   3.782   2.934   7.276  0.1717 -0.0346  2.0870
    1PC     H4B 1254   3.835   3.107   7.304 -0.0611 -0.2551 -0.2606
    1PC     H4C 1255   3.811   3.042   7.136  2.4694  0.9054  0.3105
    1PC     C35 1256   4.030   2.971   7.373 -0.4335  0.3454  0.0533
    1PC     H5A 1257   4.034   3.069   7.420 -0.8997  0.8611 -0.9510
    1PC     H5B 1258   4.132   2.933   7.364  0.3251  2.6568 -2.9574
    1PC     H5C 1259   3.970   2.900   7.429 -0.4100  0.5484  0.3386
    1PC     O33 1260   4.406   2.837   7.288 -0.0106  0.3145  0.1520
    1PC     O34 1261   4.465   2.994   7.097 -0.2416 -0.7419  0.3198
    1PC     O21 1262   4.270   2.827   6.822 -0.3446 -0.2243 -0.2069
    1PC     C21 1263   4.297   2.951   6.772 -0.5086 -0.2946 -0.2792
    1PC     O22 1264   4.397   2.979   6.708 -0.3197  0.0349  0.1603
    1OL     C12 1265   4.179   3.051   6.791  0.5434  0.5139 -0.0863
    1OL     H2R 1266   4.222   3.148   6.766 -0.9795  1.7222  1.7646
    1OL     H2S 1267   4.139   3.046   6.892 -2.1874 -2.0688 -1.1362
    1OL     C13 1268   4.063   3.030   6.688 -0.1729 -0.2268  0.3225
    1OL     H3R 1269   3.974   3.087   6.716 -0.3830  1.1891 -2.8308
    1OL     H3S 1270   4.033   2.925   6.697 -2.5087  0.5056  2.1232
    1OL     C14 1271   4.088   3.067   6.545  0.2082  1.0382  0.0670
    1OL     H4R 1272   4.168   3.000   6.514 -2.0103 -0.9066 -1.8770
    1OL     H4S 1273   4.129   3.168   6.544 -0.7463  1.4375 -0.6572
    1OL     C15 1274   3.969   3.032   6.444 -0.1548  0.0813 -0.8459
    1OL     H5R 1275   3.879   3.059   6.499  1.0799 -2.1365  2.5992
    1OL     H5S 1276   3.966   2.924   6.429 -3.1782 -0.2093  1.0092
    1OL     C16 1277   3.981   3.108   6.313 -0.4369  0.3384 -1.2501
    1OL     H6R 1278   4.079   3.086   6.269 -0.0595  0.1496 -0.3387
    1OL     H6S 1279   3.982   3.215   6.333  4.4605  0.0400  1.7115
    1OL     C17 1280   3.880   3.054   6.222 -0.2263  0.3892 -0.1240
    1OL     H7R 1281   3.784   3.067   6.272 -0.1082 -1.7403  0.7763
    1OL     H7S 1282   3.900   2.948   6.201 -0.5741  0.4322 -0.7093
    1OL     C18 1283   3.882   3.115   6.077 -0.0015  0.5573 -0.6433
    1OL     H8R 1284   3.988   3.121   6.052  0.5420 -0.6485  1.1841
    1OL     H8S 1285   3.846   3.218   6.081 -1.4657  0.1534 -2.1323
    1OL     C19 1286   3.782   3.052   5.983 -0.0398  0.0403 -0.3877
    1OL     H9R 1287   3.702   2.983   6.009  0.4110  0.0374  1.1145
    1OL    C110 1288   3.779   3.079   5.853  0.3577  0.1880 -1.1919
    1OL    H10R 1289   3.698   3.039   5.793 -2.2738  0.3328  1.9895
    1OL    C111 1290   3.866   3.170   5.772 -0.3470  0.6939 -0.1702
    1OL    H11R 1291   3.933   3.103   5.719  3.0983  0.9590  3.4206
    1OL    H11S 1292   3.926   3.237   5.835  1.2310 -0.6492 -0.1985
    1OL    C112 1293   3.777   3.255   5.684  0.4147 -0.4070  1.0120
    1OL    H12R 1294   3.701   3.290   5.754 -0.1096  2.7219 -0.9100
    1OL    H12S 1295   3.731   3.179   5.619 -3.9991  0.7701  2.4016
    1OL    C113 1296   3.848   3.375   5.612  0.5468  0.6104  0.5353
    1OL    H13R 1297   3.911   3.424   5.687  0.0496 -0.2828  1.5590
    1OL    H13S 1298   3.767   3.443   5.584  0.6806  0.7222  0.4140
    1OL    C114 1299   3.934   3.331   5.483 -0.3174  0.0131  0.1495
    1OL    H14R 1300   3.873   3.267   5.419  0.8118 -0.8658 -0.0698
    1OL    H14S 1301   4.020   3.274   5.516  0.5219  1.5988  0.8239
    1OL    C115 1302   3.973   3.461   5.413 -0.4430 -0.1865  0.5533
    1OL    H15R 1303   4.035   3.519   5.481  2.2648 -1.6492 -0.5081
    1OL    H15S 1304   3.888   3.526   5.393  0.5276  0.6773 -1.0216
    1OL    C116 1305   4.054   3.435   5.286 -0.4282 -0.2348 -0.1881
    1OL    H16R 1306   4.144   3.376   5.303  1.0791  1.4406 -1.9040
    1OL    H16S 1307   4.093   3.530   5.250  0.0364 -0.0852  0.6915
    1OL    C117 1308   3.964   3.379   5.177 -0.2797  0.1932  0.0515
    1OL    H17R 1309   3.930   3.285   5.219  0.5095 -0.5558 -0.9351
    1OL    H17S 1310   4.032   3.364   5.092  0.1571  1.4537  0.1592
    1OL    C118 1311   3.850   3.472   5.130  0.0244 -0.2177  0.7094
    1OL    H18R 1312   3.886   3.568   5.091 -0.3532 -0.6721 -0.8084
    1OL    H18S 1313   3.782   3.495   5.212  0.0473 -0.5983  0.8374
    1OL    H18T 1314   3.795   3.418   5.053  0.1643  0.7841 -0.1235
    1PA    C116 1315   4.021   0.827   5.135  0.2144 -0.4408  0.4242
    1PA    H16R 1316   4.003   0.877   5.039  0.0033  1.3583  1.3610
    1PA    H16S 1317   4.019   0.721   5.109 -0.4371 -0.1819 -0.6415
    1PA    H16T 1318   4.120   0.842   5.178  0.0195 -1.3064  1.2081
    1PA    C115 1319   3.906   0.863   5.241  0.3848  0.2085  0.3849
    1PA    H15R 1320   3.835   0.924   5.186  2.0821  0.4013 -1.7171
    1PA    H15S 1321   3.857   0.766   5.258 -0.2193  0.2005 -1.2514
    1PA    C114 1322   3.950   0.934   5.372 -0.6255 -0.0511  0.2656
    1PA    H14R 1323   4.003   0.866   5.440 -0.8274  0.7772  1.2717
    1PA    H14S 1324   4.015   1.019   5.352 -1.3025  0.3172 -0.3928
    1PA    C113 1325   3.837   0.987   5.458 -1.3025 -0.0876  0.5295
    1PA    H13R 1326   3.795   1.070   5.401  0.9503  1.9226  1.5933
    1PA    H13S 1327   3.771   0.902   5.476  1.3274 -2.2578  0.6009
    1PA    C112 1328   3.900   1.049   5.588 -0.0680 -0.3366 -0.4996
    1PA    H12R 1329   3.940   0.968   5.650 -0.4425 -0.5422 -0.5200
    1PA    H12S 1330   3.980   1.110   5.546 -1.3161  1.1957 -0.7248
    1PA    C111 1331   3.802   1.140   5.678 -0.0191 -0.1826  0.7590
    1PA    H11R 1332   3.782   1.224   5.612 -1.6533 -1.0592  0.0667
    1PA    H11S 1333   3.706   1.096   5.704  0.7314 -0.7130  2.7762
    1PA    C110 1334   3.877   1.189   5.803 -0.4113 -0.0191 -0.2131
    1PA    H10R 1335   3.912   1.096   5.849 -0.8554 -0.6291 -1.0777
    1PA    H10S 1336   3.960   1.258   5.786 -0.8973  0.2545 -1.5839
    1PA     C19 1337   3.786   1.263   5.899 -0.0739  0.2162  0.0049
    1PA     H9R 1338   3.689   1.215   5.914 -0.8338  1.7941  0.3955
    1PA     H9S 1339   3.834   1.269   5.997 -0.2721 -0.2377  0.1351
    1PA     C18 1340   3.758   1.398   5.833  0.0605  0.6131 -0.4555
    1PA     H8R 1341   3.851   1.455   5.829  1.0692 -0.7391  1.6464
    1PA     H8S 1342   3.723   1.383   5.731  0.4345  0.4954 -0.5702
    1PA     C17 1343   3.655   1.490   5.897  0.1249 -0.3732 -0.0714
    1PA     H7R 1344   3.645   1.576   5.832 -1.3331 -0.5902 -0.1724
    1PA     H7S 1345   3.557   1.442   5.907 -0.2079  0.3710  0.2965
    1PA     C16 1346   3.701   1.557   6.030 -0.2119  0.0822 -0.1755
    1PA     H6R 1347   3.708   1.471   6.097 -0.1428  0.7829  0.7279
    1PA     H6S 1348   3.802   1.595   6.013 -0.0098 -0.2321  0.2847
    1PA     C15 1349   3.595   1.657   6.088 -0.1544  0.0891 -0.0313
    1PA     H5R 1350   3.587   1.744   6.022 -0.8203  0.1588  0.1446
    1PA     H5S 1351   3.497   1.613   6.099 -0.0348  0.0427  0.9386
    1PA     C14 1352   3.634   1.707   6.222  0.4831 -0.6539 -0.3403
    1PA     H4R 1353   3.667   1.625   6.287  1.8439 -0.4380 -0.7307
    1PA     H4S 1354   3.712   1.782   6.216 -1.7240  1.8960  0.9250
    1PA     C13 1355   3.521   1.763   6.303  0.1833  0.4722 -0.1976
    1PA     H3R 1356   3.465   1.840   6.249 -1.7414 -0.2905  0.6217
    1PA     H3S 1357   3.449   1.682   6.318 -2.3793  2.0100 -2.9607
    1PA     C12 1358   3.563   1.831   6.433 -0.6082 -0.5764 -0.8308
    1PA     H2R 1359   3.640   1.909   6.435 -0.2147 -0.8593  2.8911
    1PA     H2S 1360   3.482   1.866   6.497  0.8792 -0.7479  1.2468
    1PC     C11 1361   3.633   1.725   6.515  0.1881 -0.0529  0.1601
    1PC     O12 1362   3.577   1.636   6.569 -0.1880  0.3921 -0.2200
    1PC     O11 1363   3.765   1.748   6.537 -0.7260  0.0091  0.2961
    1PC      C1 1364   3.840   1.675   6.637 -0.0507 -0.7067 -0.2298
    1PC      HR 1365   3.939   1.720   6.649  0.1504 -1.3900  0.7379
    1PC      HS 1366   3.772   1.677   6.722 -1.9308 -1.3870 -1.6519
    1PC      C2 1367   3.852   1.527   6.596 -0.4177  1.1155  0.0636
    1PC      HX 1368   3.754   1.493   6.561 -0.3378 -0.7130  1.4696
    1PC      C3 1369   3.903   1.430   6.705  0.1545 -0.0369  0.0868
    1PC      HA 1370   3.827   1.425   6.784  0.0827  0.3909  0.0511
    1PC      HB 1371   3.915   1.327   6.671  0.9241 -0.2967  1.1077
    1PC     O31 1372   4.024   1.476   6.768 -0.6244 -0.1487  0.2349
    1PC     P31 1373   4.071   1.426   6.912 -0.0136 -0.3739 -0.0374
    1PC     O32 1374   4.079   1.273   6.873 -0.5943 -0.4509  0.8637
    1PC     C31 1375   4.011   1.169   6.946  0.2316  0.0659 -0.1938
    1PC     H1A 1376   4.074   1.080   6.940  2.1507  1.1105  2.4393
    1PC     H1B 1377   4.007   1.194   7.052  0.2231 -0.0788 -0.1601
    1PC     C32 1378   3.864   1.158   6.893  0.0774  1.2551 -0.6690
    1PC     H2A 1379   3.816   1.257   6.899  0.9293  1.6684 -0.6003
    1PC     H2B 1380   3.864   1.124   6.789  3.2882 -1.9238  0.1917
    1PC     N31 1381   3.775   1.066   6.971 -0.5465  0.3408 -0.0093
    1PC     C33 1382   3.822   0.930   6.964 -0.2170  0.3242 -0.2866
    1PC     H3A 1383   3.929   0.928   6.985 -0.4701  0.5143  1.0744
    1PC     H3B 1384   3.766   0.872   7.037 -0.8477  0.1263 -0.9054
    1PC     H3C 1385   3.800   0.896   6.862 -0.0290 -0.2522 -0.1368
    1PC     C34 1386   3.767   1.102   7.112 -0.1856  0.6534  0.3510
    1PC     H4A 1387   3.872   1.112   7.142  0.4108  0.3705 -1.5040
    1PC     H4B 1388   3.729   1.203   7.124  1.3795  1.5164 -1.4320
    1PC     H4C 1389   3.707   1.032   7.170 -0.6299  1.2570  0.6284
    1PC     C35 1390   3.638   1.087   6.906  0.0108 -0.6577  0.4095
    1PC     H5A 1391   3.641   1.070   6.798  1.9778  0.2140  0.2927
    1PC     H5B 1392   3.583   1.178   6.933  0.5129  0.1604 -1.1525
    1PC     H5C 1393   3.577   1.007   6.948 -1.4486  0.1577 -0.0439
    1PC     O33 1394   4.199   1.481   6.952  0.2588  0.0269  0.1405
    1PC     O34 1395   3.958   1.438   7.005 -0.0003 -0.1231 -0.1467
    1PC     O21 1396   3.943   1.511   6.486  0.5739  0.0546  0.2118
    1PC     C21 1397   3.912   1.431   6.388 -0.4961 -0.2375  0.7169
    1PC     O22 1398   3.816   1.355   6.386 -0.2952  0.7005 -0.8616
    1OL     C12 1399   4.010   1.447   6.275 -0.5776  0.5582 -0.1260
    1OL     H2R 1400   3.973   1.406   6.180  1.8747 -1.5522 -0.2821
    1OL     H2S 1401   4.096   1.391   6.310 -1.6882 -0.3612  1.2292
    1OL     C13 1402   4.052   1.598   6.249 -0.6011  0.5349 -0.0449
    1OL     H3R 1403   4.090   1.651   6.337  1.1021 -0.6451 -0.0222
    1OL     H3S 1404   3.966   1.652   6.210 -2.0167 -2.3190 -1.0749
    1OL     C14 1405   4.163   1.620   6.136 -1.0024 -0.8180  0.9046
    1OL     H4R 1406   4.254   1.576   6.178  0.0289 -0.0254 -0.4161
    1OL     H4S 1407   4.187   1.726   6.132 -0.9009 -0.8535  0.5377
    1OL     C15 1408   4.122   1.554   6.006  0.6638  0.5167  0.6805
    1OL     H5R 1409   4.026   1.594   5.974  0.5111  0.8045  1.4813
    1OL     H5S 1410   4.106   1.448   6.023 -0.7094  0.5051 -0.5135
    1OL     C16 1411   4.235   1.572   5.898  0.5652 -1.1257  1.0427
    1OL     H6R 1412   4.210   1.519   5.806  2.1320 -0.5883  0.2731
    1OL     H6S 1413   4.329   1.525   5.926  0.3793 -1.3391  1.3199
    1OL     C17 1414   4.252   1.718   5.854  0.1630 -0.1213  0.4019
    1OL     H7R 1415   4.310   1.759   5.937 -1.1252  0.5771  1.0016
    1OL     H7S 1416   4.149   1.750   5.837  0.3947  0.3494 -0.1500
    1OL     C18 1417   4.325   1.738   5.721 -0.6754 -0.3341 -0.3440
    1OL     H8R 1418   4.317   1.843   5.691 -1.7226 -0.2378  0.2467
    1OL     H8S 1419   4.280   1.678   5.642  1.0054 -0.9941 -0.8601
    1OL     C19 1420   4.471   1.703   5.743  0.0129  0.4809 -0.4119
    1OL     H9R 1421   4.488   1.634   5.825 -4.1107 -1.1462 -0.7185
    1OL    C110 1422   4.580   1.744   5.671  0.4438  0.7554 -0.6701
    1OL    H10R 1423   4.680   1.706   5.693  0.0611  1.2097  2.4161
    1OL    C111 1424   4.570   1.835   5.547  0.6129  0.0852  0.2632
    1OL    H11R 1425   4.465   1.849   5.522  0.8099  0.8127 -0.2032
    1OL    H11S 1426   4.622   1.788   5.463 -1.5188 -2.9382  0.4762
    1OL    C112 1427   4.627   1.976   5.577 -0.5465  0.6926 -0.1137
    1OL    H12R 1428   4.736   1.970   5.585 -0.5283 -0.1861 -0.8720
    1OL    H12S 1429   4.589   2.019   5.670  1.8509 -0.8216  1.7013
    1OL    C113 1430   4.599   2.077   5.457  0.0960 -0.2950 -0.2204
    1OL    H13R 1431   4.495   2.110   5.452  0.4190  0.6274 -1.5194
    1OL    H13S 1432   4.628   2.013   5.374 -0.3460 -1.9576  0.8751
    1OL    C114 1433   4.701   2.196   5.471 -0.1167  0.1112 -0.5226
    1OL    H14R 1434   4.802   2.156   5.462  0.0947 -0.0103  1.7712
    1OL    H14S 1435   4.704   2.238   5.571  5.4692 -0.7784 -0.0241
    1OL    C115 1436   4.696   2.313   5.373  0.5080 -0.1524  1.3084
    1OL    H15R 1437   4.773   2.385   5.401  1.0355  0.0084 -0.4580
    1OL    H15S 1438   4.598   2.361   5.371  1.3644  1.8939 -2.7162
    1OL    C116 1439   4.710   2.265   5.228 -0.8379  0.2715 -0.2428
    1OL    H16R 1440   4.634   2.189   5.210 -1.1180  0.5217 -0.1028
    1OL    H16S 1441   4.807   2.215   5.225 -0.9654 -0.0176  0.4065
    1OL    C117 1442   4.701   2.373   5.121 -0.0681  0.5998 -0.4447
    1OL    H17R 1443   4.770   2.456   5.138 -0.9305  0.7683  2.7453
    1OL    H17S 1444   4.599   2.411   5.117 -0.4776 -0.1304  1.9193
    1OL    C118 1445   4.730   2.314   4.983 -0.1499  0.4029  0.0294
    1OL    H18R 1446   4.723   2.392   4.907 -1.0604  0.1235 -0.1835
    1OL    H18S 1447   4.656   2.237   4.961  0.6527 -0.5239  0.4814
    1OL    H18T 1448   4.828   2.266   4.984 -0.5003 -0.3630  1.8178
    1PA    C116 1449   1.949   1.979   5.999 -0.1929  0.2456  0.7982
    1PA    H16R 1450   1.916   1.959   6.101 -0.7798 -1.4065  0.3317
    1PA    H16S 1451   2.046   1.938   5.969 -0.5973  0.7602 -1.4034
    1PA    H16T 1452   1.887   1.922   5.929  1.8737  0.5414 -1.4326
    1PA    C115 1453   1.948   2.126   5.955 -0.0739 -0.4680 -0.5796
    1PA    H15R 1454   1.984   2.125   5.852  3.5835 -2.7806  0.5273
    1PA    H15S 1455   1.844   2.159   5.966  0.8424  3.0189 -1.0922
    1PA    C114 1456   2.042   2.217   6.037 -0.2385  0.6238  0.0850
    1PA    H14R 1457   2.018   2.318   6.002 -1.3836 -0.3443 -2.1193
    1PA    H14S 1458   2.027   2.218   6.145  0.5529 -2.4586  0.3011
    1PA    C113 1459   2.196   2.186   6.013 -0.7052 -0.3193 -0.1398
    1PA    H13R 1460   2.215   2.192   5.905  0.8267 -0.8175  0.0790
    1PA    H13S 1461   2.250   2.272   6.052 -1.1261  0.4057 -1.1156
    1PA    C112 1462   2.259   2.063   6.069  0.2393  0.4434 -0.6345
    1PA    H12R 1463   2.224   1.969   6.026  0.3849 -0.5086  1.2352
    1PA    H12S 1464   2.363   2.083   6.044  0.3070  0.2866 -0.4849
    1PA    C111 1465   2.244   2.050   6.220  0.7397  0.9619 -0.1806
    1PA    H11R 1466   2.144   2.013   6.244  1.1782 -1.3608 -1.5657
    1PA    H11S 1467   2.308   1.971   6.263 -1.2754 -0.5088  0.2905
    1PA    C110 1468   2.270   2.183   6.301 -0.5342  0.1936  0.2112
    1PA    H10R 1469   2.374   2.211   6.287 -0.7220  0.2736 -1.1618
    1PA    H10S 1470   2.203   2.261   6.263 -0.8960 -0.0421  0.3623
    1PA     C19 1471   2.234   2.164   6.454 -0.7543 -0.3993  0.1361
    1PA     H9R 1472   2.126   2.162   6.472 -0.9068  0.0522 -0.6706
    1PA     H9S 1473   2.270   2.066   6.486  0.9077 -1.0383 -3.2286
    1PA     C18 1474   2.292   2.266   6.556 -0.0125 -0.1218  0.1866
    1PA     H8R 1475   2.257   2.240   6.655 -1.1248 -1.6728 -0.5747
    1PA     H8S 1476   2.401   2.257   6.550  0.0344  0.0480  0.7388
    1PA     C17 1477   2.239   2.403   6.530  0.3700  0.6116  0.3632
    1PA     H7R 1478   2.275   2.443   6.435 -0.7340  2.8444  0.8055
    1PA     H7S 1479   2.130   2.407   6.535  0.2050  0.2253 -1.9066
    1PA     C16 1480   2.280   2.510   6.633 -0.3093 -0.5221 -0.2517
    1PA     H6R 1481   2.215   2.509   6.720 -0.5443 -0.0249 -0.4200
    1PA     H6S 1482   2.384   2.490   6.661 -0.3318  0.3318  0.4640
    1PA     C15 1483   2.275   2.660   6.588  0.3409  0.0609  0.5008
    1PA     H5R 1484   2.358   2.670   6.518  1.6785 -0.0958  2.0012
    1PA     H5S 1485   2.179   2.682   6.542 -0.3599 -1.1008  1.3469
    1PA     C14 1486   2.328   2.750   6.705 -0.0058 -0.2694  0.1636
    1PA     H4R 1487   2.261   2.731   6.789 -0.9715  0.4598 -0.4221
    1PA     H4S 1488   2.432   2.730   6.733  0.2445  1.3808  0.4709
    1PA     C13 1489   2.319   2.898   6.667  0.6565  0.6002  0.3739
    1PA     H3R 1490   2.335   2.954   6.760  0.0942  1.1592  0.1462
    1PA     H3S 1491   2.401   2.917   6.597  0.6039 -1.0479 -0.1692
    1PA     C12 1492   2.185   2.955   6.614 -0.1920 -0.2208 -0.3630
    1PA     H2R 1493   2.192   3.064   6.612 -0.2258 -0.1600  1.2758
    1PA     H2S 1494   2.169   2.910   6.516  1.5170 -1.3757 -0.1580
    1PC     C11 1495   2.059   2.931   6.696  1.0241 -0.2712  0.8074
    1PC     O12 1496   2.028   2.995   6.796 -0.2309  0.2518 -0.1100
    1PC     O11 1497   1.984   2.832   6.647  0.4051 -0.2064  0.4250
    1PC      C1 1498   1.864   2.802   6.718  0.0965  1.1012 -0.2193
    1PC      HR 1499   1.884   2.797   6.826 -0.7367  2.2680  0.0162
    1PC      HS 1500   1.794   2.886   6.715 -0.6391  0.5411  0.6147
    1PC      C2 1501   1.781   2.684   6.668 -0.6333  0.1551 -0.0039
    1PC      HX 1502   1.690   2.672   6.728  0.2760 -3.3269  0.9124
    1PC      C3 1503   1.872   2.559   6.660  0.5435 -0.0945  0.1553
    1PC      HA 1504   1.806   2.481   6.620 -0.6202  1.6614 -1.5396
    1PC      HB 1505   1.951   2.580   6.588 -0.0874 -0.1037 -0.5567
    1PC     O31 1506   1.926   2.531   6.793 -0.2632  0.1403  0.9743
    1PC     P31 1507   1.887   2.400   6.874 -0.2789 -0.0126  0.5579
    1PC     O32 1508   1.994   2.288   6.831 -0.7047 -0.2902  0.2936
    1PC     C31 1509   1.967   2.195   6.728 -0.4486  0.7655  0.1931
    1PC     H1A 1510   1.859   2.182   6.718 -0.5732  0.3335  1.8474
    1PC     H1B 1511   2.019   2.232   6.639  1.0116 -1.0614  0.2158
    1PC     C32 1512   2.031   2.059   6.761 -0.3303  0.0106 -0.3966
    1PC     H2A 1513   2.024   2.001   6.669  3.8516  0.6748 -1.3253
    1PC     H2B 1514   2.139   2.066   6.771 -0.4132  1.8847 -0.3765
    1PC     N31 1515   1.989   1.979   6.882  0.6432  0.3375 -0.5644
    1PC     C33 1516   1.842   1.963   6.879 -0.6662  0.1400 -0.3002
    1PC     H3A 1517   1.791   2.059   6.887 -1.8981 -0.2483 -2.6999
    1PC     H3B 1518   1.818   1.915   6.784 -0.5408  0.8697 -0.7096
    1PC     H3C 1519   1.820   1.914   6.974 -0.7615 -1.9944 -1.3523
    1PC     C34 1520   2.052   1.844   6.882  0.1685  0.1276 -0.1313
    1PC     H4A 1521   2.000   1.788   6.804  0.9929  0.0341 -0.6299
    1PC     H4B 1522   2.161   1.849   6.881  0.2787  1.9953  3.7646
    1PC     H4C 1523   2.024   1.803   6.979 -1.5130  2.4845  0.4681
    1PC     C35 1524   2.029   2.051   7.006 -0.1378  0.0364 -0.1019
    1PC     H5A 1525   2.136   2.069   7.000 -0.1132  0.4850  1.2485
    1PC     H5B 1526   1.998   1.998   7.096  0.0085  1.7348  1.0068
    1PC     H5C 1527   1.985   2.151   6.994  0.1797  0.3032  0.8247
    1PC     O33 1528   1.906   2.435   7.015 -0.0131 -0.0951 -0.0904
    1PC     O34 1529   1.753   2.358   6.830 -0.2428  0.1775 -0.1561
    1PC     O21 1530   1.734   2.711   6.538  0.3355 -0.4376 -0.2465
    1PC     C21 1531   1.615   2.662   6.504 -0.4443 -0.0484  0.0307
    1PC     O22 1532   1.568   2.564   6.556  0.1781 -0.3929 -0.5043
    1OL     C12 1533   1.551   2.717   6.379  0.0262  0.1515  0.7319
    1OL     H2R 1534   1.491   2.643   6.326  0.8585 -1.2081  1.6096
    1OL     H2S 1535   1.631   2.747   6.310 -0.7450  0.8552  0.1264
    1OL     C13 1536   1.469   2.846   6.395 -0.6160 -0.1550 -0.4748
    1OL     H3R 1537   1.531   2.930   6.429 -2.0829  1.1966 -0.9822
    1OL     H3S 1538   1.396   2.827   6.475  0.0619  1.0275  0.4724
    1OL     C14 1539   1.384   2.876   6.274 -0.4717  1.1449  0.1184
    1OL     H4R 1540   1.306   2.802   6.262  0.5284 -0.1591  1.3296
    1OL     H4S 1541   1.447   2.871   6.184 -3.2897 -0.8011 -1.9025
    1OL     C15 1542   1.325   3.012   6.284 -0.2314 -0.2501  0.1453
    1OL     H5R 1543   1.394   3.095   6.273 -1.9602  1.3240  0.6835
    1OL     H5S 1544   1.282   3.031   6.383 -0.6260  0.0861 -0.0908
    1OL     C16 1545   1.218   3.023   6.185  0.3998  0.3531 -0.2001
    1OL     H6R 1546   1.152   3.106   6.211  1.3574  0.3993  2.3556
    1OL     H6S 1547   1.151   2.937   6.190  2.4648 -1.2649  0.5391
    1OL     C17 1548   1.269   3.020   6.047 -0.0700  0.0970 -0.0687
    1OL     H7R 1549   1.352   2.949   6.045  1.2191  1.2976  3.4038
    1OL     H7S 1550   1.313   3.114   6.016 -1.5407  0.1823 -2.1300
    1OL     C18 1551   1.154   2.987   5.946  0.0901 -0.1358 -0.2693
    1OL     H8R 1552   1.077   3.062   5.969 -2.0169 -2.4960  0.9197
    1OL     H8S 1553   1.106   2.891   5.968 -2.3748  0.9284 -0.6375
    1OL     C19 1554   1.214   2.991   5.806 -0.3859  0.1174  0.1021
    1OL     H9R 1555   1.199   3.085   5.754  0.9175 -0.4175 -1.3309
    1OL    C110 1556   1.284   2.896   5.737  0.4535 -0.6990 -0.4882
    1OL    H10R 1557   1.313   2.910   5.633 -1.2789  1.2974 -0.7618
    1OL    C111 1558   1.329   2.763   5.784 -0.4978  0.0927  0.3052
    1OL    H11R 1559   1.317   2.691   5.702  0.0121  1.7810 -1.3075
    1OL    H11S 1560   1.267   2.728   5.868  1.1989 -0.1049  1.5269
    1OL    C112 1561   1.476   2.770   5.830  0.2499  0.4164 -0.0330
    1OL    H12R 1562   1.502   2.685   5.893 -2.1299  0.8153  1.6145
    1OL    H12S 1563   1.495   2.865   5.882  0.2259  0.8506 -0.8008
    1OL    C113 1564   1.584   2.775   5.723 -0.5398  0.3467 -1.0238
    1OL    H13R 1565   1.587   2.876   5.681 -0.9117  0.8119  0.0451
    1OL    H13S 1566   1.548   2.716   5.638 -1.4060  1.0715 -1.1774
    1OL    C114 1567   1.731   2.724   5.775 -0.3601 -0.2107  0.5547
    1OL    H14R 1568   1.719   2.619   5.802 -1.5751 -0.5020 -0.9333
    1OL    H14S 1569   1.740   2.773   5.872 -0.5453  0.9543  0.0040
    1OL    C115 1570   1.844   2.752   5.665 -0.3131 -1.2435 -0.0297
    1OL    H15R 1571   1.875   2.857   5.675  0.2732 -1.5223  1.2940
    1OL    H15S 1572   1.808   2.736   5.563  0.5969  2.2725 -1.0683
    1OL    C116 1573   1.967   2.663   5.690 -0.7429 -0.1623  0.2174
    1OL    H16R 1574   2.009   2.678   5.790 -3.1822  0.5240  1.2384
    1OL    H16S 1575   2.040   2.698   5.618 -1.5145  0.0333 -0.4858
    1OL    C117 1576   1.944   2.509   5.670 -0.3862 -0.4396 -0.1847
    1OL    H17R 1577   1.904   2.503   5.568 -0.3281  2.5058 -0.4548
    1OL    H17S 1578   1.864   2.477   5.736 -1.6896  2.6705 -0.1111
    1OL    C118 1579   2.067   2.422   5.685  0.2670 -0.0442 -0.8667
    1OL    H18R 1580   2.107   2.460   5.779  0.0161 -1.5503 -0.1237
    1OL    H18S 1581   2.142   2.434   5.606 -0.1592 -2.5994 -1.7293
    1OL    H18T 1582   2.037   2.318   5.695  0.9873 -0.1425  0.4932
    1PA    C116 1583   3.471   0.631   5.357  0.4267 -0.5618  0.0523
    1PA    H16R 1584   3.564   0.680   5.386  1.1783 -2.9497  2.0925
    1PA    H16S 1585   3.474   0.589   5.257  0.7621 -0.2454 -0.0720
    1PA    H16T 1586   3.457   0.547   5.426 -0.3127  0.2991  0.9752
    1PA    C115 1587   3.358   0.729   5.377  0.1501 -0.5183 -0.0641
    1PA    H15R 1588   3.387   0.830   5.347 -0.7461  0.2205  1.4660
    1PA    H15S 1589   3.268   0.695   5.325 -1.7393  2.0006  1.3975
    1PA    C114 1590   3.322   0.739   5.528 -0.3844  0.7676 -0.1089
    1PA    H14R 1591   3.319   0.641   5.576 -0.5367  0.1359 -1.3652
    1PA    H14S 1592   3.399   0.801   5.574  0.5126  1.2906 -2.1922
    1PA    C113 1593   3.194   0.806   5.552  0.5705  0.4439  0.2467
    1PA    H13R 1594   3.201   0.904   5.503  1.2487  0.8475  1.1269
    1PA    H13S 1595   3.111   0.754   5.503  0.5840  1.3040 -0.7239
    1PA    C112 1596   3.152   0.818   5.700  0.5596  0.3231  0.0833
    1PA    H12R 1597   3.218   0.887   5.753  0.2572  0.9210 -0.3072
    1PA    H12S 1598   3.057   0.871   5.707  1.1070  2.1773 -3.8215
    1PA    C111 1599   3.146   0.682   5.774 -0.2452 -0.1603 -0.3594
    1PA    H11R 1600   3.162   0.607   5.697  1.5234  0.7240 -0.9091
    1PA    H11S 1601   3.234   0.682   5.839  0.5316 -0.7329 -1.3807
    1PA    C110 1602   3.022   0.661   5.860  0.4096  0.3671  0.0462
    1PA    H10R 1603   3.018   0.739   5.937 -1.2296  0.3502  0.0132
    1PA    H10S 1604   2.936   0.678   5.796  0.0183 -0.1768  0.4128
    1PA     C19 1605   3.014   0.515   5.927 -0.2044  0.1460 -0.7608
    1PA     H9R 1606   3.000   0.443   5.846 -0.7531  2.0744 -2.4634
    1PA     H9S 1607   3.106   0.487   5.977  1.2091  2.7238 -1.7246
    1PA     C18 1608   2.888   0.497   6.019 -0.5662  0.2535 -0.4606
    1PA     H8R 1609   2.918   0.543   6.113 -1.4398  1.0722 -0.5620
    1PA     H8S 1610   2.808   0.550   5.967 -0.0132  0.1567 -1.4503
    1PA     C17 1611   2.836   0.351   6.034  0.4555  0.1590 -0.1833
    1PA     H7R 1612   2.802   0.322   5.934  1.3020 -2.7520  0.2948
    1PA     H7S 1613   2.922   0.286   6.054  0.0298 -0.5595 -0.6634
    1PA     C16 1614   2.726   0.339   6.140 -0.1642 -0.5875  0.2217
    1PA     H6R 1615   2.771   0.395   6.222 -1.1252  0.4940  0.0326
    1PA     H6S 1616   2.641   0.394   6.101  0.5174 -0.0184 -0.4837
    1PA     C15 1617   2.703   0.195   6.178 -0.3767  0.3504  0.1458
    1PA     H5R 1618   2.644   0.148   6.098  0.2538 -2.6698  1.3200
    1PA     H5S 1619   2.796   0.138   6.185 -0.8583 -0.2603  2.0470
    1PA     C14 1620   2.628   0.179   6.306 -0.2711  0.1784 -0.2954
    1PA     H4R 1621   2.696   0.189   6.391 -1.4626 -0.4530  0.7676
    1PA     H4S 1622   2.554   0.258   6.319  1.1855  1.6875 -0.8629
    1PA     C13 1623   2.557   0.043   6.324  0.3034  0.0800  0.3026
    1PA     H3R 1624   2.508   0.006   6.233 -0.5589 -0.2671  0.8850
    1PA     H3S 1625   2.639  -0.025   6.347 -0.1391 -0.5544  0.0378
    1PA     C12 1626   2.453   0.040   6.433 -0.0913  0.6774 -0.2755
    1PA     H2R 1627   2.374   0.106   6.396 -0.8825  0.8481  1.6400
    1PA     H2S 1628   2.418  -0.062   6.449  2.1322  0.2956  3.0210
    1PC     C11 1629   2.503   0.090   6.570  0.5143 -0.2493  0.2226
    1PC     O12 1630   2.558   0.016   6.656 -0.0904  0.1458 -0.6173
    1PC     O11 1631   2.480   0.220   6.585  0.1620  0.0071 -0.1829
    1PC      C1 1632   2.532   0.273   6.713  0.7098 -0.1399 -0.2947
    1PC      HR 1633   2.488   0.220   6.798  2.4959 -1.2183  0.0169
    1PC      HS 1634   2.641   0.272   6.724  0.8394 -2.7720 -1.0151
    1PC      C2 1635   2.476   0.420   6.728  0.4225 -0.3626 -0.7563
    1PC      HX 1636   2.522   0.477   6.647  0.3450  0.5369 -0.1818
    1PC      C3 1637   2.507   0.485   6.861 -0.3356 -0.6602  0.3968
    1PC      HA 1638   2.614   0.502   6.865 -0.5157  1.1946 -1.2944
    1PC      HB 1639   2.465   0.586   6.869  2.3339  0.5097  0.6164
    1PC     O31 1640   2.456   0.408   6.970  0.0009  0.2015 -0.5504
    1PC     P31 1641   2.515   0.428   7.115 -0.4735  0.2173  0.1173
    1PC     O32 1642   2.450   0.565   7.168  0.3497  0.8106  0.1933
    1PC     C31 1643   2.518   0.665   7.245 -0.0837  0.4346 -0.2900
    1PC     H1A 1644   2.562   0.612   7.330 -1.5558 -0.3277  0.0163
    1PC     H1B 1645   2.600   0.709   7.186 -0.4429  3.9935  1.6124
    1PC     C32 1646   2.407   0.762   7.279  0.5183 -0.1781  0.0635
    1PC     H2A 1647   2.390   0.819   7.188  3.4514  1.1572  0.2190
    1PC     H2B 1648   2.315   0.705   7.294  2.0052 -2.5574  0.8190
    1PC     N31 1649   2.432   0.866   7.393 -0.5931 -0.9647  0.2730
    1PC     C33 1650   2.350   0.985   7.364  0.4790  0.3900 -0.5437
    1PC     H3A 1651   2.247   0.950   7.364  0.2422  1.0636  0.0381
    1PC     H3B 1652   2.361   1.062   7.440  0.7758 -0.0626 -0.1262
    1PC     H3C 1653   2.380   1.037   7.272 -0.6743  2.6812  0.2797
    1PC     C34 1654   2.392   0.813   7.522  0.2950 -0.6313  0.3895
    1PC     H4A 1655   2.296   0.770   7.494  0.3181  1.4817 -3.6503
    1PC     H4B 1656   2.461   0.735   7.555 -0.4546 -0.9948  1.1222
    1PC     H4C 1657   2.383   0.892   7.597 -0.3854 -1.3374  1.0652
    1PC     C35 1658   2.573   0.914   7.400  0.2435  0.2114 -0.5707
    1PC     H5A 1659   2.637   0.831   7.433 -0.9274 -0.8270 -0.8478
    1PC     H5B 1660   2.586   0.994   7.473  2.0416 -0.0642 -0.5382
    1PC     H5C 1661   2.603   0.950   7.302  1.4187 -2.4540 -1.2903
    1PC     O33 1662   2.456   0.314   7.188  0.2180  0.6329  0.0084
    1PC     O34 1663   2.659   0.452   7.100  0.1267  0.0061 -0.3897
    1PC     O21 1664   2.333   0.416   6.713  0.2096 -0.0432 -0.3811
    1PC     C21 1665   2.283   0.510   6.631  0.2704  0.0786  0.2865
    1PC     O22 1666   2.339   0.609   6.589 -0.5705  0.5240  0.2298
    1OL     C12 1667   2.138   0.482   6.620  0.4948  0.1270 -0.1195
    1OL     H2R 1668   2.101   0.572   6.571 -3.1613 -2.1344 -1.8700
    1OL     H2S 1669   2.088   0.465   6.715 -2.5294 -0.7018 -1.7412
    1OL     C13 1670   2.118   0.364   6.518 -0.1910 -0.2985 -0.3616
    1OL     H3R 1671   2.013   0.340   6.500 -0.6582  1.7163 -0.5947
    1OL     H3S 1672   2.166   0.274   6.557 -0.4088 -1.1901 -2.0337
    1OL     C14 1673   2.183   0.396   6.379  0.5088  0.9131  0.0792
    1OL     H4R 1674   2.292   0.388   6.378  0.4855  0.6264 -0.7400
    1OL     H4S 1675   2.173   0.503   6.361  0.0056  0.8301 -0.1543
    1OL     C15 1676   2.129   0.296   6.267  0.2345  0.0898 -0.3699
    1OL     H5R 1677   2.020   0.297   6.259  0.2714 -0.1354 -0.9510
    1OL     H5S 1678   2.144   0.190   6.290 -0.5763  0.0744  0.1360
    1OL     C16 1679   2.180   0.335   6.133  0.2124  0.5234 -0.0838
    1OL     H6R 1680   2.288   0.317   6.132 -0.2013 -2.5222 -0.5948
    1OL     H6S 1681   2.158   0.440   6.111  1.0855  0.6729 -0.2965
    1OL     C17 1682   2.116   0.251   6.021 -0.1022  0.1868  0.0167
    1OL     H7R 1683   2.015   0.280   5.994 -0.7285 -1.5184  0.3714
    1OL     H7S 1684   2.119   0.151   6.066 -1.3715 -1.2335 -2.8127
    1OL     C18 1685   2.203   0.252   5.895  0.6397  0.7128 -0.5018
    1OL     H8R 1686   2.206   0.355   5.859 -2.1413  1.5520  1.3174
    1OL     H8S 1687   2.149   0.191   5.821  0.4786 -1.2923  1.1966
    1OL     C19 1688   2.337   0.184   5.906 -0.0358  0.0886 -0.0548
    1OL     H9R 1689   2.335   0.083   5.947  1.6387  0.3751  0.8123
    1OL    C110 1690   2.450   0.238   5.867  0.0381 -0.3530 -0.1272
    1OL    H10R 1691   2.541   0.179   5.873  0.2869 -0.6608 -3.9945
    1OL    C111 1692   2.458   0.379   5.804 -0.0364  0.1616 -0.5737
    1OL    H11R 1693   2.479   0.443   5.889 -3.7813 -0.6348  1.1740
    1OL    H11S 1694   2.365   0.410   5.754 -0.9280 -5.3805 -3.2771
    1OL    C112 1695   2.587   0.395   5.714  0.3950 -0.1569  0.4696
    1OL    H12R 1696   2.568   0.338   5.624  1.1953  0.3834 -0.0519
    1OL    H12S 1697   2.675   0.347   5.756  0.1322  1.1441  2.6691
    1OL    C113 1698   2.613   0.543   5.676 -0.5114 -0.8185 -0.7224
    1OL    H13R 1699   2.720   0.559   5.692 -0.9823  1.5929  0.5206
    1OL    H13S 1700   2.554   0.608   5.741 -0.9738  0.5493 -2.4184
    1OL    C114 1701   2.567   0.569   5.532 -0.3798  0.4491  0.6276
    1OL    H14R 1702   2.463   0.542   5.512 -0.8831  2.9918 -0.5434
    1OL    H14S 1703   2.621   0.504   5.462  0.5303  1.9704 -0.1407
    1OL    C115 1704   2.588   0.720   5.490 -0.1752  0.2244 -0.4358
    1OL    H15R 1705   2.695   0.738   5.474  0.3290 -2.4684 -0.5946
    1OL    H15S 1706   2.560   0.787   5.572 -1.5307  0.3052 -0.9430
    1OL    C116 1707   2.519   0.760   5.356  0.4011  0.2145 -0.1973
    1OL    H16R 1708   2.557   0.858   5.326  0.5150  0.8353  1.7912
    1OL    H16S 1709   2.410   0.765   5.361  0.2740 -1.4533 -0.7322
    1OL    C117 1710   2.534   0.647   5.248  0.0215 -0.0890 -0.7680
    1OL    H17R 1711   2.499   0.550   5.283 -2.4926  0.7825 -0.7347
    1OL    H17S 1712   2.642   0.642   5.227  0.1523 -3.0672  0.1970
    1OL    C118 1713   2.479   0.680   5.112  0.1754  0.3906  0.1949
    1OL    H18R 1714   2.474   0.787   5.092 -0.2850  0.8083  2.2540
    1OL    H18S 1715   2.375   0.648   5.109  0.2642 -0.2615  2.4081
    1OL    H18T 1716   2.540   0.623   5.041  0.8048  0.0830  0.9508
    1PA    C116 1717   5.239   2.565   5.199  0.0240 -0.3716  0.3983
    1PA    H16R 1718   5.344   2.579   5.226 -0.8783  0.6276  3.8798
    1PA    H16S 1719   5.181   2.655   5.218 -0.3409 -0.3075 -0.9112
    1PA    H16T 1720   5.227   2.539   5.094  0.6475  0.7703  0.0297
    1PA    C115 1721   5.191   2.444   5.282 -0.8681 -0.3912 -0.2647
    1PA    H15R 1722   5.091   2.412   5.255 -0.2267 -2.1509 -0.6666
    1PA    H15S 1723   5.257   2.359   5.263 -0.3107 -0.4851  1.7581
    1PA    C114 1724   5.192   2.474   5.436 -0.2258  0.6283 -0.1027
    1PA    H14R 1725   5.296   2.486   5.467  0.1274 -1.4984 -0.2742
    1PA    H14S 1726   5.133   2.562   5.462 -1.1236 -0.7167  2.7650
    1PA    C113 1727   5.131   2.356   5.509 -0.2731 -0.8967 -0.2682
    1PA    H13R 1728   5.045   2.319   5.453 -1.2078  3.2973 -1.9209
    1PA    H13S 1729   5.212   2.282   5.508  0.9646  0.4081 -0.7910
    1PA    C112 1730   5.097   2.392   5.655 -0.2836 -0.6706  0.4181
    1PA    H12R 1731   5.192   2.410   5.706 -0.4149 -2.1629  1.2549
    1PA    H12S 1732   5.035   2.482   5.655  1.4913  0.6811 -1.8393
    1PA    C111 1733   5.031   2.290   5.745  0.5957 -0.1323  1.0163
    1PA    H11R 1734   4.938   2.253   5.699 -0.4389  1.5106  1.6999
    1PA    H11S 1735   5.099   2.205   5.759  1.0629  0.2196  0.8891
    1PA    C110 1736   4.993   2.348   5.886  0.0033 -0.1834  0.0403
    1PA    H10R 1737   5.086   2.375   5.937  0.6013  0.0219 -1.1149
    1PA    H10S 1738   4.934   2.440   5.882  0.3748  0.2660  2.8177
    1PA     C19 1739   4.931   2.247   5.981  0.5222  0.3550 -0.2067
    1PA     H9R 1740   5.013   2.185   6.019 -0.2816 -1.4300 -1.2341
    1PA     H9S 1741   4.900   2.295   6.073  0.0134 -0.1047 -0.1340
    1PA     C18 1742   4.810   2.159   5.925 -0.1704  0.2022  0.2632
    1PA     H8R 1743   4.739   2.234   5.889  0.1216  0.5351  0.3706
    1PA     H8S 1744   4.859   2.102   5.846  0.7866 -2.1912  2.4437
    1PA     C17 1745   4.760   2.062   6.029 -0.2920 -0.5929  0.0628
    1PA     H7R 1746   4.842   2.003   6.070 -1.4115 -1.6580  0.8525
    1PA     H7S 1747   4.725   2.117   6.116  0.4694 -0.8325  0.5248
    1PA     C16 1748   4.650   1.972   5.977  0.3418  0.0861  0.9670
    1PA     H6R 1749   4.578   2.039   5.929 -1.0813 -2.5330 -0.7359
    1PA     H6S 1750   4.697   1.914   5.897 -0.7404  3.5870 -2.5305
    1PA     C15 1751   4.578   1.878   6.080 -0.5425 -0.5048  0.0254
    1PA     H5R 1752   4.532   1.942   6.155 -1.6492 -1.3625  0.0965
    1PA     H5S 1753   4.503   1.819   6.026  0.4504 -0.5264 -1.4074
    1PA     C14 1754   4.677   1.776   6.143  0.7484 -0.4585  0.1006
    1PA     H4R 1755   4.729   1.724   6.063 -1.5649 -1.4108 -0.8760
    1PA     H4S 1756   4.747   1.847   6.187 -0.9013  1.3666 -0.0553
    1PA     C13 1757   4.597   1.687   6.249  0.3734 -0.1969  0.1774
    1PA     H3R 1758   4.552   1.759   6.317  2.6333  2.0706 -0.5879
    1PA     H3S 1759   4.517   1.634   6.196 -0.1071 -0.7692  1.4543
    1PA     C12 1760   4.694   1.595   6.330 -0.5395  0.6450  0.2765
    1PA     H2R 1761   4.641   1.522   6.392 -0.7563 -0.2984 -0.9753
    1PA     H2S 1762   4.755   1.534   6.264 -1.8138 -1.3867  0.8603
    1PC     C11 1763   4.789   1.682   6.413 -0.9738  0.2781 -0.2282
    1PC     O12 1764   4.871   1.766   6.371  0.0863  0.6989 -0.1064
    1PC     O11 1765   4.766   1.665   6.544 -0.0013 -0.0655 -0.6152
    1PC      C1 1766   4.836   1.752   6.642 -0.2337 -0.3759  0.0091
    1PC      HR 1767   4.837   1.688   6.730 -2.7621 -2.4942 -1.3472
    1PC      HS 1768   4.935   1.785   6.610 -0.6831  0.0267 -1.0276
    1PC      C2 1769   4.750   1.881   6.677 -0.0995 -0.3482  0.0476
    1PC      HX 1770   4.805   1.942   6.750  0.4081 -1.0799  0.2797
    1PC      C3 1771   4.609   1.845   6.726  0.6605 -0.0559  0.5499
    1PC      HA 1772   4.557   1.934   6.762 -1.5901 -0.1447 -2.1948
    1PC      HB 1773   4.550   1.797   6.648  1.6438  0.7980 -0.7480
    1PC     O31 1774   4.622   1.754   6.839 -0.3975 -0.1271  0.1086
    1PC     P31 1775   4.656   1.792   6.993  0.2031  0.1158  0.1646
    1PC     O32 1776   4.504   1.810   7.048 -0.1588 -0.4756 -0.7469
    1PC     C31 1777   4.428   1.927   7.017 -0.0147 -0.1669  0.5990
    1PC     H1A 1778   4.493   2.014   7.003 -1.7940  0.9874 -0.9519
    1PC     H1B 1779   4.371   1.908   6.926 -1.1206  0.3674  1.1627
    1PC     C32 1780   4.314   1.940   7.125 -0.3883 -0.3006 -0.1375
    1PC     H2A 1781   4.232   2.004   7.092 -0.6256  0.3668  1.6314
    1PC     H2B 1782   4.266   1.843   7.134 -3.2620  1.0664  0.5075
    1PC     N31 1783   4.354   2.008   7.258 -0.0071 -0.0651 -0.1875
    1PC     C33 1784   4.237   2.056   7.337 -0.0041 -0.2133 -0.8631
    1PC     H3A 1785   4.189   1.961   7.361  1.0547 -0.3896  0.6952
    1PC     H3B 1786   4.271   2.117   7.421  0.3402 -0.9660 -0.4459
    1PC     H3C 1787   4.171   2.122   7.280 -1.3863 -0.1942  0.6952
    1PC     C34 1788   4.421   1.906   7.344  0.1164 -0.4080  1.6052
    1PC     H4A 1789   4.432   1.944   7.445 -0.4821 -0.9973  1.9008
    1PC     H4B 1790   4.374   1.808   7.334 -1.5627  0.3356  1.9939
    1PC     H4C 1791   4.523   1.894   7.306 -0.7439  0.8924 -1.4749
    1PC     C35 1792   4.440   2.132   7.244 -0.2258 -0.4230 -0.2278
    1PC     H5A 1793   4.542   2.095   7.230 -0.0514 -0.3377  0.7362
    1PC     H5B 1794   4.435   2.194   7.333  3.9738 -0.0053 -0.0850
    1PC     H5C 1795   4.405   2.185   7.156  1.5023  3.2572  1.1026
    1PC     O33 1796   4.719   1.675   7.060 -0.0433  0.9702 -0.3012
    1PC     O34 1797   4.722   1.924   7.010  0.6909  0.1552  0.2842
    1PC     O21 1798   4.722   1.951   6.554  0.0491  1.1405 -0.3697
    1PC     C21 1799   4.788   2.059   6.526  0.0893 -0.1675  0.4828
    1PC     O22 1800   4.867   2.119   6.597 -0.3852  0.0268 -0.3323
    1OL     C12 1801   4.753   2.123   6.394  0.5240  0.1394 -0.4292
    1OL     H2R 1802   4.713   2.046   6.328 -2.1228  1.8945 -1.0060
    1OL     H2S 1803   4.834   2.170   6.337 -0.9894  1.6223 -1.4482
    1OL     C13 1804   4.646   2.227   6.415  0.9958 -0.4046  0.1695
    1OL     H3R 1805   4.672   2.298   6.494 -1.1928 -1.3058  1.8287
    1OL     H3S 1806   4.553   2.179   6.447  0.9343 -1.4416 -1.4605
    1OL     C14 1807   4.618   2.299   6.283  0.2677  0.4536 -0.5737
    1OL     H4R 1808   4.554   2.230   6.226  0.1939  0.7231 -0.8184
    1OL     H4S 1809   4.715   2.321   6.238  1.0605  0.9533  1.2900
    1OL     C15 1810   4.532   2.425   6.302  0.1604 -0.3435 -0.5727
    1OL     H5R 1811   4.595   2.504   6.344  0.7120 -0.5448 -1.0161
    1OL     H5S 1812   4.449   2.404   6.369 -0.6087  0.3134 -1.3000
    1OL     C16 1813   4.464   2.487   6.176  0.4657 -0.4005 -0.2531
    1OL     H6R 1814   4.426   2.587   6.194  1.1853 -0.3930  1.3622
    1OL     H6S 1815   4.379   2.423   6.149  0.5802 -0.7922  0.3056
    1OL     C17 1816   4.566   2.493   6.059 -0.8002  0.3811  0.4203
    1OL     H7R 1817   4.584   2.392   6.022 -1.2937  0.6406 -0.5508
    1OL     H7S 1818   4.663   2.521   6.100 -0.1544 -0.2616 -0.6408
    1OL     C18 1819   4.525   2.596   5.952 -0.1685 -0.0956  0.5423
    1OL     H8R 1820   4.524   2.698   5.991  0.2588  0.4598 -0.8285
    1OL     H8S 1821   4.431   2.565   5.905 -1.1159 -0.5733  2.6343
    1OL     C19 1822   4.637   2.604   5.851 -0.0967 -0.1451 -0.0793
    1OL     H9R 1823   4.735   2.599   5.898 -0.9698 -0.3251  1.8403
    1OL    C110 1824   4.623   2.616   5.719  0.2257 -0.4394 -0.4371
    1OL    H10R 1825   4.714   2.620   5.659  1.5249  0.8498  1.5036
    1OL    C111 1826   4.496   2.635   5.638 -0.0661 -0.2762 -0.1818
    1OL    H11R 1827   4.490   2.743   5.619 -2.7247 -0.2075  0.6232
    1OL    H11S 1828   4.415   2.605   5.705 -1.6530  2.3760 -0.7770
    1OL    C112 1829   4.481   2.546   5.514  0.0945 -0.4024  0.1179
    1OL    H12R 1830   4.465   2.450   5.562 -1.3598 -0.6018 -0.7103
    1OL    H12S 1831   4.578   2.549   5.465 -0.2414 -0.6814 -0.5777
    1OL    C113 1832   4.350   2.572   5.444  0.4334  0.4736  0.3633
    1OL    H13R 1833   4.349   2.676   5.410 -1.2888  0.5581  0.5961
    1OL    H13S 1834   4.274   2.575   5.522  2.2567  2.2947  2.2336
    1OL    C114 1835   4.313   2.473   5.336 -0.5027  0.4426  0.5569
    1OL    H14R 1836   4.290   2.376   5.381  0.9569 -0.4147 -0.4883
    1OL    H14S 1837   4.398   2.456   5.270 -1.9573 -0.7933 -1.0842
    1OL    C115 1838   4.202   2.539   5.261  0.8423 -0.4169  0.2155
    1OL    H15R 1839   4.242   2.637   5.234  3.9753 -1.5507  0.3452
    1OL    H15S 1840   4.113   2.540   5.324  0.4185  2.7349 -0.2320
    1OL    C116 1841   4.174   2.464   5.126 -0.5888  0.3608 -0.3523
    1OL    H16R 1842   4.168   2.356   5.133 -1.1346  0.5095  2.1535
    1OL    H16S 1843   4.257   2.488   5.059  1.1933  2.1284  2.2719
    1OL    C117 1844   4.048   2.519   5.069 -0.5252 -0.5974 -0.5627
    1OL    H17R 1845   4.063   2.626   5.051 -0.3664 -0.4567  0.3308
    1OL    H17S 1846   3.974   2.517   5.149 -0.4821  1.4486 -0.4182
    1OL    C118 1847   4.003   2.450   4.942 -0.2161 -0.1027  0.2095
    1OL    H18R 1848   3.991   2.341   4.947 -1.3739 -0.0399 -0.8553
    1OL    H18S 1849   4.071   2.470   4.858  0.5492 -0.4871  0.7204
    1OL    H18T 1850   3.907   2.494   4.917  0.1571  0.7474  0.2342
    1PA    C116 1851   3.857   0.443   5.190 -0.4397  0.2036 -0.0902
    1PA    H16R 1852   3.953   0.393   5.171 -0.4266 -1.1873  2.9892
    1PA    H16S 1853   3.852   0.537   5.135 -0.4903  0.0857 -0.2892
    1PA    H16T 1854   3.777   0.374   5.164 -0.2783  0.1989 -0.5927
    1PA    C115 1855   3.864   0.464   5.340  0.2994  0.0684  0.6004
    1PA    H15R 1856   3.957   0.517   5.362  1.1997 -0.8965 -0.7292
    1PA    H15S 1857   3.769   0.507   5.372  0.4683  1.7705 -0.9828
    1PA    C114 1858   3.888   0.324   5.412 -0.3003 -0.3743  0.5542
    1PA    H14R 1859   3.799   0.262   5.422  0.3024 -1.2361  0.6557
    1PA    H14S 1860   3.952   0.251   5.363 -0.3817 -2.3898  3.1950
    1PA    C113 1861   3.943   0.335   5.558 -0.2404  0.0319  0.3164
    1PA    H13R 1862   3.982   0.237   5.586 -1.1591 -1.4468 -3.1596
    1PA    H13S 1863   4.027   0.405   5.563  1.2157 -1.7104  2.6638
    1PA    C112 1864   3.844   0.375   5.666 -0.2176 -0.0765 -0.0925
    1PA    H12R 1865   3.748   0.323   5.664 -0.0346 -0.4043 -1.0529
    1PA    H12S 1866   3.888   0.360   5.765 -1.2584  0.8732  0.5288
    1PA    C111 1867   3.819   0.527   5.671 -0.2381 -0.1744  0.0473
    1PA    H11R 1868   3.911   0.574   5.635 -0.0445 -0.1384  0.5817
    1PA    H11S 1869   3.743   0.562   5.602  2.0387  3.4676 -0.8952
    1PA    C110 1870   3.794   0.590   5.815  0.1453 -0.1111  0.2485
    1PA    H10R 1871   3.694   0.564   5.849  1.0740 -2.6495  1.3108
    1PA    H10S 1872   3.871   0.548   5.880 -2.2678 -1.1036  2.6495
    1PA     C19 1873   3.808   0.748   5.807 -0.1385  0.3241 -0.4464
    1PA     H9R 1874   3.911   0.772   5.781 -0.6506  1.6244 -1.3680
    1PA     H9S 1875   3.741   0.789   5.731 -0.0192  1.3425 -0.0244
    1PA     C18 1876   3.767   0.825   5.945 -0.2608  0.0682 -0.3545
    1PA     H8R 1877   3.838   0.816   6.027 -0.3265 -1.6739 -0.4550
    1PA     H8S 1878   3.767   0.931   5.920  2.3949 -0.1535 -1.6020
    1PA     C17 1879   3.622   0.775   5.977  0.0597  0.1402 -0.2457
    1PA     H7R 1880   3.544   0.784   5.900 -1.6685  0.3028  1.4402
    1PA     H7S 1881   3.634   0.674   6.014 -1.5595  0.4772  1.3209
    1PA     C16 1882   3.569   0.859   6.104  0.4153 -0.5287  0.7074
    1PA     H6R 1883   3.640   0.855   6.188 -1.0872  3.0621  2.3409
    1PA     H6S 1884   3.557   0.963   6.075  1.2721 -0.4112  0.7432
    1PA     C15 1885   3.432   0.805   6.159  0.6325  0.8841  0.7725
    1PA     H5R 1886   3.360   0.820   6.078  1.8032  1.5133 -0.1915
    1PA     H5S 1887   3.443   0.697   6.172  1.9432  0.9192  0.1708
    1PA     C14 1888   3.395   0.876   6.286  0.2049  0.6074 -0.5023
    1PA     H4R 1889   3.296   0.844   6.318  1.3029 -1.2473  1.3847
    1PA     H4S 1890   3.467   0.836   6.359 -1.2587 -0.3868  0.4687
    1PA     C13 1891   3.392   1.027   6.275  0.8023 -0.0458  0.4428
    1PA     H3R 1892   3.495   1.060   6.290  1.1031 -1.9371  3.2986
    1PA     H3S 1893   3.362   1.049   6.172  1.7261  2.0372  0.5644
    1PA     C12 1894   3.309   1.107   6.379 -0.3141 -0.2855  0.0094
    1PA     H2R 1895   3.310   1.215   6.359 -1.8210 -0.3405 -0.4953
    1PA     H2S 1896   3.201   1.091   6.371 -0.7662  2.5995 -1.1292
    1PC     C11 1897   3.358   1.075   6.517  0.4685  0.3088 -0.3895
    1PC     O12 1898   3.450   1.131   6.575 -0.8615 -0.1367 -0.3017
    1PC     O11 1899   3.282   0.981   6.576 -0.4013  0.1665 -0.1761
    1PC      C1 1900   3.302   0.949   6.709  0.4803  0.7155 -0.2081
    1PC      HR 1901   3.397   0.897   6.724  1.7498  2.9778  0.0877
    1PC      HS 1902   3.313   1.044   6.763  0.4950  1.3904 -1.3561
    1PC      C2 1903   3.181   0.866   6.759  0.3716 -0.4018 -0.3730
    1PC      HX 1904   3.098   0.937   6.760  1.4338  0.9043  1.6979
    1PC      C3 1905   3.188   0.820   6.905 -0.0590 -0.5778 -0.1145
    1PC      HA 1906   3.174   0.908   6.969 -1.7983 -0.9864  0.1365
    1PC      HB 1907   3.111   0.744   6.923  0.5941 -0.7842  2.1171
    1PC     O31 1908   3.319   0.775   6.928 -0.5001 -0.2093  0.2053
    1PC     P31 1909   3.388   0.779   7.078  0.2697 -0.0466  0.1554
    1PC     O32 1910   3.344   0.646   7.158  0.5189  0.2079 -0.4189
    1PC     C31 1911   3.208   0.612   7.181 -0.2613  0.5161 -0.4288
    1PC     H1A 1912   3.143   0.700   7.189 -2.3041 -0.9491 -0.2343
    1PC     H1B 1913   3.181   0.554   7.093  2.1794 -0.8879 -0.3412
    1PC     C32 1914   3.183   0.518   7.306 -0.2402 -0.1341 -0.1709
    1PC     H2A 1915   3.171   0.574   7.399  2.7968 -1.1947  0.9822
    1PC     H2B 1916   3.085   0.470   7.298 -1.4585  1.8090  1.8501
    1PC     N31 1917   3.285   0.411   7.330 -0.4525  0.5472  0.1640
    1PC     C33 1918   3.406   0.467   7.402  0.4650 -0.8003  0.1851
    1PC     H3A 1919   3.479   0.388   7.419  1.0997 -0.9047 -2.6141
    1PC     H3B 1920   3.464   0.536   7.340 -0.8347  0.2689  0.1193
    1PC     H3C 1921   3.368   0.526   7.486  0.4338  0.7086 -0.8512
    1PC     C34 1922   3.211   0.310   7.415 -0.8582 -0.1132  0.2539
    1PC     H4A 1923   3.199   0.358   7.513 -1.2868  0.0481  0.1244
    1PC     H4B 1924   3.124   0.274   7.360  0.5213 -0.8085 -1.5786
    1PC     H4C 1925   3.281   0.227   7.422  0.0985  0.6811  0.4356
    1PC     C35 1926   3.323   0.340   7.205 -0.0355 -0.5145 -0.3292
    1PC     H5A 1927   3.228   0.314   7.157 -1.9579  1.0957  2.3225
    1PC     H5B 1928   3.386   0.253   7.226 -0.3273 -1.1398 -1.9257
    1PC     H5C 1929   3.371   0.417   7.145 -0.8146 -0.6680 -1.1764
    1PC     O33 1930   3.532   0.767   7.066 -0.3322  0.1553  0.8681
    1PC     O34 1931   3.334   0.894   7.150  0.2441  0.7348  0.3411
    1PC     O21 1932   3.157   0.753   6.667  0.1239 -0.3128 -0.9310
    1PC     C21 1933   3.027   0.724   6.643  0.0729  0.4416  0.6815
    1PC     O22 1934   2.933   0.779   6.696  0.0231 -0.1184 -0.5375
    1OL     C12 1935   3.007   0.613   6.541  0.2015  0.8506  0.7450
    1OL     H2R 1936   2.911   0.562   6.551  0.9376 -0.9025 -0.5278
    1OL     H2S 1937   3.077   0.530   6.555  0.3490  0.7073 -0.7337
    1OL     C13 1938   3.010   0.671   6.398  0.3303  0.4456  0.2384
    1OL     H3R 1939   2.997   0.591   6.325 -0.1844  1.4203 -0.7600
    1OL     H3S 1940   3.112   0.710   6.390  1.2699 -1.9150 -0.0217
    1OL     C14 1941   2.915   0.791   6.371  0.2840 -0.1874 -0.3914
    1OL     H4R 1942   2.923   0.862   6.454 -3.0759  0.3364 -0.3745
    1OL     H4S 1943   2.812   0.756   6.380  0.1181  0.3574 -0.1248
    1OL     C15 1944   2.931   0.857   6.235  0.0150  0.0121  0.1018
    1OL     H5R 1945   2.901   0.785   6.158 -0.1627 -1.0501  1.1358
    1OL     H5S 1946   3.040   0.858   6.230  0.0888  2.0024  1.3222
    1OL     C16 1947   2.881   1.001   6.220  0.0972 -0.0225 -0.5064
    1OL     H6R 1948   2.926   1.074   6.288 -0.1717 -0.0878 -0.2558
    1OL     H6S 1949   2.773   1.001   6.239 -0.2222 -1.0323 -2.1016
    1OL     C17 1950   2.897   1.046   6.075 -0.3489  0.0668 -0.5097
    1OL     H7R 1951   2.849   1.144   6.078 -0.3502  0.0527  0.3486
    1OL     H7S 1952   2.834   0.978   6.017 -0.2899 -0.5428  0.1152
    1OL     C18 1953   3.039   1.050   6.011 -0.0461  0.1232 -0.5301
    1OL     H8R 1954   3.024   1.065   5.904  1.0599  0.5977 -0.6402
    1OL     H8S 1955   3.086   0.955   6.037  0.0034  0.2014 -0.3270
    1OL     C19 1956   3.116   1.170   6.077 -0.0052  0.7617 -0.0626
    1OL     H9R 1957   3.114   1.179   6.185 -1.0146  1.4353 -0.1248
    1OL    C110 1958   3.192   1.262   6.020 -0.3975  0.1015  0.1127
    1OL    H10R 1959   3.242   1.333   6.086 -2.9243  0.5613  1.6305
    1OL    C111 1960   3.212   1.273   5.868  0.2152  0.3672 -0.1604
    1OL    H11R 1961   3.227   1.379   5.845 -0.2622  0.5886  0.5224
    1OL    H11S 1962   3.129   1.236   5.809  0.6510 -1.3234  0.2412
    1OL    C112 1963   3.345   1.206   5.834 -0.2150  0.6186  1.1639
    1OL    H12R 1964   3.363   1.119   5.897  0.0670 -0.3622 -0.2312
    1OL    H12S 1965   3.428   1.276   5.847 -0.2213  0.5496  1.6200
    1OL    C113 1966   3.359   1.161   5.691 -0.2142 -0.2164  0.0977
    1OL    H13R 1967   3.273   1.099   5.664 -0.8191  1.1524 -1.2553
    1OL    H13S 1968   3.455   1.108   5.692  0.1031  0.3643  0.9178
    1OL    C114 1969   3.374   1.264   5.576 -0.3253  0.6186  0.2909
    1OL    H14R 1970   3.417   1.355   5.618  0.8888  0.7241 -1.1110
    1OL    H14S 1971   3.277   1.304   5.547 -0.6304  1.1095  1.8680
    1OL    C115 1972   3.470   1.215   5.460  0.5852 -0.0076  0.1493
    1OL    H15R 1973   3.539   1.139   5.498 -0.8390 -0.8943  1.0352
    1OL    H15S 1974   3.524   1.304   5.427 -1.8411  1.8790  0.9841
    1OL    C116 1975   3.391   1.154   5.343  0.0890 -0.0974  0.7064
    1OL    H16R 1976   3.353   1.059   5.381 -1.4868  0.1077 -0.2724
    1OL    H16S 1977   3.454   1.133   5.256 -1.8376 -0.7813 -0.5938
    1OL    C117 1978   3.281   1.245   5.280  0.0573  0.4020 -0.2353
    1OL    H17R 1979   3.322   1.343   5.256  1.4173 -0.0413  0.2105
    1OL    H17S 1980   3.185   1.239   5.332 -0.7915 -2.5984 -1.8843
    1OL    C118 1981   3.241   1.170   5.149 -0.7026  0.7632 -0.0015
    1OL    H18R 1982   3.200   1.071   5.166  0.1747  0.5813  1.1243
    1OL    H18S 1983   3.333   1.146   5.095 -0.0552 -2.3056  2.2450
    1OL    H18T 1984   3.174   1.228   5.084 -2.2009 -0.1805  0.6598
    1PA    C116 1985   1.718   4.427   5.277  0.4889  0.2768 -0.1364
    1PA    H16R 1986   1.798   4.376   5.223  0.5035  1.1402 -0.9560
    1PA    H16S 1987   1.676   4.506   5.215 -0.2741 -1.1732 -1.5535
    1PA    H16T 1988   1.633   4.360   5.294 -0.1251  0.8499 -0.8987
    1PA    C115 1989   1.775   4.474   5.411  0.1071  0.9851 -0.3319
    1PA    H15R 1990   1.698   4.530   5.464 -2.6554 -1.1277 -1.8403
    1PA    H15S 1991   1.803   4.384   5.465 -0.3454 -0.3751 -2.2597
    1PA    C114 1992   1.914   4.542   5.400 -0.0648  0.2823 -0.1948
    1PA    H14R 1993   1.969   4.472   5.337 -3.2903 -2.3782 -0.3233
    1PA    H14S 1994   1.902   4.637   5.350  1.1745  0.3294 -0.4423
    1PA    C113 1995   1.979   4.563   5.538 -0.3494  0.1116  0.2805
    1PA    H13R 1996   1.913   4.622   5.602 -0.0369 -2.0383  2.7016
    1PA    H13S 1997   1.993   4.469   5.591  0.9395 -0.1887 -0.5344
    1PA    C112 1998   2.114   4.643   5.509 -0.3818  0.4480 -0.1347
    1PA    H12R 1999   2.166   4.609   5.419  1.5937  1.8964  0.3979
    1PA    H12S 2000   2.092   4.745   5.478 -0.1954  0.6338  0.3466
    1PA    C111 2001   2.212   4.633   5.625 -0.0913 -0.5324 -0.1006
    1PA    H11R 2002   2.193   4.714   5.697 -1.9394 -0.3513 -0.7386
    1PA    H11S 2003   2.191   4.539   5.676  1.0541 -1.0130 -0.4728
    1PA    C110 2004   2.358   4.659   5.578  0.3720 -0.0247  0.3707
    1PA    H10R 2005   2.383   4.571   5.519 -1.4372 -0.9831  0.9645
    1PA    H10S 2006   2.371   4.745   5.512 -0.1478 -0.6712 -0.5918
    1PA     C19 2007   2.454   4.680   5.692  0.1394 -0.9109 -0.5266
    1PA     H9R 2008   2.554   4.684   5.650 -0.1162  0.4344 -1.0639
    1PA     H9S 2009   2.427   4.779   5.730 -1.1471 -1.4884  0.1591
    1PA     C18 2010   2.441   4.581   5.808 -0.3472  0.0388 -0.2680
    1PA     H8R 2011   2.510   4.608   5.888  2.0118 -0.9660 -1.8396
    1PA     H8S 2012   2.343   4.588   5.855  0.2592 -0.6412  1.1509
    1PA     C17 2013   2.475   4.439   5.762  0.1240  1.1324 -0.2128
    1PA     H7R 2014   2.395   4.403   5.698  0.7053 -0.3523 -0.1302
    1PA     H7S 2015   2.562   4.436   5.696 -0.6380  0.5951 -1.2119
    1PA     C16 2016   2.493   4.338   5.877  0.0775 -0.0573 -0.0014
    1PA     H6R 2017   2.535   4.242   5.847  2.6211  1.4239 -1.4902
    1PA     H6S 2018   2.560   4.380   5.953  0.1239 -1.2974  0.6748
    1PA     C15 2019   2.363   4.303   5.951  0.2467  0.7146  0.0824
    1PA     H5R 2020   2.318   4.394   5.993  1.0247  1.3140 -0.3395
    1PA     H5S 2021   2.279   4.273   5.888  0.4486 -0.4863  0.3775
    1PA     C14 2022   2.393   4.197   6.064 -0.1221  0.2124  0.2122
    1PA     H4R 2023   2.399   4.101   6.012 -0.8989  1.3656 -2.1808
    1PA     H4S 2024   2.474   4.217   6.135  0.1693 -0.0123 -0.0541
    1PA     C13 2025   2.258   4.178   6.132  0.6938  0.3483 -0.1977
    1PA     H3R 2026   2.236   4.273   6.182  1.5386  0.4330  0.0191
    1PA     H3S 2027   2.183   4.165   6.053  0.8463  0.9908 -0.4555
    1PA     C12 2028   2.256   4.055   6.225 -0.6275  0.1532 -0.0698
    1PA     H2R 2029   2.155   4.022   6.252  0.8474 -4.3749  0.8831
    1PA     H2S 2030   2.309   3.970   6.180  1.3196  2.3645 -2.2369
    1PC     C11 2031   2.320   4.079   6.355  0.6326 -0.5242 -0.3971
    1PC     O12 2032   2.417   4.150   6.367 -0.3882 -0.6094 -0.7521
    1PC     O11 2033   2.274   4.015   6.463  0.3706 -0.1432  0.0891
    1PC      C1 2034   2.331   4.030   6.595 -0.4360  0.2892  0.7192
    1PC      HR 2035   2.437   4.005   6.588 -0.4661  0.3187  0.0684
    1PC      HS 2036   2.322   4.137   6.615 -0.6539  0.4822 -0.3685
    1PC      C2 2037   2.268   3.945   6.705 -0.7533  0.4432  0.7917
    1PC      HX 2038   2.163   3.974   6.710 -1.0279 -0.3612 -0.0459
    1PC      C3 2039   2.351   3.973   6.840  0.8657  0.0670 -0.3976
    1PC      HA 2040   2.331   3.890   6.908 -3.7854  0.4139 -0.9938
    1PC      HB 2041   2.456   3.982   6.810  1.1114  1.0435  0.6999
    1PC     O31 2042   2.301   4.088   6.906  0.0358 -0.2851 -0.0355
    1PC     P31 2043   2.293   4.090   7.065 -0.4301  0.4273 -0.4506
    1PC     O32 2044   2.445   4.119   7.091 -0.2650  0.3860  0.0315
    1PC     C31 2045   2.500   4.252   7.123 -0.2238  0.1284  1.0037
    1PC     H1A 2046   2.461   4.314   7.041  1.0620 -1.6603 -1.0535
    1PC     H1B 2047   2.452   4.289   7.214  0.1208 -0.3094  1.3642
    1PC     C32 2048   2.657   4.242   7.125  0.2000  0.6625 -0.2655
    1PC     H2A 2049   2.697   4.337   7.158 -1.9249  0.6949  2.6086
    1PC     H2B 2050   2.687   4.164   7.195  1.7130  0.4487 -1.1177
    1PC     N31 2051   2.726   4.205   7.001 -0.0776 -0.3549  0.5276
    1PC     C33 2052   2.685   4.300   6.890  0.1499  0.3443 -0.2022
    1PC     H3A 2053   2.692   4.401   6.929 -4.0566  0.3458  0.9889
    1PC     H3B 2054   2.738   4.284   6.796  2.0640  0.6022  0.7931
    1PC     H3C 2055   2.579   4.287   6.866  0.2152 -1.8704  0.4460
    1PC     C34 2056   2.874   4.238   7.025  0.0040  0.4361 -0.8397
    1PC     H4A 2057   2.918   4.236   6.926  1.9404 -1.1047 -0.0227
    1PC     H4B 2058   2.871   4.338   7.069 -3.1058  0.5192 -1.0089
    1PC     H4C 2059   2.914   4.158   7.087 -4.2011 -0.7712  0.7118
    1PC     C35 2060   2.691   4.059   6.952  0.1505 -0.4391 -0.6116
    1PC     H5A 2061   2.584   4.048   6.938 -0.3629  0.1315  2.2451
    1PC     H5B 2062   2.734   3.988   7.023 -0.8796  0.0749  0.5822
    1PC     H5C 2063   2.729   4.045   6.851  1.7014 -0.6860 -0.0315
    1PC     O33 2064   2.209   4.207   7.098 -0.1127  0.6501 -0.1321
    1PC     O34 2065   2.258   3.954   7.115  0.1826  0.7288  0.1678
    1PC     O21 2066   2.281   3.806   6.673 -0.2392  0.7446  0.2382
    1PC     C21 2067   2.182   3.722   6.716  0.1147  0.8826 -0.6196
    1PC     O22 2068   2.076   3.758   6.759  0.2707  0.1405  0.3141
    1OL     C12 2069   2.211   3.574   6.685  0.6822 -0.1385 -0.5524
    1OL     H2R 2070   2.240   3.538   6.784  1.3876 -0.0605 -0.7252
    1OL     H2S 2071   2.296   3.586   6.618 -0.4957  1.3749 -1.8438
    1OL     C13 2072   2.090   3.502   6.621  0.1446 -0.9315 -0.4007
    1OL     H3R 2073   2.005   3.519   6.687 -0.4332 -0.5352 -1.2369
    1OL     H3S 2074   2.097   3.393   6.622 -2.8936 -1.2652 -2.3703
    1OL     C14 2075   2.045   3.562   6.482  0.0496  0.1532 -1.2507
    1OL     H4R 2076   2.031   3.670   6.493  3.6714  0.7390 -1.3792
    1OL     H4S 2077   1.945   3.519   6.469 -0.1481  0.0246  0.5491
    1OL     C15 2078   2.128   3.550   6.354 -0.1655 -0.0581 -0.1497
    1OL     H5R 2079   2.169   3.449   6.350 -0.3767 -0.1187 -0.8417
    1OL     H5S 2080   2.215   3.617   6.357  0.0098 -0.2831  2.3220
    1OL     C16 2081   2.048   3.582   6.233 -0.1640 -0.2114 -0.2361
    1OL     H6R 2082   2.010   3.682   6.254 -0.4094 -0.7585  2.1340
    1OL     H6S 2083   1.954   3.528   6.223 -0.3840  0.3187 -1.1534
    1OL     C17 2084   2.130   3.569   6.104  0.0090 -0.1161  0.6793
    1OL     H7R 2085   2.224   3.623   6.116 -1.0014  1.6603  0.9298
    1OL     H7S 2086   2.139   3.460   6.093 -0.5062 -0.2080  1.1204
    1OL     C18 2087   2.047   3.625   5.988  0.1876 -0.3143  0.1404
    1OL     H8R 2088   1.954   3.572   5.966  0.4342 -0.8856  0.4512
    1OL     H8S 2089   2.096   3.607   5.892  0.5641  1.1778  0.0300
    1OL     C19 2090   2.022   3.771   6.006  0.0760  0.8527 -0.1237
    1OL     H9R 2091   1.951   3.796   6.084  1.6974  1.4261  1.2256
    1OL    C110 2092   2.094   3.866   5.959 -0.0545 -0.6573 -0.8366
    1OL    H10R 2093   2.070   3.969   5.985  2.6018  0.4082 -2.2085
    1OL    C111 2094   2.217   3.860   5.872  0.2694 -0.1220  0.2708
    1OL    H11R 2095   2.226   3.764   5.822  0.9693 -0.3680  0.8538
    1OL    H11S 2096   2.308   3.857   5.933  0.6877 -0.8668 -0.3722
    1OL    C112 2097   2.225   3.969   5.762 -0.3294  0.2881 -0.0213
    1OL    H12R 2098   2.223   4.070   5.805 -0.4860  0.2597  0.0393
    1OL    H12S 2099   2.144   3.957   5.689  0.8450  0.2222 -1.3617
    1OL    C113 2100   2.357   3.949   5.679 -0.0980 -0.2400 -0.4316
    1OL    H13R 2101   2.347   3.856   5.622 -0.9028 -0.8936  0.7237
    1OL    H13S 2102   2.441   3.943   5.748  0.1784  1.0060 -0.6437
    1OL    C114 2103   2.381   4.070   5.586  0.2643  0.0981 -0.4009
    1OL    H14R 2104   2.462   4.043   5.518  0.6481 -1.3204  0.5582
    1OL    H14S 2105   2.397   4.160   5.646 -0.3718 -0.8923  1.3416
    1OL    C115 2106   2.253   4.090   5.505 -0.5555 -0.2773  0.1136
    1OL    H15R 2107   2.180   4.136   5.572  0.5061 -2.1993  2.7471
    1OL    H15S 2108   2.220   3.999   5.457  2.3640 -2.1491  1.3376
    1OL    C116 2109   2.290   4.190   5.396  0.1338 -0.7198 -0.1381
    1OL    H16R 2110   2.380   4.163   5.340  1.4198  0.6717  1.1825
    1OL    H16S 2111   2.305   4.288   5.441  0.0998 -1.1817  0.8972
    1OL    C117 2112   2.175   4.206   5.303  0.0500 -0.2187  0.2833
    1OL    H17R 2113   2.139   4.105   5.278  1.0079 -0.4339 -0.2711
    1OL    H17S 2114   2.090   4.248   5.356  0.1247  0.6774 -0.2972
    1OL    C118 2115   2.200   4.281   5.165  1.0243  0.3421  0.0637
    1OL    H18R 2116   2.221   4.386   5.189  0.7772  0.2558  0.6822
    1OL    H18S 2117   2.115   4.278   5.097  0.3675 -1.6075  0.8949
    1OL    H18T 2118   2.288   4.239   5.117 -0.2889 -1.5117 -0.8481
    1PA    C116 2119   3.815   4.338   5.150 -0.2972  0.1948 -0.3227
    1PA    H16R 2120   3.827   4.382   5.051  1.6730 -0.6386 -0.5201
    1PA    H16S 2121   3.833   4.230   5.144 -3.3769 -0.3870 -0.6365
    1PA    H16T 2122   3.893   4.377   5.216  1.1635 -1.0507 -1.2335
    1PA    C115 2123   3.675   4.357   5.209  1.1287 -0.7976 -0.8641
    1PA    H15R 2124   3.650   4.463   5.217  0.5696 -0.9693 -0.2107
    1PA    H15S 2125   3.599   4.316   5.143 -2.0100 -0.8788  2.4578
    1PA    C114 2126   3.668   4.279   5.340  1.6844 -0.6328  0.0461
    1PA    H14R 2127   3.564   4.282   5.373  1.8640 -3.3224  1.0538
    1PA    H14S 2128   3.679   4.173   5.319 -0.4071 -0.7392 -0.7942
    1PA    C113 2129   3.769   4.321   5.459  0.2113 -0.2513 -0.3494
    1PA    H13R 2130   3.871   4.329   5.420  0.0129  0.1498 -0.8009
    1PA    H13S 2131   3.727   4.415   5.495  1.2555  0.7065 -1.5285
    1PA    C112 2132   3.771   4.209   5.559 -0.0520 -0.8488 -0.0803
    1PA    H12R 2133   3.670   4.174   5.580 -1.5020  2.5597 -0.7401
    1PA    H12S 2134   3.815   4.122   5.510  0.4462 -0.0227 -1.1431
    1PA    C111 2135   3.842   4.254   5.681  0.1857  0.4607  0.5766
    1PA    H11R 2136   3.946   4.271   5.652 -0.1235  0.0808 -0.8108
    1PA    H11S 2137   3.816   4.352   5.721 -4.0417 -0.8064  1.3553
    1PA    C110 2138   3.838   4.157   5.800 -0.4465 -0.0940 -0.1478
    1PA    H10R 2139   3.736   4.120   5.815 -0.1666 -1.5869 -1.6104
    1PA    H10S 2140   3.885   4.060   5.780 -0.5088 -0.4541  1.2838
    1PA     C19 2141   3.903   4.210   5.927  0.1450 -0.4248  0.2056
    1PA     H9R 2142   4.006   4.245   5.915  0.1166 -0.2049  0.5867
    1PA     H9S 2143   3.852   4.302   5.954  2.1621  0.6516  0.5701
    1PA     C18 2144   3.894   4.125   6.051 -0.2700  0.5461  0.2086
    1PA     H8R 2145   3.790   4.107   6.080 -0.3339  4.0066  2.6360
    1PA     H8S 2146   3.944   4.033   6.020 -1.3866 -0.2919  0.8041
    1PA     C17 2147   3.964   4.173   6.180  0.5128  0.6430  0.7831
    1PA     H7R 2148   4.058   4.223   6.156  0.0676  1.9821  1.6887
    1PA     H7S 2149   3.908   4.252   6.232 -1.2118  0.2573 -0.4145
    1PA     C16 2150   3.987   4.069   6.293 -1.0458 -0.3512  0.3821
    1PA     H6R 2151   4.029   3.983   6.241  2.9139  0.7053  1.4718
    1PA     H6S 2152   4.067   4.105   6.358 -0.7530 -0.6204  0.1707
    1PA     C15 2153   3.856   4.038   6.368  0.0467  0.6749 -0.2213
    1PA     H5R 2154   3.785   4.000   6.295  0.4071  2.9517 -1.8715
    1PA     H5S 2155   3.892   3.954   6.428 -0.1026  1.1364  0.5289
    1PA     C14 2156   3.792   4.157   6.460  0.2523 -0.0899  0.0025
    1PA     H4R 2157   3.725   4.224   6.406  1.6145  0.4789 -1.0483
    1PA     H4S 2158   3.721   4.120   6.535  0.5249 -0.1857  0.2147
    1PA     C13 2159   3.888   4.253   6.537  0.1368  0.6110  0.6640
    1PA     H3R 2160   3.955   4.293   6.460  0.8179  0.8206  1.3632
    1PA     H3S 2161   3.840   4.344   6.572  0.5988  1.5344 -0.9637
    1PA     C12 2162   3.979   4.182   6.638  0.8133 -0.8359 -0.4615
    1PA     H2R 2163   3.923   4.134   6.718  0.6873  0.7246  0.4235
    1PA     H2S 2164   4.033   4.111   6.575  0.4200 -0.2861 -1.4602
    1PC     C11 2165   4.076   4.289   6.687 -0.7638  0.9445 -0.3532
    1PC     O12 2166   4.186   4.308   6.639 -0.6482  0.3379  0.2110
    1PC     O11 2167   4.027   4.366   6.786  0.0651 -0.1176  0.2906
    1PC      C1 2168   4.120   4.458   6.846 -0.4670  0.6747 -0.7781
    1PC      HR 2169   4.142   4.438   6.951  1.9048  0.5846 -1.2371
    1PC      HS 2170   4.215   4.455   6.792 -1.4628  1.2245 -2.6476
    1PC      C2 2171   4.052   4.600   6.842  0.3680 -0.2324 -0.0901
    1PC      HX 2172   4.098   4.672   6.911 -0.0138 -0.3327  0.2743
    1PC      C3 2173   3.901   4.593   6.889  0.0642 -0.3536 -0.5079
    1PC      HA 2174   3.857   4.692   6.884 -1.1159 -0.9102 -1.5342
    1PC      HB 2175   3.834   4.530   6.830 -3.2094  1.3048  1.1841
    1PC     O31 2176   3.889   4.541   7.022  0.7438 -0.2721  0.2587
    1PC     P31 2177   3.947   4.597   7.157  0.2032 -0.6158 -0.3517
    1PC     O32 2178   4.058   4.490   7.207 -0.4451  0.0546  0.0275
    1PC     C31 2179   4.017   4.372   7.272 -0.2601  0.2984 -0.1264
    1PC     H1A 2180   3.914   4.361   7.237 -0.4831 -0.6201  0.7682
    1PC     H1B 2181   4.074   4.287   7.232 -1.8699  0.5690 -3.3625
    1PC     C32 2182   4.029   4.387   7.431 -0.0409 -0.1214  0.4684
    1PC     H2A 2183   4.122   4.440   7.451  0.1208 -0.8207  1.6344
    1PC     H2B 2184   3.949   4.457   7.459 -0.1647 -0.1166  0.1095
    1PC     N31 2185   4.026   4.264   7.515 -0.5124  0.8240 -0.0121
    1PC     C33 2186   3.894   4.190   7.513 -0.0009  0.0977 -0.7431
    1PC     H3A 2187   3.817   4.253   7.556  1.0856  1.2721 -0.4419
    1PC     H3B 2188   3.878   4.135   7.420 -0.7308 -0.4651 -0.2972
    1PC     H3C 2189   3.923   4.117   7.588  2.0996  2.2163  0.6401
    1PC     C34 2190   4.134   4.170   7.475  0.1269 -0.4061 -0.1684
    1PC     H4A 2191   4.149   4.099   7.556  2.1233 -1.5277 -1.4278
    1PC     H4B 2192   4.107   4.112   7.386 -2.0942  0.0674  0.1319
    1PC     H4C 2193   4.227   4.225   7.462 -0.6564  1.4467  1.5513
    1PC     C35 2194   4.066   4.298   7.656  0.0596 -0.0643  0.3362
    1PC     H5A 2195   4.062   4.206   7.715  0.6758 -0.2419  0.1126
    1PC     H5B 2196   3.990   4.372   7.682  1.1950  1.5855 -0.8540
    1PC     H5C 2197   4.165   4.344   7.659 -1.3606  3.4389 -1.1779
    1PC     O33 2198   4.018   4.718   7.110  0.0755 -0.0757 -0.4199
    1PC     O34 2199   3.841   4.611   7.264 -0.2416  0.0782  0.3689
    1PC     O21 2200   4.048   4.650   6.703 -0.6789 -0.2936  0.0124
    1PC     C21 2201   4.164   4.695   6.654 -0.0549  0.0482  0.5397
    1PC     O22 2202   4.273   4.674   6.708  0.1752 -0.3666 -0.5422
    1OL     C12 2203   4.157   4.768   6.523 -0.3433  0.6026 -0.7723
    1OL     H2R 2204   4.164   4.874   6.547  0.7045  0.1746  1.0074
    1OL     H2S 2205   4.060   4.749   6.476 -0.3982 -2.0888  0.2332
    1OL     C13 2206   4.263   4.728   6.416 -0.0967 -0.0119  0.1701
    1OL     H3R 2207   4.358   4.776   6.438  0.2865 -0.3839 -0.6374
    1OL     H3S 2208   4.242   4.779   6.321 -0.3353  0.8008  0.6464
    1OL     C14 2209   4.279   4.576   6.387  0.4960  0.1527  0.2652
    1OL     H4R 2210   4.201   4.537   6.322  0.9018 -1.4705  0.7021
    1OL     H4S 2211   4.275   4.512   6.475 -0.3011 -0.6426 -0.3309
    1OL     C15 2212   4.414   4.542   6.320 -0.5397 -0.0844 -1.3248
    1OL     H5R 2213   4.477   4.524   6.408 -2.6986 -0.4141  0.2417
    1OL     H5S 2214   4.440   4.628   6.258  1.0139 -0.3780 -1.1373
    1OL     C16 2215   4.408   4.407   6.245 -0.0648  0.3213  0.6237
    1OL     H6R 2216   4.350   4.410   6.152  1.2836  0.8263 -0.2393
    1OL     H6S 2217   4.350   4.335   6.302 -1.9701  1.0684 -0.2914
    1OL     C17 2218   4.546   4.353   6.211 -0.3078 -0.3491  0.0958
    1OL     H7R 2219   4.592   4.328   6.307  0.2441 -2.2557 -0.6178
    1OL     H7S 2220   4.604   4.434   6.166 -1.5271  0.8675  0.6549
    1OL     C18 2221   4.542   4.228   6.125  0.1162  0.1813 -0.3626
    1OL     H8R 2222   4.467   4.244   6.048  1.7924  3.0974 -1.5434
    1OL     H8S 2223   4.504   4.158   6.200 -1.7151  0.8123 -0.6637
    1OL     C19 2224   4.683   4.186   6.087 -0.3108  0.5979 -0.9461
    1OL     H9R 2225   4.761   4.191   6.163  0.5203  3.4625 -1.8800
    1OL    C110 2226   4.727   4.168   5.962  0.2346 -0.2490 -0.0361
    1OL    H10R 2227   4.833   4.147   5.951  0.1436 -1.3385  0.9939
    1OL    C111 2228   4.641   4.181   5.841 -0.4316 -0.6073  0.2677
    1OL    H11R 2229   4.544   4.135   5.859 -0.7046 -0.0408  0.2722
    1OL    H11S 2230   4.695   4.125   5.764  2.1430  2.6070 -0.5470
    1OL    C112 2231   4.625   4.323   5.799 -0.8923  0.1102 -0.1366
    1OL    H12R 2232   4.722   4.372   5.805 -0.9068  0.0145  1.6142
    1OL    H12S 2233   4.555   4.380   5.861 -1.5493  2.1659 -2.5829
    1OL    C113 2234   4.567   4.343   5.653 -0.1293  0.3606  0.1003
    1OL    H13R 2235   4.630   4.302   5.574 -0.2963 -1.4186  0.8488
    1OL    H13S 2236   4.570   4.452   5.639  0.4493  0.2330 -0.8187
    1OL    C114 2237   4.420   4.296   5.631  0.2475 -0.2796 -0.0819
    1OL    H14R 2238   4.380   4.322   5.729 -1.9553 -0.4382 -0.8725
    1OL    H14S 2239   4.416   4.187   5.638  0.3605 -0.2358  0.7796
    1OL    C115 2240   4.337   4.352   5.509 -0.0497 -0.3093  0.4807
    1OL    H15R 2241   4.305   4.453   5.531 -1.9095 -0.6313 -0.5307
    1OL    H15S 2242   4.258   4.277   5.498 -0.2305  0.0190 -0.6460
    1OL    C116 2243   4.430   4.350   5.389  1.0797 -0.0136  0.1416
    1OL    H16R 2244   4.483   4.255   5.378 -0.3850 -0.6281 -2.0881
    1OL    H16S 2245   4.499   4.435   5.387 -0.4452  1.3353 -3.8022
    1OL    C117 2246   4.360   4.374   5.256  0.2012 -0.1543 -0.1559
    1OL    H17R 2247   4.440   4.383   5.182  1.5711 -1.3743  1.1164
    1OL    H17S 2248   4.297   4.463   5.254 -0.5203 -0.6614 -0.6508
    1OL    C118 2249   4.258   4.260   5.212  0.5698 -0.1708 -0.7407
    1OL    H18R 2250   4.282   4.165   5.260 -0.0384  0.4761  0.9473
    1OL    H18S 2251   4.247   4.254   5.104 -4.5389 -1.0938 -0.4409
    1OL    H18T 2252   4.161   4.295   5.248  1.0203  1.3692 -0.9438
    1PA    C116 2253   5.142   2.723   5.890  0.8984  0.5151  0.2786
    1PA    H16R 2254   5.196   2.788   5.959  1.9458  1.0721 -1.0464
    1PA    H16S 2255   5.211   2.684   5.816  0.3238  1.9855 -1.0870
    1PA    H16T 2256   5.088   2.643   5.943  1.2379 -0.5168 -0.8978
    1PA    C115 2257   5.033   2.807   5.820  0.6850 -0.4199 -0.0770
    1PA    H15R 2258   5.074   2.896   5.774 -2.5526  0.9724 -0.5606
    1PA    H15S 2259   4.984   2.747   5.744 -3.3787  0.2077  1.7499
    1PA    C114 2260   4.910   2.846   5.907  0.1493 -0.7503 -0.0987
    1PA    H14R 2261   4.859   2.757   5.943  0.5407 -0.4305  1.2762
    1PA    H14S 2262   4.939   2.901   5.997  0.5647 -1.0790 -0.0315
    1PA    C113 2263   4.811   2.931   5.832 -0.5082  0.1418 -0.0454
    1PA    H13R 2264   4.863   3.020   5.795  0.4606 -0.6811 -0.7413
    1PA    H13S 2265   4.793   2.879   5.737  1.9544 -0.7940 -0.0869
    1PA    C112 2266   4.691   2.962   5.917  0.4619 -0.7761 -0.2336
    1PA    H12R 2267   4.639   2.868   5.938  0.9514 -1.0806 -0.3537
    1PA    H12S 2268   4.725   3.010   6.009 -1.9176  0.4265  0.0968
    1PA    C111 2269   4.593   3.057   5.843 -0.0413  0.0891  0.0471
    1PA    H11R 2270   4.513   3.059   5.918 -0.7129 -0.9423 -0.6143
    1PA    H11S 2271   4.641   3.154   5.828  0.7545 -0.1139  1.2142
    1PA    C110 2272   4.529   3.008   5.706  0.0528  0.8392 -0.2777
    1PA    H10R 2273   4.596   2.989   5.621 -0.2565 -0.6453 -0.2202
    1PA    H10S 2274   4.494   2.910   5.740  2.0210 -0.0641 -0.7119
    1PA     C19 2275   4.404   3.082   5.655  0.6074  0.0932  0.1166
    1PA     H9R 2276   4.356   3.022   5.578  1.3514  0.1630 -0.4209
    1PA     H9S 2277   4.346   3.090   5.746 -1.1480 -0.5929 -0.8966
    1PA     C18 2278   4.440   3.214   5.598  0.4557  0.3880  0.7898
    1PA     H8R 2279   4.499   3.268   5.673 -1.2327  0.8855  1.8397
    1PA     H8S 2280   4.504   3.195   5.512  0.0862 -2.4219  1.0621
    1PA     C17 2281   4.325   3.314   5.566 -0.4705  0.3577 -0.2926
    1PA     H7R 2282   4.371   3.410   5.541  1.1661 -1.0167 -3.0844
    1PA     H7S 2283   4.273   3.271   5.480  1.5936 -1.0815 -0.8966
    1PA     C16 2284   4.228   3.337   5.674 -0.1089 -0.7908 -0.3507
    1PA     H6R 2285   4.167   3.424   5.649  0.5973 -0.3879 -0.6834
    1PA     H6S 2286   4.161   3.251   5.676 -1.2030 -0.0024 -1.5392
    1PA     C15 2287   4.293   3.354   5.808 -0.3403 -0.0775 -0.6147
    1PA     H5R 2288   4.338   3.265   5.852  2.6521  2.0466  1.0280
    1PA     H5S 2289   4.374   3.427   5.797 -0.6536  0.2514 -0.7923
    1PA     C14 2290   4.191   3.402   5.910 -0.4779  0.2074  0.0036
    1PA     H4R 2291   4.146   3.494   5.870 -1.1604  0.2084  0.7563
    1PA     H4S 2292   4.108   3.331   5.917  0.8915 -1.4871 -0.4635
    1PA     C13 2293   4.256   3.442   6.044 -0.1260  0.2699 -0.2338
    1PA     H3R 2294   4.333   3.518   6.024  1.1945 -1.2874 -1.2709
    1PA     H3S 2295   4.183   3.481   6.115 -0.2035 -0.6905  0.2177
    1PA     C12 2296   4.327   3.326   6.118  0.2466 -0.2062 -0.5449
    1PA     H2R 2297   4.263   3.239   6.134  0.6855 -0.7875 -1.8369
    1PA     H2S 2298   4.399   3.278   6.051 -0.5568 -1.3403 -0.6066
    1PC     C11 2299   4.388   3.369   6.249 -0.0949 -0.4600  0.0161
    1PC     O12 2300   4.472   3.457   6.252  0.3804  0.8334 -0.0470
    1PC     O11 2301   4.340   3.308   6.354  0.9689  0.3752 -0.5373
    1PC      C1 2302   4.396   3.337   6.486 -0.1238 -0.2330  0.3167
    1PC      HR 2303   4.412   3.444   6.505  1.1796 -0.3902  0.1580
    1PC      HS 2304   4.325   3.301   6.562 -1.3126  1.3406  0.0172
    1PC      C2 2305   4.529   3.262   6.506 -0.3757  0.7717 -0.3087
    1PC      HX 2306   4.526   3.165   6.457 -1.8337  1.4505 -1.6626
    1PC      C3 2307   4.564   3.255   6.656 -0.3319 -0.4365  0.1430
    1PC      HA 2308   4.471   3.230   6.708 -1.8814  0.4263 -2.0404
    1PC      HB 2309   4.650   3.192   6.678 -0.1292 -0.4315 -0.6183
    1PC     O31 2310   4.595   3.392   6.704 -0.3708  0.0815  0.0859
    1PC     P31 2311   4.648   3.439   6.848  0.1386  0.1607 -0.2114
    1PC     O32 2312   4.804   3.393   6.839  0.3104  0.0812 -0.2191
    1PC     C31 2313   4.860   3.313   6.950 -0.2354  0.2149  0.2389
    1PC     H1A 2314   4.968   3.327   6.949 -0.2201  1.2965 -4.1488
    1PC     H1B 2315   4.819   3.355   7.042 -2.5168  0.9204 -1.0293
    1PC     C32 2316   4.824   3.163   6.945  0.0502 -0.1954  0.1563
    1PC     H2A 2317   4.718   3.148   6.925 -0.3280 -0.1802  1.9713
    1PC     H2B 2318   4.885   3.105   6.876  0.5457  1.6554 -1.0158
    1PC     N31 2319   4.839   3.087   7.072  0.5566 -0.3016  0.2275
    1PC     C33 2320   4.742   3.131   7.170  0.5008  0.0898 -0.6763
    1PC     H3A 2321   4.764   3.232   7.205 -3.1828  1.3528 -1.5488
    1PC     H3B 2322   4.644   3.131   7.123 -0.2007  2.5086  0.6002
    1PC     H3C 2323   4.744   3.065   7.258  0.9851  0.5979 -0.3041
    1PC     C34 2324   4.808   2.944   7.048 -0.6170  0.0545  0.0078
    1PC     H4A 2325   4.891   2.912   6.985 -2.5892 -0.9283 -2.2355
    1PC     H4B 2326   4.788   2.900   7.146 -1.8611  0.1789 -0.1683
    1PC     H4C 2327   4.720   2.943   6.982  0.7745 -0.5896 -1.9285
    1PC     C35 2328   4.973   3.092   7.126  0.1811  0.1441  0.3346
    1PC     H5A 2329   4.979   3.021   7.209  0.5955 -2.0266 -1.4341
    1PC     H5B 2330   4.982   3.196   7.156 -0.4407  0.7961 -1.5598
    1PC     H5C 2331   5.045   3.071   7.046  0.3287 -0.3008  0.5787
    1PC     O33 2332   4.639   3.584   6.866 -0.6228 -0.3385  0.3879
    1PC     O34 2333   4.583   3.354   6.948 -0.1995  0.6448 -0.1889
    1PC     O21 2334   4.633   3.334   6.443 -0.0131  0.0278 -0.0768
    1PC     C21 2335   4.750   3.276   6.425 -0.2971 -0.0511 -0.4633
    1PC     O22 2336   4.777   3.160   6.443 -0.2174 -0.6356 -0.4843
    1OL     C12 2337   4.860   3.364   6.375 -0.9703 -0.0381  0.1436
    1OL     H2R 2338   4.952   3.326   6.419 -1.9661 -0.6322  1.8045
    1OL     H2S 2339   4.852   3.470   6.399 -1.7464  0.3171 -1.5177
    1OL     C13 2340   4.847   3.376   6.221 -0.0588  0.6175  0.2625
    1OL     H3R 2341   4.931   3.432   6.180 -0.6189  0.7204 -0.7774
    1OL     H3S 2342   4.757   3.433   6.195 -0.6991  0.4976  2.0354
    1OL     C14 2343   4.841   3.251   6.143  0.3241  0.4643  0.6590
    1OL     H4R 2344   4.740   3.211   6.149  0.4324  0.1090  0.1514
    1OL     H4S 2345   4.906   3.185   6.201 -0.8191 -1.0939  0.2240
    1OL     C15 2346   4.888   3.261   5.996  0.1733  0.3047 -0.7891
    1OL     H5R 2347   4.878   3.165   5.945  0.5051 -1.1482  1.7102
    1OL     H5S 2348   4.995   3.282   5.997  0.2663 -0.1409  0.2956
    1OL     C16 2349   4.829   3.372   5.915  0.5403  0.3103 -0.4875
    1OL     H6R 2350   4.840   3.457   5.983 -2.4217 -0.6109  1.3192
    1OL     H6S 2351   4.721   3.357   5.918  0.4196  0.9542 -1.3137
    1OL     C17 2352   4.897   3.402   5.777  0.9837 -0.3648 -1.2308
    1OL     H7R 2353   5.003   3.380   5.789  1.1637  1.3506  0.7742
    1OL     H7S 2354   4.890   3.508   5.750  2.5652  0.1125  0.0723
    1OL     C18 2355   4.838   3.318   5.669  0.0628  0.0143 -0.1565
    1OL     H8R 2356   4.729   3.322   5.674  0.0940  0.4486  0.2530
    1OL     H8S 2357   4.859   3.213   5.693 -1.4008 -0.5929 -1.3711
    1OL     C19 2358   4.878   3.355   5.525 -0.5806 -0.1101 -0.1339
    1OL     H9R 2359   4.827   3.444   5.488 -0.5711  1.4262  3.1823
    1OL    C110 2360   4.984   3.313   5.459 -0.3887 -0.1206  0.0330
    1OL    H10R 2361   5.014   3.365   5.368  2.2574 -1.6746 -0.0639
    1OL    C111 2362   5.081   3.209   5.506 -0.2044 -0.8837  0.6616
    1OL    H11R 2363   5.091   3.201   5.615  2.7835  0.0774  0.5273
    1OL    H11S 2364   5.178   3.226   5.459 -0.4444  2.4564  1.1400
    1OL    C112 2365   5.041   3.065   5.461  0.7515 -0.2698  0.0993
    1OL    H12R 2366   5.010   3.062   5.356  1.5019 -0.0978 -0.1319
    1OL    H12S 2367   4.953   3.022   5.509  1.5447 -1.6318  0.3941
    1OL    C113 2368   5.154   2.963   5.488  0.7247  0.5221  0.0762
    1OL    H13R 2369   5.104   2.866   5.485 -1.8040  1.7781 -1.2288
    1OL    H13S 2370   5.204   2.975   5.584  2.7824  0.7310 -0.9528
    1OL    C114 2371   5.269   2.971   5.388  0.2468  0.4565 -0.1996
    1OL    H14R 2372   5.317   3.065   5.415 -0.9515  0.6905  1.2815
    1OL    H14S 2373   5.233   2.980   5.286 -0.1446 -0.1924 -0.1266
    1OL    C115 2374   5.362   2.855   5.399  0.6624  0.0187  0.0278
    1OL    H15R 2375   5.303   2.767   5.374 -0.1896 -0.5255  3.4983
    1OL    H15S 2376   5.396   2.850   5.503  0.7811  3.4702  0.2891
    1OL    C116 2377   5.486   2.862   5.306  0.2212  0.3479  0.0848
    1OL    H16R 2378   5.555   2.778   5.312 -2.8554 -2.2940  2.1376
    1OL    H16S 2379   5.544   2.947   5.342 -0.9744  0.5922  1.5438
    1OL    C117 2380   5.447   2.876   5.155  0.0817 -0.2238 -0.1175
    1OL    H17R 2381   5.411   2.977   5.136  2.0196  1.0866  2.5993
    1OL    H17S 2382   5.375   2.803   5.117 -0.0429  0.0222 -0.3552
    1OL    C118 2383   5.570   2.866   5.065 -0.5435  0.0303 -0.6859
    1OL    H18R 2384   5.530   2.886   4.966 -1.2482  1.9900 -0.0415
    1OL    H18S 2385   5.622   2.772   5.084 -0.1958  0.5751  1.2351
    1OL    H18T 2386   5.633   2.951   5.093 -0.4436 -0.5632  0.9713
    1PA    C116 2387   1.635   3.102   5.962  0.1071 -0.3618 -0.1777
    1PA    H16R 2388   1.739   3.086   5.933 -0.0963 -1.5427 -0.3284
    1PA    H16S 2389   1.590   3.010   6.001  2.6464 -2.3129 -1.5316
    1PA    H16T 2390   1.642   3.174   6.044 -1.2376  0.3338 -0.6348
    1PA    C115 2391   1.540   3.151   5.844  0.4256 -0.5350 -0.5478
    1PA    H15R 2392   1.487   3.069   5.795 -1.9100  0.7115 -0.2303
    1PA    H15S 2393   1.458   3.215   5.876  2.1644  2.3708 -1.5535
    1PA    C114 2394   1.626   3.228   5.752 -0.2110 -0.2990  0.4588
    1PA    H14R 2395   1.713   3.168   5.726 -0.4588 -0.2979 -0.4076
    1PA    H14S 2396   1.583   3.236   5.651  0.2320  2.8500  0.4090
    1PA    C113 2397   1.685   3.367   5.798  0.2654 -0.1435  0.4675
    1PA    H13R 2398   1.753   3.345   5.880 -0.8585 -2.4933  0.8237
    1PA    H13S 2399   1.752   3.404   5.720 -1.7186  0.6746 -0.9384
    1PA    C112 2400   1.591   3.471   5.834  0.5511  0.1635  0.4703
    1PA    H12R 2401   1.552   3.508   5.739  2.2909  2.8276  0.6760
    1PA    H12S 2402   1.508   3.426   5.888  0.3486  0.1268  0.1296
    1PA    C111 2403   1.663   3.584   5.906 -0.3586 -0.5879 -0.2796
    1PA    H11R 2404   1.685   3.553   6.008 -0.1946  3.1650  0.9773
    1PA    H11S 2405   1.748   3.620   5.848  0.0838 -2.0791 -0.6006
    1PA    C110 2406   1.562   3.704   5.931 -0.4708 -0.0488 -0.5870
    1PA    H10R 2407   1.511   3.718   5.835  2.0238  0.3932 -1.9202
    1PA    H10S 2408   1.489   3.679   6.008 -1.7448  1.7886 -1.1267
    1PA     C19 2409   1.637   3.833   5.975 -0.0608  0.5620 -0.2498
    1PA     H9R 2410   1.731   3.835   5.920  0.1766 -2.0289 -0.0807
    1PA     H9S 2411   1.569   3.909   5.934  1.2662  0.8367 -2.0687
    1PA     C18 2412   1.682   3.840   6.122  0.5255 -0.4029 -0.3947
    1PA     H8R 2413   1.595   3.815   6.182 -0.3649  0.9214 -1.0734
    1PA     H8S 2414   1.757   3.765   6.145 -0.4301 -1.5521 -0.9360
    1PA     C17 2415   1.738   3.990   6.146 -0.1182  0.1272 -0.8750
    1PA     H7R 2416   1.829   4.006   6.088  0.3957 -0.1389 -0.1509
    1PA     H7S 2417   1.668   4.064   6.105 -0.4675 -0.0728 -0.6464
    1PA     C16 2418   1.770   4.019   6.294  0.4300 -0.1292 -0.3352
    1PA     H6R 2419   1.813   4.119   6.304  1.5686 -0.5729 -0.7028
    1PA     H6S 2420   1.680   4.016   6.357  1.3468  1.5948  1.1697
    1PA     C15 2421   1.887   3.929   6.334  0.4048 -0.4640  0.1099
    1PA     H5R 2422   1.845   3.828   6.334 -2.1285  0.5082 -0.5171
    1PA     H5S 2423   1.962   3.952   6.258 -0.7521  1.4938 -0.5118
    1PA     C14 2424   1.941   3.958   6.476  0.0914  0.1293 -0.0610
    1PA     H4R 2425   2.019   3.889   6.510  1.7828  1.1568 -1.6854
    1PA     H4S 2426   1.985   4.058   6.470  1.6367 -0.4528  0.8962
    1PA     C13 2427   1.848   3.968   6.596 -0.7086  0.3928  0.2057
    1PA     H3R 2428   1.917   3.991   6.678  1.9864 -0.2921 -1.7108
    1PA     H3S 2429   1.789   4.059   6.581  1.2810  2.2268  2.6282
    1PA     C12 2430   1.769   3.843   6.622  0.2578 -0.9262 -0.6314
    1PA     H2R 2431   1.696   3.833   6.542  0.1977  2.5563 -1.1435
    1PA     H2S 2432   1.823   3.748   6.630  0.0647 -0.9366  1.0750
    1PC     C11 2433   1.694   3.847   6.759  0.6835 -0.1472  0.3373
    1PC     O12 2434   1.720   3.924   6.847 -0.1167 -0.6958 -0.5387
    1PC     O11 2435   1.594   3.760   6.767 -0.2074 -0.4134  0.5519
    1PC      C1 2436   1.561   3.718   6.901  0.2248  0.4831  0.0503
    1PC      HR 2437   1.643   3.731   6.972 -0.6485 -1.5073  1.5059
    1PC      HS 2438   1.476   3.775   6.939 -1.4965 -1.6829 -0.3010
    1PC      C2 2439   1.536   3.564   6.913 -0.3482 -0.0753  0.4235
    1PC      HX 2440   1.437   3.541   6.872  0.5606 -0.4177 -1.6514
    1PC      C3 2441   1.520   3.525   7.067 -0.4076  0.1537  0.5577
    1PC      HA 2442   1.419   3.551   7.099  0.3399  0.4955  2.8130
    1PC      HB 2443   1.532   3.418   7.083  0.5901  0.6500  3.8934
    1PC     O31 2444   1.610   3.593   7.154 -0.3656 -0.5754  0.0970
    1PC     P31 2445   1.705   3.521   7.258 -0.1066  0.0837 -0.0182
    1PC     O32 2446   1.817   3.464   7.163 -0.4800 -0.3290  0.6947
    1PC     C31 2447   1.944   3.542   7.128  0.6270  0.1287 -0.1474
    1PC     H1A 2448   1.914   3.640   7.092 -2.2848 -0.6858 -0.2033
    1PC     H1B 2449   1.998   3.552   7.222  0.9758  1.5016 -0.4749
    1PC     C32 2450   2.020   3.458   7.019  0.0652 -1.2574 -0.1632
    1PC     H2A 2451   1.958   3.458   6.930 -0.8614  1.3350  0.3819
    1PC     H2B 2452   2.103   3.520   6.984 -1.3667  0.8694  0.0588
    1PC     N31 2453   2.072   3.326   7.049 -0.1147  0.0897 -0.2929
    1PC     C33 2454   1.970   3.219   7.045  0.3491 -0.1100  0.6599
    1PC     H3A 2455   1.928   3.217   7.146  0.7776 -0.5971  0.8307
    1PC     H3B 2456   1.892   3.239   6.971  1.9664  0.3588 -0.9814
    1PC     H3C 2457   2.011   3.120   7.023 -2.5128 -1.2297 -0.1549
    1PC     C34 2458   2.163   3.283   6.942 -0.2110 -0.1218  0.1039
    1PC     H4A 2459   2.226   3.202   6.978  0.1459 -0.3822 -1.0450
    1PC     H4B 2460   2.104   3.232   6.865 -0.2953 -0.1513  0.1879
    1PC     H4C 2461   2.230   3.366   6.919  0.3473 -0.3254  0.9690
    1PC     C35 2462   2.144   3.323   7.180 -0.4316  0.0066  0.4055
    1PC     H5A 2463   2.183   3.221   7.184  2.5018  0.9843 -0.8664
    1PC     H5B 2464   2.061   3.344   7.248 -0.1781  1.5655  0.2643
    1PC     H5C 2465   2.224   3.397   7.183 -0.7024  0.2851  1.2324
    1PC     O33 2466   1.767   3.623   7.351  0.2829 -0.3584 -0.0056
    1PC     O34 2467   1.636   3.405   7.309  0.0011  0.3708 -0.1998
    1PC     O21 2468   1.644   3.502   6.845 -0.3677  0.2716  0.2792
    1PC     C21 2469   1.639   3.375   6.809  0.1322 -0.2709  0.3044
    1PC     O22 2470   1.559   3.296   6.851 -0.1745 -0.1617  0.2463
    1OL     C12 2471   1.758   3.355   6.720 -0.1685 -0.1189 -0.4822
    1OL     H2R 2472   1.845   3.332   6.781 -0.4414 -1.4609 -0.5611
    1OL     H2S 2473   1.784   3.450   6.674 -2.7520  0.1955 -1.4923
    1OL     C13 2474   1.725   3.251   6.611 -0.3053 -0.2445 -0.1011
    1OL     H3R 2475   1.651   3.288   6.540 -1.9541 -0.0368  1.6177
    1OL     H3S 2476   1.665   3.171   6.656 -0.7237  0.5312  0.7600
    1OL     C14 2477   1.842   3.200   6.529 -0.1306 -0.4541 -0.2776
    1OL     H4R 2478   1.908   3.140   6.592  2.3370  1.7392 -0.6213
    1OL     H4S 2479   1.905   3.279   6.489  1.0443 -0.0402  2.1507
    1OL     C15 2480   1.807   3.109   6.421  0.4617  0.4205  0.7538
    1OL     H5R 2481   1.756   3.167   6.343 -2.1237 -1.8351  0.6167
    1OL     H5S 2482   1.731   3.044   6.465  0.2914  0.9069  1.1836
    1OL     C16 2483   1.928   3.021   6.373  0.3347 -0.2731  0.0993
    1OL     H6R 2484   1.881   2.938   6.319  0.4628  0.4925 -1.2305
    1OL     H6S 2485   1.978   2.978   6.460 -1.0057  0.7243  1.4255
    1OL     C17 2486   2.043   3.087   6.294  0.7220  0.5191 -0.4926
    1OL     H7R 2487   2.121   3.012   6.281  0.6495  0.4746 -0.6683
    1OL     H7S 2488   2.092   3.165   6.351  0.8424  1.6953 -2.1513
    1OL     C18 2489   2.007   3.139   6.158  0.0921 -1.2831  1.0645
    1OL     H8R 2490   1.935   3.217   6.181  1.6767  0.2515  1.0722
    1OL     H8S 2491   1.975   3.053   6.100 -0.4826 -0.0864 -0.4711
    1OL     C19 2492   2.125   3.216   6.085  0.6006  0.1386 -0.8919
    1OL     H9R 2493   2.190   3.267   6.155 -1.3155  0.7596  0.5206
    1OL    C110 2494   2.138   3.226   5.955 -0.3115  0.3719  0.8207
    1OL    H10R 2495   2.220   3.279   5.905 -0.8457  0.8634  0.4521
    1OL    C111 2496   2.030   3.168   5.860 -0.1893 -0.7494 -0.2567
    1OL    H11R 2497   1.974   3.248   5.811  0.0087 -0.7045 -0.4088
    1OL    H11S 2498   1.956   3.105   5.910  2.5687 -4.2307 -0.1349
    1OL    C112 2499   2.098   3.088   5.745 -0.4050  0.1867  0.1739
    1OL    H12R 2500   2.150   3.154   5.676 -0.2255  1.0424  1.1016
    1OL    H12S 2501   2.015   3.046   5.687 -0.9073  0.5665  0.6065
    1OL    C113 2502   2.172   2.964   5.781 -0.1627 -0.3791  0.6985
    1OL    H13R 2503   2.109   2.883   5.819  0.1427 -0.3237  1.3386
    1OL    H13S 2504   2.246   2.979   5.860  1.2537 -1.6579 -0.3137
    1OL    C114 2505   2.247   2.898   5.663  0.5224 -0.3459  0.3104
    1OL    H14R 2506   2.177   2.891   5.580  2.5719  1.1867 -1.7138
    1OL    H14S 2507   2.281   2.800   5.695 -1.6999 -1.2952 -0.0774
    1OL    C115 2508   2.361   2.990   5.610 -0.2252 -0.1606  0.0210
    1OL    H15R 2509   2.333   3.096   5.604  0.5351  0.0191 -0.5616
    1OL    H15S 2510   2.377   2.957   5.507 -2.3837  0.8111 -0.6906
    1OL    C116 2511   2.494   2.990   5.689 -0.9102  0.2937  0.0337
    1OL    H16R 2512   2.516   2.883   5.701  5.2389  0.6466 -3.7257
    1OL    H16S 2513   2.480   3.029   5.789  0.1791 -0.4890  0.5080
    1OL    C117 2514   2.622   3.048   5.618  0.2086 -0.2344 -0.1562
    1OL    H17R 2515   2.709   3.020   5.677 -0.9090 -2.6191  0.4834
    1OL    H17S 2516   2.630   3.156   5.611  0.3734 -0.3427 -2.9596
    1OL    C118 2517   2.650   2.979   5.484  0.8564 -0.2831 -0.4866
    1OL    H18R 2518   2.748   3.008   5.446  1.0160  2.2822  1.5972
    1OL    H18S 2519   2.579   3.006   5.405 -1.1018  0.2472  1.3646
    1OL    H18T 2520   2.650   2.874   5.514 -0.5489 -0.1708 -0.0166
    1PA    C116 2521   2.202   1.854   5.041 -0.3274 -0.4229  0.1379
    1PA    H16R 2522   2.268   1.940   5.047 -2.8058  1.6835 -0.5512
    1PA    H16S 2523   2.116   1.896   4.987  0.5019  0.5300 -0.4664
    1PA    H16T 2524   2.240   1.767   4.987  0.3676  0.0157 -0.0935
    1PA    C115 2525   2.157   1.799   5.176  0.4374  0.3782 -0.2144
    1PA    H15R 2526   2.236   1.732   5.212  0.9497  0.0909 -1.7915
    1PA    H15S 2527   2.128   1.880   5.243 -2.1986 -0.4213 -0.2494
    1PA    C114 2528   2.031   1.713   5.140  0.2018  0.2971  0.5046
    1PA    H14R 2529   1.960   1.763   5.073  2.8683  0.0184 -2.7758
    1PA    H14S 2530   2.068   1.628   5.083  0.2904  0.9016 -0.3721
    1PA    C113 2531   1.959   1.647   5.258 -0.0977 -0.3027 -0.3159
    1PA    H13R 2532   1.903   1.557   5.233  0.8772 -2.0441  3.2311
    1PA    H13S 2533   2.041   1.598   5.311 -2.7283 -2.1461  2.3750
    1PA    C112 2534   1.876   1.744   5.341 -0.5022  0.1320 -0.2828
    1PA    H12R 2535   1.949   1.810   5.389  0.4194 -2.0669  1.4972
    1PA    H12S 2536   1.822   1.800   5.264  1.3549 -0.5546 -2.1887
    1PA    C111 2537   1.798   1.689   5.462  0.4368 -0.5429 -0.3191
    1PA    H11R 2538   1.733   1.773   5.489  0.7217 -0.5203  0.3019
    1PA    H11S 2539   1.742   1.601   5.429  0.8534 -0.6596 -0.7347
    1PA    C110 2540   1.891   1.661   5.582 -0.3140 -0.0275 -0.4802
    1PA    H10R 2541   1.971   1.594   5.552  0.1287  0.7710 -1.1378
    1PA    H10S 2542   1.936   1.752   5.621  2.7520 -1.6162 -0.0643
    1PA     C19 2543   1.809   1.596   5.697 -1.0357 -0.0579 -0.3860
    1PA     H9R 2544   1.778   1.499   5.658  1.5718 -1.3513  0.4955
    1PA     H9S 2545   1.878   1.565   5.776  1.0818 -0.6774 -2.3713
    1PA     C18 2546   1.686   1.674   5.753  0.5706 -0.2785 -0.3731
    1PA     H8R 2547   1.710   1.779   5.772  0.9048 -0.1890 -1.2567
    1PA     H8S 2548   1.608   1.683   5.678 -2.7217 -1.3801  2.6188
    1PA     C17 2549   1.633   1.613   5.879  0.5217 -0.1426  0.4671
    1PA     H7R 2550   1.533   1.656   5.890 -0.1794 -1.5771 -0.0133
    1PA     H7S 2551   1.629   1.504   5.871  0.8279 -0.2888  1.9928
    1PA     C16 2552   1.712   1.645   6.003  0.1459 -0.3488  0.0922
    1PA     H6R 2553   1.817   1.617   5.994  0.3207  0.1849  0.3692
    1PA     H6S 2554   1.714   1.752   6.026 -0.5168 -0.8292  2.7400
    1PA     C15 2555   1.655   1.569   6.123 -0.0563 -0.5123  0.2532
    1PA     H5R 2556   1.684   1.466   6.100  2.5686  0.1172  0.4443
    1PA     H5S 2557   1.713   1.598   6.210  2.8061  1.8313 -2.2121
    1PA     C14 2558   1.505   1.565   6.147  0.0518 -0.0915  0.6727
    1PA     H4R 2559   1.456   1.523   6.059  0.6233  0.4860  0.0605
    1PA     H4S 2560   1.491   1.504   6.236 -0.9076  0.7843  1.1348
    1PA     C13 2561   1.453   1.708   6.163  0.0953  0.4072  0.4142
    1PA     H3R 2562   1.521   1.749   6.238 -0.0583  0.6064  0.4464
    1PA     H3S 2563   1.445   1.767   6.072  0.2757 -1.3011 -0.7352
    1PA     C12 2564   1.313   1.708   6.207 -0.1484  0.4744 -0.5494
    1PA     H2R 2565   1.286   1.812   6.195 -2.8329 -0.1484 -0.4501
    1PA     H2S 2566   1.260   1.631   6.151 -2.5243 -0.2108  2.3463
    1PC     C11 2567   1.303   1.677   6.358 -0.3619 -0.2237  0.3519
    1PC     O12 2568   1.316   1.760   6.444 -0.1927  0.0607  0.2406
    1PC     O11 2569   1.270   1.547   6.386  0.3571 -0.1704 -0.7010
    1PC      C1 2570   1.295   1.501   6.524  0.5617 -0.7723 -0.1251
    1PC      HR 2571   1.267   1.576   6.598 -0.7643 -0.2515 -1.0967
    1PC      HS 2572   1.225   1.418   6.536  0.8494 -1.3426 -2.1098
    1PC      C2 2573   1.433   1.447   6.547  0.1797  0.6909 -0.9566
    1PC      HX 2574   1.443   1.378   6.464 -2.3760 -0.2425 -0.5879
    1PC      C3 2575   1.442   1.365   6.678  0.4890  0.2810 -0.0202
    1PC      HA 2576   1.409   1.262   6.663 -1.0769  0.4521  1.8119
    1PC      HB 2577   1.543   1.368   6.719  1.3306  0.6276 -1.9968
    1PC     O31 2578   1.348   1.417   6.779 -0.1096 -0.1260  0.2752
    1PC     P31 2579   1.400   1.505   6.906 -0.3504  0.2105 -0.1618
    1PC     O32 2580   1.430   1.648   6.852 -0.0529 -0.2205  0.2644
    1PC     C31 2581   1.317   1.743   6.849  0.0783 -0.0251 -0.1424
    1PC     H1A 2582   1.232   1.696   6.800  0.0708  0.9590 -1.1188
    1PC     H1B 2583   1.294   1.782   6.948 -0.3587  3.5906 -1.4915
    1PC     C32 2584   1.376   1.866   6.770  0.9458  0.6133  0.3235
    1PC     H2A 2585   1.453   1.920   6.826 -0.5932  3.1035  0.2023
    1PC     H2B 2586   1.418   1.834   6.675  1.0999 -0.8871  0.8663
    1PC     N31 2587   1.287   1.984   6.742  0.2973  0.1859  0.0065
    1PC     C33 2588   1.163   1.941   6.679  0.7601 -0.0059 -0.5582
    1PC     H3A 2589   1.186   1.880   6.591 -2.7241 -0.2282 -1.4681
    1PC     H3B 2590   1.110   1.868   6.741  1.4381 -1.9161 -2.0840
    1PC     H3C 2591   1.100   2.026   6.653 -1.1739 -0.6510  1.6021
    1PC     C34 2592   1.253   2.052   6.875  0.9411  0.4736  0.0424
    1PC     H4A 2593   1.193   1.991   6.942 -1.9606  1.2538 -1.6460
    1PC     H4B 2594   1.342   2.080   6.931  0.8189  1.3075 -0.1650
    1PC     H4C 2595   1.194   2.141   6.852 -1.3353 -0.1917  2.7376
    1PC     C35 2596   1.348   2.086   6.647  0.3454  0.2018 -0.0329
    1PC     H5A 2597   1.278   2.170   6.648  1.8777  1.5401  0.9777
    1PC     H5B 2598   1.356   2.055   6.543 -0.1916  2.0841 -0.6803
    1PC     H5C 2599   1.440   2.124   6.691  1.4640 -2.2132 -0.1592
    1PC     O33 2600   1.283   1.516   6.996  0.3600 -0.3227 -0.7052
    1PC     O34 2601   1.522   1.441   6.959 -0.3301 -0.4886  0.1604
    1PC     O21 2602   1.522   1.554   6.540 -0.0209 -0.5363 -0.0558
    1PC     C21 2603   1.652   1.536   6.518 -0.4655 -0.2537 -0.5961
    1PC     O22 2604   1.691   1.427   6.474 -0.7546 -0.1354 -0.0359
    1OL     C12 2605   1.740   1.645   6.568 -0.1815 -0.4346 -0.3728
    1OL     H2R 2606   1.836   1.608   6.604 -0.2135 -1.1321 -0.9948
    1OL     H2S 2607   1.686   1.694   6.650  0.6622 -0.7709  0.3967
    1OL     C13 2608   1.754   1.747   6.456  0.2407  0.8095  0.0276
    1OL     H3R 2609   1.653   1.771   6.422  0.3267  2.0372  0.5884
    1OL     H3S 2610   1.808   1.696   6.376  1.5453  0.7518  0.9111
    1OL     C14 2611   1.832   1.872   6.494  0.3527 -0.0005 -0.1704
    1OL     H4R 2612   1.933   1.840   6.518  0.6567 -0.3791 -1.8581
    1OL     H4S 2613   1.787   1.912   6.585 -1.6458 -0.5177 -0.8590
    1OL     C15 2614   1.830   1.994   6.395  0.3584 -0.3149 -0.5602
    1OL     H5R 2615   1.878   1.977   6.298 -0.9153 -0.3461 -1.2045
    1OL     H5S 2616   1.882   2.080   6.436 -0.3948  0.9681 -2.1616
    1OL     C16 2617   1.693   2.054   6.368  0.2366 -0.1381 -0.5183
    1OL     H6R 2618   1.647   2.089   6.461  0.3427  0.4101 -0.6658
    1OL     H6S 2619   1.621   1.981   6.331 -0.2197 -0.4085  0.8521
    1OL     C17 2620   1.702   2.174   6.266  0.7714  0.4358 -0.6702
    1OL     H7R 2621   1.766   2.157   6.179 -0.4789  1.7920 -1.9011
    1OL     H7S 2622   1.745   2.263   6.312 -1.3261  1.1955 -0.0726
    1OL     C18 2623   1.569   2.210   6.205  0.3943 -0.2044  0.2079
    1OL     H8R 2624   1.557   2.319   6.213 -0.5140 -0.3500  1.0378
    1OL     H8S 2625   1.486   2.178   6.268 -1.5047  1.0710 -1.5268
    1OL     C19 2626   1.545   2.147   6.073  0.8921  0.5641  0.1489
    1OL     H9R 2627   1.632   2.135   6.010 -0.4637 -3.5366 -1.2611
    1OL    C110 2628   1.429   2.102   6.027  0.5188 -0.0050 -0.3875
    1OL    H10R 2629   1.428   2.055   5.929  0.1803 -0.7613 -0.0308
    1OL    C111 2630   1.297   2.112   6.093  0.4427  1.0336 -0.7374
    1OL    H11R 2631   1.302   2.063   6.190 -1.1272 -0.1999 -1.2250
    1OL    H11S 2632   1.225   2.052   6.036 -1.2255  1.2757  0.9846
    1OL    C112 2633   1.237   2.252   6.104 -0.3593  0.2433  0.4519
    1OL    H12R 2634   1.287   2.304   6.187  1.1196 -0.9031  0.3198
    1OL    H12S 2635   1.133   2.232   6.128 -0.6988 -1.2475 -1.9683
    1OL    C113 2636   1.230   2.338   5.976 -0.4229 -0.2324  0.0939
    1OL    H13R 2637   1.329   2.379   5.954  0.1862 -2.4430 -1.5762
    1OL    H13S 2638   1.168   2.425   5.999  0.6248 -0.0721  2.6038
    1OL    C114 2639   1.188   2.266   5.848 -0.3973  0.2924 -0.3315
    1OL    H14R 2640   1.086   2.229   5.861  0.1062 -0.7916  0.7430
    1OL    H14S 2641   1.251   2.178   5.833 -3.1990 -1.5888 -2.2770
    1OL    C115 2642   1.187   2.357   5.726 -0.0874 -0.8479  0.4867
    1OL    H15R 2643   1.119   2.439   5.749  0.4844 -0.5422  1.1563
    1OL    H15S 2644   1.151   2.296   5.643  2.5451 -2.5532  0.4861
    1OL    C116 2645   1.325   2.430   5.697 -0.2692  0.4292  0.5197
    1OL    H16R 2646   1.354   2.486   5.786  0.8281  2.2025 -0.8771
    1OL    H16S 2647   1.306   2.499   5.615 -1.6453  1.0557  1.3360
    1OL    C117 2648   1.436   2.329   5.657  0.7944  0.1620  0.3569
    1OL    H17R 2649   1.415   2.281   5.562  0.4515  0.2747  0.3736
    1OL    H17S 2650   1.431   2.251   5.733 -1.1923  0.2734  0.4065
    1OL    C118 2651   1.568   2.407   5.673 -0.1498  0.3032 -0.1622
    1OL    H18R 2652   1.564   2.501   5.617 -1.8982  0.6000  0.3973
    1OL    H18S 2653   1.651   2.355   5.625  1.6671  2.9212 -0.0846
    1OL    H18T 2654   1.605   2.412   5.776  0.5638 -1.8350 -0.2703
    1PA    C116 2655   2.506   0.569   6.286 -0.4588 -0.9656  0.3439
    1PA    H16R 2656   2.505   0.516   6.191 -1.5436  0.1989 -0.3370
    1PA    H16S 2657   2.474   0.505   6.368 -1.0542  0.7435  1.5086
    1PA    H16T 2658   2.611   0.589   6.306 -0.3969  0.7940 -1.4882
    1PA    C115 2659   2.430   0.709   6.287  0.0737  0.7233  0.7536
    1PA    H15R 2660   2.322   0.690   6.293 -0.1526  0.2239 -2.7856
    1PA    H15S 2661   2.454   0.772   6.372  0.0190  1.7719  0.0019
    1PA    C114 2662   2.465   0.783   6.155  0.5048 -0.1612 -0.3176
    1PA    H14R 2663   2.571   0.808   6.158  0.5822 -0.0525 -2.6315
    1PA    H14S 2664   2.459   0.717   6.069  0.6927  0.7926 -1.0752
    1PA    C113 2665   2.376   0.913   6.120 -0.1568 -0.2416 -0.2684
    1PA    H13R 2666   2.274   0.884   6.143 -0.4274  0.2575 -0.8074
    1PA    H13S 2667   2.407   0.991   6.190  1.1942  0.8084 -1.9385
    1PA    C112 2668   2.396   0.947   5.972 -0.4992 -0.6975  0.2570
    1PA    H12R 2669   2.504   0.961   5.964 -0.5837 -0.6847 -1.0728
    1PA    H12S 2670   2.366   0.859   5.915 -0.5815  0.1132 -1.0022
    1PA    C111 2671   2.329   1.081   5.922  0.8620  0.4117  0.5789
    1PA    H11R 2672   2.364   1.162   5.986  3.3399  0.4463 -0.7136
    1PA    H11S 2673   2.352   1.110   5.819  1.7741  0.1041  0.6854
    1PA    C110 2674   2.172   1.093   5.939  0.1361  0.9088 -0.0238
    1PA    H10R 2675   2.130   1.038   5.855  2.4300 -2.0456  0.5919
    1PA    H10S 2676   2.145   1.039   6.030 -0.1135  0.4688 -0.3570
    1PA     C19 2677   2.113   1.236   5.950 -0.1089  0.1038 -0.1307
    1PA     H9R 2678   2.143   1.268   6.050  0.2848  1.4099 -0.6479
    1PA     H9S 2679   2.155   1.305   5.877  1.7609 -1.7007 -0.8664
    1PA     C18 2680   1.956   1.249   5.956 -0.1238  0.3775  0.1073
    1PA     H8R 2681   1.932   1.354   5.968  0.3087  0.3506  1.3892
    1PA     H8S 2682   1.925   1.220   5.855 -1.3838  1.5283  0.1424
    1PA     C17 2683   1.868   1.174   6.054 -0.5032  0.8670 -0.6147
    1PA     H7R 2684   1.896   1.069   6.049  0.7666  1.2202 -1.2690
    1PA     H7S 2685   1.886   1.206   6.157 -1.0180 -1.0008  0.0884
    1PA     C16 2686   1.719   1.177   6.025 -0.2542  0.2389 -0.1811
    1PA     H6R 2687   1.672   1.275   6.012  0.8792  1.0913  1.6336
    1PA     H6S 2688   1.710   1.136   5.925  0.3039  0.3758 -0.2882
    1PA     C15 2689   1.629   1.091   6.119  0.2997 -0.2246 -0.5208
    1PA     H5R 2690   1.531   1.079   6.072 -0.5418  2.3103  0.4175
    1PA     H5S 2691   1.671   0.990   6.126 -0.1715 -0.2881  2.3004
    1PA     C14 2692   1.607   1.156   6.251  0.4232  0.1959 -0.0742
    1PA     H4R 2693   1.701   1.161   6.307  1.3540 -2.2805 -1.2420
    1PA     H4S 2694   1.576   1.259   6.231  0.8661  0.0992 -1.3077
    1PA     C13 2695   1.513   1.091   6.356  0.3605  0.4970 -0.7535
    1PA     H3R 2696   1.502   1.158   6.441  0.6925 -1.3854  0.8516
    1PA     H3S 2697   1.410   1.083   6.319 -0.1714  1.3668  0.4631
    1PA     C12 2698   1.567   0.951   6.405 -0.8989 -1.1376 -0.7044
    1PA     H2R 2699   1.560   0.878   6.324  0.6716 -1.7170 -0.3613
    1PA     H2S 2700   1.674   0.957   6.428 -0.6383  0.5195 -2.1015
    1PC     C11 2701   1.506   0.889   6.525 -0.2307 -0.5501  0.0831
    1PC     O12 2702   1.393   0.916   6.567 -0.2493  0.2843  0.3221
    1PC     O11 2703   1.595   0.801   6.577  0.6927  0.2356  0.2977
    1PC      C1 2704   1.574   0.754   6.715  0.2331 -0.0580  0.0400
    1PC      HR 2705   1.472   0.725   6.741  0.6381 -3.1193 -1.3443
    1PC      HS 2706   1.633   0.663   6.728  0.6582 -0.2755 -2.6728
    1PC      C2 2707   1.625   0.861   6.814  0.5650  0.4762 -0.2155
    1PC      HX 2708   1.648   0.819   6.912 -3.1333  1.9403  1.4935
    1PC      C3 2709   1.523   0.972   6.856  0.3141  0.2482  0.4736
    1PC      HA 2710   1.497   1.023   6.762  0.4869  0.6821  0.6584
    1PC      HB 2711   1.439   0.927   6.909  1.3965  1.1953  3.1253
    1PC     O31 2712   1.583   1.068   6.945  0.2542 -0.4874  0.4434
    1PC     P31 2713   1.592   1.043   7.102 -0.5919  0.5182  0.3543
    1PC     O32 2714   1.442   1.087   7.145 -0.4030 -0.6857 -0.1208
    1PC     C31 2715   1.401   1.222   7.157  0.1187  0.0583 -0.1726
    1PC     H1A 2716   1.419   1.263   7.057 -1.8388 -0.4694 -0.7728
    1PC     H1B 2717   1.294   1.212   7.175  0.5802 -1.6279  2.1687
    1PC     C32 2718   1.459   1.289   7.276 -0.3840 -0.3182 -0.3699
    1PC     H2A 2719   1.567   1.284   7.264 -0.3091 -0.1739  0.2480
    1PC     H2B 2720   1.429   1.394   7.265  1.3973  0.0709 -2.1128
    1PC     N31 2721   1.419   1.246   7.419  0.0924 -0.3860 -0.0906
    1PC     C33 2722   1.274   1.282   7.445  0.0184 -0.2893  0.1037
    1PC     H3A 2723   1.252   1.256   7.549  0.7030  1.2170  0.6537
    1PC     H3B 2724   1.253   1.389   7.443 -2.1639 -0.5890  2.2640
    1PC     H3C 2725   1.216   1.233   7.366  0.6440  1.5786 -1.6065
    1PC     C34 2726   1.431   1.099   7.436 -0.2657  0.8738 -0.2152
    1PC     H4A 2727   1.370   1.055   7.357 -1.8075  3.4898 -0.6095
    1PC     H4B 2728   1.534   1.064   7.438 -0.4828  0.1911  1.7205
    1PC     H4C 2729   1.374   1.063   7.522 -2.5677 -0.8303 -2.3009
    1PC     C35 2730   1.501   1.315   7.524 -0.6227 -0.3034  0.1872
    1PC     H5A 2731   1.450   1.305   7.620 -1.0769  0.7541  0.0736
    1PC     H5B 2732   1.512   1.419   7.492 -0.6874 -0.1119  0.7758
    1PC     H5C 2733   1.593   1.257   7.527  1.2275  2.4527  0.5042
    1PC     O33 2734   1.623   0.902   7.130 -0.0175 -0.4416 -0.4179
    1PC     O34 2735   1.693   1.138   7.152 -0.2471 -0.2942 -0.3726
    1PC     O21 2736   1.740   0.930   6.759  0.2180 -0.4837  0.1030
    1PC     C21 2737   1.865   0.873   6.766 -0.5965  0.1870 -0.4654
    1PC     O22 2738   1.892   0.761   6.810 -0.4210 -0.3673  0.6316
    1OL     C12 2739   1.973   0.948   6.694  0.0827  0.3514 -0.0808
    1OL     H2R 2740   2.068   0.900   6.717 -0.5927 -1.5545 -0.9799
    1OL     H2S 2741   1.974   1.050   6.732  0.4980 -0.0298  0.9613
    1OL     C13 2742   1.944   0.940   6.539  0.0027  0.2758 -0.3711
    1OL     H3R 2743   2.010   1.020   6.504  1.7717 -0.5104  1.0548
    1OL     H3S 2744   1.843   0.979   6.523  0.1369  1.5857  1.6683
    1OL     C14 2745   1.974   0.802   6.468  0.0264 -0.9204  1.1066
    1OL     H4R 2746   1.938   0.721   6.532 -0.8862 -1.2983  0.1533
    1OL     H4S 2747   2.080   0.795   6.444 -0.2291  0.5781 -0.6475
    1OL     C15 2748   1.903   0.794   6.331  0.5799  0.4276 -0.1450
    1OL     H5R 2749   1.913   0.896   6.293 -3.1936  0.2898 -1.9190
    1OL     H5S 2750   1.798   0.768   6.339  0.4440  1.0010 -0.0395
    1OL     C16 2751   1.974   0.712   6.230  0.1210  0.7704  0.0382
    1OL     H6R 2752   1.965   0.606   6.253 -1.2716  1.2814  2.1286
    1OL     H6S 2753   2.081   0.736   6.229  0.1103  0.8336  0.2680
    1OL     C17 2754   1.924   0.746   6.089  0.3251  0.2554 -0.1656
    1OL     H7R 2755   1.941   0.851   6.064 -1.9018  0.5462 -0.6473
    1OL     H7S 2756   1.816   0.734   6.095  0.2503 -0.1838 -2.0037
    1OL     C18 2757   1.965   0.652   5.981 -0.0442 -0.7479 -0.9560
    1OL     H8R 2758   1.899   0.665   5.895 -1.4181 -1.2139 -0.0093
    1OL     H8S 2759   1.938   0.549   6.006 -1.7490 -0.0818  0.0844
    1OL     C19 2760   2.114   0.674   5.939 -0.3312 -0.4243 -0.3772
    1OL     H9R 2761   2.170   0.711   6.025 -1.3660  2.3113 -0.7924
    1OL    C110 2762   2.176   0.662   5.820  0.0973 -0.3454  0.1625
    1OL    H10R 2763   2.281   0.687   5.808  0.1067 -0.3123  0.3120
    1OL    C111 2764   2.102   0.608   5.698 -0.5948 -0.3726  0.1144
    1OL    H11R 2765   1.995   0.614   5.714 -0.9799 -0.4290 -2.1943
    1OL    H11S 2766   2.136   0.505   5.680 -0.8194 -0.4971  0.3897
    1OL    C112 2767   2.130   0.699   5.577 -0.6254 -0.6806 -0.3829
    1OL    H12R 2768   2.088   0.650   5.489  2.3986  0.3747 -2.6085
    1OL    H12S 2769   2.236   0.716   5.554 -0.8134  3.1684  0.9345
    1OL    C113 2770   2.064   0.840   5.591 -0.6949 -0.7400 -0.6572
    1OL    H13R 2771   2.093   0.895   5.501  1.1090  0.1743  0.4219
    1OL    H13S 2772   2.111   0.894   5.674 -2.3532 -2.2545  1.3756
    1OL    C114 2773   1.905   0.842   5.612  0.2111  0.0642 -0.5373
    1OL    H14R 2774   1.872   0.814   5.712 -1.0798 -2.1836 -1.5275
    1OL    H14S 2775   1.863   0.767   5.544 -2.9210  1.2903 -0.1075
    1OL    C115 2776   1.843   0.973   5.555  0.3654  0.2095  0.5604
    1OL    H15R 2777   1.738   0.963   5.580  0.8823 -1.3174  2.3485
    1OL    H15S 2778   1.840   0.975   5.446 -2.0439  2.9677  0.5534
    1OL    C116 2779   1.899   1.102   5.606 -0.0555 -0.8043  0.3192
    1OL    H16R 2780   2.006   1.110   5.581  0.1627 -0.0971  1.4138
    1OL    H16S 2781   1.896   1.098   5.715  1.0773 -1.3773  0.3480
    1OL    C117 2782   1.835   1.237   5.559  0.4078  0.2344 -0.0195
    1OL    H17R 2783   1.869   1.261   5.458  0.0662 -0.1332 -0.2262
    1OL    H17S 2784   1.879   1.312   5.624 -1.2272  0.4892  0.8417
    1OL    C118 2785   1.676   1.233   5.572  0.2262  0.6522  0.7871
    1OL    H18R 2786   1.644   1.251   5.675 -1.2411  0.1797  0.4363
    1OL    H18S 2787   1.645   1.133   5.541 -0.5332  0.4953  1.9785
    1OL    H18T 2788   1.622   1.307   5.513 -1.4642 -1.4509 -0.4365
    1PA    C116 2789   3.342   5.079   4.981 -0.0618 -0.2737 -0.2592
    1PA    H16R 2790   3.392   4.997   4.929  0.3375  1.2965 -2.5049
    1PA    H16S 2791   3.362   5.166   4.920  0.8894  2.5464  3.6584
    1PA    H16T 2792   3.233   5.070   4.975  0.1294 -1.7025 -2.8137
    1PA    C115 2793   3.385   5.102   5.123  0.2538 -0.2012 -0.0051
    1PA    H15R 2794   3.487   5.140   5.114 -0.2953  1.1729 -0.9624
    1PA    H15S 2795   3.327   5.189   5.157 -1.0785 -0.2641 -1.9485
    1PA    C114 2796   3.357   4.978   5.214  0.5133 -1.0072 -0.4440
    1PA    H14R 2797   3.254   4.977   5.250  1.2759 -0.5718  1.8994
    1PA    H14S 2798   3.390   4.890   5.157  2.7011  1.0477 -2.6003
    1PA    C113 2799   3.435   4.995   5.338 -0.4306 -0.1839  0.4567
    1PA    H13R 2800   3.538   5.004   5.303  0.0089  1.3997  2.0168
    1PA    H13S 2801   3.404   5.081   5.398 -0.9774  0.3435 -0.5624
    1PA    C112 2802   3.430   4.866   5.425  0.5357 -0.1840 -0.0822
    1PA    H12R 2803   3.324   4.847   5.439 -0.2182  2.1143 -2.0415
    1PA    H12S 2804   3.465   4.777   5.371  0.7614  0.6868 -1.4027
    1PA    C111 2805   3.510   4.879   5.555  0.4368  0.1084  0.6592
    1PA    H11R 2806   3.613   4.912   5.540  0.2006  1.4658  1.7530
    1PA    H11S 2807   3.469   4.958   5.619  0.5213  1.8336 -1.3144
    1PA    C110 2808   3.522   4.743   5.619 -0.0791 -0.5995  0.0041
    1PA    H10R 2809   3.420   4.705   5.629 -1.6346  3.0305 -0.7156
    1PA    H10S 2810   3.586   4.677   5.560  0.6778 -0.3528  0.5214
    1PA     C19 2811   3.599   4.734   5.758 -0.2389 -0.2436  0.8513
    1PA     H9R 2812   3.699   4.770   5.737 -0.5086  0.6863  1.1066
    1PA     H9S 2813   3.543   4.796   5.829 -2.5759 -1.5447  0.2715
    1PA     C18 2814   3.624   4.597   5.821  0.4849  0.4534  0.1882
    1PA     H8R 2815   3.528   4.545   5.825  1.2144 -0.9053  0.8369
    1PA     H8S 2816   3.685   4.531   5.760 -0.3818 -1.4333  1.2544
    1PA     C17 2817   3.685   4.612   5.956 -0.1480  0.1364  0.0127
    1PA     H7R 2818   3.736   4.518   5.979  0.0961  0.5435  1.2135
    1PA     H7S 2819   3.762   4.687   5.939 -0.5625  0.9521  1.5661
    1PA     C16 2820   3.589   4.642   6.072 -0.3632 -0.1268  0.2772
    1PA     H6R 2821   3.525   4.728   6.052  1.0023  0.5897 -1.1910
    1PA     H6S 2822   3.513   4.564   6.087 -0.2432 -0.3245 -0.1313
    1PA     C15 2823   3.664   4.661   6.207 -0.3855  0.2177  0.2961
    1PA     H5R 2824   3.717   4.567   6.225 -0.7242 -1.0003 -4.0103
    1PA     H5S 2825   3.743   4.735   6.188  1.1880 -1.3192  0.6151
    1PA     C14 2826   3.574   4.702   6.331 -0.4524 -0.4144 -0.7002
    1PA     H4R 2827   3.497   4.772   6.298  0.3894  0.8595 -0.0605
    1PA     H4S 2828   3.519   4.620   6.376 -2.1826 -0.0076 -1.9649
    1PA     C13 2829   3.657   4.777   6.435  0.0717  0.2236 -0.9590
    1PA     H3R 2830   3.709   4.857   6.381 -0.6612  0.8750 -0.7349
    1PA     H3S 2831   3.589   4.827   6.504  1.3971  1.0580 -0.2237
    1PA     C12 2832   3.739   4.675   6.519 -0.8519 -0.8175  0.1020
    1PA     H2R 2833   3.811   4.622   6.457  1.1410 -0.5691  2.0591
    1PA     H2S 2834   3.803   4.734   6.584 -1.5736  0.5804 -0.4173
    1PC     C11 2835   3.658   4.590   6.610  0.2053  0.4730  0.0244
    1PC     O12 2836   3.617   4.631   6.717  0.2536 -0.1539  0.3379
    1PC     O11 2837   3.616   4.467   6.567  0.2316  0.2955 -0.2969
    1PC      C1 2838   3.579   4.368   6.668  0.1650 -0.2498 -0.4805
    1PC      HR 2839   3.573   4.272   6.617 -1.8318  0.4838 -1.7343
    1PC      HS 2840   3.652   4.357   6.749  1.0647 -1.0399 -1.3743
    1PC      C2 2841   3.437   4.378   6.721  0.0480  0.2002  0.1561
    1PC      HX 2842   3.435   4.468   6.783  2.0819 -0.1618  0.7960
    1PC      C3 2843   3.404   4.263   6.822  0.6719  0.4484 -0.1040
    1PC      HA 2844   3.300   4.263   6.856  0.4944  2.7320 -0.4444
    1PC      HB 2845   3.426   4.168   6.774  0.0236  0.3007 -0.1141
    1PC     O31 2846   3.491   4.284   6.936 -0.1817  0.5014 -1.2511
    1PC     P31 2847   3.441   4.352   7.072 -0.0031  0.3183  0.0654
    1PC     O32 2848   3.361   4.231   7.141 -0.1163  0.8663  0.1603
    1PC     C31 2849   3.431   4.138   7.233  0.0251 -0.5555  0.7615
    1PC     H1A 2850   3.521   4.186   7.271 -0.4427  0.9040  0.0950
    1PC     H1B 2851   3.377   4.096   7.319 -0.1996 -0.0357  0.8781
    1PC     C32 2852   3.459   4.021   7.134  0.6089  0.7323 -0.0474
    1PC     H2A 2853   3.368   3.966   7.108  2.2945 -1.5830 -1.3740
    1PC     H2B 2854   3.498   4.063   7.041  0.4953 -0.4134 -0.6356
    1PC     N31 2855   3.555   3.917   7.186  0.0753  0.4223 -0.2326
    1PC     C33 2856   3.594   3.838   7.069  0.0268 -0.1349  0.1066
    1PC     H3A 2857   3.609   3.906   6.985  1.9537 -2.0527 -1.2026
    1PC     H3B 2858   3.686   3.782   7.089  0.9470  0.9181 -1.0193
    1PC     H3C 2859   3.512   3.771   7.042  0.8724 -1.5169  0.8518
    1PC     C34 2860   3.675   3.979   7.236 -0.6769 -0.8888 -0.1063
    1PC     H4A 2861   3.715   4.045   7.159 -0.0821  0.1142  1.0217
    1PC     H4B 2862   3.655   4.038   7.326  1.0095 -1.1925  0.5018
    1PC     H4C 2863   3.751   3.906   7.263  0.3554 -0.2131 -1.1106
    1PC     C35 2864   3.504   3.834   7.301  0.0995 -0.0315  0.4100
    1PC     H5A 2865   3.579   3.756   7.316  1.1533  0.6940 -0.8271
    1PC     H5B 2866   3.406   3.790   7.280 -0.3878 -1.1696  4.3397
    1PC     H5C 2867   3.486   3.898   7.387  0.5234  0.4170  0.1683
    1PC     O33 2868   3.562   4.383   7.154 -0.3262  0.6623  0.1029
    1PC     O34 2869   3.351   4.464   7.035  0.3406 -0.3898 -0.0472
    1PC     O21 2870   3.345   4.372   6.609 -0.8054  0.1555 -0.4306
    1PC     C21 2871   3.294   4.481   6.558  0.4009  0.6919 -0.8199
    1PC     O22 2872   3.306   4.590   6.607  0.1030  0.0517 -0.0311
    1OL     C12 2873   3.235   4.448   6.421  0.0931  0.2321  0.1416
    1OL     H2R 2874   3.181   4.354   6.437 -1.0816  0.9845  0.7466
    1OL     H2S 2875   3.317   4.418   6.356  0.0746  1.7617 -0.6127
    1OL     C13 2876   3.141   4.545   6.362  0.1244 -0.1164  0.1429
    1OL     H3R 2877   3.204   4.633   6.343 -0.6039 -0.1722 -3.0141
    1OL     H3S 2878   3.067   4.574   6.437 -0.7276  1.1777 -1.1461
    1OL     C14 2879   3.071   4.486   6.236  0.0473 -0.6769  0.0848
    1OL     H4R 2880   3.014   4.400   6.271 -1.2345  0.3321  0.5948
    1OL     H4S 2881   3.149   4.465   6.163 -0.5460  1.3454 -1.2194
    1OL     C15 2882   2.971   4.586   6.179  0.3539 -0.3836  0.0538
    1OL     H5R 2883   3.021   4.682   6.158  0.1267 -0.1212  0.6851
    1OL     H5S 2884   2.909   4.608   6.266 -0.2346  0.8862 -0.6617
    1OL     C16 2885   2.892   4.543   6.061  0.2624  0.1814 -0.2815
    1OL     H6R 2886   2.832   4.460   6.098 -0.6649  1.4648  1.2242
    1OL     H6S 2887   2.967   4.505   5.992 -1.5158  1.0690 -2.8676
    1OL     C17 2888   2.791   4.631   5.997  0.2746  0.0447 -0.4326
    1OL     H7R 2889   2.794   4.726   6.051  1.2546 -0.5310  0.5490
    1OL     H7S 2890   2.695   4.584   6.020  1.5063 -3.0050 -1.0304
    1OL     C18 2891   2.836   4.657   5.855  0.2982  0.2054  0.5117
    1OL     H8R 2892   2.941   4.688   5.856  0.1699  0.7260 -0.5709
    1OL     H8S 2893   2.785   4.742   5.808  0.1606  0.4518  1.0983
    1OL     C19 2894   2.824   4.532   5.764 -0.4983 -0.2017  0.1070
    1OL     H9R 2895   2.722   4.492   5.762 -1.8550  2.9957 -0.6661
    1OL    C110 2896   2.917   4.482   5.694 -0.0868 -0.3180  0.6921
    1OL    H10R 2897   2.905   4.394   5.631 -0.9851  0.6954 -0.6043
    1OL    C111 2898   3.057   4.541   5.675  0.3766 -0.1468 -0.2617
    1OL    H11R 2899   3.118   4.486   5.747 -1.8712 -1.9854  0.3428
    1OL    H11S 2900   3.066   4.647   5.700  2.3303 -0.1501 -0.7740
    1OL    C112 2901   3.107   4.519   5.531  0.3588 -0.6101  1.2105
    1OL    H12R 2902   3.094   4.417   5.493  4.5906 -1.1479  0.7813
    1OL    H12S 2903   3.215   4.529   5.527  0.3373 -0.8772 -1.3891
    1OL    C113 2904   3.058   4.623   5.433  0.2191  0.2674  0.3890
    1OL    H13R 2905   3.086   4.724   5.462  1.1437  0.3695 -0.8178
    1OL    H13S 2906   2.949   4.619   5.425  0.2586  0.8253 -0.5448
    1OL    C114 2907   3.129   4.603   5.295 -0.2067 -0.0801  0.0473
    1OL    H14R 2908   3.142   4.499   5.266 -0.7046  0.2945 -1.6523
    1OL    H14S 2909   3.229   4.647   5.303  0.0442 -0.6690  0.1763
    1OL    C115 2910   3.050   4.662   5.177  0.3941 -0.1824  0.3935
    1OL    H15R 2911   3.039   4.769   5.198  1.1299 -0.3933  2.0450
    1OL    H15S 2912   2.951   4.618   5.163 -0.6031  1.8884  0.5435
    1OL    C116 2913   3.127   4.659   5.047 -0.2814 -0.5351  0.1943
    1OL    H16R 2914   3.143   4.554   5.024 -1.0043 -0.6496  0.1658
    1OL    H16S 2915   3.223   4.710   5.057  0.4635 -1.6671 -0.8693
    1OL    C117 2916   3.054   4.729   4.928  1.0527  0.2687  0.5291
    1OL    H17R 2917   3.054   4.837   4.947 -1.1217  0.3610  0.2499
    1OL    H17S 2918   2.951   4.695   4.915  1.4633 -0.8548  0.0817
    1OL    C118 2919   3.131   4.700   4.801 -0.6473  0.8754  0.3208
    1OL    H18R 2920   3.114   4.597   4.770 -0.6958  0.8095  0.5604
    1OL    H18S 2921   3.236   4.719   4.824 -0.6946  2.4381 -0.6421
    1OL    H18T 2922   3.095   4.761   4.718 -1.4519  0.8421  0.6351
    1PA    C116 2923   0.794   3.063   5.022 -0.6453 -0.2477 -0.0675
    1PA    H16R 2924   0.869   3.068   5.102  0.5720  1.9039 -1.2338
    1PA    H16S 2925   0.701   3.108   5.056  1.0479  1.3513  2.9381
    1PA    H16T 2926   0.821   3.124   4.935  1.9223 -2.5385 -1.0192
    1PA    C115 2927   0.754   2.918   4.975  0.0700  0.1530  0.0398
    1PA    H15R 2928   0.663   2.910   4.916 -0.1636  3.4670 -0.2531
    1PA    H15S 2929   0.836   2.880   4.915  0.9361  0.7933  0.7895
    1PA    C114 2930   0.742   2.822   5.088 -0.6551  0.1715 -0.1772
    1PA    H14R 2931   0.711   2.724   5.050  0.0399 -0.2830  0.3978
    1PA    H14S 2932   0.843   2.812   5.128 -0.5486  0.4021 -0.3860
    1PA    C113 2933   0.645   2.859   5.205 -0.2960  0.9230  0.5705
    1PA    H13R 2934   0.692   2.940   5.261  0.8740 -0.5642  1.8327
    1PA    H13S 2935   0.547   2.890   5.168 -0.0916  0.8005 -0.0854
    1PA    C112 2936   0.621   2.734   5.302  0.1930  1.1357  0.4049
    1PA    H12R 2937   0.549   2.667   5.254  2.5123 -2.0009  0.9751
    1PA    H12S 2938   0.711   2.672   5.310 -1.4811 -1.3893  1.1442
    1PA    C111 2939   0.573   2.772   5.444  0.1538  0.3752  0.2810
    1PA    H11R 2940   0.649   2.829   5.498  0.3144  2.7997 -2.2636
    1PA    H11S 2941   0.484   2.835   5.437 -1.2860 -1.3886  1.6213
    1PA    C110 2942   0.541   2.649   5.533  0.4652  0.3227  0.3289
    1PA    H10R 2943   0.474   2.587   5.474  0.7179  2.6927 -2.7234
    1PA    H10S 2944   0.633   2.595   5.555  0.5244 -0.1671 -1.0062
    1PA     C19 2945   0.459   2.690   5.656 -0.4066 -0.2336  0.1310
    1PA     H9R 2946   0.523   2.764   5.705  2.3487 -2.4976  0.2088
    1PA     H9S 2947   0.376   2.739   5.606 -0.3409 -0.8898 -0.6276
    1PA     C18 2948   0.414   2.578   5.744  0.2595 -0.2495  0.1328
    1PA     H8R 2949   0.363   2.493   5.699 -2.3929 -0.3070  2.8799
    1PA     H8S 2950   0.500   2.534   5.795  0.0106 -0.3511  0.4642
    1PA     C17 2951   0.320   2.632   5.855  0.2357 -0.3713 -0.2350
    1PA     H7R 2952   0.364   2.703   5.924 -2.0617 -0.1668  1.1411
    1PA     H7S 2953   0.237   2.681   5.803 -0.7365 -1.8673 -0.1644
    1PA     C16 2954   0.262   2.512   5.932  0.4196  0.3364 -0.6779
    1PA     H6R 2955   0.216   2.454   5.852  2.9434  0.6969 -2.5359
    1PA     H6S 2956   0.351   2.459   5.966  0.7299  1.0239 -0.3824
    1PA     C15 2957   0.155   2.539   6.046 -0.3882 -1.3555 -0.3844
    1PA     H5R 2958   0.206   2.585   6.131  0.4224 -1.6584 -0.6954
    1PA     H5S 2959   0.080   2.613   6.018  0.2115  0.1712  1.7668
    1PA     C14 2960   0.099   2.404   6.099  0.0232  0.6674 -0.5740
    1PA     H4R 2961   0.039   2.363   6.017 -0.3170 -0.3450  0.1643
    1PA     H4S 2962   0.188   2.345   6.122  0.3892  1.4441  0.0447
    1PA     C13 2963   0.008   2.437   6.218  0.1630 -0.2352 -0.6663
    1PA     H3R 2964   0.065   2.497   6.289 -1.0579  0.2112 -0.0441
    1PA     H3S 2965  -0.068   2.502   6.174  1.9562 -0.0181 -3.7038
    1PA     C12 2966  -0.046   2.312   6.289 -0.4858  0.5920  0.0438
    1PA     H2R 2967  -0.123   2.273   6.221  0.7846 -0.2046 -0.9987
    1PA     H2S 2968   0.033   2.236   6.291  2.2492  3.2856  0.1820
    1PC     C11 2969  -0.109   2.350   6.414  0.1012  0.0336  0.7018
    1PC     O12 2970  -0.215   2.415   6.405  0.1469 -0.0583 -0.6375
    1PC     O11 2971  -0.035   2.329   6.530  0.4089 -0.1186 -0.6115
    1PC      C1 2972  -0.084   2.356   6.661  0.0280 -0.3318  0.3133
    1PC      HR 2973  -0.193   2.355   6.658  0.0383  0.1362 -0.5644
    1PC      HS 2974  -0.038   2.282   6.728  2.2402  2.0286  1.5628
    1PC      C2 2975  -0.037   2.495   6.703 -0.0201 -0.6248 -0.0433
    1PC      HX 2976   0.069   2.512   6.682  0.5652 -0.0252  2.9479
    1PC      C3 2977  -0.047   2.520   6.854 -0.3053  0.1858  0.8821
    1PC      HA 2978   0.019   2.450   6.906 -0.2050 -0.7967 -0.4814
    1PC      HB 2979  -0.013   2.622   6.875  1.4349 -0.2620  0.4464
    1PC     O31 2980  -0.183   2.488   6.897  0.0506  0.5149  0.6112
    1PC     P31 2981  -0.235   2.557   7.024  0.1921  0.3051 -0.0814
    1PC     O32 2982  -0.189   2.471   7.143  0.5027  0.0914 -0.2977
    1PC     C31 2983  -0.235   2.342   7.188 -0.0918 -0.0150  0.2794
    1PC     H1A 2984  -0.237   2.345   7.297 -0.5759 -0.1503  0.2765
    1PC     H1B 2985  -0.330   2.306   7.148  0.6901 -1.9944  0.0662
    1PC     C32 2986  -0.113   2.251   7.137 -0.1461  0.1809 -0.4574
    1PC     H2A 2987  -0.119   2.242   7.028  1.2900 -0.6872 -0.4826
    1PC     H2B 2988  -0.016   2.298   7.154 -0.1497  0.4438 -1.1243
    1PC     N31 2989  -0.115   2.109   7.194  0.2791 -0.8874 -0.4288
    1PC     C33 2990  -0.252   2.047   7.178 -0.0162  0.7754  0.0239
    1PC     H3A 2991  -0.316   2.096   7.251  1.4316  0.3054  1.6881
    1PC     H3B 2992  -0.289   2.056   7.075  1.6702  1.0083 -0.5979
    1PC     H3C 2993  -0.250   1.947   7.221 -0.8127  1.3880  1.5575
    1PC     C34 2994  -0.036   2.012   7.113  0.0685  0.8049 -0.4477
    1PC     H4A 2995  -0.042   1.912   7.157 -1.3708  1.6583  1.4439
    1PC     H4B 2996  -0.080   2.014   7.013  0.5488  0.7750 -0.6601
    1PC     H4C 2997   0.067   2.046   7.110  1.2365 -2.4355 -1.7008
    1PC     C35 2998  -0.074   2.118   7.340 -0.3724  0.1841 -0.2899
    1PC     H5A 2999  -0.130   2.194   7.394  1.3794  0.4551  1.2795
    1PC     H5B 3000   0.035   2.132   7.347  0.0691 -0.8902 -3.5327
    1PC     H5C 3001  -0.100   2.025   7.389  0.1264  1.0263  1.6753
    1PC     O33 3002  -0.173   2.692   7.031 -0.8896 -1.2992  0.2966
    1PC     O34 3003  -0.384   2.547   7.024 -0.6002 -0.3198  0.2293
    1PC     O21 3004  -0.117   2.593   6.632 -0.1596  0.7366 -0.5560
    1PC     C21 3005  -0.070   2.666   6.529 -0.7071  0.8721  0.5485
    1PC     O22 3006   0.040   2.656   6.484 -0.1210  0.2254  0.3744
    1OL     C12 3007  -0.166   2.763   6.471  0.2023 -0.0578  0.4217
    1OL     H2R 3008  -0.118   2.861   6.484  1.4001 -0.7855  1.8213
    1OL     H2S 3009  -0.265   2.756   6.516  0.4608 -1.2335  0.8460
    1OL     C13 3010  -0.189   2.731   6.324 -0.5302 -0.1534 -0.4072
    1OL     H3R 3011  -0.218   2.626   6.315 -1.4128  0.0457 -0.0302
    1OL     H3S 3012  -0.093   2.740   6.272 -0.1305  0.8171  0.4587
    1OL     C14 3013  -0.306   2.820   6.269 -0.0111  0.0525 -0.4778
    1OL     H4R 3014  -0.305   2.820   6.160  3.3932 -0.9120 -0.5722
    1OL     H4S 3015  -0.293   2.922   6.303 -0.7949 -0.3875  1.2219
    1OL     C15 3016  -0.441   2.780   6.314 -0.4436 -0.7612  0.2114
    1OL     H5R 3017  -0.457   2.793   6.421  0.6542 -0.5027  0.3457
    1OL     H5S 3018  -0.443   2.674   6.288  1.3164 -0.1778 -2.7133
    1OL     C16 3019  -0.555   2.856   6.239  0.4555  0.0701 -0.2432
    1OL     H6R 3020  -0.564   2.808   6.142  1.2764  0.1118 -0.3496
    1OL     H6S 3021  -0.518   2.958   6.227  2.4374 -0.5388  0.3001
    1OL     C17 3022  -0.687   2.853   6.322  0.4526  0.2349  0.2968
    1OL     H7R 3023  -0.671   2.908   6.415  2.1368  0.7967 -0.2771
    1OL     H7S 3024  -0.709   2.747   6.338 -1.7424  0.2739 -1.9319
    1OL     C18 3025  -0.803   2.912   6.238 -0.2108 -0.0091 -0.5513
    1OL     H8R 3026  -0.803   2.882   6.133  0.1687 -4.6772  0.5762
    1OL     H8S 3027  -0.781   3.019   6.239  1.2959 -0.2573  1.5707
    1OL     C19 3028  -0.936   2.889   6.305 -0.1028  0.0381  0.2174
    1OL     H9R 3029  -0.935   2.857   6.408 -0.1053  0.7255  0.4386
    1OL    C110 3030  -1.046   2.912   6.235 -0.5008 -0.5901 -0.1394
    1OL    H10R 3031  -1.145   2.901   6.278 -0.8805 -0.6122 -0.9910
    1OL    C111 3032  -1.060   2.948   6.088  0.3540  0.4438  1.0960
    1OL    H11R 3033  -0.962   2.949   6.040  0.5073 -1.2151  1.3173
    1OL    H11S 3034  -1.102   3.047   6.068 -0.7325 -0.4844 -1.6850
    1OL    C112 3035  -1.149   2.860   5.996 -0.3501 -0.5294 -0.4752
    1OL    H12R 3036  -1.253   2.886   6.018 -0.2272 -0.4178 -0.0134
    1OL    H12S 3037  -1.148   2.754   6.020 -0.6434 -0.0541  1.8221
    1OL    C113 3038  -1.130   2.892   5.848  0.1627 -0.2321 -0.2668
    1OL    H13R 3039  -1.029   2.875   5.810  0.0897  1.6756 -1.4661
    1OL    H13S 3040  -1.157   2.997   5.833 -1.3634 -0.9410 -3.2179
    1OL    C114 3041  -1.228   2.807   5.761 -0.4106 -0.6996 -1.5465
    1OL    H14R 3042  -1.328   2.812   5.804 -0.3582 -1.9557 -1.2239
    1OL    H14S 3043  -1.197   2.705   5.786 -0.2843  0.1948  2.4551
    1OL    C115 3044  -1.232   2.848   5.612 -0.0226  0.6923  0.4008
    1OL    H15R 3045  -1.141   2.808   5.566 -0.9110  0.3952 -1.1886
    1OL    H15S 3046  -1.223   2.955   5.597 -0.0298  0.7071  0.5008
    1OL    C116 3047  -1.350   2.799   5.522  0.0978 -0.2393 -0.1675
    1OL    H16R 3048  -1.446   2.845   5.547  0.7591  0.9811  0.2339
    1OL    H16S 3049  -1.367   2.692   5.535 -2.3519  0.2676  1.4083
    1OL    C117 3050  -1.325   2.824   5.378 -0.2141 -0.5808  0.4564
    1OL    H17R 3051  -1.219   2.799   5.373 -0.0576 -0.0330  0.9740
    1OL    H17S 3052  -1.335   2.928   5.348 -0.3506 -1.5403 -3.2419
    1OL    C118 3053  -1.409   2.745   5.283  0.6846 -0.5170 -0.1501
    1OL    H18R 3054  -1.377   2.763   5.180  1.2471 -0.6331 -0.0018
    1OL    H18S 3055  -1.517   2.758   5.293  0.7684 -0.4401  0.7860
    1OL    H18T 3056  -1.385   2.642   5.311 -0.9153 -0.5604  1.2453
    1PA    C116 3057   5.117   1.431   5.066 -0.2635 -0.4178 -0.1034
    1PA    H16R 3058   5.147   1.527   5.023 -0.4997  0.6380  1.9633
    1PA    H16S 3059   5.074   1.371   4.986 -0.4839 -0.5407  0.1065
    1PA    H16T 3060   5.204   1.371   5.094 -1.6900 -1.7463  1.6897
    1PA    C115 3061   5.058   1.450   5.205 -0.3302  0.4150  0.1566
    1PA    H15R 3062   5.135   1.455   5.283 -2.2939 -2.9966  2.5976
    1PA    H15S 3063   5.003   1.544   5.211  2.5809  2.1973  1.1222
    1PA    C114 3064   4.958   1.347   5.254 -0.3124 -0.0769 -0.2028
    1PA    H14R 3065   4.934   1.381   5.354 -0.2059  1.7404 -0.7679
    1PA    H14S 3066   4.866   1.363   5.196  0.3656  2.0962 -0.7655
    1PA    C113 3067   5.004   1.199   5.250  0.0667 -0.4690  0.0120
    1PA    H13R 3068   4.925   1.133   5.288 -0.1462 -0.7822 -0.9491
    1PA    H13S 3069   5.014   1.167   5.146 -2.3123 -1.4374  0.0091
    1PA    C112 3070   5.121   1.165   5.341  0.6948  0.2538  0.0389
    1PA    H12R 3071   5.138   1.058   5.329  0.8860  0.3445 -0.5230
    1PA    H12S 3072   5.207   1.216   5.298  1.2228  0.7884  1.6452
    1PA    C111 3073   5.093   1.190   5.489 -0.2897  0.2222 -0.1136
    1PA    H11R 3074   5.082   1.296   5.516  0.2769  0.7103 -1.7041
    1PA    H11S 3075   5.004   1.140   5.528 -0.0582  0.1018  0.2569
    1PA    C110 3076   5.207   1.155   5.589 -0.9261 -0.7523 -0.1658
    1PA    H10R 3077   5.310   1.180   5.562 -0.9945  0.5750  0.7162
    1PA    H10S 3078   5.196   1.213   5.681 -0.4410 -1.5868  0.4276
    1PA     C19 3079   5.224   1.000   5.608 -0.4265 -0.0417 -0.3290
    1PA     H9R 3080   5.236   0.959   5.508 -0.0715 -3.1030  0.8675
    1PA     H9S 3081   5.311   0.987   5.672 -2.0832 -1.2593  1.8287
    1PA     C18 3082   5.102   0.947   5.685 -0.5031  0.6010  0.2008
    1PA     H8R 3083   5.011   0.976   5.632 -0.2504  0.6527 -0.2130
    1PA     H8S 3084   5.111   0.838   5.684  2.5109  0.7020 -2.4689
    1PA     C17 3085   5.094   0.991   5.833  0.7300  0.9405 -0.3454
    1PA     H7R 3086   5.197   0.982   5.867  1.5462 -0.5716 -2.9198
    1PA     H7S 3087   5.058   1.094   5.829  0.9956  0.9884 -1.9251
    1PA     C16 3088   5.003   0.904   5.919  0.4795  0.0178 -0.6457
    1PA     H6R 3089   4.901   0.915   5.884  0.0130  0.3540  0.7862
    1PA     H6S 3090   5.030   0.799   5.901  0.8951  0.0535 -0.2407
    1PA     C15 3091   5.011   0.928   6.073 -0.3919  0.2597 -0.2203
    1PA     H5R 3092   5.020   1.033   6.100 -0.4261  0.3718 -0.6390
    1PA     H5S 3093   4.921   0.895   6.125 -1.3313 -1.6709 -2.8684
    1PA     C14 3094   5.126   0.848   6.139 -0.1797  1.1056 -0.2621
    1PA     H4R 3095   5.143   0.749   6.096  1.1263  0.3897  1.7794
    1PA     H4S 3096   5.224   0.896   6.128 -0.8571  2.6013 -0.1156
    1PA     C13 3097   5.103   0.811   6.289  0.0888 -0.0080  0.0789
    1PA     H3R 3098   5.006   0.765   6.309  0.0579  0.0527  0.0678
    1PA     H3S 3099   5.183   0.741   6.317  0.9128  0.1203 -1.8183
    1PA     C12 3100   5.123   0.948   6.360 -0.5774  0.6993 -0.4493
    1PA     H2R 3101   5.212   1.005   6.333  0.4073 -0.6886 -0.2202
    1PA     H2S 3102   5.038   1.006   6.322 -2.4793 -1.7197 -0.1911
    1PC     C11 3103   5.103   0.921   6.509 -0.7259 -0.4898  0.0873
    1PC     O12 3104   5.195   0.897   6.584  0.3431 -0.1293 -0.0790
    1PC     O11 3105   4.974   0.936   6.542 -0.1409 -0.0177 -0.3807
    1PC      C1 3106   4.934   0.913   6.683 -0.3313  0.0492  0.0761
    1PC      HR 3107   4.826   0.915   6.669 -0.3608 -1.5541 -0.1571
    1PC      HS 3108   4.958   0.814   6.722 -1.6202 -0.3256 -0.0274
    1PC      C2 3109   4.986   1.022   6.779 -0.1003 -0.0187 -0.1892
    1PC      HX 3110   5.096   1.020   6.781 -0.0922 -1.1773 -0.6470
    1PC      C3 3111   4.938   1.002   6.924 -0.1046 -0.3279 -0.1304
    1PC      HA 3112   5.014   0.950   6.983 -0.3279  0.5572  0.9760
    1PC      HB 3113   4.928   1.099   6.974 -1.3672  0.8507 -2.4997
    1PC     O31 3114   4.817   0.927   6.942  0.0581  0.4839  0.2776
    1PC     P31 3115   4.702   0.982   7.029 -0.4206 -0.0588 -0.1893
    1PC     O32 3116   4.659   1.109   6.943 -0.0374  0.0876  0.1059
    1PC     C31 3117   4.598   1.097   6.811  0.6867  0.6424  0.1356
    1PC     H1A 3118   4.648   1.009   6.769 -1.9019 -0.6821 -0.3794
    1PC     H1B 3119   4.492   1.069   6.816  0.4909  1.0639 -1.3197
    1PC     C32 3120   4.621   1.227   6.737  0.2997 -0.4746 -0.4816
    1PC     H2A 3121   4.730   1.237   6.737  0.7871 -4.1949 -0.4822
    1PC     H2B 3122   4.580   1.222   6.637  1.8321  0.6263 -1.1977
    1PC     N31 3123   4.557   1.348   6.801 -0.0250 -0.4349  0.0741
    1PC     C33 3124   4.408   1.326   6.818  0.4199  1.0504  0.7461
    1PC     H3A 3125   4.383   1.253   6.895 -4.5620  1.9439  0.3621
    1PC     H3B 3126   4.380   1.429   6.844  1.0167  1.0500  1.4186
    1PC     H3C 3127   4.364   1.305   6.720  0.6575  0.6179  0.7329
    1PC     C34 3128   4.617   1.381   6.931  0.0433 -0.1337  1.0952
    1PC     H4A 3129   4.575   1.315   7.007 -1.8846 -1.2836 -0.8241
    1PC     H4B 3130   4.725   1.374   6.923  0.4949  1.8826  3.9901
    1PC     H4C 3131   4.593   1.486   6.946 -1.8768  0.1409 -2.5889
    1PC     C35 3132   4.566   1.479   6.720 -0.0361  0.1201 -0.5854
    1PC     H5A 3133   4.511   1.560   6.768  0.8224  0.4932 -0.1923
    1PC     H5B 3134   4.516   1.464   6.624  0.5595  2.2894 -1.3139
    1PC     H5C 3135   4.671   1.510   6.711 -0.5908  1.4916 -3.1570
    1PC     O33 3136   4.582   0.895   7.034 -0.3309  0.2741 -0.3735
    1PC     O34 3137   4.767   1.027   7.155  0.6322  0.0470 -0.0077
    1PC     O21 3138   4.948   1.152   6.734  0.1322 -0.4030 -0.2138
    1PC     C21 3139   5.038   1.252   6.732 -0.2242  0.1353  0.3396
    1PC     O22 3140   5.143   1.252   6.791 -0.3133 -0.0725 -0.0579
    1OL     C12 3141   4.993   1.370   6.654 -0.1880 -0.0149 -0.1857
    1OL     H2R 3142   4.990   1.453   6.725  1.9152 -0.9019  1.0398
    1OL     H2S 3143   4.892   1.343   6.621  0.0858  0.6081 -1.5936
    1OL     C13 3144   5.089   1.395   6.540 -0.4279 -0.9882  0.1063
    1OL     H3R 3145   5.190   1.400   6.582  0.7286  0.2127 -2.5728
    1OL     H3S 3146   5.073   1.492   6.491 -2.9414 -1.4950 -0.2265
    1OL     C14 3147   5.084   1.294   6.428 -0.1034  0.3884  0.1200
    1OL     H4R 3148   4.988   1.291   6.375  0.1338 -1.7411 -0.2982
    1OL     H4S 3149   5.105   1.197   6.475  1.8863  1.1819  0.9790
    1OL     C15 3150   5.199   1.302   6.329  0.0365 -0.5206 -0.1762
    1OL     H5R 3151   5.210   1.215   6.264 -0.7088 -0.3845 -0.4945
    1OL     H5S 3152   5.295   1.303   6.380  0.3114  2.9252 -0.5413
    1OL     C16 3153   5.199   1.432   6.253 -0.3981  0.0237  0.4217
    1OL     H6R 3154   5.282   1.425   6.183 -0.4790 -3.1117  0.5113
    1OL     H6S 3155   5.211   1.519   6.317  2.6713 -0.0275  0.0404
    1OL     C17 3156   5.082   1.438   6.155  0.4044  0.2292 -0.1553
    1OL     H7R 3157   4.992   1.425   6.216 -0.1019  2.3432 -0.3530
    1OL     H7S 3158   5.095   1.350   6.092  0.0227  0.0241  0.0524
    1OL     C18 3159   5.088   1.568   6.077 -0.4656 -0.1974  0.6605
    1OL     H8R 3160   5.183   1.560   6.025 -0.1800  0.8423  0.9950
    1OL     H8S 3161   5.108   1.647   6.151  3.8476 -0.0986 -0.3541
    1OL     C19 3162   4.965   1.575   5.986 -0.4637  0.4121  0.2422
    1OL     H9R 3163   4.882   1.518   6.026  1.5716 -2.9985  0.0213
    1OL    C110 3164   4.961   1.626   5.865  0.6225  0.0058 -0.0303
    1OL    H10R 3165   4.869   1.614   5.809 -0.4544 -1.0084  1.8357
    1OL    C111 3166   5.070   1.701   5.797 -0.9588 -0.1413 -0.0120
    1OL    H11R 3167   5.150   1.639   5.755  1.0843  2.0315  0.4566
    1OL    H11S 3168   5.110   1.764   5.877 -1.6444  0.2469  0.0291
    1OL    C112 3169   5.021   1.778   5.679  0.3494 -0.1271  0.3825
    1OL    H12R 3170   4.938   1.839   5.716  0.0748 -0.8294  0.9560
    1OL    H12S 3171   4.972   1.706   5.613  0.1143  0.4399 -0.0664
    1OL    C113 3172   5.121   1.865   5.599 -0.4817  0.3236  0.0749
    1OL    H13R 3173   5.188   1.796   5.547 -1.0372 -1.2530  1.3680
    1OL    H13S 3174   5.171   1.930   5.670  0.0693 -1.3034  1.2541
    1OL    C114 3175   5.061   1.963   5.497  0.3764  0.0012  0.4165
    1OL    H14R 3176   5.141   2.036   5.477 -0.1953  0.7120  0.6679
    1OL    H14S 3177   4.985   2.015   5.556  0.1124  1.4246 -1.0866
    1OL    C115 3178   4.987   1.909   5.373  0.4451  0.1104  0.0848
    1OL    H15R 3179   4.951   1.993   5.313 -1.3582 -1.2863 -0.8712
    1OL    H15S 3180   4.907   1.848   5.416  0.1642  1.8644  2.2679
    1OL    C116 3181   5.074   1.813   5.286 -0.1795 -0.2584 -0.6726
    1OL    H16R 3182   5.021   1.769   5.201  1.8752 -2.1095 -1.0741
    1OL    H16S 3183   5.106   1.736   5.357  1.0370  1.4251  0.6840
    1OL    C117 3184   5.199   1.894   5.230 -0.3284 -0.0288 -0.6069
    1OL    H17R 3185   5.255   1.839   5.154 -1.5399  0.2625 -1.7582
    1OL    H17S 3186   5.262   1.913   5.317 -1.8041 -0.1030  0.5169
    1OL    C118 3187   5.164   2.025   5.158  0.3394 -0.4432 -0.4319
    1OL    H18R 3188   5.255   2.064   5.112  1.8154 -2.6067  0.5013
    1OL    H18S 3189   5.142   2.103   5.232  1.9084 -1.0591  0.7369
    1OL    H18T 3190   5.083   2.009   5.088  2.1639 -3.9717 -1.9605
    1PA    C116 3191   4.270   1.206   5.480 -0.9254  0.0293  0.3999
    1PA    H16R 3192   4.223   1.201   5.382 -1.4939  0.1461  0.6651
    1PA    H16S 3193   4.192   1.187   5.553 -3.5495  1.1373 -1.9634
    1PA    H16T 3194   4.344   1.125   5.473 -0.1889  0.7699 -0.7661
    1PA    C115 3195   4.329   1.347   5.500 -0.0379  0.0244  0.1093
    1PA    H15R 3196   4.248   1.421   5.496 -0.7119 -0.7099 -0.1482
    1PA    H15S 3197   4.365   1.343   5.602 -2.2812  0.6494  0.9952
    1PA    C114 3198   4.427   1.392   5.397  0.2287  0.9965  0.8902
    1PA    H14R 3199   4.375   1.395   5.301 -0.9733 -0.8048  1.4414
    1PA    H14S 3200   4.455   1.494   5.426 -0.9599  1.8273 -0.7498
    1PA    C113 3201   4.545   1.301   5.383  0.1924 -0.3694  0.3316
    1PA    H13R 3202   4.518   1.212   5.325  1.3304  0.6797 -1.9331
    1PA    H13S 3203   4.622   1.356   5.329 -1.5090  0.7217 -1.0931
    1PA    C112 3204   4.605   1.255   5.517 -0.3749  0.8245  0.3448
    1PA    H12R 3205   4.530   1.212   5.582  0.9863  0.6228  1.8454
    1PA    H12S 3206   4.684   1.181   5.501  0.2519  1.3293  0.9928
    1PA    C111 3207   4.669   1.379   5.594  0.4785 -0.3313 -0.3397
    1PA    H11R 3208   4.699   1.455   5.521 -0.4986  0.3680 -0.0328
    1PA    H11S 3209   4.592   1.434   5.649  0.1202  1.6088 -2.5918
    1PA    C110 3210   4.791   1.340   5.675  0.7298  0.0309 -0.7505
    1PA    H10R 3211   4.861   1.280   5.615  2.7930  0.2778  1.2738
    1PA    H10S 3212   4.846   1.430   5.702 -0.4491  0.0745  1.7143
    1PA     C19 3213   4.756   1.266   5.803 -0.3964  0.2052 -0.5304
    1PA     H9R 3214   4.727   1.162   5.789 -0.1776 -0.0094  0.5265
    1PA     H9S 3215   4.851   1.256   5.856  0.9510  2.0197 -2.4632
    1PA     C18 3216   4.653   1.348   5.893  0.1514 -0.3502 -0.0066
    1PA     H8R 3217   4.691   1.449   5.904  0.8113 -0.7002  1.0087
    1PA     H8S 3218   4.556   1.353   5.842 -1.2032 -0.4767  2.4153
    1PA     C17 3219   4.622   1.288   6.029 -0.7757  0.1277 -0.7961
    1PA     H7R 3220   4.548   1.343   6.086  0.7737  1.6872 -0.1778
    1PA     H7S 3221   4.571   1.193   6.013 -0.8293 -0.3725  1.8850
    1PA     C16 3222   4.754   1.266   6.116  0.0276 -0.1069  0.0043
    1PA     H6R 3223   4.830   1.195   6.082  0.6474  0.2357  0.6650
    1PA     H6S 3224   4.800   1.365   6.126 -1.0000  0.6529 -2.0027
    1PA     C15 3225   4.713   1.220   6.253  0.7082  0.3280  0.4380
    1PA     H5R 3226   4.801   1.226   6.318  0.5885  1.0405  0.5461
    1PA     H5S 3227   4.632   1.280   6.294 -0.3669 -2.2259  2.3404
    1PA     C14 3228   4.664   1.072   6.251 -0.3236 -0.0908  0.0832
    1PA     H4R 3229   4.587   1.076   6.173  1.4652  1.5110 -1.7121
    1PA     H4S 3230   4.737   1.003   6.208 -0.0307  1.4929 -2.1335
    1PA     C13 3231   4.610   1.022   6.389  0.1915  0.4413 -0.4290
    1PA     H3R 3232   4.697   1.005   6.453 -0.8546  0.2333  0.9702
    1PA     H3S 3233   4.546   1.083   6.453  1.2590  0.8222  0.3055
    1PA     C12 3234   4.541   0.890   6.372 -0.0860 -0.0754 -0.0603
    1PA     H2R 3235   4.453   0.902   6.309 -0.8748  1.4354  1.2296
    1PA     H2S 3236   4.610   0.818   6.328  0.0526  0.1626 -0.2349
    1PC     C11 3237   4.487   0.844   6.505 -0.7696  0.3875  0.3142
    1PC     O12 3238   4.541   0.854   6.611 -0.2304  0.4571  0.4423
    1PC     O11 3239   4.373   0.777   6.492 -0.2112  0.1560 -0.5340
    1PC      C1 3240   4.296   0.739   6.608  0.1650  0.1018 -0.0861
    1PC      HR 3241   4.211   0.677   6.580  2.3274 -3.3599  0.3953
    1PC      HS 3242   4.360   0.673   6.668  0.2910 -0.7627 -1.1376
    1PC      C2 3243   4.254   0.856   6.703 -1.0653  0.5802  0.5969
    1PC      HX 3244   4.336   0.915   6.746  0.0582 -0.0238 -0.6263
    1PC      C3 3245   4.173   0.795   6.823 -0.1817 -0.0718  0.2088
    1PC      HA 3246   4.233   0.725   6.881  0.6769  0.2185 -0.3243
    1PC      HB 3247   4.131   0.869   6.892 -0.7724 -0.7939  0.6342
    1PC     O31 3248   4.060   0.713   6.782  0.4930 -0.3278  0.0706
    1PC     P31 3249   3.988   0.622   6.886  0.0491 -0.1165 -0.1518
    1PC     O32 3250   4.073   0.491   6.897 -0.3888 -0.4395 -0.5608
    1PC     C31 3251   4.090   0.397   6.793 -0.1477 -0.2430 -0.1382
    1PC     H1A 3252   3.992   0.379   6.750  0.0377 -1.9092  0.0782
    1PC     H1B 3253   4.161   0.442   6.723 -0.9497  0.8524 -0.2667
    1PC     C32 3254   4.139   0.263   6.850  0.3914 -0.2833 -0.5304
    1PC     H2A 3255   4.154   0.200   6.763  0.5373 -0.8838 -0.0743
    1PC     H2B 3256   4.227   0.279   6.912 -1.0798  2.9000  0.9984
    1PC     N31 3257   4.047   0.184   6.944  0.2963  0.2523 -0.2978
    1PC     C33 3258   3.968   0.271   7.030 -1.0075 -0.0131  0.6076
    1PC     H3A 3259   3.901   0.336   6.973 -1.2601 -1.4244 -0.7979
    1PC     H3B 3260   3.902   0.203   7.084  2.2273 -4.5651 -0.6062
    1PC     H3C 3261   4.033   0.329   7.096 -1.1953 -1.8168  2.4759
    1PC     C34 3262   3.963   0.102   6.846 -0.0518 -0.7667 -0.1952
    1PC     H4A 3263   3.897   0.173   6.797 -0.1952  0.2532  1.4091
    1PC     H4B 3264   4.027   0.046   6.777  0.9839 -1.8855  1.6077
    1PC     H4C 3265   3.897   0.032   6.898 -0.4537  0.4042  0.9059
    1PC     C35 3266   4.129   0.081   7.022 -0.8805 -0.2416 -0.5071
    1PC     H5A 3267   4.061   0.039   7.096  0.0417 -0.0221  0.4873
    1PC     H5B 3268   4.209   0.134   7.074  0.1794 -0.1244 -2.1920
    1PC     H5C 3269   4.170   0.004   6.957  1.2228  0.7557 -0.4558
    1PC     O33 3270   3.991   0.683   7.021 -0.5606 -0.2451  0.4578
    1PC     O34 3271   3.864   0.583   6.822 -0.0487 -0.0222  0.0364
    1PC     O21 3272   4.164   0.945   6.632 -0.2331 -0.4913  0.4640
    1PC     C21 3273   4.208   1.058   6.576 -0.4643  0.7357  0.1699
    1PC     O22 3274   4.319   1.108   6.573  0.5868  0.0685  0.1603
    1OL     C12 3275   4.081   1.130   6.513  0.3289  0.5181 -0.3676
    1OL     H2R 3276   4.100   1.237   6.513  0.1151  0.6017  1.6201
    1OL     H2S 3277   3.994   1.105   6.574  1.0431  0.2743  0.5902
    1OL     C13 3278   4.051   1.076   6.373  0.3649  0.6722  0.4747
    1OL     H3R 3279   3.960   1.127   6.340 -0.3481 -1.1499 -0.4804
    1OL     H3S 3280   4.042   0.968   6.376 -2.2098  0.6730 -2.4715
    1OL     C14 3281   4.157   1.113   6.265  0.2275 -0.6574 -0.2911
    1OL     H4R 3282   4.256   1.069   6.277  0.5112 -0.0903 -0.5261
    1OL     H4S 3283   4.152   1.222   6.261  0.2215 -0.5904  1.0467
    1OL     C15 3284   4.093   1.075   6.129  0.4575 -0.0293 -0.0416
    1OL     H5R 3285   3.997   1.126   6.120  0.9774  0.8377 -0.9887
    1OL     H5S 3286   4.081   0.967   6.120 -0.4822  0.0747 -0.1331
    1OL     C16 3287   4.180   1.108   6.005  0.2246 -0.0768 -0.4067
    1OL     H6R 3288   4.169   1.214   5.978  0.8496 -0.4352 -2.2215
    1OL     H6S 3289   4.145   1.054   5.917  1.8959  0.4204 -1.4347
    1OL     C17 3290   4.325   1.068   6.010 -0.0710 -0.2768  0.5031
    1OL     H7R 3291   4.376   1.134   6.081  0.8743  0.1381 -0.5418
    1OL     H7S 3292   4.371   1.099   5.916  0.6502 -0.9523  0.6154
    1OL     C18 3293   4.363   0.925   6.036 -0.7806  0.4062  0.0062
    1OL     H8R 3294   4.302   0.861   5.972  0.9315  0.3189 -1.6521
    1OL     H8S 3295   4.336   0.897   6.138  0.7001 -2.3322 -0.2421
    1OL     C19 3296   4.508   0.897   6.013 -0.5463  0.4771 -0.5627
    1OL     H9R 3297   4.570   0.889   6.102 -0.1122 -0.8814 -0.9578
    1OL    C110 3298   4.570   0.869   5.898  0.0498 -0.6616 -0.2503
    1OL    H10R 3299   4.678   0.858   5.894  0.1710  0.7190 -3.1583
    1OL    C111 3300   4.512   0.875   5.756  0.1684  0.0913 -0.1484
    1OL    H11R 3301   4.500   0.979   5.725  3.4469  0.8826  0.8210
    1OL    H11S 3302   4.412   0.832   5.752 -0.3828  1.3882 -2.2380
    1OL    C112 3303   4.604   0.815   5.652  0.6226 -0.3977  0.0227
    1OL    H12R 3304   4.620   0.709   5.672 -1.7150 -0.6610  0.7824
    1OL    H12S 3305   4.704   0.858   5.664  0.0632  0.5482  1.5140
    1OL    C113 3306   4.550   0.834   5.508 -0.5200  0.1329 -0.4731
    1OL    H13R 3307   4.531   0.940   5.492 -0.5405  0.1469 -0.3589
    1OL    H13S 3308   4.459   0.774   5.502 -0.3571 -0.2704  0.7837
    1OL    C114 3309   4.643   0.780   5.396  0.5295 -0.0853  0.2406
    1OL    H14R 3310   4.585   0.802   5.306 -1.3360  0.6238  1.5582
    1OL    H14S 3311   4.650   0.671   5.407  0.9525  0.1304  2.7018
    1OL    C115 3312   4.778   0.842   5.383 -0.3891  0.3738 -0.0648
    1OL    H15R 3313   4.834   0.824   5.475  1.2889  2.8716 -0.5212
    1OL    H15S 3314   4.771   0.950   5.374  1.9502  0.6341  0.5256
    1OL    C116 3315   4.848   0.779   5.260  0.8977 -0.2440 -0.1156
    1OL    H16R 3316   4.914   0.860   5.226 -1.1113  2.8454  2.7803
    1OL    H16S 3317   4.767   0.770   5.187  1.0526 -0.0625 -0.3132
    1OL    C117 3318   4.916   0.639   5.276  0.1976 -0.1460  0.1495
    1OL    H17R 3319   4.840   0.571   5.315  0.4264 -0.2886  0.3502
    1OL    H17S 3320   5.001   0.654   5.343  1.4616  0.3063 -1.4978
    1OL    C118 3321   4.977   0.580   5.137  0.7139  0.9035 -0.3043
    1OL    H18R 3322   4.901   0.554   5.064 -0.7733  1.3945  1.0170
    1OL    H18S 3323   5.034   0.488   5.152 -1.7533 -1.2531 -3.0421
    1OL    H18T 3324   5.059   0.641   5.098  1.1582  0.8506  0.5149
    1PA    C116 3325   4.182   3.832   4.972 -0.7416  0.0533 -0.3470
    1PA    H16R 3326   4.092   3.804   4.916 -0.9624  0.5382 -0.2373
    1PA    H16S 3327   4.274   3.833   4.914 -1.6501  1.2147 -1.8274
    1PA    H16T 3328   4.174   3.933   5.011 -1.6337 -0.8992  2.2100
    1PA    C115 3329   4.199   3.747   5.092 -0.2728  0.0393  0.1020
    1PA    H15R 3330   4.107   3.753   5.151 -0.7835  1.0976 -0.7698
    1PA    H15S 3331   4.214   3.644   5.059  0.0247  0.2105 -0.3134
    1PA    C114 3332   4.311   3.795   5.187  0.4776 -0.6361 -0.4537
    1PA    H14R 3333   4.404   3.787   5.130  0.6744  0.4306 -0.2989
    1PA    H14S 3334   4.296   3.901   5.209  0.4236 -0.8614  0.6341
    1PA    C113 3335   4.319   3.718   5.322 -0.0354  0.4800  0.4918
    1PA    H13R 3336   4.221   3.697   5.364  0.5997 -0.4667  1.5878
    1PA    H13S 3337   4.358   3.620   5.291  0.1921  1.5509 -3.0099
    1PA    C112 3338   4.398   3.796   5.427 -0.4340 -0.4145 -0.4004
    1PA    H12R 3339   4.467   3.852   5.364 -2.5213  4.3570  1.0287
    1PA    H12S 3340   4.342   3.877   5.476  2.9036  1.1841  1.1094
    1PA    C111 3341   4.472   3.719   5.540 -0.3058  0.5139  0.0722
    1PA    H11R 3342   4.406   3.661   5.605  2.2228  0.0784  2.4435
    1PA    H11S 3343   4.542   3.653   5.488  1.0348  2.0703 -0.1484
    1PA    C110 3344   4.550   3.803   5.634  0.0832 -0.2037 -0.1038
    1PA    H10R 3345   4.619   3.865   5.575 -0.0452 -0.1852 -0.2349
    1PA    H10S 3346   4.473   3.862   5.685  1.1868  0.0261  1.3731
    1PA     C19 3347   4.621   3.723   5.745  0.1177 -0.3487 -0.6530
    1PA     H9R 3348   4.546   3.668   5.802  1.4782  0.1414  1.7727
    1PA     H9S 3349   4.696   3.660   5.698  0.1658  0.6070 -1.9334
    1PA     C18 3350   4.690   3.821   5.843  0.1059 -0.6929 -0.2782
    1PA     H8R 3351   4.766   3.879   5.791  0.8540 -0.7424  0.7356
    1PA     H8S 3352   4.618   3.896   5.876  1.6975  0.5620  0.4794
    1PA     C17 3353   4.746   3.740   5.962  0.0105  0.0925 -0.2029
    1PA     H7R 3354   4.663   3.678   5.997 -0.2895 -1.0007 -2.6390
    1PA     H7S 3355   4.823   3.669   5.929 -1.4296 -1.4534 -0.3775
    1PA     C16 3356   4.789   3.828   6.077 -0.4491 -0.1353 -0.4276
    1PA     H6R 3357   4.864   3.898   6.042  0.9726 -1.2783  0.1973
    1PA     H6S 3358   4.699   3.880   6.109 -1.2964 -1.5628 -0.3706
    1PA     C15 3359   4.855   3.742   6.183 -0.2723  0.5498  0.0206
    1PA     H5R 3360   4.797   3.651   6.200  0.9023  0.0049  1.4072
    1PA     H5S 3361   4.950   3.701   6.147  0.5670  2.1192  0.3434
    1PA     C14 3362   4.887   3.823   6.312 -0.0954 -0.0609  0.3669
    1PA     H4R 3363   4.944   3.761   6.382  1.3437  2.9278  2.0040
    1PA     H4S 3364   4.952   3.904   6.279 -0.7116 -0.0264 -0.8081
    1PA     C13 3365   4.763   3.894   6.385 -0.2221 -0.7252  0.5677
    1PA     H3R 3366   4.714   3.948   6.303  0.2575 -0.0967  0.6959
    1PA     H3S 3367   4.684   3.823   6.411 -1.7651  1.0449  0.8898
    1PA     C12 3368   4.802   3.991   6.503  0.3549 -0.4032  0.5897
    1PA     H2R 3369   4.875   3.949   6.573  0.7131 -1.1642 -0.2101
    1PA     H2S 3370   4.855   4.075   6.457 -3.0935  1.9227  0.5591
    1PC     C11 3371   4.686   4.045   6.577  0.1338  0.3207  0.2619
    1PC     O12 3372   4.661   4.002   6.690 -0.1574 -0.4096 -0.1087
    1PC     O11 3373   4.619   4.143   6.509 -0.3065  0.3444  0.3962
    1PC      C1 3374   4.527   4.217   6.592  0.4168 -0.1735 -0.1420
    1PC      HR 3375   4.470   4.285   6.528 -0.7086  0.6082  1.5992
    1PC      HS 3376   4.452   4.161   6.650 -0.5042  0.6716 -0.4824
    1PC      C2 3377   4.608   4.298   6.700 -0.4731 -0.2959  0.2769
    1PC      HX 3378   4.647   4.232   6.777 -0.9037 -0.1675  0.6096
    1PC      C3 3379   4.515   4.401   6.781  0.2004  0.1138 -0.5587
    1PC      HA 3380   4.482   4.483   6.716  0.5615  1.5846  1.0282
    1PC      HB 3381   4.421   4.357   6.816  1.4192 -0.6871  1.9451
    1PC     O31 3382   4.598   4.466   6.884 -0.4050  0.1861  0.7337
    1PC     P31 3383   4.586   4.425   7.041  0.2357  0.2432  0.4065
    1PC     O32 3384   4.662   4.291   7.040 -0.6346  0.1736 -0.3479
    1PC     C31 3385   4.803   4.282   7.027 -0.0031 -0.0840 -0.0139
    1PC     H1A 3386   4.824   4.182   6.988 -0.6270 -0.0654 -0.4041
    1PC     H1B 3387   4.825   4.350   6.944 -1.8501  0.7554  0.1337
    1PC     C32 3388   4.879   4.308   7.156  0.5539  0.0278  0.5032
    1PC     H2A 3389   4.987   4.323   7.145  0.4680  0.1105 -0.3308
    1PC     H2B 3390   4.830   4.398   7.193 -1.0653 -0.0214 -1.3582
    1PC     N31 3391   4.870   4.204   7.270 -0.4766  0.3513  0.6733
    1PC     C33 3392   4.961   4.235   7.381  0.2977  0.0120  0.1719
    1PC     H3A 3393   4.917   4.208   7.477 -0.0120  0.2271  0.0936
    1PC     H3B 3394   5.056   4.189   7.353 -0.2417  0.5124 -2.9290
    1PC     H3C 3395   4.983   4.339   7.405  1.4215 -0.8908  3.6426
    1PC     C34 3396   4.732   4.214   7.322 -0.2856  1.0534  0.1258
    1PC     H4A 3397   4.671   4.174   7.241  0.1919 -1.7273  1.0152
    1PC     H4B 3398   4.748   4.142   7.403  2.9911 -1.2428 -2.2760
    1PC     H4C 3399   4.708   4.313   7.359  0.1211  0.5251  1.9046
    1PC     C35 3400   4.903   4.069   7.214 -0.4840  0.2741  0.0043
    1PC     H5A 3401   4.837   4.043   7.131  0.6708  0.0976 -0.8954
    1PC     H5B 3402   4.891   3.995   7.294  0.9423  0.3952  0.3497
    1PC     H5C 3403   5.009   4.079   7.192 -0.4109 -0.2661  0.0937
    1PC     O33 3404   4.667   4.525   7.112  0.6696 -0.2682 -0.0448
    1PC     O34 3405   4.442   4.395   7.067 -0.4161 -0.1045  0.4615
    1PC     O21 3406   4.707   4.382   6.631 -0.2140 -0.1783 -0.7968
    1PC     C21 3407   4.831   4.333   6.618 -0.1097 -0.6995  0.1504
    1PC     O22 3408   4.874   4.233   6.667 -0.0853 -0.3138 -0.4987
    1OL     C12 3409   4.909   4.413   6.519 -0.4239 -0.2203  0.0067
    1OL     H2R 3410   5.017   4.410   6.537  0.0722  2.2708 -1.9743
    1OL     H2S 3411   4.885   4.520   6.515  1.1321  0.1582 -0.0284
    1OL     C13 3412   4.892   4.351   6.380  0.0455  0.6418  0.1174
    1OL     H3R 3413   4.788   4.316   6.379  0.7632 -1.6476 -0.1617
    1OL     H3S 3414   4.954   4.262   6.367 -0.0796  0.5809 -0.0677
    1OL     C14 3415   4.908   4.445   6.265 -0.6009 -0.5267  0.4293
    1OL     H4R 3416   4.828   4.520   6.257 -0.5133 -0.4805 -0.0024
    1OL     H4S 3417   4.914   4.388   6.173  0.8909 -0.1008  0.2389
    1OL     C15 3418   5.046   4.527   6.278  0.4786 -0.0921 -0.4863
    1OL     H5R 3419   5.128   4.456   6.286 -0.9270 -1.7291 -0.0013
    1OL     H5S 3420   5.041   4.589   6.367  0.5100  0.7662 -1.0678
    1OL     C16 3421   5.077   4.635   6.164 -0.3907  0.3803 -0.0418
    1OL     H6R 3422   5.169   4.685   6.197  0.1885 -1.2316  0.9581
    1OL     H6S 3423   4.990   4.701   6.162 -1.4506 -0.9667  0.1124
    1OL     C17 3424   5.098   4.578   6.022  0.3378 -0.0429 -0.1987
    1OL     H7R 3425   5.007   4.522   5.998 -1.2533  2.3521 -0.1780
    1OL     H7S 3426   5.189   4.519   6.013 -0.3196 -1.4026  1.5388
    1OL     C18 3427   5.119   4.697   5.925 -0.6029  0.7335 -0.3913
    1OL     H8R 3428   5.212   4.744   5.955  0.0226 -1.5481  1.4892
    1OL     H8S 3429   5.044   4.776   5.936 -0.4556  0.7220  0.8226
    1OL     C19 3430   5.128   4.638   5.785  0.2848 -0.4404 -0.2211
    1OL     H9R 3431   5.076   4.547   5.758  1.7998 -0.4341 -3.6676
    1OL    C110 3432   5.205   4.691   5.692  0.0243 -0.8163  0.1001
    1OL    H10R 3433   5.209   4.644   5.594  1.5589 -1.1191  0.2874
    1OL    C111 3434   5.292   4.814   5.707 -0.0070 -0.8801 -0.8042
    1OL    H11R 3435   5.382   4.769   5.749 -0.3063 -0.8503 -0.1148
    1OL    H11S 3436   5.258   4.897   5.769  2.4831 -0.2615 -0.1636
    1OL    C112 3437   5.338   4.876   5.577 -0.2122 -0.3045  0.3082
    1OL    H12R 3438   5.396   4.800   5.525  0.9942  0.2468  0.8251
    1OL    H12S 3439   5.405   4.961   5.594 -0.5598 -0.6325  3.9801
    1OL    C113 3440   5.229   4.926   5.480  0.8250  0.1478  0.4399
    1OL    H13R 3441   5.161   4.846   5.451  1.2747  0.6591 -2.2826
    1OL    H13S 3442   5.275   4.966   5.390 -1.1175 -0.1590 -0.7357
    1OL    C114 3443   5.143   5.043   5.536  0.6021  0.4523 -0.8907
    1OL    H14R 3444   5.214   5.108   5.589 -1.6728  1.2044  1.4467
    1OL    H14S 3445   5.076   5.009   5.615  1.3974 -0.4604 -0.5767
    1OL    C115 3446   5.071   5.139   5.438 -0.5775 -0.8892 -0.3907
    1OL    H15R 3447   5.040   5.225   5.497 -0.5918 -0.2307 -1.3344
    1OL    H15S 3448   4.982   5.090   5.396 -0.3550  0.4054 -2.5019
    1OL    C116 3449   5.164   5.194   5.324  0.2964  0.1309 -0.5049
    1OL    H16R 3450   5.171   5.115   5.248 -1.4888 -0.1347 -0.4373
    1OL    H16S 3451   5.262   5.220   5.364 -1.1305  2.6228  1.6701
    1OL    C117 3452   5.115   5.319   5.249  0.3614 -0.5139 -0.6444
    1OL    H17R 3453   5.019   5.301   5.200  0.7701 -2.0194 -0.9523
    1OL    H17S 3454   5.194   5.357   5.183  1.2652  1.3996  1.4012
    1OL    C118 3455   5.088   5.441   5.339  0.0378  0.4190 -0.1229
    1OL    H18R 3456   4.997   5.430   5.398  0.0979  1.3809  0.1746
    1OL    H18S 3457   5.070   5.535   5.286 -1.2137  0.7871  0.8979
    1OL    H18T 3458   5.168   5.453   5.411  1.6736 -2.3347 -1.3320
    1PA    C116 3459   2.526   4.665   5.138  0.0755  0.3664  0.2268
    1PA    H16R 3460   2.418   4.670   5.125 -0.0572  0.9886  1.4274
    1PA    H16S 3461   2.555   4.560   5.129 -0.2026  0.2232  0.9382
    1PA    H16T 3462   2.580   4.718   5.059 -1.7119 -0.7337 -1.8551
    1PA    C115 3463   2.573   4.713   5.275 -0.0260  0.0035 -0.1267
    1PA    H15R 3464   2.504   4.686   5.356 -0.2711 -1.7675 -0.8807
    1PA    H15S 3465   2.667   4.669   5.307 -0.9566 -1.4972  0.6762
    1PA    C114 3466   2.591   4.863   5.269 -0.2849 -0.1048 -0.2306
    1PA    H14R 3467   2.642   4.903   5.356 -0.7479 -2.2359  1.1053
    1PA    H14S 3468   2.649   4.901   5.184  3.3583  1.3699  2.6534
    1PA    C113 3469   2.461   4.934   5.260 -0.3439 -0.5087 -0.1198
    1PA    H13R 3470   2.396   4.880   5.191  1.1811 -0.3710 -1.7353
    1PA    H13S 3471   2.412   4.938   5.358  2.0076  1.3624  1.0800
    1PA    C112 3472   2.476   5.070   5.197  0.2169  0.1990 -0.1012
    1PA    H12R 3473   2.514   5.064   5.094  0.1561 -0.0548 -0.1091
    1PA    H12S 3474   2.375   5.109   5.187  0.0576 -0.0835  0.3837
    1PA    C111 3475   2.559   5.172   5.282  0.4968 -0.5556 -0.3337
    1PA    H11R 3476   2.666   5.163   5.262  0.0615 -1.2187 -2.7235
    1PA    H11S 3477   2.531   5.272   5.248  1.4839  0.1865  0.9431
    1PA    C110 3478   2.536   5.173   5.433 -0.0588 -0.3186 -0.1429
    1PA    H10R 3479   2.428   5.191   5.443 -0.5213 -3.1082  0.6402
    1PA    H10S 3480   2.548   5.074   5.477  0.1706 -1.4904 -2.6889
    1PA     C19 3481   2.610   5.297   5.489 -0.2874  0.2366 -0.7492
    1PA     H9R 3482   2.711   5.302   5.449 -0.0950  2.3937 -0.1329
    1PA     H9S 3483   2.558   5.386   5.452  0.7458  1.4278  0.5173
    1PA     C18 3484   2.627   5.298   5.646 -0.5421 -0.0847 -0.4754
    1PA     H8R 3485   2.681   5.385   5.684 -0.6695  0.1301 -0.7749
    1PA     H8S 3486   2.532   5.315   5.697 -0.0045 -1.0216  0.8836
    1PA     C17 3487   2.681   5.173   5.713  0.3068 -0.6876 -0.6928
    1PA     H7R 3488   2.597   5.103   5.713 -3.7281  3.2947  4.5100
    1PA     H7S 3489   2.769   5.139   5.658  0.9755  1.7270 -1.2309
    1PA     C16 3490   2.718   5.195   5.862  0.0534 -1.2607 -0.7275
    1PA     H6R 3491   2.774   5.288   5.874 -1.7889 -0.0719 -0.8009
    1PA     H6S 3492   2.625   5.211   5.918  0.3264  1.9791 -0.9764
    1PA     C15 3493   2.788   5.078   5.931 -0.2574  0.0844 -0.1000
    1PA     H5R 3494   2.720   4.993   5.941  0.3418 -0.4366 -0.3590
    1PA     H5S 3495   2.880   5.060   5.874 -0.4305  0.9864 -0.6777
    1PA     C14 3496   2.827   5.124   6.073 -0.4352 -1.1813 -0.0922
    1PA     H4R 3497   2.905   5.199   6.082 -0.9510 -0.5311 -0.8231
    1PA     H4S 3498   2.748   5.185   6.118  1.6623  0.2265  1.8505
    1PA     C13 3499   2.850   5.006   6.170  0.7369 -0.4458 -0.4314
    1PA     H3R 3500   2.756   4.953   6.187  0.3216  0.4408  0.1108
    1PA     H3S 3501   2.922   4.938   6.123  2.8318 -0.3711  2.4104
    1PA     C12 3502   2.905   5.050   6.298 -0.5542  0.4876  0.4938
    1PA     H2R 3503   3.005   5.089   6.277 -0.3969  0.1558  0.6183
    1PA     H2S 3504   2.847   5.137   6.331  1.2135  1.6685  0.6341
    1PC     C11 3505   2.907   4.936   6.404 -0.0514  0.1285 -0.2384
    1PC     O12 3506   2.820   4.856   6.436 -0.4809  0.0569 -0.3417
    1PC     O11 3507   3.032   4.931   6.461  0.3387 -0.3074  0.1319
    1PC      C1 3508   3.059   4.852   6.584  0.6224 -0.6622 -0.0650
    1PC      HR 3509   2.964   4.817   6.625  0.1576  1.5947  0.9574
    1PC      HS 3510   3.119   4.766   6.554  1.9775  0.5234 -0.8799
    1PC      C2 3511   3.126   4.944   6.689 -0.0959 -0.0871  0.0278
    1PC      HX 3512   3.216   4.984   6.641 -0.2853 -0.7447 -0.9082
    1PC      C3 3513   3.156   4.858   6.812  0.4265 -0.0875 -0.0568
    1PC      HA 3514   3.241   4.791   6.795  1.4032  0.3967  2.4371
    1PC      HB 3515   3.195   4.926   6.888  0.3421  0.8178 -0.8008
    1PC     O31 3516   3.046   4.778   6.853  1.3548 -0.6955 -0.2492
    1PC     P31 3517   2.990   4.811   6.998  0.2791  0.1434 -0.2995
    1PC     O32 3518   2.925   4.957   6.999  1.3692  0.1906 -0.1007
    1PC     C31 3519   2.786   4.975   6.955  0.3354  0.1571 -0.0452
    1PC     H1A 3520   2.773   5.081   6.930  0.5574  0.4026  0.8514
    1PC     H1B 3521   2.771   4.915   6.865 -0.0884 -0.9708  0.7609
    1PC     C32 3522   2.681   4.947   7.068 -0.0305  1.0037  0.0212
    1PC     H2A 3523   2.593   5.001   7.032  0.6726  2.1311 -0.0381
    1PC     H2B 3524   2.656   4.841   7.078  1.2314  0.8551  2.2483
    1PC     N31 3525   2.701   4.998   7.213  0.1244 -0.1376 -0.0884
    1PC     C33 3526   2.572   4.986   7.281 -0.5946  0.1938 -0.6050
    1PC     H3A 3527   2.542   4.882   7.265 -0.6376  0.0216  0.5277
    1PC     H3B 3528   2.581   5.007   7.387 -1.6495 -1.6197 -0.1115
    1PC     H3C 3529   2.506   5.063   7.242 -1.1565  0.4881  0.8730
    1PC     C34 3530   2.803   4.907   7.270 -0.3678  0.3280  0.2158
    1PC     H4A 3531   2.770   4.803   7.261  0.8453 -0.0698  0.2634
    1PC     H4B 3532   2.898   4.930   7.223 -0.3157  0.2587  0.2859
    1PC     H4C 3533   2.821   4.920   7.377  2.3917 -1.4630  0.0865
    1PC     C35 3534   2.747   5.134   7.204  0.8810 -0.1445  0.2797
    1PC     H5A 3535   2.841   5.151   7.151 -0.0113 -0.4653 -1.4925
    1PC     H5B 3536   2.741   5.166   7.308 -1.8004 -3.8250  1.4726
    1PC     H5C 3537   2.675   5.192   7.146  0.7908 -1.7783 -1.3499
    1PC     O33 3538   2.893   4.705   7.033  0.1371  0.6179 -0.2630
    1PC     O34 3539   3.100   4.827   7.091 -0.1015 -0.2212 -0.8225
    1PC     O21 3540   3.037   5.050   6.737  0.2311  0.7034  0.3115
    1PC     C21 3541   3.084   5.175   6.735  0.0933 -0.1608  0.1862
    1PC     O22 3542   3.204   5.204   6.733  0.3247  0.1745  0.2927
    1OL     C12 3543   2.975   5.278   6.761  0.5045  0.2155 -0.6038
    1OL     H2R 3544   3.021   5.363   6.812  3.1358 -0.3890 -1.7898
    1OL     H2S 3545   2.890   5.241   6.818 -1.2512  2.3747 -1.6520
    1OL     C13 3546   2.916   5.333   6.630 -0.4550  0.4812  0.2794
    1OL     H3R 3547   2.827   5.392   6.651 -0.8163 -0.0463  0.2272
    1OL     H3S 3548   2.891   5.246   6.568  0.9379  0.3548 -0.1373
    1OL     C14 3549   3.023   5.416   6.556  0.6252 -0.1149  0.2347
    1OL     H4R 3550   3.101   5.347   6.524  0.8267 -0.0825  0.6400
    1OL     H4S 3551   3.079   5.488   6.616  1.2842 -0.7370  0.3754
    1OL     C15 3552   2.964   5.485   6.432 -0.0298  0.6963  0.3386
    1OL     H5R 3553   2.920   5.581   6.461  1.7274  2.1665 -1.5999
    1OL     H5S 3554   2.907   5.408   6.380  0.6154  1.6361 -1.8739
    1OL     C16 3555   3.070   5.524   6.333  0.0851 -0.4202  0.4982
    1OL     H6R 3556   3.155   5.556   6.394  0.1946  1.1300 -0.4424
    1OL     H6S 3557   3.027   5.608   6.279 -1.1406 -0.2853  1.6404
    1OL     C17 3558   3.123   5.425   6.234 -0.3647 -0.6725 -0.1247
    1OL     H7R 3559   3.039   5.379   6.182 -1.1844  0.9685 -0.3465
    1OL     H7S 3560   3.178   5.341   6.277 -1.9050 -1.1518  1.0022
    1OL     C18 3561   3.208   5.485   6.123 -0.9730 -0.0484  0.6500
    1OL     H8R 3562   3.293   5.533   6.172 -1.1077  0.1212  0.7212
    1OL     H8S 3563   3.160   5.568   6.072  0.4833 -0.1503 -0.9453
    1OL     C19 3564   3.266   5.380   6.022 -0.0598 -0.7097 -0.0599
    1OL     H9R 3565   3.366   5.342   6.043  0.9822  0.9319 -1.7690
    1OL    C110 3566   3.197   5.346   5.911 -1.2498  0.6584 -0.6196
    1OL    H10R 3567   3.241   5.275   5.842  2.3484  2.3643 -0.2883
    1OL    C111 3568   3.069   5.399   5.858  0.0138 -0.0309  0.2204
    1OL    H11R 3569   3.022   5.466   5.931 -1.6109 -0.6960 -0.1515
    1OL    H11S 3570   2.997   5.318   5.838  0.8950 -0.3536 -1.9140
    1OL    C112 3571   3.089   5.470   5.725 -0.4173 -0.1946 -0.4468
    1OL    H12R 3572   3.138   5.392   5.666  2.3139  0.7115  0.4915
    1OL    H12S 3573   3.163   5.549   5.742 -0.8338 -0.3244  2.5983
    1OL    C113 3574   2.973   5.523   5.638  0.0581 -0.5270 -0.4751
    1OL    H13R 3575   2.921   5.589   5.708  2.0717  0.7967 -0.1350
    1OL    H13S 3576   2.911   5.442   5.600  2.2409 -2.5694  0.1564
    1OL    C114 3577   3.015   5.600   5.508  0.0010 -0.6671  0.2250
    1OL    H14R 3578   3.044   5.523   5.436 -0.2921 -0.7507  0.1967
    1OL    H14S 3579   3.097   5.667   5.535 -0.7161  0.2728  0.1492
    1OL    C115 3580   2.895   5.681   5.457  0.4083  0.2569 -0.4609
    1OL    H15R 3581   2.851   5.740   5.537 -0.3343  0.9436 -1.3664
    1OL    H15S 3582   2.821   5.614   5.415 -2.2889  2.6472  0.1989
    1OL    C116 3583   2.909   5.782   5.334 -0.6624  0.3605 -0.4626
    1OL    H16R 3584   2.968   5.864   5.375  0.8600 -1.4377  1.1072
    1OL    H16S 3585   2.808   5.820   5.314 -0.2572  0.6948 -1.9643
    1OL    C117 3586   2.969   5.712   5.206  0.3872  0.0563  0.3168
    1OL    H17R 3587   3.069   5.671   5.225 -0.6413 -1.9034  1.9651
    1OL    H17S 3588   2.993   5.793   5.137 -0.4061 -0.4055 -0.5210
    1OL    C118 3589   2.882   5.615   5.129 -0.0963 -0.6004 -0.1148
    1OL    H18R 3590   2.872   5.523   5.186  1.0306 -1.0974 -0.7022
    1OL    H18S 3591   2.928   5.591   5.033  2.2321 -3.5683  1.6205
    1OL    H18T 3592   2.780   5.656   5.123  0.0870 -0.0452  0.4196
    1PA    C116 3593   1.668   2.577   5.038  0.2810  0.7805  0.3577
    1PA    H16R 3594   1.657   2.485   4.980  0.1248  1.1962 -0.2776
    1PA    H16S 3595   1.758   2.556   5.096  0.1731  0.2974  0.3620
    1PA    H16T 3596   1.688   2.650   4.961 -0.8827 -0.6673 -1.4085
    1PA    C115 3597   1.556   2.613   5.127  0.2049 -0.7068  0.1303
    1PA    H15R 3598   1.476   2.643   5.059  1.0586  3.0549  0.5585
    1PA    H15S 3599   1.525   2.519   5.173  0.0704 -0.7250  0.0025
    1PA    C114 3600   1.585   2.724   5.234  0.0532 -0.1444  0.2413
    1PA    H14R 3601   1.678   2.717   5.291 -0.8290 -0.5842  1.6923
    1PA    H14S 3602   1.591   2.818   5.179 -2.3292 -1.3900 -2.4244
    1PA    C113 3603   1.486   2.745   5.349  0.6149 -0.3265  0.4786
    1PA    H13R 3604   1.468   2.652   5.405 -0.5780  0.0785  0.8086
    1PA    H13S 3605   1.516   2.822   5.420 -0.1512  1.1296 -0.7253
    1PA    C112 3606   1.352   2.791   5.283 -0.6729 -0.2769  0.4087
    1PA    H12R 3607   1.373   2.880   5.223 -2.4647 -0.9947 -1.3740
    1PA    H12S 3608   1.324   2.718   5.207  1.0133  0.0027 -0.5234
    1PA    C111 3609   1.239   2.806   5.387 -0.2666  0.9249 -0.9284
    1PA    H11R 3610   1.218   2.715   5.444 -0.1441  2.6165  2.0332
    1PA    H11S 3611   1.263   2.878   5.465 -3.9298 -1.2211  2.5598
    1PA    C110 3612   1.104   2.866   5.338  0.2895 -0.7406  0.4447
    1PA    H10R 3613   1.128   2.959   5.285 -1.5052 -0.9983 -0.9174
    1PA    H10S 3614   1.052   2.808   5.261  0.5013  1.7440 -1.7132
    1PA     C19 3615   1.003   2.900   5.451  0.0703 -0.7685 -0.3247
    1PA     H9R 3616   1.046   2.976   5.517 -0.1159 -0.4497 -0.5694
    1PA     H9S 3617   0.921   2.959   5.410  1.2594  2.6271  1.7128
    1PA     C18 3618   0.958   2.784   5.543 -0.2717  0.3675 -0.1314
    1PA     H8R 3619   0.912   2.712   5.476 -1.6049  1.0888 -0.0303
    1PA     H8S 3620   1.051   2.728   5.555 -0.8398 -0.8656 -1.2782
    1PA     C17 3621   0.879   2.819   5.667 -0.4411  0.7609 -0.0246
    1PA     H7R 3622   0.924   2.909   5.708  1.1341 -0.4643  1.0916
    1PA     H7S 3623   0.775   2.835   5.638 -0.7865  1.8335  1.6629
    1PA     C16 3624   0.881   2.698   5.761 -0.6218 -0.1598 -0.2077
    1PA     H6R 3625   0.837   2.613   5.709 -0.3471  0.0641 -0.8123
    1PA     H6S 3626   0.986   2.677   5.782 -0.0510  0.7455 -1.9904
    1PA     C15 3627   0.807   2.741   5.888 -0.6722 -0.2042  0.0289
    1PA     H5R 3628   0.861   2.828   5.927  0.9800 -0.1210 -2.2535
    1PA     H5S 3629   0.702   2.766   5.868 -0.3617  1.4841  0.3520
    1PA     C14 3630   0.800   2.644   6.009  0.4905  0.1067 -0.3515
    1PA     H4R 3631   0.722   2.673   6.081  0.9283 -2.7171  1.4090
    1PA     H4S 3632   0.772   2.545   5.973  3.3667 -0.9037 -0.0285
    1PA     C13 3633   0.936   2.623   6.076  0.6390  0.3812  0.4895
    1PA     H3R 3634   1.009   2.580   6.007  0.7977  0.6221  0.5054
    1PA     H3S 3635   0.967   2.726   6.095  0.8639  0.8236 -2.0194
    1PA     C12 3636   0.936   2.534   6.206  0.3358 -0.3612  0.1572
    1PA     H2R 3637   0.854   2.561   6.273  1.6054 -2.5094  2.7723
    1PA     H2S 3638   0.911   2.431   6.178 -1.2594  0.0659 -0.0734
    1PC     C11 3639   1.066   2.517   6.287  0.3856 -0.3179 -0.5321
    1PC     O12 3640   1.173   2.557   6.247 -0.3766  0.8895  0.2639
    1PC     O11 3641   1.056   2.441   6.397  0.0077 -0.4476  0.1025
    1PC      C1 3642   1.172   2.437   6.486  0.3202  0.1729  0.1287
    1PC      HR 3643   1.138   2.360   6.556  0.7612 -0.2972 -0.1631
    1PC      HS 3644   1.262   2.402   6.434 -2.6424 -3.3980 -3.1812
    1PC      C2 3645   1.202   2.568   6.560  0.7392 -0.4705  0.0348
    1PC      HX 3646   1.257   2.632   6.490  1.4674 -0.0290  0.9808
    1PC      C3 3647   1.268   2.525   6.689 -0.1391  0.0142 -0.2647
    1PC      HA 3648   1.368   2.484   6.670 -1.2550 -3.3988  0.6459
    1PC      HB 3649   1.281   2.621   6.740 -0.4550 -0.0889  0.0058
    1PC     O31 3650   1.179   2.455   6.777 -0.1158  0.0931 -0.4766
    1PC     P31 3651   1.216   2.426   6.925 -0.0138  0.2797  0.1264
    1PC     O32 3652   1.159   2.547   7.011  0.0579  0.0193  0.1425
    1PC     C31 3653   1.232   2.674   7.040 -0.4495  0.4726  0.7165
    1PC     H1A 3654   1.324   2.650   7.094 -1.1219 -0.9149  1.3003
    1PC     H1B 3655   1.269   2.724   6.950  0.8911 -1.7824 -0.0861
    1PC     C32 3656   1.146   2.767   7.124  0.2604  0.6264 -0.4074
    1PC     H2A 3657   1.049   2.794   7.081 -1.8062 -0.9004  2.8218
    1PC     H2B 3658   1.106   2.722   7.215  0.9385 -1.4986 -1.1067
    1PC     N31 3659   1.203   2.897   7.165 -0.1820 -0.3330  0.2999
    1PC     C33 3660   1.109   2.973   7.255 -0.1389 -0.3421  0.2567
    1PC     H3A 3661   1.156   3.071   7.265  0.5901 -0.5337 -1.0415
    1PC     H3B 3662   1.008   2.981   7.215 -0.6593 -0.3513  1.5125
    1PC     H3C 3663   1.102   2.923   7.352  1.8986  0.8116  1.0770
    1PC     C34 3664   1.328   2.883   7.235 -0.1241  0.5529 -0.0548
    1PC     H4A 3665   1.321   2.823   7.325  0.9935 -0.2153 -0.4564
    1PC     H4B 3666   1.405   2.832   7.177  2.3773  1.9412  1.8601
    1PC     H4C 3667   1.358   2.983   7.266 -0.5614  0.4449  0.7233
    1PC     C35 3668   1.223   2.977   7.042  0.2138 -0.1543 -0.3925
    1PC     H5A 3669   1.307   2.939   6.984  1.2259  1.8788 -0.3345
    1PC     H5B 3670   1.245   3.073   7.088 -1.8885 -1.0560  2.8249
    1PC     H5C 3671   1.135   2.975   6.979 -1.8957 -1.8538  2.3597
    1PC     O33 3672   1.142   2.312   6.975  0.6644 -0.1185 -0.1980
    1PC     O34 3673   1.362   2.422   6.943 -0.1331 -0.6749 -0.2998
    1PC     O21 3674   1.068   2.628   6.596 -0.0673 -0.5367  1.1235
    1PC     C21 3675   1.066   2.752   6.651  0.3250 -0.2506  0.0697
    1PC     O22 3676   1.170   2.812   6.681  0.0804  0.0019 -0.6778
    1OL     C12 3677   0.933   2.817   6.666 -0.5949  0.4980  0.2196
    1OL     H2R 3678   0.950   2.917   6.707  4.2182 -0.0465  0.1103
    1OL     H2S 3679   0.867   2.753   6.725  0.6737 -0.1002  1.0445
    1OL     C13 3680   0.865   2.838   6.528  0.5540  0.8882 -0.0831
    1OL     H3R 3681   0.771   2.889   6.551 -0.2014 -0.9031  1.0103
    1OL     H3S 3682   0.841   2.743   6.480  1.6435  0.5025  0.1069
    1OL     C14 3683   0.940   2.895   6.409 -0.3850 -0.5228  0.1651
    1OL     H4R 3684   1.018   2.828   6.373  0.4082  0.7041 -0.4677
    1OL     H4S 3685   0.980   2.993   6.439 -1.2077 -0.5055  1.2646
    1OL     C15 3686   0.853   2.911   6.278  0.5359 -0.4453  0.1831
    1OL     H5R 3687   0.820   2.809   6.258 -0.5318  0.2457 -1.8367
    1OL     H5S 3688   0.919   2.933   6.194  0.2150 -2.1074 -0.5336
    1OL     C16 3689   0.731   3.004   6.274 -0.0072 -0.1272  0.3418
    1OL     H6R 3690   0.648   2.965   6.332 -1.0770  2.3684  0.5991
    1OL     H6S 3691   0.699   2.994   6.170  0.9174 -1.3120  0.1397
    1OL     C17 3692   0.760   3.144   6.330  0.1067 -0.3404  0.5299
    1OL     H7R 3693   0.827   3.199   6.264  0.2642 -0.2071  0.7967
    1OL     H7S 3694   0.810   3.138   6.427 -0.6514  0.5911  1.0028
    1OL     C18 3695   0.635   3.224   6.368  0.3539 -0.5494  0.2537
    1OL     H8R 3696   0.669   3.321   6.405 -1.0010 -0.0113  0.1477
    1OL     H8S 3697   0.592   3.170   6.453 -0.1828  0.4149  0.6210
    1OL     C19 3698   0.539   3.237   6.250  0.3666 -0.1334 -0.6739
    1OL     H9R 3699   0.500   3.139   6.223  0.0926 -0.2528  0.1122
    1OL    C110 3700   0.494   3.342   6.188  0.5367 -0.1070  0.1415
    1OL    H10R 3701   0.412   3.337   6.116  0.4154  0.4416  0.2426
    1OL    C111 3702   0.551   3.481   6.213 -0.2942  0.2009 -0.5212
    1OL    H11R 3703   0.651   3.469   6.255 -0.7343 -0.0751  0.4877
    1OL    H11S 3704   0.496   3.529   6.294 -0.0713  1.0005 -0.8269
    1OL    C112 3705   0.550   3.567   6.090  0.2810  0.5482  0.4442
    1OL    H12R 3706   0.546   3.673   6.118  0.3231  0.4411  0.8492
    1OL    H12S 3707   0.463   3.535   6.033  1.2982 -1.5659 -0.0026
    1OL    C113 3708   0.667   3.556   5.993  0.1046  0.2499  0.5233
    1OL    H13R 3709   0.660   3.454   5.956 -1.2552  0.7740 -0.7677
    1OL    H13S 3710   0.753   3.566   6.061  1.0423  1.3297 -0.7737
    1OL    C114 3711   0.668   3.660   5.879  0.2769  0.3502  0.5003
    1OL    H14R 3712   0.648   3.757   5.926 -0.0631  0.6061 -0.1680
    1OL    H14S 3713   0.582   3.640   5.816  1.5805 -0.6284 -1.0394
    1OL    C115 3714   0.797   3.644   5.801  0.0226 -0.5864 -0.3187
    1OL    H15R 3715   0.803   3.537   5.779 -1.7060 -1.2781  2.1687
    1OL    H15S 3716   0.877   3.665   5.873 -2.0623  0.1945  1.9042
    1OL    C116 3717   0.817   3.749   5.688  0.2391 -0.5363  0.5503
    1OL    H16R 3718   0.740   3.727   5.613  0.2235  0.4663  0.2523
    1OL    H16S 3719   0.914   3.731   5.642 -0.1776  3.0532 -2.2483
    1OL    C117 3720   0.796   3.896   5.735  0.2573 -0.1303 -0.1374
    1OL    H17R 3721   0.859   3.908   5.824  1.1077 -0.3327 -0.6972
    1OL    H17S 3722   0.689   3.908   5.753  0.4785  0.2629  0.9479
    1OL    C118 3723   0.837   4.002   5.626 -0.1897  0.0611 -0.0280
    1OL    H18R 3724   0.942   3.989   5.598 -0.0682 -0.5305  0.6763
    1OL    H18S 3725   0.819   4.104   5.661 -1.9611 -0.6874  1.4029
    1OL    H18T 3726   0.782   3.986   5.533  0.0311 -0.9085 -0.0088
    1PA    C116 3727   1.311   0.687   5.007  0.5924 -0.2906 -0.6451
    1PA    H16R 3728   1.334   0.598   5.066 -1.0909  0.6386  1.5294
    1PA    H16S 3729   1.323   0.654   4.904  2.5023  1.4452 -1.0452
    1PA    H16T 3730   1.209   0.714   5.032  0.1593 -0.5344 -2.0952
    1PA    C115 3731   1.414   0.804   5.037 -0.3946 -0.8774 -0.0781
    1PA    H15R 3732   1.515   0.779   5.006  0.7786  0.2623  2.4984
    1PA    H15S 3733   1.382   0.894   4.985 -0.1284 -0.4306  0.5150
    1PA    C114 3734   1.416   0.843   5.185  0.3817  0.0131 -0.1521
    1PA    H14R 3735   1.488   0.924   5.196  0.8106 -0.3082 -0.5626
    1PA    H14S 3736   1.323   0.896   5.206  1.5758  2.2124 -0.1402
    1PA    C113 3737   1.445   0.722   5.280  0.5411 -0.5727 -0.7074
    1PA    H13R 3738   1.363   0.651   5.267  0.2995 -1.0154  2.3454
    1PA    H13S 3739   1.532   0.661   5.253  0.1752 -3.1497  3.0396
    1PA    C112 3740   1.475   0.776   5.425  0.4979 -0.2670  0.0599
    1PA    H12R 3741   1.571   0.828   5.427 -0.0551  0.9446 -1.7503
    1PA    H12S 3742   1.398   0.847   5.455 -1.0979 -2.8495  2.5840
    1PA    C111 3743   1.478   0.665   5.529 -0.3515  0.4459 -0.2229
    1PA    H11R 3744   1.374   0.639   5.545 -0.9369  3.2867  1.3197
    1PA    H11S 3745   1.529   0.579   5.485 -0.7979  0.6126 -1.0882
    1PA    C110 3746   1.537   0.700   5.668 -1.3473 -0.3598  0.3471
    1PA    H10R 3747   1.644   0.715   5.655 -1.3727 -0.3918  0.1062
    1PA    H10S 3748   1.501   0.799   5.697  0.7916  0.6802 -0.3642
    1PA     C19 3749   1.518   0.587   5.763  0.2589  0.0724 -0.0315
    1PA     H9R 3750   1.413   0.558   5.771  0.8400 -3.2770 -2.4150
    1PA     H9S 3751   1.568   0.498   5.724  1.2109  0.7349 -0.3433
    1PA     C18 3752   1.570   0.625   5.904 -0.1843 -0.6567  0.8010
    1PA     H8R 3753   1.678   0.646   5.900 -0.5732  1.3153 -0.5122
    1PA     H8S 3754   1.524   0.715   5.944 -0.2178  0.5831 -1.8292
    1PA     C17 3755   1.541   0.524   6.013 -0.4882  0.5975  0.5633
    1PA     H7R 3756   1.437   0.517   6.042 -0.6560  0.8616  0.0470
    1PA     H7S 3757   1.574   0.427   5.976  0.8637  1.4277 -0.5476
    1PA     C16 3758   1.628   0.544   6.138  0.4096  0.0888  0.1775
    1PA     H6R 3759   1.734   0.540   6.110  0.4768  1.1728  0.2326
    1PA     H6S 3760   1.620   0.647   6.173  0.9072  0.8706 -1.8378
    1PA     C15 3761   1.601   0.445   6.250  0.4771  0.0026 -0.2880
    1PA     H5R 3762   1.496   0.421   6.267  0.8667 -0.4769  1.6852
    1PA     H5S 3763   1.650   0.353   6.216  2.6053  1.4082 -1.2193
    1PA     C14 3764   1.668   0.484   6.384 -0.1929 -0.0836 -0.1202
    1PA     H4R 3765   1.777   0.483   6.383 -0.1189 -0.9982  2.1994
    1PA     H4S 3766   1.632   0.582   6.416  0.9210  0.6440 -1.0144
    1PA     C13 3767   1.645   0.388   6.508  0.2451 -0.5976  0.4667
    1PA     H3R 3768   1.696   0.436   6.591 -2.5952 -0.3648  2.2020
    1PA     H3S 3769   1.542   0.373   6.543 -0.3719  2.7325  0.4339
    1PA     C12 3770   1.717   0.258   6.495  0.4005  0.2211 -0.6595
    1PA     H2R 3771   1.666   0.205   6.413 -1.0538 -1.6411  1.3287
    1PA     H2S 3772   1.819   0.279   6.463  0.3827  1.7257  0.1987
    1PC     C11 3773   1.719   0.169   6.612 -0.3268  0.7535  0.0031
    1PC     O12 3774   1.614   0.117   6.659  0.0892  0.1827  0.3217
    1PC     O11 3775   1.842   0.129   6.643  0.6208 -0.1775  0.2403
    1PC      C1 3776   1.851   0.052   6.762  0.2239  0.1136 -0.3064
    1PC      HR 3777   1.797   0.093   6.848 -0.1598 -0.3152 -0.3393
    1PC      HS 3778   1.805  -0.046   6.744 -1.5578  0.6088  1.1861
    1PC      C2 3779   1.997   0.017   6.783  0.0084 -0.2666  0.1703
    1PC      HX 3780   2.009  -0.060   6.859  0.6442  0.1767  0.5318
    1PC      C3 3781   2.082   0.135   6.833  0.2172 -0.6465  0.2457
    1PC      HA 3782   2.186   0.121   6.805  0.1808  0.4327 -0.4682
    1PC      HB 3783   2.040   0.225   6.787  0.0409 -1.2599 -0.8422
    1PC     O31 3784   2.097   0.141   6.979  0.2596 -0.1059 -0.5077
    1PC     P31 3785   2.004   0.244   7.065  0.3633 -0.1531 -0.4027
    1PC     O32 3786   1.852   0.190   7.047 -0.6265 -0.0240  0.1901
    1PC     C31 3787   1.795   0.104   7.150 -0.4401  0.1594  0.1406
    1PC     H1A 3788   1.714   0.053   7.097  1.7367 -0.7672 -2.5531
    1PC     H1B 3789   1.863   0.026   7.183 -0.6172  0.6403  1.6875
    1PC     C32 3790   1.759   0.169   7.280  0.9940  0.2808  0.2553
    1PC     H2A 3791   1.712   0.091   7.340  1.7633 -0.1059  0.3766
    1PC     H2B 3792   1.853   0.207   7.322  1.5333  0.3611 -0.9834
    1PC     N31 3793   1.661   0.284   7.281  0.4570  0.1531 -0.1370
    1PC     C33 3794   1.550   0.266   7.184  0.1837 -0.5583 -0.1671
    1PC     H3A 3795   1.467   0.328   7.216 -0.2122 -0.1811 -1.8192
    1PC     H3B 3796   1.588   0.290   7.085 -0.5676 -1.4725 -0.6904
    1PC     H3C 3797   1.511   0.164   7.180  1.3724 -1.0079 -0.7954
    1PC     C34 3798   1.608   0.292   7.418 -0.1875  0.0001  0.0499
    1PC     H4A 3799   1.692   0.302   7.487 -0.3263 -2.9244  0.7625
    1PC     H4B 3800   1.549   0.384   7.418  0.3100  0.3559  1.6246
    1PC     H4C 3801   1.541   0.211   7.444 -1.0731  0.2486 -1.3473
    1PC     C35 3802   1.723   0.410   7.246 -0.4285  0.1251  0.9045
    1PC     H5A 3803   1.804   0.440   7.313  0.2039 -0.5513  0.4586
    1PC     H5B 3804   1.656   0.495   7.237  0.9808  1.2672  0.9247
    1PC     H5C 3805   1.764   0.388   7.148  0.2423 -0.5414  1.3237
    1PC     O33 3806   2.053   0.231   7.207  0.0887  0.2473 -0.5080
    1PC     O34 3807   2.001   0.380   7.004 -0.5338 -0.4279  0.3898
    1PC     O21 3808   2.058  -0.023   6.662 -0.4350 -0.0093 -0.8141
    1PC     C21 3809   2.033  -0.145   6.602  0.2703  0.4925 -0.4399
    1PC     O22 3810   1.958  -0.223   6.655  0.2314 -0.2741 -0.0264
    1OL     C12 3811   2.108  -0.170   6.476  0.5778  0.4636 -0.7542
    1OL     H2R 3812   2.144  -0.272   6.490 -1.9297 -0.6000 -1.3929
    1OL     H2S 3813   2.187  -0.096   6.462  0.4945  0.6705 -0.1900
    1OL     C13 3814   2.025  -0.186   6.343 -0.1117  0.1755 -0.3239
    1OL     H3R 3815   1.953  -0.266   6.361  1.0068 -0.5007  1.3861
    1OL     H3S 3816   2.083  -0.211   6.254 -1.1592  2.0917 -1.6114
    1OL     C14 3817   1.951  -0.063   6.295  0.0128 -0.3543 -0.0379
    1OL     H4R 3818   2.013   0.025   6.279 -0.6900  0.4896  1.6856
    1OL     H4S 3819   1.883  -0.031   6.374  2.3019  2.9765  0.7707
    1OL     C15 3820   1.880  -0.084   6.157 -0.3098 -0.8104 -0.9207
    1OL     H5R 3821   1.822  -0.176   6.159  1.1492 -1.7568 -0.8878
    1OL     H5S 3822   1.962  -0.103   6.087  0.1188  0.7369 -0.8741
    1OL     C16 3823   1.796   0.035   6.109  0.2808  0.0257 -0.8322
    1OL     H6R 3824   1.846   0.132   6.116  0.8788 -0.2103 -1.6582
    1OL     H6S 3825   1.705   0.033   6.169  0.1252  3.2808 -0.7934
    1OL     C17 3826   1.759   0.009   5.965  0.1116 -0.1681 -0.3577
    1OL     H7R 3827   1.656   0.041   5.951  0.3438  0.5520 -0.4715
    1OL     H7S 3828   1.755  -0.099   5.947  1.5302 -0.6185  1.6614
    1OL     C18 3829   1.864   0.061   5.863  0.5230  0.3888 -0.2018
    1OL     H8R 3830   1.958   0.011   5.889 -0.2961 -1.3081 -0.3623
    1OL     H8S 3831   1.880   0.169   5.866  1.4956  0.2780 -0.8382
    1OL     C19 3832   1.844   0.014   5.720  0.0143 -0.7160 -0.1374
    1OL     H9R 3833   1.849  -0.093   5.705 -0.2481 -0.6046 -1.1081
    1OL    C110 3834   1.822   0.096   5.615 -0.8508  0.1084 -0.2794
    1OL    H10R 3835   1.814   0.069   5.510 -2.7304  3.4056 -1.1331
    1OL    C111 3836   1.825   0.242   5.624  0.0910 -0.3945 -0.1390
    1OL    H11R 3837   1.898   0.277   5.698 -0.4687  3.0691 -1.0356
    1OL    H11S 3838   1.725   0.275   5.654 -0.9516 -1.9443 -1.7616
    1OL    C112 3839   1.858   0.312   5.489  0.2713 -0.5029 -0.4711
    1OL    H12R 3840   1.802   0.261   5.411 -1.4025  1.1076 -0.4034
    1OL    H12S 3841   1.966   0.312   5.471  0.8560 -0.4303  2.4069
    1OL    C113 3842   1.816   0.462   5.493 -0.3691  0.0565 -0.5430
    1OL    H13R 3843   1.860   0.518   5.576 -0.5962 -1.1398  0.4061
    1OL    H13S 3844   1.708   0.472   5.510 -0.4868  1.4436 -1.8767
    1OL    C114 3845   1.853   0.531   5.360  0.4719 -0.4690 -0.1549
    1OL    H14R 3846   1.959   0.512   5.347  0.3260 -1.6335  0.3080
    1OL    H14S 3847   1.847   0.641   5.361  1.1320 -0.4266 -0.3946
    1OL    C115 3848   1.776   0.475   5.236 -0.3597  0.3401 -0.2980
    1OL    H15R 3849   1.670   0.477   5.263 -0.0688 -2.1196  1.3439
    1OL    H15S 3850   1.811   0.372   5.224 -0.1861  0.2911  0.5273
    1OL    C116 3851   1.800   0.564   5.110  0.1136  0.2890 -0.3481
    1OL    H16R 3852   1.907   0.554   5.092  0.3804 -0.4423  1.5151
    1OL    H16S 3853   1.778   0.667   5.140  0.6578 -0.6090  3.6792
    1OL    C117 3854   1.721   0.514   4.991 -0.2218  0.0915 -0.3354
    1OL    H17R 3855   1.618   0.520   5.027 -0.5301  1.4925 -1.3588
    1OL    H17S 3856   1.739   0.412   4.955  2.5123 -0.6308  2.6974
    1OL    C118 3857   1.742   0.605   4.873 -0.4658 -0.2005  0.3677
    1OL    H18R 3858   1.847   0.627   4.850 -0.9450  0.7382 -1.0877
    1OL    H18S 3859   1.703   0.707   4.883  0.0098  0.0847 -0.5440
    1OL    H18T 3860   1.705   0.565   4.778 -0.4222  0.4427  0.0702
    1PA    C116 3861   0.602   1.819   4.911 -0.3231 -0.0001  0.2529
    1PA    H16R 3862   0.605   1.863   4.811  2.0468  0.1697  0.3431
    1PA    H16S 3863   0.519   1.749   4.922 -1.0570  0.8631  0.3234
    1PA    H16T 3864   0.696   1.765   4.906 -0.6932 -0.5754 -0.8506
    1PA    C115 3865   0.596   1.926   5.019  0.2590  0.3196  0.1689
    1PA    H15R 3866   0.677   1.996   4.996  0.8202 -0.5725 -0.6463
    1PA    H15S 3867   0.507   1.989   5.015 -0.0704 -0.1974 -0.8478
    1PA    C114 3868   0.619   1.890   5.170 -0.1818 -0.1536 -0.9897
    1PA    H14R 3869   0.533   1.833   5.205  1.0373 -0.1776  2.2636
    1PA    H14S 3870   0.705   1.824   5.184 -1.1016 -1.3087 -0.6641
    1PA    C113 3871   0.644   2.017   5.261  0.6781 -0.1934 -0.7144
    1PA    H13R 3872   0.747   2.049   5.248  0.2972  0.2247 -3.3891
    1PA    H13S 3873   0.592   2.101   5.214  1.0777  0.4634 -0.0085
    1PA    C112 3874   0.598   2.005   5.403  0.2568 -0.4199 -0.3672
    1PA    H12R 3875   0.623   2.096   5.458  0.6027 -0.5935 -0.2317
    1PA    H12S 3876   0.490   1.993   5.408  0.4394 -1.8116  2.1888
    1PA    C111 3877   0.662   1.883   5.474  0.3810 -0.5176 -0.2745
    1PA    H11R 3878   0.591   1.804   5.450  1.4553 -1.1696 -1.4024
    1PA    H11S 3879   0.753   1.850   5.424  0.6642  1.8777 -1.4769
    1PA    C110 3880   0.678   1.903   5.626  0.1162  0.1140  0.4259
    1PA    H10R 3881   0.749   1.823   5.647 -1.1555 -2.0601 -2.6734
    1PA    H10S 3882   0.726   1.991   5.668  2.3312 -1.1683  0.7093
    1PA     C19 3883   0.546   1.871   5.704 -0.2202 -0.1182 -0.2290
    1PA     H9R 3884   0.474   1.951   5.684  0.4347  0.5721  0.1124
    1PA     H9S 3885   0.502   1.778   5.669 -0.8582  0.2933 -0.5362
    1PA     C18 3886   0.568   1.883   5.857  0.1896 -0.3860  0.7370
    1PA     H8R 3887   0.651   1.816   5.878 -0.9430 -2.1554 -0.1555
    1PA     H8S 3888   0.608   1.981   5.884 -1.2110  1.0030 -1.8536
    1PA     C17 3889   0.448   1.844   5.945  0.1155 -0.3279  0.3285
    1PA     H7R 3890   0.366   1.917   5.945  1.2274  1.1468 -3.3674
    1PA     H7S 3891   0.407   1.752   5.902  1.9957 -1.0083 -0.1031
    1PA     C16 3892   0.485   1.813   6.093 -0.8175  0.2382  0.1184
    1PA     H6R 3893   0.566   1.740   6.094 -0.1418  0.9000 -1.8994
    1PA     H6S 3894   0.517   1.906   6.140  0.0048  0.0925 -0.1457
    1PA     C15 3895   0.362   1.751   6.162  0.1879 -0.2250  0.1247
    1PA     H5R 3896   0.280   1.824   6.161 -1.3655 -1.8639  0.8756
    1PA     H5S 3897   0.314   1.669   6.106 -0.0933  0.2184 -0.2905
    1PA     C14 3898   0.392   1.716   6.304 -0.2366  1.0618 -0.0641
    1PA     H4R 3899   0.476   1.648   6.315 -1.0633  0.2356  1.6407
    1PA     H4S 3900   0.400   1.810   6.360  0.8519  0.8554  0.1441
    1PA     C13 3901   0.265   1.633   6.349  0.5702  0.0237  0.0787
    1PA     H3R 3902   0.175   1.690   6.326  0.9000  1.5093  2.1215
    1PA     H3S 3903   0.252   1.538   6.297 -0.4735 -0.1517  0.6157
    1PA     C12 3904   0.263   1.585   6.500  0.0510 -0.9742  0.0707
    1PA     H2R 3905   0.189   1.506   6.505 -1.6987  0.6412  1.3139
    1PA     H2S 3906   0.355   1.532   6.527  1.0645  0.0328 -1.2553
    1PC     C11 3907   0.230   1.699   6.593 -0.0350  0.0453  0.5469
    1PC     O12 3908   0.201   1.813   6.562  0.3571 -0.0571  0.0787
    1PC     O11 3909   0.224   1.649   6.716  0.0460  0.4356 -0.2512
    1PC      C1 3910   0.151   1.719   6.822 -0.3138  0.1372 -0.3299
    1PC      HR 3911   0.196   1.696   6.919  1.7167  0.1370 -1.2149
    1PC      HS 3912   0.182   1.824   6.816 -2.1658  0.6536 -1.6757
    1PC      C2 3913  -0.002   1.694   6.826  0.1017 -0.1553 -0.5261
    1PC      HX 3914  -0.045   1.763   6.899  1.9319 -0.8232  1.2780
    1PC      C3 3915  -0.030   1.543   6.861  0.3096  0.4522  0.1170
    1PC      HA 3916  -0.137   1.526   6.844  0.5643 -1.8570  0.4530
    1PC      HB 3917   0.021   1.478   6.789 -0.4843  1.2301 -1.2051
    1PC     O31 3918   0.005   1.509   6.998 -0.3987  0.5412 -0.3939
    1PC     P31 3919  -0.080   1.555   7.121 -0.1792  0.1224 -0.0453
    1PC     O32 3920  -0.117   1.426   7.209  0.0617 -0.2861  0.2664
    1PC     C31 3921  -0.158   1.304   7.152 -0.1302  0.6334  0.5647
    1PC     H1A 3922  -0.217   1.335   7.066  0.7396 -0.5247 -0.4944
    1PC     H1B 3923  -0.070   1.249   7.116 -2.1845 -1.5284 -1.4753
    1PC     C32 3924  -0.241   1.223   7.260 -0.3673 -0.6145  1.0247
    1PC     H2A 3925  -0.282   1.130   7.222 -1.8174 -0.0243  1.0785
    1PC     H2B 3926  -0.179   1.198   7.346 -0.5382 -0.4704  1.1932
    1PC     N31 3927  -0.354   1.294   7.330 -0.0136 -0.3136  0.1464
    1PC     C33 3928  -0.426   1.201   7.418  0.3900  0.1723  0.2429
    1PC     H3A 3929  -0.362   1.181   7.505  4.2317  1.2968 -2.0906
    1PC     H3B 3930  -0.525   1.240   7.439  0.1877  0.5398 -1.2803
    1PC     H3C 3931  -0.448   1.110   7.361  1.3888  0.6191 -0.9081
    1PC     C34 3932  -0.306   1.404   7.421  0.5006  0.3135  0.0916
    1PC     H4A 3933  -0.390   1.454   7.469  1.0261  0.7863  0.5345
    1PC     H4B 3934  -0.245   1.360   7.500 -0.7600  0.1294  0.9876
    1PC     H4C 3935  -0.243   1.476   7.368  0.6261 -0.5863 -1.0288
    1PC     C35 3936  -0.440   1.350   7.230 -0.0779  0.8296 -0.3865
    1PC     H5A 3937  -0.488   1.269   7.175 -0.5943  0.2132  0.9168
    1PC     H5B 3938  -0.386   1.416   7.162  0.2307  0.8433 -0.1316
    1PC     H5C 3939  -0.515   1.406   7.287 -0.8973  0.1503 -0.7743
    1PC     O33 3940   0.018   1.624   7.206 -0.6249 -0.1418  0.5045
    1PC     O34 3941  -0.209   1.621   7.079 -1.0310  0.2476 -0.2769
    1PC     O21 3942  -0.054   1.704   6.689  0.0391 -0.3031 -0.0717
    1PC     C21 3943  -0.059   1.829   6.639 -0.0475  0.5411  0.7063
    1PC     O22 3944  -0.066   1.929   6.707  0.6814 -0.0311 -0.0116
    1OL     C12 3945  -0.087   1.825   6.496 -0.1415  0.0023  0.4675
    1OL     H2R 3946  -0.179   1.768   6.480  0.5112 -1.0757  0.4491
    1OL     H2S 3947   0.001   1.784   6.446 -1.9743 -1.6994 -1.5304
    1OL     C13 3948  -0.127   1.960   6.436  0.2412 -0.0707 -0.3976
    1OL     H3R 3949  -0.062   2.040   6.471  1.6473 -0.0437 -2.8276
    1OL     H3S 3950  -0.227   1.975   6.477  0.2666 -0.9910  0.0394
    1OL     C14 3951  -0.140   1.969   6.286  0.3727  0.4632  0.2217
    1OL     H4R 3952  -0.164   2.074   6.268  2.3010  1.4708  2.7686
    1OL     H4S 3953  -0.216   1.903   6.245 -0.0640  1.5226 -0.7163
    1OL     C15 3954  -0.014   1.922   6.209 -0.2051 -0.3699 -0.6909
    1OL     H5R 3955   0.004   1.822   6.250 -0.1803  0.1419  0.5900
    1OL     H5S 3956   0.072   1.985   6.230 -1.4817  1.2872 -0.1943
    1OL     C16 3957  -0.026   1.911   6.057 -0.3195 -0.4045 -0.0624
    1OL     H6R 3958  -0.125   1.868   6.041 -0.6629  0.1119  0.5959
    1OL     H6S 3959   0.045   1.836   6.019  1.6411  1.7823 -0.9728
    1OL     C17 3960  -0.025   2.039   5.972 -0.1996 -0.4325 -0.4060
    1OL     H7R 3961  -0.065   2.120   6.034  0.8347 -1.2783  1.4538
    1OL     H7S 3962  -0.102   2.025   5.896 -1.6846  0.5126  0.8661
    1OL     C18 3963   0.112   2.085   5.921 -0.9976 -0.3167 -0.4825
    1OL     H8R 3964   0.185   2.090   6.002  0.0359 -1.0945 -1.3219
    1OL     H8S 3965   0.100   2.179   5.867  0.4986 -0.6320 -1.4292
    1OL     C19 3966   0.156   1.979   5.820  0.7750 -0.4172  0.3373
    1OL     H9R 3967   0.172   1.882   5.867 -0.8505 -0.4324  0.9364
    1OL    C110 3968   0.176   1.996   5.688 -0.3227 -0.4626 -0.3153
    1OL    H10R 3969   0.201   1.908   5.630 -0.0365  0.0266 -0.9564
    1OL    C111 3970   0.145   2.127   5.613  0.2502  0.4433  0.5499
    1OL    H11R 3971   0.130   2.218   5.671 -1.1912  1.0565 -0.7387
    1OL    H11S 3972   0.055   2.108   5.554  0.3269  0.0767  0.5456
    1OL    C112 3973   0.271   2.150   5.529  0.1666  0.1528  0.1053
    1OL    H12R 3974   0.310   2.059   5.480  0.1616 -0.1916  0.7348
    1OL    H12S 3975   0.353   2.185   5.592 -0.4773  0.2483  0.8937
    1OL    C113 3976   0.234   2.258   5.428  0.7204 -0.0837  0.0281
    1OL    H13R 3977   0.207   2.350   5.480  1.1581 -0.0814  0.2622
    1OL    H13S 3978   0.147   2.220   5.376 -0.0823 -1.2333  2.0964
    1OL    C114 3979   0.350   2.274   5.327  0.9755 -0.2698 -0.1120
    1OL    H14R 3980   0.351   2.183   5.266 -0.4715 -0.4513  0.0894
    1OL    H14S 3981   0.444   2.290   5.380  2.0921 -0.8507 -1.8251
    1OL    C115 3982   0.321   2.388   5.230 -0.1516 -0.1691  0.3173
    1OL    H15R 3983   0.341   2.488   5.270 -0.4453 -0.7692  2.0757
    1OL    H15S 3984   0.216   2.383   5.202  0.1790  1.1273 -1.3244
    1OL    C116 3985   0.420   2.376   5.113 -0.1458 -0.5066  0.0918
    1OL    H16R 3986   0.384   2.291   5.055 -2.4929  0.5100 -0.0333
    1OL    H16S 3987   0.522   2.355   5.146  0.0529 -0.2378 -0.3448
    1OL    C117 3988   0.408   2.513   5.040 -0.3405 -0.2686 -0.3809
    1OL    H17R 3989   0.427   2.584   5.120  0.6356  0.0809 -0.9110
    1OL    H17S 3990   0.308   2.525   4.999  0.2561 -0.6284 -2.0105
    1OL    C118 3991   0.499   2.528   4.920  0.0047 -0.4290 -0.1933
    1OL    H18R 3992   0.601   2.519   4.958 -0.8320 -2.3276  1.8254
    1OL    H18S 3993   0.496   2.623   4.866  1.3851 -0.2296  0.0329
    1OL    H18T 3994   0.482   2.451   4.845 -1.4827  1.4000 -1.8394
    1PA    C116 3995   1.102   4.011   5.089 -0.1876  0.1810 -0.1850
    1PA    H16R 3996   1.091   4.093   5.017 -0.6400  0.2166 -0.0770
    1PA    H16S 3997   1.057   3.919   5.051 -2.3831  1.5630 -1.1631
    1PA    H16T 3998   1.205   3.981   5.106 -0.0735  0.9465  0.5535
    1PA    C115 3999   1.035   4.035   5.221  0.3578 -0.3163  0.3772
    1PA    H15R 4000   0.927   4.019   5.215  0.1095 -0.3827  3.2571
    1PA    H15S 4001   1.071   3.968   5.300 -0.0547 -0.5046  0.4086
    1PA    C114 4002   1.060   4.180   5.269 -0.3664 -0.1050 -0.0679
    1PA    H14R 4003   1.169   4.185   5.270 -0.3010 -0.9838 -0.8385
    1PA    H14S 4004   1.016   4.250   5.197 -4.0004 -2.3115 -0.2363
    1PA    C113 4005   0.996   4.210   5.410  0.8316  0.5279 -0.2039
    1PA    H13R 4006   0.891   4.181   5.406  0.9058  0.1920  0.2866
    1PA    H13S 4007   1.048   4.163   5.494 -0.9755 -1.4571 -0.1381
    1PA    C112 4008   1.001   4.369   5.438  0.3890 -0.1666 -0.1267
    1PA    H12R 4009   0.963   4.432   5.357  2.4993  3.1229  1.2078
    1PA    H12S 4010   0.943   4.381   5.529  0.5615  0.6191 -0.1133
    1PA    C111 4011   1.133   4.428   5.455 -0.0826 -0.4117  0.6279
    1PA    H11R 4012   1.174   4.440   5.354 -2.5277 -0.8689 -0.4890
    1PA    H11S 4013   1.113   4.532   5.480  0.8568 -0.1421  0.2974
    1PA    C110 4014   1.233   4.359   5.558  0.1525 -0.2732  0.3690
    1PA    H10R 4015   1.173   4.346   5.648 -0.0126  0.9870  0.4651
    1PA    H10S 4016   1.272   4.265   5.519 -1.0371 -0.4747 -0.4108
    1PA     C19 4017   1.365   4.436   5.583  0.8592  0.1587  0.2764
    1PA     H9R 4018   1.441   4.363   5.612  0.8161  0.5026  1.3084
    1PA     H9S 4019   1.404   4.486   5.494  0.8357  1.6793  1.0832
    1PA     C18 4020   1.363   4.546   5.694 -0.1126 -0.6752 -0.7096
    1PA     H8R 4021   1.463   4.586   5.711 -0.7496  0.8194 -0.2612
    1PA     H8S 4022   1.308   4.633   5.657  1.8388  0.8758 -0.1373
    1PA     C17 4023   1.321   4.512   5.839 -0.6621  0.4219  0.2461
    1PA     H7R 4024   1.275   4.600   5.885  0.0929  0.3972  1.0884
    1PA     H7S 4025   1.255   4.427   5.852  0.4579 -0.2677  1.7748
    1PA     C16 4026   1.447   4.479   5.919  0.1821  0.4899 -0.5633
    1PA     H6R 4027   1.489   4.379   5.901 -2.6837 -1.2181  1.3790
    1PA     H6S 4028   1.524   4.556   5.923  0.3485  0.2699  1.5780
    1PA     C15 4029   1.423   4.479   6.071  0.2443 -0.5071 -0.0678
    1PA     H5R 4030   1.380   4.575   6.103 -3.3841 -2.1036  0.2880
    1PA     H5S 4031   1.339   4.412   6.090 -0.2756  0.6855  2.2837
    1PA     C14 4032   1.548   4.449   6.155  0.3268  0.0735 -0.4727
    1PA     H4R 4033   1.572   4.343   6.139 -0.9262 -0.8540  2.9074
    1PA     H4S 4034   1.631   4.513   6.124 -0.4837  0.6682 -1.4688
    1PA     C13 4035   1.508   4.460   6.302  0.2323 -0.0667 -0.0782
    1PA     H3R 4036   1.465   4.559   6.322 -0.3066 -0.7094  2.3392
    1PA     H3S 4037   1.436   4.380   6.320  2.9532 -2.4009  1.2229
    1PA     C12 4038   1.635   4.425   6.394 -0.5233 -0.4946  0.1620
    1PA     H2R 4039   1.695   4.345   6.352  0.4969 -0.1945  0.9912
    1PA     H2S 4040   1.705   4.508   6.402  0.5454 -1.2230 -1.2056
    1PC     C11 4041   1.586   4.394   6.533  0.4167  0.7916 -0.5932
    1PC     O12 4042   1.502   4.459   6.594 -0.3833 -0.4766  0.1465
    1PC     O11 4043   1.645   4.286   6.591  0.3830  0.4846 -0.5106
    1PC      C1 4044   1.602   4.260   6.730 -0.2798 -0.0491  0.8876
    1PC      HR 4045   1.665   4.177   6.763 -2.4275 -2.3956 -0.5571
    1PC      HS 4046   1.617   4.347   6.794  1.4911 -1.1460  2.0701
    1PC      C2 4047   1.455   4.214   6.738  0.0263 -0.6465 -0.4203
    1PC      HX 4048   1.387   4.299   6.732  0.3812 -0.0363  2.4992
    1PC      C3 4049   1.426   4.146   6.873  0.0200  1.0021  0.1150
    1PC      HA 4050   1.330   4.094   6.867  1.0187 -1.4592  2.9626
    1PC      HB 4051   1.505   4.071   6.880 -1.1338 -0.1837  0.8406
    1PC     O31 4052   1.430   4.241   6.984  0.4022 -0.0925 -0.7412
    1PC     P31 4053   1.296   4.268   7.073  0.2450 -0.1417  0.1602
    1PC     O32 4054   1.304   4.158   7.186 -0.6463  0.1138  0.0701
    1PC     C31 4055   1.388   4.175   7.302 -0.1704 -0.2372  0.4206
    1PC     H1A 4056   1.369   4.266   7.360 -0.0127 -0.2120  0.4343
    1PC     H1B 4057   1.365   4.089   7.365 -1.3311  0.0353  0.3893
    1PC     C32 4058   1.535   4.174   7.262 -0.5257  0.3115 -0.4020
    1PC     H2A 4059   1.547   4.076   7.214  0.6807  0.4146 -0.3498
    1PC     H2B 4060   1.562   4.248   7.186 -0.6257  0.8952  0.1297
    1PC     N31 4061   1.644   4.178   7.364 -0.9123 -0.2060 -0.5844
    1PC     C33 4062   1.762   4.108   7.311  0.3185  0.1039  0.1384
    1PC     H3A 4063   1.735   4.003   7.302 -0.8456  0.0853  3.0543
    1PC     H3B 4064   1.772   4.145   7.208 -0.4139  2.1767  0.7539
    1PC     H3C 4065   1.847   4.106   7.379 -1.1617 -5.1250  2.3209
    1PC     C34 4066   1.677   4.325   7.403 -0.1204 -0.6402  0.8859
    1PC     H4A 4067   1.702   4.381   7.313 -1.1894 -1.2432  0.1878
    1PC     H4B 4068   1.586   4.369   7.443 -1.2973 -2.5472  0.4124
    1PC     H4C 4069   1.761   4.322   7.473  2.4150  1.6318 -1.7776
    1PC     C35 4070   1.604   4.110   7.487 -0.0189  0.4876 -0.8282
    1PC     H5A 4071   1.558   4.013   7.466  1.2402 -0.0776 -1.0402
    1PC     H5B 4072   1.525   4.170   7.533  1.2230  1.0550  0.6520
    1PC     H5C 4073   1.687   4.104   7.557  0.6093 -0.9925 -1.6606
    1PC     O33 4074   1.311   4.403   7.138  0.0889 -0.0178  0.5585
    1PC     O34 4075   1.182   4.260   6.984 -0.4984  0.3348  0.1553
    1PC     O21 4076   1.425   4.118   6.632  0.2228 -0.7878 -0.0959
    1PC     C21 4077   1.323   4.147   6.544 -0.3052 -0.9279 -0.7471
    1PC     O22 4078   1.287   4.258   6.513 -0.1050 -0.2837  0.6108
    1OL     C12 4079   1.261   4.026   6.492  0.2150  0.5091 -0.6145
    1OL     H2R 4080   1.178   4.007   6.560  2.3760 -1.2582  1.7357
    1OL     H2S 4081   1.337   3.953   6.520  1.0350  1.9379  1.0757
    1OL     C13 4082   1.231   4.012   6.342  0.5362  0.6069 -0.7040
    1OL     H3R 4083   1.151   4.080   6.313  0.7991  1.5942  0.7868
    1OL     H3S 4084   1.191   3.911   6.343 -1.5508  1.3731  0.2127
    1OL     C14 4085   1.358   4.038   6.257 -0.1163 -0.0588 -0.0494
    1OL     H4R 4086   1.424   3.955   6.282  1.6214  1.6516  1.3592
    1OL     H4S 4087   1.411   4.129   6.286  0.2056 -0.9860  2.6139
    1OL     C15 4088   1.331   4.035   6.106  0.5415  0.9641  0.9297
    1OL     H5R 4089   1.421   4.056   6.047  0.2329 -2.0792 -0.8364
    1OL     H5S 4090   1.271   4.121   6.077 -1.6577 -0.9962 -0.6782
    1OL     C16 4091   1.248   3.914   6.055  0.1029 -0.0776 -0.0435
    1OL     H6R 4092   1.165   3.892   6.122  1.6444  0.2096  2.0620
    1OL     H6S 4093   1.310   3.824   6.050 -1.3427 -1.0664 -1.6057
    1OL     C17 4094   1.181   3.947   5.917 -0.4192  0.0636  0.3909
    1OL     H7R 4095   1.099   4.018   5.929 -0.8475  0.0798 -2.1201
    1OL     H7S 4096   1.127   3.859   5.881 -0.8241 -0.1344  1.4451
    1OL     C18 4097   1.286   3.998   5.812  0.1393 -0.5517 -0.0347
    1OL     H8R 4098   1.373   3.933   5.808  1.1625  0.8511 -2.1561
    1OL     H8S 4099   1.320   4.099   5.834 -2.6121  0.4953 -0.1277
    1OL     C19 4100   1.221   3.999   5.677 -0.1194 -0.4508  0.1003
    1OL     H9R 4101   1.116   4.028   5.673  0.1100  0.5752  1.1469
    1OL    C110 4102   1.278   3.971   5.563 -0.2925  0.1106  0.9345
    1OL    H10R 4103   1.232   3.978   5.465  2.8324 -0.1612 -0.6836
    1OL    C111 4104   1.417   3.923   5.550 -0.6204 -0.0291 -0.3912
    1OL    H11R 4105   1.433   3.872   5.455 -0.1249  0.7283 -0.7292
    1OL    H11S 4106   1.430   3.846   5.626 -1.1819 -1.7150 -1.9271
    1OL    C112 4107   1.532   4.027   5.568  0.4747 -0.4155 -0.3695
    1OL    H12R 4108   1.529   4.061   5.672  1.5252 -3.5074  0.7655
    1OL    H12S 4109   1.517   4.115   5.506  2.6468  1.0945  1.0662
    1OL    C113 4110   1.674   3.979   5.538  0.3022 -0.1158  0.5651
    1OL    H13R 4111   1.678   3.959   5.431 -1.5862  0.5224  0.3512
    1OL    H13S 4112   1.690   3.884   5.591  0.9211  0.0250  0.6380
    1OL    C114 4113   1.781   4.073   5.586  0.2627  0.2381  0.2289
    1OL    H14R 4114   1.769   4.166   5.531  1.1040  0.5976  0.6445
    1OL    H14S 4115   1.877   4.032   5.555 -0.4454 -1.8206  0.5875
    1OL    C115 4116   1.797   4.112   5.729  0.0258  0.1610  0.0337
    1OL    H15R 4117   1.827   4.020   5.779 -0.4895 -0.2142 -0.3383
    1OL    H15S 4118   1.703   4.154   5.766  1.2298  2.2169  0.9199
    1OL    C116 4119   1.910   4.213   5.744 -0.0911  0.1657 -0.0520
    1OL    H16R 4120   1.892   4.305   5.688 -0.2500  0.5115  0.5611
    1OL    H16S 4121   1.996   4.157   5.706  0.1316 -0.2735  1.0583
    1OL    C117 4122   1.930   4.241   5.895  0.5474  0.0057 -0.1926
    1OL    H17R 4123   2.031   4.283   5.895  1.6917 -2.5378  1.0513
    1OL    H17S 4124   1.933   4.146   5.948  1.8441  0.9023  1.4523
    1OL    C118 4125   1.824   4.336   5.951  0.1592  0.2375 -0.4839
    1OL    H18R 4126   1.802   4.419   5.883  0.3274  0.2613 -0.5102
    1OL    H18S 4127   1.847   4.373   6.051  1.7042 -1.4862 -0.1528
    1OL    H18T 4128   1.731   4.278   5.950 -1.6791  2.8486  1.6548
    1PA    C116 4129   3.453   0.377   5.908 -0.1430 -0.6644  0.0270
    1PA    H16R 4130   3.469   0.485   5.904 -0.7398 -0.6042 -1.2571
    1PA    H16S 4131   3.363   0.356   5.966  0.3936  0.5188  1.3662
    1PA    H16T 4132   3.426   0.361   5.804 -0.7786  0.6709 -0.0358
    1PA    C115 4133   3.579   0.300   5.955 -0.2291  0.3072 -0.3849
    1PA    H15R 4134   3.549   0.196   5.969  0.5228  0.1754  0.3393
    1PA    H15S 4135   3.650   0.307   5.872 -1.5707 -1.0493 -1.7128
    1PA    C114 4136   3.639   0.356   6.088 -0.0470  0.1649  0.4477
    1PA    H14R 4137   3.701   0.444   6.066 -2.0349  1.2700 -1.0308
    1PA    H14S 4138   3.554   0.391   6.147  0.0031  0.3567  0.4070
    1PA    C113 4139   3.701   0.264   6.190 -0.7046  0.0514  0.7928
    1PA    H13R 4140   3.683   0.313   6.285  0.1755 -0.7184  1.3867
    1PA    H13S 4141   3.653   0.166   6.181 -0.8460  0.1871 -0.0252
    1PA    C112 4142   3.847   0.227   6.158  0.0049 -0.2990 -0.2840
    1PA    H12R 4143   3.902   0.321   6.152  0.6759 -0.6388  0.4227
    1PA    H12S 4144   3.884   0.169   6.242 -1.5400 -0.2642  0.4507
    1PA    C111 4145   3.866   0.147   6.026  0.1623  0.1386 -0.0931
    1PA    H11R 4146   3.842   0.041   6.026  0.6154  0.0123 -1.3461
    1PA    H11S 4147   3.814   0.194   5.942 -1.2520 -0.2031  0.5647
    1PA    C110 4148   4.011   0.151   5.987 -0.3173  0.6390  0.4224
    1PA    H10R 4149   4.035   0.256   5.969 -0.2822  0.9403  2.1327
    1PA    H10S 4150   4.070   0.120   6.073 -0.1684  1.5601  0.6623
    1PA     C19 4151   4.047   0.069   5.865  0.2869  0.3852  0.1762
    1PA     H9R 4152   4.024  -0.036   5.885 -0.6343  0.9342  2.2279
    1PA     H9S 4153   3.968   0.087   5.793  0.6687 -0.7674 -0.5597
    1PA     C18 4154   4.179   0.092   5.796 -0.2125  0.1384 -0.3627
    1PA     H8R 4155   4.192   0.010   5.726  3.6487  1.1904 -1.0994
    1PA     H8S 4156   4.171   0.188   5.743  2.9350  0.5649 -0.2529
    1PA     C17 4157   4.295   0.082   5.891 -0.1344  0.2179 -0.8831
    1PA     H7R 4158   4.295   0.158   5.969 -0.7305  0.0446 -0.7085
    1PA     H7S 4159   4.295  -0.014   5.941  0.5204  0.0883 -1.1218
    1PA     C16 4160   4.428   0.088   5.818 -0.2272  0.1874 -0.5697
    1PA     H6R 4161   4.426   0.011   5.740  1.5352 -0.2522 -0.2171
    1PA     H6S 4162   4.438   0.187   5.774  2.6040 -0.5440 -1.7724
    1PA     C15 4163   4.560   0.061   5.905 -0.0908 -0.3136  0.2277
    1PA     H5R 4164   4.563  -0.041   5.944  1.8773  0.0674  1.1889
    1PA     H5S 4165   4.651   0.076   5.847 -0.9726  2.3605 -0.6207
    1PA     C14 4166   4.569   0.156   6.028  0.2346 -0.3324  0.4960
    1PA     H4R 4167   4.563   0.260   5.996  0.3980  0.2541  2.2547
    1PA     H4S 4168   4.475   0.167   6.084 -0.1188 -2.0711  0.2999
    1PA     C13 4169   4.682   0.144   6.126  0.1035  0.1604 -0.2377
    1PA     H3R 4170   4.776   0.160   6.072  0.9318  2.2976  1.6851
    1PA     H3S 4171   4.674   0.224   6.199  1.6954 -0.3807  0.5668
    1PA     C12 4172   4.687   0.007   6.201 -0.0935 -0.8878 -0.4183
    1PA     H2R 4173   4.583  -0.019   6.220 -0.0810 -0.3573  0.4504
    1PA     H2S 4174   4.737  -0.057   6.128  0.3752 -1.2899  0.2471
    1PC     C11 4175   4.775   0.019   6.329 -0.0403  0.1837 -0.2817
    1PC     O12 4176   4.882  -0.031   6.339  0.1857  0.2673  0.3433
    1PC     O11 4177   4.708   0.070   6.437  0.2193  0.2851 -0.2244
    1PC      C1 4178   4.769   0.081   6.575 -0.0866  0.6217 -0.0132
    1PC      HR 4179   4.840  -0.002   6.585  0.8832  1.4464  0.1448
    1PC      HS 4180   4.828   0.173   6.575  1.4960 -0.2646  3.0727
    1PC      C2 4181   4.657   0.085   6.678  0.2624  0.0164  1.0850
    1PC      HX 4182   4.601   0.178   6.663 -1.6863 -1.3847 -1.2267
    1PC      C3 4183   4.702   0.085   6.826  0.0187  0.4133  0.0958
    1PC      HA 4184   4.726  -0.016   6.858  1.7883  1.2634  1.6381
    1PC      HB 4185   4.797   0.140   6.828  0.7846 -0.8748  0.8245
    1PC     O31 4186   4.600   0.138   6.916  0.3616 -0.0736 -0.0756
    1PC     P31 4187   4.534   0.062   7.042 -0.5620  0.0919  0.4115
    1PC     O32 4188   4.437  -0.048   6.981 -0.0393 -0.0601 -0.2851
    1PC     C31 4189   4.481  -0.186   6.952  0.1941 -0.1372 -0.2703
    1PC     H1A 4190   4.404  -0.232   6.891  0.2748  0.0967 -0.5493
    1PC     H1B 4191   4.580  -0.179   6.905  0.8078  0.7227  1.0866
    1PC     C32 4192   4.495  -0.267   7.084 -0.5430  0.4976  0.3957
    1PC     H2A 4193   4.538  -0.366   7.069 -0.4739  0.4380  0.9722
    1PC     H2B 4194   4.567  -0.220   7.151 -0.8808  2.8761 -0.7830
    1PC     N31 4195   4.373  -0.280   7.170 -0.2755  0.1475  0.1814
    1PC     C33 4196   4.412  -0.386   7.263  0.1729  0.1150  0.1605
    1PC     H3A 4197   4.338  -0.405   7.341  1.1939  0.3846  1.2378
    1PC     H3B 4198   4.440  -0.476   7.208 -0.2952  0.4048 -0.5593
    1PC     H3C 4199   4.498  -0.347   7.319  2.0236 -1.0036 -1.7778
    1PC     C34 4200   4.334  -0.162   7.248 -0.0623 -0.2395 -0.1296
    1PC     H4A 4201   4.420  -0.131   7.307  0.2442  0.7799 -1.0769
    1PC     H4B 4202   4.295  -0.080   7.188 -2.1323 -0.9141  0.1927
    1PC     H4C 4203   4.267  -0.201   7.325 -2.3124  0.4027 -1.6410
    1PC     C35 4204   4.263  -0.322   7.084 -0.2526  0.0357 -0.7546
    1PC     H5A 4205   4.306  -0.395   7.016  0.2048  0.6874 -1.1821
    1PC     H5B 4206   4.212  -0.248   7.023  0.0737 -1.1696 -2.5478
    1PC     H5C 4207   4.183  -0.369   7.140 -1.7886  1.3398 -1.7688
    1PC     O33 4208   4.649  -0.003   7.104  0.7719 -0.9736  0.6672
    1PC     O34 4209   4.450   0.160   7.114 -0.8453 -0.0199 -0.0845
    1PC     O21 4210   4.566  -0.028   6.659 -0.5724 -0.2898 -0.0814
    1PC     C21 4211   4.437  -0.000   6.629  0.2360  0.0379 -0.9419
    1PC     O22 4212   4.376   0.104   6.643  0.0450 -0.0636 -0.1030
    1OL     C12 4213   4.357  -0.127   6.604 -0.7521 -0.3875  0.8339
    1OL     H2R 4214   4.272  -0.132   6.672 -0.4464  4.8596  2.0537
    1OL     H2S 4215   4.424  -0.213   6.607  0.5541  0.5440 -0.2356
    1OL     C13 4216   4.286  -0.128   6.463  0.6229  0.7056  0.1565
    1OL     H3R 4217   4.212  -0.048   6.456 -0.1021 -0.0523 -1.3573
    1OL     H3S 4218   4.227  -0.219   6.455 -1.4892  1.6867  2.9939
    1OL     C14 4219   4.378  -0.110   6.344 -0.3028 -0.1109  0.0706
    1OL     H4R 4220   4.451  -0.191   6.349  3.7726  3.1029 -1.4092
    1OL     H4S 4221   4.424  -0.011   6.348 -1.2341  0.3323 -0.0609
    1OL     C15 4222   4.312  -0.124   6.202 -0.2806  0.6652  0.7312
    1OL     H5R 4223   4.384  -0.083   6.131 -0.9735 -1.1698 -1.1196
    1OL     H5S 4224   4.217  -0.071   6.209 -0.7410  0.0499 -0.6675
    1OL     C16 4225   4.270  -0.269   6.161 -0.0756 -0.1081  0.2343
    1OL     H6R 4226   4.190  -0.302   6.227  0.3806 -2.9690 -0.5345
    1OL     H6S 4227   4.348  -0.339   6.189  0.0670 -0.1849 -0.3355
    1OL     C17 4228   4.226  -0.283   6.021 -0.3772  0.2108  0.3867
    1OL     H7R 4229   4.302  -0.247   5.952 -0.2904 -0.9397 -0.1347
    1OL     H7S 4230   4.139  -0.221   6.000 -1.4461 -1.7032 -1.0956
    1OL     C18 4231   4.180  -0.425   5.980 -0.8621  0.1012 -0.6254
    1OL     H8R 4232   4.122  -0.407   5.889 -2.2561 -0.7434  0.0677
    1OL     H8S 4233   4.122  -0.457   6.066  1.0704  1.1641  1.1915
    1OL     C19 4234   4.301  -0.513   5.963  0.3359  0.8935  0.0856
    1OL     H9R 4235   4.396  -0.462   5.958  0.2052  1.3048  1.4089
    1OL    C110 4236   4.292  -0.646   5.954  0.0095 -0.1208  0.5979
    1OL    H10R 4237   4.382  -0.706   5.965 -0.1517 -0.4897 -0.0155
    1OL    C111 4238   4.164  -0.722   5.948  0.0366 -0.1809  0.1586
    1OL    H11R 4239   4.083  -0.673   6.002 -1.6286 -2.9467  0.3701
    1OL    H11S 4240   4.172  -0.815   6.004  2.4552 -0.4498 -0.5314
    1OL    C112 4241   4.117  -0.763   5.814  0.6298 -0.0389 -0.4115
    1OL    H12R 4242   4.037  -0.835   5.833 -0.2261  1.3475  1.5242
    1OL    H12S 4243   4.203  -0.812   5.768  1.2502  1.0838 -0.4888
    1OL    C113 4244   4.063  -0.649   5.737  0.1968  0.0438  0.3564
    1OL    H13R 4245   4.149  -0.593   5.699 -0.9849  0.6979 -1.4928
    1OL    H13S 4246   3.994  -0.584   5.791 -1.2472 -0.0242 -1.3092
    1OL    C114 4247   3.992  -0.693   5.611  0.4205  0.6321  0.7846
    1OL    H14R 4248   3.905  -0.751   5.644  1.7409 -0.3944  2.6682
    1OL    H14S 4249   4.057  -0.766   5.562  0.2598  0.3262  1.0245
    1OL    C115 4250   3.960  -0.579   5.516 -0.0130 -0.7866 -0.2944
    1OL    H15R 4251   4.051  -0.523   5.492 -0.6604 -0.3701 -1.8738
    1OL    H15S 4252   3.879  -0.519   5.559 -0.3249 -1.4924  0.1220
    1OL    C116 4253   3.916  -0.625   5.378  0.2017 -0.4831  0.2847
    1OL    H16R 4254   3.820  -0.675   5.396  0.0340  0.1510  1.2369
    1OL    H16S 4255   3.993  -0.689   5.334  2.1077  0.6745  1.7783
    1OL    C117 4256   3.892  -0.518   5.268  0.4780 -0.4240 -0.0945
    1OL    H17R 4257   3.810  -0.451   5.294  0.1615 -0.0939 -1.8068
    1OL    H17S 4258   3.853  -0.568   5.179  1.1176 -2.1992  0.5787
    1OL    C118 4259   4.009  -0.435   5.236 -0.6738 -0.1237  0.3053
    1OL    H18R 4260   4.065  -0.408   5.326  0.7986 -0.9710 -0.3287
    1OL    H18S 4261   3.980  -0.347   5.177  0.2145 -1.2149 -1.8757
    1OL    H18T 4262   4.079  -0.495   5.177 -0.4708  0.8027 -0.4311
    1PA    C116 4263   3.455   0.288   5.121  0.5754  0.4905  0.4406
    1PA    H16R 4264   3.447   0.395   5.103 -1.7560 -0.0696 -2.4938
    1PA    H16S 4265   3.442   0.239   5.025 -3.3868 -0.2869  1.2169
    1PA    H16T 4266   3.552   0.265   5.167 -0.6069 -0.1659  2.7761
    1PA    C115 4267   3.344   0.247   5.215 -0.3391  0.3803  0.1240
    1PA    H15R 4268   3.251   0.264   5.161 -0.6685 -2.6398 -0.4279
    1PA    H15S 4269   3.344   0.139   5.228  0.0264  0.4346  0.6329
    1PA    C114 4270   3.347   0.297   5.361 -0.2781  1.1185 -0.1941
    1PA    H14R 4271   3.321   0.403   5.366 -1.1056  0.9436 -0.7139
    1PA    H14S 4272   3.270   0.248   5.419 -0.1902  1.7343  0.4554
    1PA    C113 4273   3.478   0.284   5.440  0.1650 -0.6581  0.5187
    1PA    H13R 4274   3.549   0.330   5.371 -0.3648  0.0112  0.4117
    1PA    H13S 4275   3.465   0.339   5.533 -0.8752  0.3899 -0.2149
    1PA    C112 4276   3.537   0.146   5.487  0.5130 -0.0100  0.6260
    1PA    H12R 4277   3.547   0.084   5.398 -1.1964  1.5886 -0.7728
    1PA    H12S 4278   3.636   0.164   5.531  0.9472  2.4343 -1.1234
    1PA    C111 4279   3.444   0.074   5.578  0.3011  0.2866 -0.1049
    1PA    H11R 4280   3.415   0.145   5.656 -0.8908 -1.2055  0.8493
    1PA    H11S 4281   3.348   0.054   5.530  0.6768 -0.4603 -0.5494
    1PA    C110 4282   3.502  -0.055   5.640  0.0113  0.3534  1.0746
    1PA    H10R 4283   3.426  -0.104   5.701 -0.0345 -1.3229 -0.2423
    1PA    H10S 4284   3.543  -0.117   5.559 -0.1608  0.6727  0.7403
    1PA     C19 4285   3.619  -0.021   5.736 -0.2173  0.0072 -0.0611
    1PA     H9R 4286   3.703   0.023   5.682 -0.1417 -1.4498 -1.1709
    1PA     H9S 4287   3.585   0.053   5.809  0.1521  0.5506 -0.4277
    1PA     C18 4288   3.673  -0.142   5.806 -0.6241  0.2758  0.1043
    1PA     H8R 4289   3.656  -0.228   5.740  0.7902 -0.1064  0.2073
    1PA     H8S 4290   3.782  -0.131   5.807 -0.6004  0.5875 -1.5445
    1PA     C17 4291   3.600  -0.182   5.938  0.5297  0.8061 -0.0905
    1PA     H7R 4292   3.589  -0.092   6.000  3.2587  1.2658 -0.1405
    1PA     H7S 4293   3.500  -0.214   5.911  1.1856 -0.9339 -0.5516
    1PA     C16 4294   3.670  -0.297   6.013  0.4782  0.4737  0.2566
    1PA     H6R 4295   3.615  -0.336   6.099  1.5340  2.1413  1.7592
    1PA     H6S 4296   3.695  -0.370   5.937 -1.5127 -0.3680  0.3346
    1PA     C15 4297   3.800  -0.252   6.069 -0.8260  0.7168 -0.2359
    1PA     H5R 4298   3.865  -0.339   6.085 -1.4642  0.4441  1.0509
    1PA     H5S 4299   3.858  -0.191   6.000  2.2053  1.6591  2.8904
    1PA     C14 4300   3.784  -0.182   6.201  0.1596 -0.0106  0.3261
    1PA     H4R 4301   3.724  -0.095   6.176 -1.5923 -0.6613  2.0593
    1PA     H4S 4302   3.718  -0.238   6.267 -0.2028  1.2449  1.0617
    1PA     C13 4303   3.914  -0.155   6.278 -0.4876 -0.2657 -0.0326
    1PA     H3R 4304   3.975  -0.245   6.290  1.8752  1.4305  1.6619
    1PA     H3S 4305   3.969  -0.076   6.227 -3.2011  2.0799  0.4231
    1PA     C12 4306   3.883  -0.090   6.415  0.1767 -1.0837 -0.1911
    1PA     H2R 4307   3.968  -0.029   6.448  0.9015 -0.6731 -2.6206
    1PA     H2S 4308   3.791  -0.032   6.408  0.2243 -1.0928 -1.0654
    1PC     C11 4309   3.865  -0.185   6.528  0.5131  0.4931  0.2618
    1PC     O12 4310   3.951  -0.240   6.592 -0.2731 -0.3431  0.1240
    1PC     O11 4311   3.732  -0.210   6.551  0.0900 -0.0376 -0.5636
    1PC      C1 4312   3.691  -0.256   6.689  0.6227  0.5704 -0.0341
    1PC      HR 4313   3.592  -0.300   6.676  0.3233 -0.0132  3.3689
    1PC      HS 4314   3.754  -0.338   6.724  2.4875  1.1939 -1.7575
    1PC      C2 4315   3.682  -0.138   6.786 -0.2002  0.2096 -0.7502
    1PC      HX 4316   3.783  -0.103   6.812 -0.0476 -1.4450  1.1718
    1PC      C3 4317   3.611  -0.183   6.924  0.1714  0.3297  0.8288
    1PC      HA 4318   3.503  -0.197   6.911  0.1814  0.0554  1.0416
    1PC      HB 4319   3.660  -0.269   6.970  1.2809  1.6769  2.2558
    1PC     O31 4320   3.617  -0.080   7.021  0.0104  0.2633 -0.2846
    1PC     P31 4321   3.733  -0.061   7.126 -0.1844  0.1528 -0.4571
    1PC     O32 4322   3.685  -0.143   7.258 -0.2219 -0.0782  0.4686
    1PC     C31 4323   3.670  -0.286   7.265 -0.2446  0.0286  0.1919
    1PC     H1A 4324   3.579  -0.330   7.224 -1.6161  1.1858  1.8306
    1PC     H1B 4325   3.757  -0.341   7.229 -0.9610 -0.3176 -1.0771
    1PC     C32 4326   3.670  -0.317   7.415 -0.4423 -0.0123  0.0461
    1PC     H2A 4327   3.694  -0.423   7.426 -0.9181 -0.4041 -2.2588
    1PC     H2B 4328   3.748  -0.251   7.453 -2.2920  2.0074  0.5370
    1PC     N31 4329   3.544  -0.293   7.494 -0.2039 -0.1952 -0.2145
    1PC     C33 4330   3.513  -0.154   7.498  0.3591 -0.2945 -0.2184
    1PC     H3A 4331   3.443  -0.129   7.578 -1.2353 -2.1452 -0.9572
    1PC     H3B 4332   3.601  -0.090   7.506 -0.6961  1.3519 -1.1188
    1PC     H3C 4333   3.457  -0.132   7.407 -1.8646 -0.3827  1.0490
    1PC     C34 4334   3.432  -0.372   7.447 -0.4193  0.0605  0.0659
    1PC     H4A 4335   3.406  -0.338   7.347  3.3269 -1.6081 -1.6673
    1PC     H4B 4336   3.474  -0.472   7.439  0.7513  0.6587 -2.2041
    1PC     H4C 4337   3.346  -0.358   7.513  1.2247  0.7743  2.1675
    1PC     C35 4338   3.581  -0.331   7.632  0.1008 -0.2694  0.2004
    1PC     H5A 4339   3.603  -0.438   7.628 -0.3862 -0.3971  0.7526
    1PC     H5B 4340   3.493  -0.307   7.692 -1.2779  0.5001 -2.0170
    1PC     H5C 4341   3.668  -0.272   7.662  1.1035 -1.1232 -0.9082
    1PC     O33 4342   3.858  -0.126   7.077 -0.4595  0.5552 -0.5150
    1PC     O34 4343   3.746   0.082   7.163  0.4347  0.3580 -0.0063
    1PC     O21 4344   3.597  -0.037   6.732  0.0907  0.2255 -0.4127
    1PC     C21 4345   3.644   0.067   6.667 -0.6558 -0.5211 -0.1670
    1PC     O22 4346   3.762   0.091   6.645  0.5728  0.5033  0.1511
    1OL     C12 4347   3.534   0.164   6.619  0.0782  1.3682 -0.5173
    1OL     H2R 4348   3.580   0.263   6.623 -0.3381  1.5410  0.1589
    1OL     H2S 4349   3.448   0.164   6.687  1.0445 -1.2295  0.8155
    1OL     C13 4350   3.495   0.114   6.475  0.3209 -0.2686 -0.2271
    1OL     H3R 4351   3.591   0.089   6.430  0.6371 -0.9456  0.8048
    1OL     H3S 4352   3.448   0.197   6.421 -2.4440  1.5217  4.3981
    1OL     C14 4353   3.400  -0.003   6.471 -0.1293  0.0433 -0.1126
    1OL     H4R 4354   3.297   0.030   6.480 -0.1771 -0.0640 -0.2553
    1OL     H4S 4355   3.418  -0.076   6.550  1.4754 -2.1321 -2.3188
    1OL     C15 4356   3.411  -0.084   6.344  0.1628  0.7293 -0.0673
    1OL     H5R 4357   3.507  -0.135   6.337 -0.1608  0.3422 -2.6785
    1OL     H5S 4358   3.410  -0.015   6.258  1.2578 -0.7334 -1.3172
    1OL     C16 4359   3.312  -0.199   6.329  0.4601 -0.6407  0.1279
    1OL     H6R 4360   3.216  -0.155   6.303 -0.4180 -0.1079  3.8182
    1OL     H6S 4361   3.288  -0.262   6.415 -4.6588 -0.9466 -1.2076
    1OL     C17 4362   3.340  -0.289   6.198 -0.4624  0.1766 -0.8480
    1OL     H7R 4363   3.429  -0.352   6.204 -0.5374  0.2063  2.4229
    1OL     H7S 4364   3.356  -0.229   6.108 -0.4007  1.7113  0.1475
    1OL     C18 4365   3.222  -0.385   6.169 -0.0528 -0.4123  0.4717
    1OL     H8R 4366   3.145  -0.323   6.122  1.9980  0.9592 -1.3135
    1OL     H8S 4367   3.183  -0.422   6.264  2.7880 -0.1368  1.8376
    1OL     C19 4368   3.265  -0.493   6.073  0.5787 -0.4259  0.0132
    1OL     H9R 4369   3.284  -0.589   6.121 -0.4891 -0.3112  0.7057
    1OL    C110 4370   3.274  -0.479   5.941 -0.7416 -0.5183  0.1568
    1OL    H10R 4371   3.317  -0.557   5.878  3.3035  1.2271  0.4280
    1OL    C111 4372   3.247  -0.351   5.865  0.1456 -0.7210 -0.3658
    1OL    H11R 4373   3.339  -0.314   5.818  1.1349  0.8974  2.5661
    1OL    H11S 4374   3.215  -0.269   5.931 -1.1222 -1.0544 -0.5400
    1OL    C112 4375   3.141  -0.367   5.763  0.2231 -0.1860 -0.2790
    1OL    H12R 4376   3.043  -0.394   5.803  0.1910  2.5592  1.7468
    1OL    H12S 4377   3.156  -0.452   5.696 -0.6567 -1.6715  1.3134
    1OL    C113 4378   3.121  -0.231   5.679 -0.6602 -0.6300 -0.8245
    1OL    H13R 4379   3.212  -0.173   5.665 -0.5931 -0.1392  1.3239
    1OL    H13S 4380   3.057  -0.153   5.721 -0.5376  0.7886 -3.0921
    1OL    C114 4381   3.058  -0.257   5.544  0.0101  0.1271  0.5009
    1OL    H14R 4382   2.974  -0.327   5.552  0.1764 -0.3668 -1.5092
    1OL    H14S 4383   3.133  -0.309   5.483  0.3515  1.5141 -0.2967
    1OL    C115 4384   3.004  -0.136   5.466  0.4011 -0.0778  0.3284
    1OL    H15R 4385   3.078  -0.056   5.464 -0.5177  0.7861 -1.2707
    1OL    H15S 4386   2.915  -0.097   5.516 -0.6082 -1.5754 -0.2261
    1OL    C116 4387   2.966  -0.161   5.315 -0.1853  0.1256 -0.4235
    1OL    H16R 4388   2.880  -0.227   5.306 -0.3260  0.3307 -0.5785
    1OL    H16S 4389   3.049  -0.221   5.275 -0.1882 -0.6191  0.6436
    1OL    C117 4390   2.955  -0.038   5.228  0.2584 -0.1916  0.5183
    1OL    H17R 4391   3.043   0.027   5.236  0.2582  0.4400 -3.0306
    1OL    H17S 4392   2.864   0.017   5.253 -2.6474 -3.7386 -1.3492
    1OL    C118 4393   2.936  -0.071   5.076 -0.4789 -0.3768  0.4595
    1OL    H18R 4394   3.014  -0.136   5.035  1.0182  1.4036  0.3173
    1OL    H18S 4395   2.934   0.028   5.029  2.9065  0.5063  1.8922
    1OL    H18T 4396   2.843  -0.126   5.059  0.6577 -2.0122 -0.8271
    1PA    C116 4397   1.490   4.771   5.408 -0.0345  0.3124  0.2635
    1PA    H16R 4398   1.452   4.792   5.508  0.0120 -1.0476  0.5817
    1PA    H16S 4399   1.581   4.712   5.420  1.3029  2.6354  2.4206
    1PA    H16T 4400   1.408   4.716   5.362  1.1773 -2.2427  0.9838
    1PA    C115 4401   1.520   4.892   5.317 -0.4766  0.3797 -0.3068
    1PA    H15R 4402   1.567   4.862   5.223 -0.4765 -0.8766  0.0840
    1PA    H15S 4403   1.429   4.948   5.295  0.0535  1.4462  0.1285
    1PA    C114 4404   1.609   4.993   5.387 -0.7236 -0.5666 -0.5397
    1PA    H14R 4405   1.703   4.941   5.402 -1.4372 -1.7382  0.0119
    1PA    H14S 4406   1.629   5.066   5.309  1.3685 -2.5958 -2.0255
    1PA    C113 4407   1.558   5.090   5.503  0.1501  0.5638 -0.1220
    1PA    H13R 4408   1.632   5.169   5.514  0.7980  0.0684 -0.8130
    1PA    H13S 4409   1.457   5.121   5.475 -0.9487 -0.5170  2.3247
    1PA    C112 4410   1.541   5.014   5.639  0.5271  0.3436 -0.6573
    1PA    H12R 4411   1.507   5.080   5.720  1.3705 -2.1819  1.9173
    1PA    H12S 4412   1.460   4.943   5.625 -0.4733  1.0172  1.3609
    1PA    C111 4413   1.668   4.937   5.691 -0.2175  0.1297 -0.6960
    1PA    H11R 4414   1.684   4.854   5.622 -2.6638 -2.8117  1.9409
    1PA    H11S 4415   1.753   5.003   5.707  2.1609 -2.9079  0.1800
    1PA    C110 4416   1.648   4.856   5.824 -0.7561 -0.2154  0.5744
    1PA    H10R 4417   1.653   4.939   5.895 -0.5356  1.6425 -1.4865
    1PA    H10S 4418   1.554   4.801   5.831  0.1220 -1.6404  1.7427
    1PA     C19 4419   1.755   4.751   5.863  0.1612  0.2728 -0.4043
    1PA     H9R 4420   1.727   4.716   5.963 -0.2352  1.2599 -0.1552
    1PA     H9S 4421   1.757   4.662   5.800  0.6074  0.4378 -0.6244
    1PA     C18 4422   1.903   4.791   5.872  0.0463  0.3720  0.3473
    1PA     H8R 4423   1.965   4.703   5.890  0.1351 -0.0078 -1.6409
    1PA     H8S 4424   1.936   4.832   5.777  0.1672  1.6802  0.9345
    1PA     C17 4425   1.938   4.893   5.982  0.2150  0.3582 -0.6110
    1PA     H7R 4426   2.045   4.912   5.986  0.2486 -0.1113  1.3046
    1PA     H7S 4427   1.882   4.987   5.973  1.8179  1.9129  3.4914
    1PA     C16 4428   1.905   4.829   6.122  0.5984  0.2261  0.2382
    1PA     H6R 4429   1.909   4.916   6.188  0.2404  0.8114 -0.5112
    1PA     H6S 4430   1.807   4.781   6.125 -0.5324  2.4177  0.4517
    1PA     C15 4431   2.004   4.728   6.167  0.2255 -0.8361  0.5414
    1PA     H5R 4432   2.019   4.661   6.082 -1.5246  1.1355 -1.4156
    1PA     H5S 4433   2.098   4.778   6.191  1.2057 -0.8278 -2.7763
    1PA     C14 4434   1.947   4.654   6.286 -0.1582  0.0128  0.8176
    1PA     H4R 4435   1.907   4.718   6.365  1.1055  1.1808  0.5644
    1PA     H4S 4436   1.878   4.584   6.239 -1.2578  0.9329  1.0044
    1PA     C13 4437   2.043   4.560   6.358  0.5198  0.5440  0.1808
    1PA     H3R 4438   2.084   4.492   6.283  1.0566 -1.7921  2.4555
    1PA     H3S 4439   2.131   4.618   6.386  1.3704  0.2747 -1.7758
    1PA     C12 4440   1.972   4.465   6.457 -0.1719  0.0649  0.7736
    1PA     H2R 4441   1.911   4.527   6.523  0.0010  0.0050  0.9957
    1PA     H2S 4442   1.898   4.403   6.406 -0.3215  1.7353 -1.1540
    1PC     C11 4443   2.066   4.382   6.534 -0.1036 -0.0654 -0.5438
    1PC     O12 4444   2.140   4.297   6.496 -0.3670  0.1351  0.3446
    1PC     O11 4445   2.054   4.416   6.671  0.8483  0.5991  0.7530
    1PC      C1 4446   2.155   4.362   6.771 -0.1459  0.2432  0.0006
    1PC      HR 4447   2.109   4.335   6.866  0.8658  1.2355  0.7910
    1PC      HS 4448   2.196   4.269   6.731 -0.9771  0.2947 -1.0099
    1PC      C2 4449   2.265   4.464   6.811  0.4429 -0.8836  0.3488
    1PC      HX 4450   2.340   4.415   6.873 -0.8028 -1.7985  1.1835
    1PC      C3 4451   2.196   4.565   6.901  0.0794  0.0670  0.0395
    1PC      HA 4452   2.107   4.591   6.843 -0.0527  1.7682  0.9480
    1PC      HB 4453   2.174   4.522   6.999 -1.1920  0.7045  0.0512
    1PC     O31 4454   2.279   4.683   6.926  0.1458  0.1045  0.3730
    1PC     P31 4455   2.394   4.687   7.038  0.0047  0.0849  0.1034
    1PC     O32 4456   2.368   4.821   7.121 -0.1573  0.0536 -0.0936
    1PC     C31 4457   2.254   4.847   7.194  0.3588 -0.1823 -0.7734
    1PC     H1A 4458   2.224   4.950   7.171 -0.5081 -0.6509 -1.7962
    1PC     H1B 4459   2.175   4.773   7.178 -0.1295 -0.6213  2.8242
    1PC     C32 4460   2.290   4.833   7.341  0.3385  0.0471 -1.0141
    1PC     H2A 4461   2.351   4.745   7.359  1.0377  0.5654 -0.7884
    1PC     H2B 4462   2.353   4.917   7.371  1.0042  0.7053 -3.9567
    1PC     N31 4463   2.178   4.825   7.443 -0.1770 -0.4439  0.5730
    1PC     C33 4464   2.079   4.932   7.416 -0.1226 -0.2089  0.1427
    1PC     H3A 4465   2.025   4.902   7.325 -0.2914 -2.7969  1.0048
    1PC     H3B 4466   2.013   4.939   7.503 -0.2697  0.6988 -0.0391
    1PC     H3C 4467   2.136   5.023   7.403 -0.9523  0.2447 -0.4424
    1PC     C34 4468   2.111   4.697   7.445  0.3168  0.4097 -0.0307
    1PC     H4A 4469   2.023   4.710   7.508 -0.2645  1.8130 -1.0640
    1PC     H4B 4470   2.076   4.673   7.344 -2.3438  0.7421  0.7350
    1PC     H4C 4471   2.185   4.623   7.475  1.0024  1.2700  0.4260
    1PC     C35 4472   2.231   4.843   7.581 -0.2563  0.1969 -0.8999
    1PC     H5A 4473   2.314   4.776   7.606 -0.0121  0.3496 -1.2996
    1PC     H5B 4474   2.150   4.819   7.651  0.6448  1.8932  0.8213
    1PC     H5C 4475   2.271   4.943   7.594 -0.4863  0.0223  1.6624
    1PC     O33 4476   2.379   4.565   7.121  0.1418 -0.4548  0.2436
    1PC     O34 4477   2.520   4.702   6.962 -0.4428  0.6588  0.3161
    1PC     O21 4478   2.331   4.532   6.704 -0.0128 -0.4789  0.2423
    1PC     C21 4479   2.438   4.470   6.645  0.4403 -0.4992 -0.4939
    1PC     O22 4480   2.485   4.364   6.685 -0.2332 -0.1640  1.1219
    1OL     C12 4481   2.477   4.542   6.525  0.6977  0.3254 -0.6362
    1OL     H2R 4482   2.577   4.582   6.541  0.6402 -0.4781  2.0839
    1OL     H2S 4483   2.409   4.627   6.514  0.6467  0.4467  0.5102
    1OL     C13 4484   2.467   4.439   6.407 -0.1307 -0.2617 -0.8871
    1OL     H3R 4485   2.366   4.397   6.398 -1.7385  2.5147  2.1986
    1OL     H3S 4486   2.537   4.356   6.420  0.8313  0.8444  1.5582
    1OL     C14 4487   2.512   4.501   6.277  0.4237 -0.5233  0.0638
    1OL     H4R 4488   2.532   4.433   6.194 -1.8970 -0.9533 -0.2079
    1OL     H4S 4489   2.608   4.550   6.296  0.2215  0.0481 -0.3480
    1OL     C15 4490   2.421   4.613   6.224  0.0947  0.4437 -0.8360
    1OL     H5R 4491   2.322   4.601   6.268 -0.6850  1.5501 -2.1992
    1OL     H5S 4492   2.395   4.602   6.119  0.2752  0.7349 -0.9114
    1OL     C16 4493   2.465   4.758   6.236 -0.0661 -0.1672  0.3532
    1OL     H6R 4494   2.560   4.770   6.184 -0.5016  3.7288  0.1265
    1OL     H6S 4495   2.497   4.782   6.338  3.6903 -0.4226 -0.6031
    1OL     C17 4496   2.365   4.871   6.195 -0.0603 -0.4673  0.7192
    1OL     H7R 4497   2.278   4.862   6.261 -1.1766  0.9282 -0.4870
    1OL     H7S 4498   2.333   4.843   6.095  1.5712  2.8790 -0.8856
    1OL     C18 4499   2.423   5.014   6.173 -0.1625 -0.6455 -1.2576
    1OL     H8R 4500   2.506   5.008   6.103  1.1424 -0.5598  0.2275
    1OL     H8S 4501   2.472   5.032   6.269  1.7351 -4.4413 -1.3536
    1OL     C19 4502   2.316   5.114   6.130 -0.7256  0.1829  0.2381
    1OL     H9R 4503   2.269   5.171   6.210 -1.7770 -0.0657 -0.1846
    1OL    C110 4504   2.282   5.158   6.008 -0.2624  0.1476  0.2193
    1OL    H10R 4505   2.207   5.235   5.996 -0.7282 -0.3394 -0.0237
    1OL    C111 4506   2.325   5.098   5.876  0.4932 -0.0472  0.0618
    1OL    H11R 4507   2.380   5.004   5.888  1.2160  0.6291  2.7276
    1OL    H11S 4508   2.393   5.167   5.827  0.4325 -0.1734 -0.2028
    1OL    C112 4509   2.201   5.090   5.777  0.2241  0.5449  0.1353
    1OL    H12R 4510   2.175   5.191   5.745 -1.9504  0.3426  1.0998
    1OL    H12S 4511   2.110   5.055   5.825  0.6708  1.9646  2.1839
    1OL    C113 4512   2.221   5.013   5.642 -0.1086  0.1161 -1.2016
    1OL    H13R 4513   2.228   4.905   5.658  0.7883  0.2960 -0.2825
    1OL    H13S 4514   2.305   5.045   5.580 -0.5846  1.2760 -1.2698
    1OL    C114 4515   2.103   5.039   5.548  0.4888 -0.0127  0.3297
    1OL    H14R 4516   2.012   5.023   5.607  0.7466  0.4965  0.8781
    1OL    H14S 4517   2.108   4.970   5.464 -0.3821  1.2343 -0.7805
    1OL    C115 4518   2.103   5.176   5.481 -0.0931 -0.8316 -0.0147
    1OL    H15R 4519   2.202   5.206   5.447 -0.6253  1.4711  0.3098
    1OL    H15S 4520   2.082   5.257   5.551  0.1008 -0.7317 -0.0703
    1OL    C116 4521   2.002   5.199   5.364  0.0262 -0.1392 -0.0908
    1OL    H16R 4522   2.011   5.302   5.328  1.2426  0.0864  0.7999
    1OL    H16S 4523   1.909   5.181   5.418  0.4618 -0.9131  0.4252
    1OL    C117 4524   2.007   5.097   5.251 -0.6311  0.1799  0.1295
    1OL    H17R 4525   2.011   4.995   5.289 -1.9466  0.3756  0.8512
    1OL    H17S 4526   2.101   5.113   5.197 -0.7812 -0.5949 -0.3871
    1OL    C118 4527   1.886   5.122   5.156  0.2254  0.4569  0.0213
    1OL    H18R 4528   1.790   5.118   5.208 -0.7714 -3.7065 -1.7176
    1OL    H18S 4529   1.884   5.038   5.086  0.8970  0.7246 -0.3278
    1OL    H18T 4530   1.899   5.213   5.098  1.9646 -0.6762 -1.4992
    1PA    C116 4531   0.030   4.588   4.966 -0.4955  0.0348  0.1820
    1PA    H16R 4532   0.135   4.619   4.967 -0.4121 -0.1446 -1.1086
    1PA    H16S 4533  -0.043   4.658   4.927 -0.2242  1.4242  2.0112
    1PA    H16T 4534   0.019   4.493   4.913  1.7077  0.4072 -1.0757
    1PA    C115 4535  -0.035   4.552   5.106 -0.2034  0.3482 -0.0768
    1PA    H15R 4536  -0.057   4.646   5.155  0.8462  1.1020 -0.9971
    1PA    H15S 4537  -0.124   4.491   5.086  1.3280 -2.5231  1.2810
    1PA    C114 4538   0.051   4.466   5.196  0.4364  0.2304  0.6124
    1PA    H14R 4539   0.155   4.500   5.191  0.2033  0.9910  0.7592
    1PA    H14S 4540   0.013   4.471   5.298 -2.3792 -0.3031 -0.3379
    1PA    C113 4541   0.044   4.320   5.161  0.2862  0.3669 -0.0142
    1PA    H13R 4542  -0.056   4.294   5.128  0.5173  2.3447 -2.5725
    1PA    H13S 4543   0.110   4.296   5.077  0.4467  0.5579  0.0563
    1PA    C112 4544   0.070   4.233   5.286  0.1748  0.2860  0.1661
    1PA    H12R 4545   0.163   4.270   5.329  1.8580 -1.3704 -1.8200
    1PA    H12S 4546  -0.010   4.256   5.357  0.4283 -0.8129  0.8418
    1PA    C111 4547   0.077   4.082   5.251 -0.2404 -0.8708  0.2972
    1PA    H11R 4548  -0.019   4.029   5.251 -1.2188  0.7361 -2.3621
    1PA    H11S 4549   0.128   4.086   5.155  0.0578 -0.5105  0.4722
    1PA    C110 4550   0.181   4.019   5.347  0.2072 -0.1200 -0.6095
    1PA    H10R 4551   0.192   3.914   5.322 -2.8907 -0.2200 -1.9990
    1PA    H10S 4552   0.277   4.069   5.332 -0.4624  0.9722 -1.4457
    1PA     C19 4553   0.143   4.029   5.496  0.0079 -0.5099  0.1469
    1PA     H9R 4554   0.135   4.132   5.532 -1.0860 -0.9850  1.3916
    1PA     H9S 4555   0.047   3.977   5.500 -1.3291  1.7850 -0.3060
    1PA     C18 4556   0.251   3.969   5.587 -0.2059  0.0657  0.0921
    1PA     H8R 4557   0.256   3.863   5.560 -1.9060 -0.9763  3.4162
    1PA     H8S 4558   0.349   4.016   5.572 -0.4202  0.8066  0.9219
    1PA     C17 4559   0.217   3.971   5.737  0.1955 -0.4760  0.2199
    1PA     H7R 4560   0.227   4.072   5.777 -0.4242 -0.4914  0.4280
    1PA     H7S 4561   0.112   3.942   5.748 -0.0117 -1.4602 -3.2006
    1PA     C16 4562   0.310   3.879   5.816 -0.3306  0.1571 -0.2146
    1PA     H6R 4563   0.296   3.778   5.776  0.1587 -0.4071  1.0019
    1PA     H6S 4564   0.414   3.902   5.790  0.3075 -0.2827  1.7596
    1PA     C15 4565   0.294   3.880   5.971 -0.2501 -0.6614  0.4844
    1PA     H5R 4566   0.192   3.847   5.993 -0.3150 -0.0908  1.0848
    1PA     H5S 4567   0.366   3.809   6.013  1.7525  0.1434 -1.3888
    1PA     C14 4568   0.311   4.015   6.038 -0.8631 -0.4536  1.0897
    1PA     H4R 4569   0.405   4.062   6.010 -0.1074 -1.6489  1.5621
    1PA     H4S 4570   0.223   4.074   6.010 -0.3434 -0.2581 -0.1706
    1PA     C13 4571   0.307   3.996   6.192  0.8170  0.5199 -0.1444
    1PA     H3R 4572   0.216   3.940   6.211 -1.1790  2.6691 -2.5229
    1PA     H3S 4573   0.391   3.933   6.221  0.5225  1.0718  2.0564
    1PA     C12 4574   0.307   4.134   6.278  0.7152  0.1722 -0.2492
    1PA     H2R 4575   0.397   4.188   6.247  0.6814  0.9732  0.9874
    1PA     H2S 4576   0.216   4.189   6.257  0.2101 -0.9647 -1.1333
    1PC     C11 4577   0.314   4.091   6.423 -0.2223 -0.8597  0.3112
    1PC     O12 4578   0.329   3.980   6.468  0.5350  0.8879 -0.4802
    1PC     O11 4579   0.295   4.196   6.498  0.1440 -0.0198 -0.5179
    1PC      C1 4580   0.305   4.180   6.643  0.2252  0.8070 -0.0452
    1PC      HR 4581   0.355   4.087   6.672  0.7363  1.1698  0.2878
    1PC      HS 4582   0.365   4.265   6.678  1.0566  1.6205 -3.1304
    1PC      C2 4583   0.167   4.188   6.712  0.7136  0.7667 -0.3490
    1PC      HX 4584   0.117   4.286   6.707 -1.6411 -0.3575 -0.0986
    1PC      C3 4585   0.194   4.181   6.865  0.4548  1.2097 -0.0903
    1PC      HA 4586   0.257   4.264   6.899  1.8188  1.0203 -1.9758
    1PC      HB 4587   0.100   4.182   6.920  1.0734  0.0839  1.0587
    1PC     O31 4588   0.264   4.060   6.894 -0.0165 -0.2401 -0.4768
    1PC     P31 4589   0.220   3.958   7.013  0.1454 -0.3786  0.0972
    1PC     O32 4590   0.078   3.899   6.966 -0.2485  0.2486  0.0553
    1PC     C31 4591   0.093   3.795   6.864  1.0703 -0.0164  0.0073
    1PC     H1A 4592   0.118   3.852   6.774  1.1407 -0.5290 -0.2962
    1PC     H1B 4593   0.168   3.724   6.898  2.1484  0.1766 -1.8425
    1PC     C32 4594  -0.042   3.726   6.845  0.1049  0.4011  0.6185
    1PC     H2A 4595  -0.124   3.790   6.812 -1.7152 -2.4058 -0.7351
    1PC     H2B 4596  -0.029   3.650   6.768  2.5961 -0.7315  2.0367
    1PC     N31 4597  -0.092   3.639   6.962 -0.0972 -0.7160 -0.8825
    1PC     C33 4598  -0.217   3.567   6.924  0.3042  0.1614  0.3226
    1PC     H3A 4599  -0.186   3.491   6.853 -0.0710  0.0177  0.3118
    1PC     H3B 4600  -0.253   3.516   7.013  1.8339  0.2276  1.0130
    1PC     H3C 4601  -0.293   3.629   6.877  0.3512 -0.7989 -1.0815
    1PC     C34 4602   0.001   3.540   7.012  0.2090 -0.2139  0.5883
    1PC     H4A 4603   0.008   3.454   6.945  0.0431 -1.5565  2.2431
    1PC     H4B 4604   0.099   3.582   7.034  0.8506 -1.5273  0.3753
    1PC     H4C 4605  -0.045   3.501   7.103 -1.0055  0.0136  0.0886
    1PC     C35 4606  -0.129   3.727   7.071 -0.4398 -0.0317 -0.0484
    1PC     H5A 4607  -0.227   3.772   7.052 -0.3635 -0.4690 -1.6100
    1PC     H5B 4608  -0.056   3.803   7.099 -0.2191  0.6728 -2.3556
    1PC     H5C 4609  -0.137   3.663   7.159  0.3668 -0.6788 -0.4336
    1PC     O33 4610   0.323   3.855   7.018  0.5639 -0.3762 -0.7141
    1PC     O34 4611   0.202   4.038   7.133 -0.5747 -0.6749 -0.1246
    1PC     O21 4612   0.081   4.082   6.664  0.3188 -0.2409 -0.2532
    1PC     C21 4613  -0.027   4.112   6.591 -1.0173  0.3605  0.2482
    1PC     O22 4614  -0.069   4.229   6.572 -0.1581 -0.5235 -0.2486
    1OL     C12 4615  -0.082   3.990   6.530  0.7947 -0.3494  0.3973
    1OL     H2R 4616  -0.189   3.987   6.552  0.4685 -0.8677 -1.1502
    1OL     H2S 4617  -0.032   3.912   6.588 -0.3851 -0.1417  1.7597
    1OL     C13 4618  -0.057   3.971   6.379  0.0866  0.8826  0.6516
    1OL     H3R 4619  -0.100   3.874   6.352  2.0350 -0.3885  1.9125
    1OL     H3S 4620   0.052   3.968   6.374  0.0847  0.8189  0.6398
    1OL     C14 4621  -0.113   4.075   6.281  0.7746 -0.7335  0.2143
    1OL     H4R 4622  -0.062   4.170   6.294 -0.9554  0.4691 -1.2681
    1OL     H4S 4623  -0.217   4.101   6.302  1.1324 -1.0399  2.6899
    1OL     C15 4624  -0.096   4.037   6.137 -0.2229  0.3616  0.1951
    1OL     H5R 4625  -0.170   3.956   6.132  0.5854 -0.3994  0.1913
    1OL     H5S 4626   0.002   3.993   6.115 -0.2299  0.1145  0.6389
    1OL     C16 4627  -0.143   4.142   6.042 -0.2370 -0.2253 -0.1585
    1OL     H6R 4628  -0.083   4.232   6.053  0.4493 -0.6396 -0.4331
    1OL     H6S 4629  -0.247   4.176   6.045 -0.1096  0.3418 -1.4093
    1OL     C17 4630  -0.128   4.084   5.897  0.1141  0.0603 -0.0914
    1OL     H7R 4631  -0.205   4.013   5.866  1.6071 -0.7999 -2.0276
    1OL     H7S 4632  -0.028   4.042   5.886 -0.2178 -0.7806  0.0239
    1OL     C18 4633  -0.141   4.194   5.791 -0.2530  0.5438  0.8725
    1OL     H8R 4634  -0.080   4.157   5.708 -1.4050 -0.9858  0.6557
    1OL     H8S 4635  -0.084   4.278   5.831  1.6235  0.1451 -0.7987
    1OL     C19 4636  -0.280   4.233   5.758  0.1237 -0.9066 -0.5032
    1OL     H9R 4637  -0.347   4.228   5.843 -1.5579  2.2212 -1.4830
    1OL    C110 4638  -0.334   4.259   5.643 -0.5110 -0.6917 -0.0782
    1OL    H10R 4639  -0.442   4.267   5.631 -0.2500 -0.3370 -2.9002
    1OL    C111 4640  -0.255   4.277   5.517 -0.0892 -0.1131  0.6489
    1OL    H11R 4641  -0.277   4.182   5.467  2.7896  0.5428 -2.2505
    1OL    H11S 4642  -0.147   4.284   5.531 -0.0015 -0.9871  0.5007
    1OL    C112 4643  -0.301   4.392   5.426  0.3182 -0.6974 -0.5227
    1OL    H12R 4644  -0.212   4.405   5.363  0.8905  0.8848  0.5580
    1OL    H12S 4645  -0.309   4.483   5.485 -1.5018  0.1546 -1.9553
    1OL    C113 4646  -0.434   4.364   5.352 -0.2562  0.1561  0.5247
    1OL    H13R 4647  -0.473   4.462   5.322 -0.6348 -0.8607 -2.5977
    1OL    H13S 4648  -0.507   4.306   5.408  0.3347 -1.8186 -0.6371
    1OL    C114 4649  -0.407   4.268   5.232  0.2215 -0.7094 -0.6106
    1OL    H14R 4650  -0.367   4.173   5.268 -1.4651 -1.2484 -0.0156
    1OL    H14S 4651  -0.339   4.321   5.165  0.1856  1.0141  0.6771
    1OL    C115 4652  -0.551   4.241   5.180 -0.3714 -0.7400 -0.4891
    1OL    H15R 4653  -0.594   4.340   5.162  0.3103 -0.5720 -1.2510
    1OL    H15S 4654  -0.610   4.190   5.256  1.0697 -0.5151  0.8212
    1OL    C116 4655  -0.557   4.164   5.054  0.5315  0.5743  0.0207
    1OL    H16R 4656  -0.526   4.062   5.078  2.3789  1.0659 -0.1483
    1OL    H16S 4657  -0.483   4.202   4.984  0.7426 -0.3393 -0.2672
    1OL    C117 4658  -0.698   4.157   4.988 -0.4217  0.1504  0.8878
    1OL    H17R 4659  -0.731   4.252   4.946 -1.0080 -0.9277 -1.2238
    1OL    H17S 4660  -0.777   4.128   5.059 -0.2413 -1.7871  0.3710
    1OL    C118 4661  -0.694   4.047   4.868  0.5646  0.0056 -0.6903
    1OL    H18R 4662  -0.673   4.092   4.771 -0.2340 -0.8491 -1.2826
    1OL    H18S 4663  -0.796   4.007   4.866  1.6055 -2.9533  0.1897
    1OL    H18T 4664  -0.630   3.959   4.878 -0.4555 -0.6193  0.6240
    1PA    C116 4665   1.522   1.882   5.051 -0.4813 -0.2299 -0.3851
    1PA    H16R 4666   1.413   1.875   5.058 -0.8154  3.2546 -0.7425
    1PA    H16S 4667   1.561   1.928   4.960  1.1476 -1.1125 -0.1777
    1PA    H16T 4668   1.557   1.924   5.145 -2.1409 -1.4101  0.8166
    1PA    C115 4669   1.573   1.742   5.031  0.5908 -0.4221  0.3003
    1PA    H15R 4670   1.522   1.688   4.951 -1.7589  0.6932  0.9870
    1PA    H15S 4671   1.680   1.747   5.007  0.1386 -2.3849 -2.6220
    1PA    C114 4672   1.567   1.659   5.159 -0.0840  0.4231 -0.3406
    1PA    H14R 4673   1.647   1.584   5.158 -1.1807 -0.7873 -1.1213
    1PA    H14S 4674   1.597   1.724   5.241  1.3274  1.1917 -1.4142
    1PA    C113 4675   1.435   1.601   5.191 -0.5546  0.1783  0.1705
    1PA    H13R 4676   1.358   1.678   5.191  0.2405  0.9893  0.7634
    1PA    H13S 4677   1.414   1.530   5.110  0.0115  0.5680 -0.3246
    1PA    C112 4678   1.441   1.539   5.330  0.8251  0.1191  0.1114
    1PA    H12R 4679   1.506   1.452   5.342 -0.4081 -0.5902  1.9963
    1PA    H12S 4680   1.467   1.615   5.404 -1.1469  1.4445 -0.4586
    1PA    C111 4681   1.306   1.490   5.380 -0.2035 -0.3578 -0.1718
    1PA    H11R 4682   1.234   1.572   5.374  1.1127  0.8986  0.6622
    1PA    H11S 4683   1.272   1.411   5.313 -0.8773  0.3173 -0.6492
    1PA    C110 4684   1.322   1.434   5.517  0.4029  0.5531  0.1497
    1PA    H10R 4685   1.360   1.332   5.510  1.2201  0.7783  1.0826
    1PA    H10S 4686   1.409   1.480   5.565  1.2289  0.0303 -0.8087
    1PA     C19 4687   1.198   1.448   5.607 -0.6080  1.0155 -0.0099
    1PA     H9R 4688   1.201   1.550   5.646  0.4829  0.9404  0.1342
    1PA     H9S 4689   1.105   1.431   5.553 -1.5123 -0.0277  1.7888
    1PA     C18 4690   1.191   1.360   5.731 -0.0085 -0.4506  0.3290
    1PA     H8R 4691   1.103   1.399   5.784 -1.4500 -0.7108 -1.7595
    1PA     H8S 4692   1.169   1.261   5.691  0.2771 -0.6982  0.7786
    1PA     C17 4693   1.307   1.368   5.835 -0.2626 -0.1081  0.2750
    1PA     H7R 4694   1.404   1.354   5.787 -0.2976  0.4602  0.0255
    1PA     H7S 4695   1.301   1.469   5.875  0.6660 -0.1022  0.4052
    1PA     C16 4696   1.279   1.256   5.942  0.2094  0.2546  0.4778
    1PA     H6R 4697   1.258   1.155   5.907 -2.5206  1.2234 -0.9513
    1PA     H6S 4698   1.371   1.253   6.001  0.0794 -0.0333  0.6668
    1PA     C15 4699   1.158   1.292   6.031  0.5570 -0.0264  0.0722
    1PA     H5R 4700   1.160   1.400   6.048 -0.9634 -0.1393  1.1688
    1PA     H5S 4701   1.059   1.274   5.988  0.0427  2.0747  0.2863
    1PA     C14 4702   1.162   1.216   6.168  0.6882 -0.0723  0.7106
    1PA     H4R 4703   1.144   1.109   6.155  2.7433 -0.9123  3.7969
    1PA     H4S 4704   1.266   1.228   6.198  0.8397  1.1334 -0.1738
    1PA     C13 4705   1.068   1.269   6.276 -0.6230  0.3923 -0.2717
    1PA     H3R 4706   1.087   1.375   6.292  2.8736  0.0885 -1.5718
    1PA     H3S 4707   0.968   1.248   6.239  0.1960 -0.4874 -2.0993
    1PA     C12 4708   1.099   1.190   6.408  0.6615  0.9514  0.0358
    1PA     H2R 4709   1.079   1.085   6.384 -0.4973  1.0482  0.5220
    1PA     H2S 4710   1.205   1.190   6.434  0.1015  0.4611  2.5502
    1PC     C11 4711   1.019   1.225   6.527  0.6226  0.0606 -0.0574
    1PC     O12 4712   1.056   1.275   6.631  0.0119 -0.1686  0.4909
    1PC     O11 4713   0.899   1.172   6.517 -0.0665 -0.0369  0.6058
    1PC      C1 4714   0.794   1.195   6.619 -0.5245 -0.0494  0.2498
    1PC      HR 4715   0.726   1.110   6.614 -0.6859  0.0245  1.1066
    1PC      HS 4716   0.842   1.185   6.716 -0.9721 -1.8226  0.3056
    1PC      C2 4717   0.715   1.331   6.609 -0.2073 -0.1257  0.4012
    1PC      HX 4718   0.778   1.417   6.634  1.6579 -1.1053 -0.7159
    1PC      C3 4719   0.584   1.331   6.685  0.2465 -0.0298  0.2939
    1PC      HA 4720   0.500   1.309   6.618 -1.4271  0.0958  2.2337
    1PC      HB 4721   0.580   1.255   6.764 -0.4096  0.6007  0.8879
    1PC     O31 4722   0.556   1.460   6.750  0.7917 -0.5135  0.4736
    1PC     P31 4723   0.624   1.506   6.885  0.4371 -0.3433  0.5097
    1PC     O32 4724   0.525   1.445   6.991 -0.5086  0.0939 -0.4383
    1PC     C31 4725   0.392   1.488   7.000  1.0044  0.6421 -0.1427
    1PC     H1A 4726   0.394   1.597   7.012  0.0054  1.2516 -4.2321
    1PC     H1B 4727   0.331   1.466   6.913 -0.2445  3.1967 -0.0103
    1PC     C32 4728   0.317   1.414   7.107  0.0212  0.1316  0.4827
    1PC     H2A 4729   0.362   1.429   7.206 -1.1251 -1.3807  1.2732
    1PC     H2B 4730   0.217   1.457   7.109 -0.0710 -0.0858  0.6053
    1PC     N31 4731   0.304   1.262   7.085 -0.0152 -0.0980 -0.1598
    1PC     C33 4732   0.432   1.186   7.082  0.6494  0.3730 -0.0608
    1PC     H3A 4733   0.500   1.235   7.011  0.4887  0.7182  0.0228
    1PC     H3B 4734   0.469   1.180   7.185 -0.0771 -0.5232  0.1598
    1PC     H3C 4735   0.406   1.090   7.037 -0.8928  0.9775 -0.4850
    1PC     C34 4736   0.227   1.210   7.202  0.2184 -0.2505  0.2287
    1PC     H4A 4737   0.145   1.280   7.218 -0.2878 -0.7386 -0.1740
    1PC     H4B 4738   0.191   1.109   7.184 -0.3915  0.1600 -1.0249
    1PC     H4C 4739   0.278   1.208   7.298 -1.4134 -0.8215  1.1117
    1PC     C35 4740   0.222   1.241   6.962 -0.5267 -0.1954  0.3472
    1PC     H5A 4741   0.227   1.135   6.938 -2.8442 -0.6866  1.8024
    1PC     H5B 4742   0.257   1.293   6.872  1.3642 -5.2531 -2.2549
    1PC     H5C 4743   0.116   1.262   6.974 -0.5693 -0.6382  0.7636
    1PC     O33 4744   0.754   1.437   6.889 -0.2574  0.2187  0.9616
    1PC     O34 4745   0.628   1.653   6.906  0.2995 -0.2231  0.1551
    1PC     O21 4746   0.680   1.339   6.470  0.1701 -0.9962  0.1116
    1PC     C21 4747   0.758   1.406   6.380 -0.8637 -0.1437 -0.0310
    1PC     O22 4748   0.859   1.462   6.420 -0.2922 -0.7375 -0.8002
    1OL     C12 4749   0.698   1.408   6.239 -0.6564 -0.1989  0.4386
    1OL     H2R 4750   0.594   1.436   6.255 -0.6744 -0.2174  0.3542
    1OL     H2S 4751   0.698   1.308   6.196 -2.6140 -1.2118  2.5751
    1OL     C13 4752   0.778   1.513   6.159  0.3272  0.2122  0.2997
    1OL     H3R 4753   0.886   1.498   6.160  0.2553 -0.7305 -1.4581
    1OL     H3S 4754   0.770   1.613   6.201 -0.2506  1.8129 -3.2736
    1OL     C14 4755   0.731   1.519   6.012 -0.2314 -0.0151  0.4587
    1OL     H4R 4756   0.763   1.617   5.977  1.1866 -0.1824  1.1975
    1OL     H4S 4757   0.622   1.512   6.005 -0.0901 -1.2641 -1.1091
    1OL     C15 4758   0.801   1.403   5.933  0.1760 -0.6054 -0.2732
    1OL     H5R 4759   0.759   1.307   5.965 -1.8355 -0.0080 -0.9387
    1OL     H5S 4760   0.904   1.405   5.967 -0.1893 -0.7273  0.9144
    1OL     C16 4761   0.794   1.410   5.781 -0.8873 -0.1093 -0.3994
    1OL     H6R 4762   0.696   1.384   5.741 -0.6252 -0.0051 -1.1275
    1OL     H6S 4763   0.864   1.335   5.745  2.4613  0.9751  3.1225
    1OL     C17 4764   0.835   1.546   5.711  0.7552  0.3329  0.7597
    1OL     H7R 4765   0.933   1.571   5.752  0.9131  1.5776 -0.3050
    1OL     H7S 4766   0.769   1.627   5.742  0.6113  0.4697  0.1121
    1OL     C18 4767   0.842   1.540   5.550 -0.0035 -0.2816  0.0989
    1OL     H8R 4768   0.896   1.447   5.531 -0.4803 -0.5441 -0.0031
    1OL     H8S 4769   0.884   1.634   5.513 -0.0506 -0.2974  0.0053
    1OL     C19 4770   0.709   1.536   5.492 -0.1934  0.7998 -0.6585
    1OL     H9R 4771   0.640   1.602   5.545 -0.1292  1.7738 -1.7454
    1OL    C110 4772   0.669   1.462   5.386  0.0329 -0.2479 -0.0148
    1OL    H10R 4773   0.563   1.466   5.361 -0.0012  1.3493  0.2701
    1OL    C111 4774   0.754   1.379   5.301  0.0884  0.3072 -0.5458
    1OL    H11R 4775   0.680   1.322   5.244 -0.9333  2.9312 -2.0314
    1OL    H11S 4776   0.818   1.315   5.362  1.1721  1.8446 -0.0331
    1OL    C112 4777   0.830   1.470   5.200  0.0498 -0.0782  0.0062
    1OL    H12R 4778   0.880   1.554   5.248  0.0089  0.4204 -0.8037
    1OL    H12S 4779   0.753   1.514   5.136  0.9257  1.9958  0.3091
    1OL    C113 4780   0.929   1.406   5.108 -0.0596  0.3611 -0.5039
    1OL    H13R 4781   0.966   1.496   5.058  1.1699  0.2355  0.1316
    1OL    H13S 4782   0.877   1.345   5.035  0.5932 -0.7427 -0.0646
    1OL    C114 4783   1.034   1.320   5.182 -0.0201 -0.5776 -0.6006
    1OL    H14R 4784   0.984   1.244   5.242  0.0432  1.6216  2.4384
    1OL    H14S 4785   1.073   1.385   5.260 -1.7620  1.6682 -1.5119
    1OL    C115 4786   1.142   1.251   5.099  0.0037 -0.3787  0.3163
    1OL    H15R 4787   1.213   1.209   5.171 -0.2123  0.9518  1.3336
    1OL    H15S 4788   1.203   1.324   5.045 -0.8784 -0.8605 -1.3893
    1OL    C116 4789   1.104   1.140   4.998 -0.1652 -0.2641 -0.4063
    1OL    H16R 4790   1.200   1.103   4.961  0.8375  0.2627  1.5504
    1OL    H16S 4791   1.053   1.185   4.912  0.1461  0.3411 -0.2813
    1OL    C117 4792   1.017   1.033   5.065  0.0122  0.2034 -0.0639
    1OL    H17R 4793   0.948   1.089   5.129 -0.1059  1.6466 -1.3871
    1OL    H17S 4794   1.086   0.986   5.135 -1.0354 -0.6402  0.4512
    1OL    C118 4795   0.947   0.923   4.978  0.1809  0.0257  0.3862
    1OL    H18R 4796   1.020   0.873   4.915 -0.6852 -0.4146 -0.2924
    1OL    H18S 4797   0.873   0.968   4.912  2.4379  0.3388 -2.0894
    1OL    H18T 4798   0.902   0.845   5.041 -2.1146  0.6199 -0.4114
    1PA    C116 4799   1.428   2.293   4.957  0.4759  0.4682  0.3161
    1PA    H16R 4800   1.526   2.341   4.965  0.7938 -0.3088  1.4115
    1PA    H16S 4801   1.384   2.298   4.857 -2.3404  1.0657  1.4891
    1PA    H16T 4802   1.434   2.185   4.972 -1.9542  0.2441 -0.0277
    1PA    C115 4803   1.332   2.347   5.062  0.0358  0.2215 -0.8661
    1PA    H15R 4804   1.336   2.455   5.080 -0.8439 -0.0246  1.0729
    1PA    H15S 4805   1.230   2.320   5.032 -1.2174  0.2829  2.8572
    1PA    C114 4806   1.364   2.273   5.193  0.5518  0.0947  0.6278
    1PA    H14R 4807   1.348   2.166   5.177 -2.0929  0.4777  0.1246
    1PA    H14S 4808   1.460   2.305   5.232  0.2013  2.7652 -0.4953
    1PA    C113 4809   1.258   2.318   5.295  0.4664 -0.6193 -0.1320
    1PA    H13R 4810   1.269   2.258   5.385 -1.2907 -2.3908 -1.0206
    1PA    H13S 4811   1.270   2.423   5.321 -1.4746 -0.1892 -0.8181
    1PA    C112 4812   1.113   2.294   5.256 -0.3374  0.4527  0.3991
    1PA    H12R 4813   1.091   2.343   5.162 -0.3850 -0.5863 -0.1438
    1PA    H12S 4814   1.081   2.190   5.250  1.2976 -0.0551 -0.1119
    1PA    C111 4815   1.024   2.331   5.373  0.4157  0.3142 -0.1213
    1PA    H11R 4816   1.052   2.258   5.450 -1.7945 -0.4308  0.0615
    1PA    H11S 4817   1.043   2.434   5.404 -0.2438  0.3650  0.1335
    1PA    C110 4818   0.878   2.298   5.352 -0.0460  0.2594 -0.1797
    1PA    H10R 4819   0.844   2.338   5.257  1.0094 -0.4346 -0.8691
    1PA    H10S 4820   0.869   2.190   5.344 -0.0868  0.2612 -0.1530
    1PA     C19 4821   0.801   2.344   5.482 -0.2560  0.7447  0.0341
    1PA     H9R 4822   0.812   2.452   5.497  0.4353  0.5372  1.1385
    1PA     H9S 4823   0.696   2.317   5.471 -0.3837  1.5052 -0.6799
    1PA     C18 4824   0.843   2.283   5.614  0.2226  1.2221  0.7651
    1PA     H8R 4825   0.861   2.178   5.593 -0.9398  1.1296  0.1607
    1PA     H8S 4826   0.930   2.337   5.652 -1.0417  2.8442  1.5025
    1PA     C17 4827   0.730   2.303   5.718 -0.2886 -0.0994 -0.1288
    1PA     H7R 4828   0.719   2.411   5.730  0.5682 -0.0889  0.6423
    1PA     H7S 4829   0.632   2.267   5.687  0.2027 -0.8364 -0.8800
    1PA     C16 4830   0.771   2.244   5.849 -0.3167  0.5637  0.1024
    1PA     H6R 4831   0.790   2.137   5.840  1.4095  0.8505  0.0871
    1PA     H6S 4832   0.867   2.287   5.879 -0.6548 -0.3340  2.7940
    1PA     C15 4833   0.669   2.274   5.963 -0.1606  0.5913  0.1925
    1PA     H5R 4834   0.651   2.381   5.977 -0.8733  0.3755  1.0571
    1PA     H5S 4835   0.580   2.219   5.931  1.2410 -2.2200  0.8393
    1PA     C14 4836   0.696   2.211   6.098 -0.6363 -0.3378 -0.4131
    1PA     H4R 4837   0.684   2.103   6.095  1.1281 -0.5510 -0.8766
    1PA     H4S 4838   0.797   2.227   6.136 -1.5345  1.6642  1.3397
    1PA     C13 4839   0.609   2.243   6.221  0.7560  0.5618 -0.5476
    1PA     H3R 4840   0.648   2.173   6.296  0.1162 -1.4772 -2.0063
    1PA     H3S 4841   0.619   2.346   6.255 -0.3197 -0.0924  2.0811
    1PA     C12 4842   0.454   2.222   6.210 -0.2168  0.8248  0.0915
    1PA     H2R 4843   0.406   2.254   6.117  0.0938 -0.1754 -0.4243
    1PA     H2S 4844   0.435   2.116   6.195  1.5572  0.6459 -1.1249
    1PC     C11 4845   0.374   2.274   6.319 -0.1965  0.0188 -0.6830
    1PC     O12 4846   0.390   2.384   6.367 -0.6261  0.2074 -0.6758
    1PC     O11 4847   0.289   2.185   6.357 -0.0071  0.6264  0.2520
    1PC      C1 4848   0.229   2.192   6.486  0.0232 -0.1292 -0.8997
    1PC      HR 4849   0.208   2.297   6.510  1.4132 -0.0552  0.1139
    1PC      HS 4850   0.141   2.130   6.477 -0.4385  0.2554  0.6455
    1PC      C2 4851   0.320   2.114   6.583  0.3423  0.5452 -0.9468
    1PC      HX 4852   0.321   2.011   6.544 -1.6674 -1.1732  2.9734
    1PC      C3 4853   0.268   2.111   6.731  0.0905 -0.4878  0.2298
    1PC      HA 4854   0.172   2.059   6.733  0.8566 -1.9356  0.6454
    1PC      HB 4855   0.327   2.051   6.800  0.6528 -0.5222 -0.2758
    1PC     O31 4856   0.237   2.241   6.781  0.2068  0.0853 -0.5176
    1PC     P31 4857   0.295   2.296   6.919 -0.0532 -0.1045  0.1321
    1PC     O32 4858   0.452   2.309   6.896  0.3408 -0.2526  0.1158
    1PC     C31 4859   0.497   2.417   6.815  0.2339  0.0729  0.2838
    1PC     H1A 4860   0.490   2.384   6.711 -0.7587 -0.4748  0.5068
    1PC     H1B 4861   0.433   2.504   6.833  1.2018  0.5546  1.5427
    1PC     C32 4862   0.645   2.448   6.847 -0.0759 -1.0588  0.7530
    1PC     H2A 4863   0.701   2.355   6.832 -0.2245 -0.9354 -0.7173
    1PC     H2B 4864   0.672   2.532   6.783 -2.9306 -0.4395  0.2394
    1PC     N31 4865   0.684   2.500   6.979 -0.2631  0.3757  0.3026
    1PC     C33 4866   0.679   2.387   7.077  0.2225  0.2407  0.4512
    1PC     H3A 4867   0.708   2.426   7.174 -2.8444  0.3909  1.3960
    1PC     H3B 4868   0.573   2.362   7.075 -0.1890  1.8629  0.9527
    1PC     H3C 4869   0.743   2.306   7.039  1.1638  1.0485  0.2726
    1PC     C34 4870   0.824   2.544   6.986 -0.7349  0.5756  0.2284
    1PC     H4A 4871   0.839   2.650   6.966 -0.0116  0.5714  0.6911
    1PC     H4B 4872   0.860   2.525   7.088  1.5680  0.0317 -0.6278
    1PC     H4C 4873   0.882   2.482   6.918 -0.1609  0.9305  0.3889
    1PC     C35 4874   0.598   2.618   7.032 -0.0342  0.2433 -0.7316
    1PC     H5A 4875   0.496   2.582   7.038  0.4183 -0.8730  0.8059
    1PC     H5B 4876   0.597   2.704   6.964 -1.1688  0.9561  0.1587
    1PC     H5C 4877   0.632   2.636   7.134  1.0112  0.0273 -1.0206
    1PC     O33 4878   0.234   2.428   6.952  0.0579  0.6979 -0.4213
    1PC     O34 4879   0.289   2.185   7.023  0.1225  0.0931 -0.1604
    1PC     O21 4880   0.448   2.166   6.579 -0.5565 -0.7508 -0.3166
    1PC     C21 4881   0.555   2.091   6.601  0.8495  0.3698  0.0342
    1PC     O22 4882   0.540   1.971   6.602 -0.1821 -0.5548 -0.1676
    1OL     C12 4883   0.686   2.157   6.589 -0.5202 -0.2334  0.2705
    1OL     H2R 4884   0.723   2.191   6.686  0.3945  0.0405 -0.1586
    1OL     H2S 4885   0.672   2.237   6.516  1.5784 -1.1446 -1.2328
    1OL     C13 4886   0.798   2.060   6.539  0.6634  0.6477 -0.1256
    1OL     H3R 4887   0.754   2.002   6.457 -0.5310  1.3991 -0.0445
    1OL     H3S 4888   0.834   1.993   6.617 -1.8496  1.4347  1.8376
    1OL     C14 4889   0.918   2.130   6.479  0.7263 -1.0893  0.5572
    1OL     H4R 4890   0.987   2.163   6.558 -0.6302  0.9429  0.9675
    1OL     H4S 4891   0.885   2.221   6.429 -0.0937 -1.5296  0.2944
    1OL     C15 4892   0.991   2.027   6.386 -0.1082 -0.7271  0.3747
    1OL     H5R 4893   0.990   1.924   6.425 -0.8912 -0.5863  0.7502
    1OL     H5S 4894   1.096   2.051   6.368 -0.4939  0.0303 -0.9990
    1OL     C16 4895   0.930   2.017   6.244  0.1827 -0.7898 -0.3202
    1OL     H6R 4896   0.940   2.114   6.193 -1.1544  0.1969  1.2049
    1OL     H6S 4897   0.823   2.004   6.263  0.5926 -1.6887  1.5345
    1OL     C17 4898   0.990   1.911   6.152  0.2339  0.2963  0.7185
    1OL     H7R 4899   0.969   1.824   6.216 -2.6888  2.1789  2.6224
    1OL     H7S 4900   1.099   1.909   6.154  0.2656 -0.2818 -0.6276
    1OL     C18 4901   0.932   1.904   6.013 -0.5454 -0.1436  0.0700
    1OL     H8R 4902   0.945   2.002   5.966 -0.4553 -0.2313 -0.0860
    1OL     H8S 4903   0.824   1.896   6.029 -0.6516  0.5529 -0.2419
    1OL     C19 4904   0.990   1.799   5.924 -0.2755  0.3129  0.0558
    1OL     H9R 4905   0.980   1.700   5.968  0.0457 -0.2450 -1.0876
    1OL    C110 4906   1.051   1.817   5.803  0.4930  0.0681  0.6807
    1OL    H10R 4907   1.090   1.733   5.746  0.0335  0.7694 -0.7130
    1OL    C111 4908   1.061   1.943   5.721 -0.3062  0.0139  0.1626
    1OL    H11R 4909   1.052   2.031   5.785  1.8046  0.7300 -0.4516
    1OL    H11S 4910   0.977   1.944   5.651 -1.0108 -0.1470  0.9824
    1OL    C112 4911   1.196   1.950   5.649 -0.1330  0.4332 -0.2512
    1OL    H12R 4912   1.274   1.917   5.718  0.3568  0.0560 -0.9703
    1OL    H12S 4913   1.224   2.053   5.629  0.0392  0.7103  1.3279
    1OL    C113 4914   1.193   1.865   5.523  0.6892 -0.1893  0.0261
    1OL    H13R 4915   1.155   1.768   5.554  0.3779  0.0994  0.5556
    1OL    H13S 4916   1.296   1.853   5.488  1.4419  1.4259  1.5734
    1OL    C114 4917   1.108   1.918   5.404 -0.8461 -0.0674 -0.5386
    1OL    H14R 4918   1.145   2.018   5.382  2.2021 -0.8101  0.5652
    1OL    H14S 4919   1.004   1.927   5.435 -0.5495 -1.6248  1.1032
    1OL    C115 4920   1.109   1.825   5.284 -0.0961 -0.2522  0.7883
    1OL    H15R 4921   1.070   1.727   5.313  1.2109 -0.8612  0.5590
    1OL    H15S 4922   1.211   1.819   5.247 -0.0101  1.1868  0.7600
    1OL    C116 4923   1.037   1.891   5.167 -0.0188  0.2314 -0.4514
    1OL    H16R 4924   1.089   1.978   5.127  0.2557  0.3462  0.1382
    1OL    H16S 4925   0.941   1.931   5.202  0.8772  0.8067  1.5010
    1OL    C117 4926   1.005   1.793   5.058 -0.7201 -0.5629  0.1989
    1OL    H17R 4927   0.939   1.849   4.992 -0.3556 -0.0144  0.2928
    1OL    H17S 4928   0.951   1.712   5.107  0.9480 -1.2390  1.0033
    1OL    C118 4929   1.118   1.741   4.973 -0.4751  0.3730  0.0903
    1OL    H18R 4930   1.073   1.660   4.915 -0.9976 -0.8189  2.0795
    1OL    H18S 4931   1.157   1.822   4.911  2.8209 -1.1891 -0.0297
    1OL    H18T 4932   1.199   1.696   5.030  1.7478  3.0573 -0.7166
    1PA    C116 4933   0.443   4.677   5.408 -0.7057 -0.2933  0.3671
    1PA    H16R 4934   0.345   4.721   5.426 -1.8498 -2.6128  0.0904
    1PA    H16S 4935   0.457   4.603   5.487 -1.6734  0.2325  1.0478
    1PA    H16T 4936   0.438   4.628   5.311 -5.0404 -0.9149  0.7239
    1PA    C115 4937   0.546   4.792   5.412  0.0868  1.2049  0.5828
    1PA    H15R 4938   0.536   4.842   5.315 -1.2478 -0.8457 -0.4073
    1PA    H15S 4939   0.523   4.879   5.473  1.1610  2.9477 -1.3435
    1PA    C114 4940   0.687   4.738   5.456 -0.4864 -0.5064 -0.3345
    1PA    H14R 4941   0.710   4.648   5.399  2.3657  1.0289 -1.8925
    1PA    H14S 4942   0.753   4.820   5.426 -1.7790  0.7109  0.0022
    1PA    C113 4943   0.710   4.709   5.606  0.3066  0.4014 -0.2114
    1PA    H13R 4944   0.726   4.795   5.672  0.2615  0.7389 -0.6342
    1PA    H13S 4945   0.618   4.665   5.645 -1.6319  3.4336 -0.9480
    1PA    C112 4946   0.816   4.607   5.637  0.1938 -0.0830 -0.1778
    1PA    H12R 4947   0.790   4.516   5.583 -1.7282  0.2934  0.0354
    1PA    H12S 4948   0.912   4.639   5.598  0.1717  0.0772 -0.1011
    1PA    C111 4949   0.842   4.575   5.789 -0.1078 -0.0138  0.1404
    1PA    H11R 4950   0.859   4.666   5.847 -1.4547  1.3694 -1.5595
    1PA    H11S 4951   0.757   4.532   5.842 -0.0066  0.8506  1.0267
    1PA    C110 4952   0.963   4.477   5.814 -0.6356  0.7099  0.1036
    1PA    H10R 4953   0.943   4.401   5.739  0.2741  1.2414 -0.6991
    1PA    H10S 4954   1.052   4.533   5.787  1.1813 -1.7934  0.5683
    1PA     C19 4955   0.970   4.408   5.951  0.3257  0.1243  0.0771
    1PA     H9R 4956   1.063   4.351   5.940  0.5571  0.5640 -0.2730
    1PA     H9S 4957   0.985   4.478   6.034  0.1207 -0.1775  0.3741
    1PA     C18 4958   0.842   4.310   5.970 -0.1638  0.6580 -0.4234
    1PA     H8R 4959   0.745   4.358   5.986 -1.0900 -1.4773  0.7342
    1PA     H8S 4960   0.842   4.258   5.874 -1.0903  1.9934 -1.1801
    1PA     C17 4961   0.873   4.215   6.096 -0.2711  0.2596  0.2491
    1PA     H7R 4962   0.974   4.174   6.088 -1.1350 -2.1498  0.6494
    1PA     H7S 4963   0.870   4.270   6.190  1.3739 -1.0775  1.1473
    1PA     C16 4964   0.786   4.095   6.103  0.0564 -0.0892  0.1551
    1PA     H6R 4965   0.688   4.120   6.142  0.9098  2.5833  0.7808
    1PA     H6S 4966   0.767   4.066   5.999 -0.8558  3.2823 -0.7367
    1PA     C15 4967   0.843   3.980   6.188  0.0224 -0.3770 -0.1026
    1PA     H5R 4968   0.911   3.924   6.123 -0.9175 -0.1972 -1.2835
    1PA     H5S 4969   0.895   4.027   6.271 -0.0359  0.0274 -0.2938
    1PA     C14 4970   0.738   3.881   6.246 -0.1185  0.4677  0.3249
    1PA     H4R 4971   0.659   3.939   6.296  0.7088  1.8949  0.0243
    1PA     H4S 4972   0.691   3.830   6.162 -1.1978  0.4847  0.8945
    1PA     C13 4973   0.781   3.770   6.348 -0.0217  0.0703 -0.0610
    1PA     H3R 4974   0.791   3.814   6.448  0.8583 -0.3737  0.0565
    1PA     H3S 4975   0.697   3.701   6.349  0.1113 -0.1734 -2.1137
    1PA     C12 4976   0.908   3.688   6.318 -0.2317 -0.3273  0.6565
    1PA     H2R 4977   0.909   3.641   6.220  3.5289 -1.1032  0.9017
    1PA     H2S 4978   0.980   3.770   6.313 -0.6102 -0.0621 -1.4813
    1PC     C11 4979   0.957   3.591   6.428  0.2177 -0.2819  0.4540
    1PC     O12 4980   0.913   3.478   6.439  0.5991 -0.1076 -0.0301
    1PC     O11 4981   1.066   3.630   6.498  0.0017 -0.1792 -0.0514
    1PC      C1 4982   1.103   3.546   6.609  0.5765  0.4558 -0.3772
    1PC      HR 4983   1.022   3.543   6.682 -0.8620  1.8640 -1.8312
    1PC      HS 4984   1.121   3.447   6.567  0.7785  0.0626  0.5960
    1PC      C2 4985   1.239   3.590   6.673 -0.3289  0.0633  0.2159
    1PC      HX 4986   1.271   3.516   6.746  0.3544  2.1208  2.1388
    1PC      C3 4987   1.221   3.722   6.751 -0.3922 -0.2633  0.2231
    1PC      HA 4988   1.305   3.791   6.739  1.3077 -2.2475  0.0559
    1PC      HB 4989   1.128   3.775   6.729 -0.7150  0.1623  2.3305
    1PC     O31 4990   1.223   3.700   6.893 -0.0914 -0.2189  0.7058
    1PC     P31 4991   1.095   3.672   6.984  0.0332  0.1569  0.2271
    1PC     O32 4992   1.012   3.805   6.961  0.1375 -0.1245 -0.0650
    1PC     C31 4993   1.029   3.923   7.038  0.2884  0.4648  0.1920
    1PC     H1A 4994   1.110   3.913   7.110 -0.0911  1.6743  0.8179
    1PC     H1B 4995   1.048   4.003   6.965  1.2212  0.3853  0.3296
    1PC     C32 4996   0.894   3.940   7.115  0.1689 -1.2635 -0.0836
    1PC     H2A 4997   0.811   3.905   7.053 -0.7738 -0.4128  0.6773
    1PC     H2B 4998   0.910   3.887   7.209  1.3770  0.9772  1.0341
    1PC     N31 4999   0.865   4.085   7.162  0.2176 -0.1366 -0.2409
    1PC     C33 5000   0.740   4.101   7.250  0.0569 -0.2845 -0.3802
    1PC     H3A 5001   0.721   4.009   7.305 -0.5994  1.4112  2.4241
    1PC     H3B 5002   0.759   4.184   7.319  1.5924 -0.5604 -0.4534
    1PC     H3C 5003   0.666   4.126   7.174 -0.0523 -0.9139 -0.4849
    1PC     C34 5004   0.983   4.140   7.242  0.3578 -0.1398 -0.0613
    1PC     H4A 5005   1.008   4.068   7.320 -2.0414 -1.4495 -0.3699
    1PC     H4B 5006   1.076   4.157   7.187  1.6918 -0.1349  2.1155
    1PC     H4C 5007   0.942   4.232   7.282 -0.3832 -0.9294  1.0523
    1PC     C35 5008   0.830   4.179   7.056  0.0283  0.1001 -0.3366
    1PC     H5A 5009   0.753   4.135   6.993  0.8345  0.3285 -1.5149
    1PC     H5B 5010   0.925   4.196   7.005 -0.8598  1.1069 -1.7109
    1PC     H5C 5011   0.791   4.262   7.115  0.1507 -1.5940  2.3018
    1PC     O33 5012   1.036   3.557   6.915  0.0693  0.4625  0.3653
    1PC     O34 5013   1.147   3.654   7.121  0.5387 -0.4463 -0.2480
    1PC     O21 5014   1.349   3.609   6.573  0.6165  0.2932  0.2010
    1PC     C21 5015   1.417   3.501   6.534  0.0825  0.5529  0.6822
    1PC     O22 5016   1.408   3.396   6.587  0.2082  0.0661 -0.3681
    1OL     C12 5017   1.514   3.534   6.421  0.2400 -0.2473  0.2093
    1OL     H2R 5018   1.609   3.483   6.434 -0.2979 -2.0144 -2.1487
    1OL     H2S 5019   1.533   3.642   6.414  0.2267 -0.2766 -0.3253
    1OL     C13 5020   1.469   3.483   6.285  0.5298 -0.1629 -0.0566
    1OL     H3R 5021   1.477   3.374   6.292  0.4502 -0.0979  1.4884
    1OL     H3S 5022   1.543   3.517   6.212 -0.0833  2.9776  0.6292
    1OL     C14 5023   1.326   3.528   6.249 -0.1327  0.7851 -0.5782
    1OL     H4R 5024   1.337   3.634   6.226 -2.1399  1.7540  2.3425
    1OL     H4S 5025   1.261   3.522   6.337 -0.7208  2.4286 -0.8589
    1OL     C15 5026   1.279   3.441   6.133  0.2405 -0.7374 -0.1213
    1OL     H5R 5027   1.269   3.338   6.170  0.2532 -0.0743  1.8378
    1OL     H5S 5028   1.358   3.442   6.058  1.8969 -3.4153  1.3857
    1OL     C16 5029   1.149   3.501   6.076 -0.6950  0.5179 -0.2730
    1OL     H6R 5030   1.183   3.600   6.045 -1.1502  1.0087  0.7316
    1OL     H6S 5031   1.067   3.517   6.146  0.4036 -1.2358  1.5231
    1OL     C17 5032   1.100   3.415   5.959  1.1114 -0.0090 -0.4734
    1OL     H7R 5033   1.001   3.450   5.927  1.5138  0.1744 -1.5373
    1OL     H7S 5034   1.096   3.311   5.991 -0.4678  0.4845  1.1218
    1OL     C18 5035   1.193   3.420   5.838 -0.5542  0.3896 -0.0994
    1OL     H8R 5036   1.145   3.367   5.755  1.6170  1.1013 -1.9046
    1OL     H8S 5037   1.283   3.369   5.874  0.2272  3.1446  2.2514
    1OL     C19 5038   1.217   3.558   5.782 -0.6590  0.2075  0.6765
    1OL     H9R 5039   1.222   3.632   5.862 -2.0300 -0.1362  1.1031
    1OL    C110 5040   1.215   3.609   5.659  0.0998 -0.2126  0.7570
    1OL    H10R 5041   1.212   3.717   5.647  1.4463 -0.1839  0.4743
    1OL    C111 5042   1.178   3.524   5.538 -0.1328 -0.1442  0.5960
    1OL    H11R 5043   1.077   3.550   5.508  0.3080 -0.0603 -0.9014
    1OL    H11S 5044   1.179   3.416   5.554  2.0505  0.1914  3.5876
    1OL    C112 5045   1.263   3.568   5.421  0.2177 -0.2038 -0.4048
    1OL    H12R 5046   1.276   3.677   5.419  1.2643 -0.2837  1.0066
    1OL    H12S 5047   1.215   3.536   5.328 -0.8924  0.4881 -0.0875
    1OL    C113 5048   1.408   3.504   5.417  0.2566 -1.1760  0.6071
    1OL    H13R 5049   1.465   3.542   5.502 -0.6288  3.4938 -0.5972
    1OL    H13S 5050   1.441   3.555   5.326 -1.3247 -0.6187  0.3054
    1OL    C114 5051   1.406   3.352   5.402 -0.7400 -0.0300  0.2984
    1OL    H14R 5052   1.359   3.329   5.306  3.3916 -2.6949 -1.3850
    1OL    H14S 5053   1.347   3.304   5.480  0.7673 -1.9998  0.3073
    1OL    C115 5054   1.552   3.280   5.392  0.9058 -0.1339 -0.7685
    1OL    H15R 5055   1.612   3.312   5.478 -0.7211  1.3856 -0.1493
    1OL    H15S 5056   1.605   3.320   5.305  1.4921 -2.5964 -1.6306
    1OL    C116 5057   1.536   3.126   5.385 -0.8995 -0.4076 -0.9399
    1OL    H16R 5058   1.486   3.091   5.294 -1.8668  0.9351 -0.9639
    1OL    H16S 5059   1.480   3.102   5.476  0.5603 -0.9812 -0.1668
    1OL    C117 5060   1.673   3.066   5.393 -0.3083  0.0951  0.3579
    1OL    H17R 5061   1.674   2.958   5.409  2.4466  0.1077  0.6776
    1OL    H17S 5062   1.725   3.099   5.482 -2.1155 -0.2284  1.5913
    1OL    C118 5063   1.764   3.078   5.265 -0.2488  0.5274 -0.1231
    1OL    H18R 5064   1.717   3.035   5.176 -2.7965  0.8253  1.0072
    1OL    H18S 5065   1.865   3.038   5.277 -1.3690 -2.2048  0.9608
    1OL    H18T 5066   1.787   3.184   5.249  1.4110 -0.0140 -1.7414
    1PA    C116 5067   0.062   1.163   4.992  0.1997  0.4515  0.0751
    1PA    H16R 5068  -0.041   1.166   5.028 -0.5063  0.6310 -1.8485
    1PA    H16S 5069   0.066   1.193   4.887 -1.6461 -0.0726 -0.1723
    1PA    H16T 5070   0.119   1.225   5.062  0.5069  1.0974 -0.7357
    1PA    C115 5071   0.105   1.012   4.992 -0.4300  0.2939  0.2532
    1PA    H15R 5072   0.053   0.963   4.909  0.9859 -0.7298 -0.0569
    1PA    H15S 5073   0.213   1.019   4.979 -0.2751  2.0457  2.0101
    1PA    C114 5074   0.082   0.947   5.131 -0.1954  0.0416  0.3117
    1PA    H14R 5075   0.148   0.991   5.206  5.2829  0.7086 -4.2458
    1PA    H14S 5076  -0.022   0.961   5.162 -1.1784  0.2660 -2.7488
    1PA    C113 5077   0.111   0.799   5.116  0.2427 -0.1256 -0.5668
    1PA    H13R 5078   0.064   0.764   5.024 -0.5651  1.5088 -0.8085
    1PA    H13S 5079   0.217   0.776   5.106  0.1589 -0.5088 -0.6042
    1PA    C112 5080   0.050   0.717   5.232  0.1737  0.7246  0.5952
    1PA    H12R 5081  -0.057   0.738   5.236 -0.1218 -0.7699  1.0864
    1PA    H12S 5082   0.056   0.612   5.203 -1.2434  0.2038  2.0743
    1PA    C111 5083   0.123   0.748   5.365  0.4216  0.3980 -1.1850
    1PA    H11R 5084   0.227   0.717   5.373  0.4873  1.0157  1.6150
    1PA    H11S 5085   0.112   0.855   5.385  0.8999  0.1549  0.5364
    1PA    C110 5086   0.041   0.672   5.474  0.1713 -0.2399  0.0321
    1PA    H10R 5087  -0.051   0.730   5.481  1.0934  1.0978  1.6753
    1PA    H10S 5088   0.014   0.572   5.440 -1.2246 -0.5994  1.9895
    1PA     C19 5089   0.098   0.666   5.613 -0.0768 -0.3221 -0.2547
    1PA     H9R 5090   0.200   0.626   5.612 -0.0364 -0.2886 -2.1867
    1PA     H9S 5091   0.088   0.771   5.643 -0.5528 -0.1836 -0.8818
    1PA     C18 5092   0.006   0.574   5.699 -0.1691 -0.4805 -0.6071
    1PA     H8R 5093  -0.096   0.610   5.683  1.0386  2.8449 -1.5659
    1PA     H8S 5094   0.019   0.473   5.660  1.4687 -0.4030 -0.3075
    1PA     C17 5095   0.039   0.582   5.854 -0.6560 -0.3904 -0.0607
    1PA     H7R 5096   0.148   0.583   5.855 -0.5721  0.1846 -2.5075
    1PA     H7S 5097   0.008   0.680   5.889 -0.2341 -1.5301  3.9597
    1PA     C16 5098  -0.031   0.473   5.934  0.8086 -0.0710 -0.3531
    1PA     H6R 5099  -0.135   0.505   5.938  0.9846  0.4943 -0.2844
    1PA     H6S 5100  -0.014   0.375   5.889 -0.6357 -0.9616  0.9387
    1PA     C15 5101   0.027   0.475   6.077  0.0574  0.1018 -0.1009
    1PA     H5R 5102   0.132   0.457   6.058  0.4723  0.8053  1.3775
    1PA     H5S 5103   0.017   0.571   6.128 -1.5079  0.0037 -0.1600
    1PA     C14 5104  -0.017   0.355   6.165  0.7030  0.1669 -0.3623
    1PA     H4R 5105  -0.001   0.266   6.104  0.7768  0.5818 -0.9573
    1PA     H4S 5106   0.049   0.349   6.252 -1.4557  0.6831  1.3991
    1PA     C13 5107  -0.165   0.368   6.215 -0.4291  0.2468  0.0541
    1PA     H3R 5108  -0.181   0.469   6.253  0.5233  1.1129 -1.6899
    1PA     H3S 5109  -0.230   0.359   6.127  1.3354 -0.6344 -1.2181
    1PA     C12 5110  -0.205   0.258   6.314 -0.2010 -0.4568  0.2817
    1PA     H2R 5111  -0.314   0.254   6.317 -0.1660 -1.2280  0.5050
    1PA     H2S 5112  -0.171   0.161   6.277  0.3340 -0.1518 -0.0489
    1PC     C11 5113  -0.146   0.286   6.452  0.0340  0.8866 -0.2434
    1PC     O12 5114  -0.063   0.376   6.477  0.2339  0.4951  0.6538
    1PC     O11 5115  -0.199   0.204   6.551 -0.1547  0.2126  0.6146
    1PC      C1 5116  -0.144   0.210   6.683  1.0409 -0.4461  0.2706
    1PC      HR 5117  -0.177   0.119   6.736 -0.8600  0.7160  1.2146
    1PC      HS 5118  -0.037   0.193   6.676  0.7518 -2.8062  0.4377
    1PC      C2 5119  -0.183   0.336   6.768 -0.8235  0.4765  0.0926
    1PC      HX 5120  -0.124   0.409   6.711 -2.4221  1.2321 -0.6660
    1PC      C3 5121  -0.145   0.322   6.918 -0.3458  0.1239 -0.0382
    1PC      HA 5122  -0.040   0.335   6.946 -0.8594  2.5101  1.0403
    1PC      HB 5123  -0.208   0.395   6.969 -3.5826 -2.5379  0.1313
    1PC     O31 5124  -0.173   0.193   6.974 -0.1508  0.4142 -0.1584
    1PC     P31 5125  -0.162   0.182   7.135  0.2426 -0.3073 -0.1405
    1PC     O32 5126  -0.228   0.305   7.194 -0.9183 -0.2431 -0.3041
    1PC     C31 5127  -0.366   0.303   7.222 -0.5132 -0.3983  0.4023
    1PC     H1A 5128  -0.429   0.230   7.170 -0.4018  0.7353 -1.4116
    1PC     H1B 5129  -0.391   0.324   7.327 -1.5745  2.3765 -0.2998
    1PC     C32 5130  -0.413   0.435   7.150  0.5403  0.9755  0.0611
    1PC     H2A 5131  -0.369   0.520   7.202 -1.1616  1.2558  1.1286
    1PC     H2B 5132  -0.381   0.428   7.046 -0.5944 -0.3478 -0.2330
    1PC     N31 5133  -0.560   0.469   7.175  0.1658 -0.7870 -0.2725
    1PC     C33 5134  -0.583   0.600   7.116  0.1750 -0.1290  0.0565
    1PC     H3A 5135  -0.679   0.640   7.148 -1.0549 -2.3644 -0.6016
    1PC     H3B 5136  -0.503   0.654   7.167 -0.9649 -1.2340  3.2453
    1PC     H3C 5137  -0.574   0.600   7.007  0.2206 -0.4852  0.0598
    1PC     C34 5138  -0.637   0.364   7.103 -0.5591 -0.6160 -0.8944
    1PC     H4A 5139  -0.622   0.271   7.157 -0.7816 -0.2102 -0.1234
    1PC     H4B 5140  -0.743   0.390   7.099 -0.3265  0.3026 -1.4515
    1PC     H4C 5141  -0.595   0.355   7.003  3.1902 -2.2541  0.6354
    1PC     C35 5142  -0.600   0.472   7.318  0.4005  0.1184  0.0500
    1PC     H5A 5143  -0.538   0.537   7.380 -1.0805  1.1204  0.5415
    1PC     H5B 5144  -0.614   0.373   7.361 -0.2633 -1.0652 -2.6358
    1PC     H5C 5145  -0.702   0.509   7.315  0.6759  0.8838  0.0087
    1PC     O33 5146  -0.248   0.065   7.172  0.1803  0.5357  0.2600
    1PC     O34 5147  -0.022   0.196   7.177  0.4330  0.1745 -0.1934
    1PC     O21 5148  -0.320   0.356   6.749  0.0383 -0.6967  0.1620
    1PC     C21 5149  -0.369   0.480   6.747  0.7640 -0.1831 -0.1525
    1PC     O22 5150  -0.300   0.573   6.775  0.2148  0.0460 -0.1122
    1OL     C12 5151  -0.510   0.493   6.691  0.7636 -0.0081 -0.4275
    1OL     H2R 5152  -0.537   0.593   6.726  0.4711 -1.3850  3.6829
    1OL     H2S 5153  -0.584   0.429   6.738  0.8896 -1.0382 -1.5715
    1OL     C13 5154  -0.505   0.492   6.541  0.1203  0.8391 -0.1258
    1OL     H3R 5155  -0.463   0.397   6.508  2.0839  1.1522  1.2717
    1OL     H3S 5156  -0.433   0.567   6.508  1.0627 -0.6128 -1.4895
    1OL     C14 5157  -0.642   0.525   6.475  0.3106  0.3179  0.7301
    1OL     H4R 5158  -0.623   0.555   6.372 -0.0400 -0.3093  0.4762
    1OL     H4S 5159  -0.688   0.605   6.533  0.7731  2.3939 -1.6285
    1OL     C15 5160  -0.730   0.400   6.469 -0.1303 -0.4645 -0.0550
    1OL     H5R 5161  -0.762   0.374   6.571  0.2711 -0.5142  0.0575
    1OL     H5S 5162  -0.675   0.320   6.420  0.0838 -0.3011 -0.0795
    1OL     C16 5163  -0.852   0.433   6.381  0.1174 -0.4768  0.5042
    1OL     H6R 5164  -0.815   0.465   6.283 -1.8947 -0.5358 -0.3298
    1OL     H6S 5165  -0.907   0.519   6.420 -0.2654 -1.2027  1.6029
    1OL     C17 5166  -0.954   0.318   6.373 -0.6272 -0.1428 -0.3504
    1OL     H7R 5167  -1.013   0.299   6.463 -1.9118  1.7454 -0.7511
    1OL     H7S 5168  -0.898   0.226   6.353  0.7035  0.7494 -0.8934
    1OL     C18 5169  -1.049   0.330   6.249  0.0392  0.2631  0.1997
    1OL     H8R 5170  -1.128   0.256   6.267 -0.4961  0.8540  0.3197
    1OL     H8S 5171  -0.993   0.298   6.161  0.0220  0.2056  0.2099
    1OL     C19 5172  -1.114   0.460   6.244 -0.2874  0.1900  0.1202
    1OL     H9R 5173  -1.174   0.483   6.331 -0.2636 -0.5793  0.3448
    1OL    C110 5174  -1.107   0.557   6.150  0.4922  0.2173  0.4757
    1OL    H10R 5175  -1.169   0.645   6.167  1.4862  1.1459 -0.5234
    1OL    C111 5176  -1.025   0.553   6.026  0.3315  0.9245  0.0836
    1OL    H11R 5177  -0.973   0.458   6.015 -0.4194  0.4159  0.8005
    1OL    H11S 5178  -0.952   0.634   6.035  2.4313 -0.8031 -0.5618
    1OL    C112 5179  -1.116   0.567   5.904 -0.6907  0.3417 -0.2407
    1OL    H12R 5180  -1.197   0.639   5.917 -0.1753  0.7026  1.2955
    1OL    H12S 5181  -1.165   0.470   5.902 -0.5130  0.2144  0.6970
    1OL    C113 5182  -1.045   0.588   5.774  0.5760  0.2379 -0.2234
    1OL    H13R 5183  -0.972   0.667   5.792 -0.6230  1.3689 -0.2321
    1OL    H13S 5184  -1.119   0.613   5.698  0.6301  0.0158 -0.3497
    1OL    C114 5185  -0.966   0.466   5.736 -0.1466 -0.1023  0.0017
    1OL    H14R 5186  -1.027   0.379   5.760 -1.3268  1.2034  1.9956
    1OL    H14S 5187  -0.876   0.458   5.797 -0.5796  2.1281  1.0227
    1OL    C115 5188  -0.932   0.474   5.588  0.6435  0.5459 -0.2791
    1OL    H15R 5189  -0.865   0.556   5.561 -0.4809  0.7597 -2.7042
    1OL    H15S 5190  -1.026   0.498   5.538  0.4488  3.0654  1.1293
    1OL    C116 5191  -0.880   0.346   5.525  0.0154 -0.0516  0.0208
    1OL    H16R 5192  -0.923   0.262   5.578 -0.6696  0.1122 -0.2632
    1OL    H16S 5193  -0.772   0.338   5.538 -0.0622 -0.8960  0.1848
    1OL    C117 5194  -0.914   0.329   5.374  0.0651  0.4696 -0.0570
    1OL    H17R 5195  -0.867   0.235   5.342 -0.2688 -0.2467  1.4430
    1OL    H17S 5196  -0.868   0.404   5.309  0.9664 -0.1123 -0.1030
    1OL    C118 5197  -1.062   0.320   5.330 -0.0915 -0.1439 -0.4766
    1OL    H18R 5198  -1.074   0.322   5.221 -1.1749 -2.3002 -0.4459
    1OL    H18S 5199  -1.124   0.403   5.366  0.7958  0.5147 -0.4254
    1OL    H18T 5200  -1.107   0.225   5.360  0.7331  0.0305  1.4453
    1PA    C116 5201   1.104   0.332   5.149  0.6937  0.1017 -0.1527
    1PA    H16R 5202   1.070   0.429   5.111 -0.4157 -0.6670 -1.2371
    1PA    H16S 5203   1.050   0.257   5.090  0.2049 -1.1743  1.8408
    1PA    H16T 5204   1.211   0.330   5.130  0.8237  1.8943  0.2612
    1PA    C115 5205   1.064   0.332   5.302 -0.1125  0.0374 -0.2488
    1PA    H15R 5206   0.959   0.348   5.325 -0.4655 -2.7484  0.5224
    1PA    H15S 5207   1.095   0.233   5.337 -0.6408 -0.4754 -1.2089
    1PA    C114 5208   1.150   0.433   5.376  0.2812  0.3878  0.7083
    1PA    H14R 5209   1.252   0.422   5.339  0.1389  0.7573  0.1855
    1PA    H14S 5210   1.117   0.534   5.348 -0.3495  0.1885  0.7170
    1PA    C113 5211   1.141   0.421   5.530 -0.6363  0.2976  0.5057
    1PA    H13R 5212   1.169   0.320   5.562 -0.7284 -0.3786 -1.4572
    1PA    H13S 5213   1.202   0.498   5.578  0.8496  0.1239 -1.0272
    1PA    C112 5214   1.003   0.444   5.581 -0.1521  0.1341 -0.1708
    1PA    H12R 5215   0.960   0.539   5.551  0.5281  0.7216  0.6314
    1PA    H12S 5216   0.943   0.360   5.546  1.4899 -0.7875 -0.9220
    1PA    C111 5217   1.007   0.428   5.733 -0.5355 -0.5052 -0.5563
    1PA    H11R 5218   0.903   0.406   5.756 -1.5903  1.7461 -2.7006
    1PA    H11S 5219   1.069   0.341   5.755  2.3086  1.1391 -1.4730
    1PA    C110 5220   1.048   0.551   5.822 -0.5477 -0.5547  0.0541
    1PA    H10R 5221   1.133   0.600   5.773 -3.0462  1.6553 -2.4318
    1PA    H10S 5222   0.968   0.625   5.819 -2.0122 -2.0612  0.9904
    1PA     C19 5223   1.061   0.518   5.974 -0.5933  0.5458 -0.0042
    1PA     H9R 5224   0.971   0.462   5.998  0.1489 -0.4385  0.5891
    1PA     H9S 5225   1.150   0.462   6.004 -0.2075  1.2932  0.2862
    1PA     C18 5226   1.049   0.655   6.049 -0.7768  0.0606  0.1293
    1PA     H8R 5227   0.973   0.721   6.006 -1.4297 -0.1634  0.9179
    1PA     H8S 5228   1.018   0.634   6.152 -1.2095  1.6491  0.3557
    1PA     C17 5229   1.182   0.735   6.053  0.2574 -0.8022  0.2683
    1PA     H7R 5230   1.273   0.677   6.035  1.4508  0.3756  2.1783
    1PA     H7S 5231   1.181   0.813   5.977  3.1398  0.2155  1.1424
    1PA     C16 5232   1.200   0.809   6.187  0.1896 -0.1051  0.7766
    1PA     H6R 5233   1.289   0.871   6.182 -0.7514  1.2028 -0.5259
    1PA     H6S 5234   1.130   0.893   6.194  2.5474  2.0791 -0.3954
    1PA     C15 5235   1.201   0.732   6.317  0.0597  0.4053  0.1352
    1PA     H5R 5236   1.231   0.802   6.395 -1.6497  0.9447  0.3581
    1PA     H5S 5237   1.101   0.698   6.344  0.4306 -1.3637 -0.5686
    1PA     C14 5238   1.297   0.612   6.322 -0.0867  0.7050 -0.1210
    1PA     H4R 5239   1.258   0.533   6.257  0.2593 -1.0035  1.6782
    1PA     H4S 5240   1.395   0.641   6.283  0.7566 -1.2979  0.3940
    1PA     C13 5241   1.308   0.563   6.469 -0.3694  0.5507 -0.8493
    1PA     H3R 5242   1.379   0.480   6.474 -0.0602  0.8743  2.4221
    1PA     H3S 5243   1.344   0.648   6.528  0.1231  0.3244 -0.8194
    1PA     C12 5244   1.180   0.502   6.529  0.1848  0.0034  0.4225
    1PA     H2R 5245   1.116   0.587   6.551 -0.7557 -0.9382  1.4582
    1PA     H2S 5246   1.135   0.433   6.458  1.5821 -0.6899  0.1650
    1PC     C11 5247   1.223   0.430   6.659 -0.0606  1.0889  0.2936
    1PC     O12 5248   1.321   0.465   6.719 -0.0241 -0.3229  0.3880
    1PC     O11 5249   1.137   0.329   6.690 -0.1495  0.2748  0.6763
    1PC      C1 5250   1.165   0.248   6.802  0.2301 -0.1751  0.2343
    1PC      HR 5251   1.099   0.162   6.792  1.9333 -1.3074 -1.8635
    1PC      HS 5252   1.263   0.202   6.796  1.4676  2.3497 -0.3878
    1PC      C2 5253   1.115   0.324   6.924 -0.4131 -0.4194 -0.1725
    1PC      HX 5254   1.174   0.416   6.931  0.4179 -1.0452  1.8648
    1PC      C3 5255   1.139   0.241   7.055 -0.1377  0.0652  0.0641
    1PC      HA 5256   1.050   0.178   7.064 -0.3026 -0.2295 -2.6317
    1PC      HB 5257   1.226   0.176   7.044  0.1996  0.4182  0.6173
    1PC     O31 5258   1.177   0.334   7.163  0.4173  0.1382  0.7942
    1PC     P31 5259   1.065   0.387   7.264 -0.1123  0.2190  0.0938
    1PC     O32 5260   1.000   0.513   7.198 -0.2942 -0.2708  0.2920
    1PC     C31 5261   1.070   0.643   7.191 -0.3499  0.1058  0.3550
    1PC     H1A 5262   1.163   0.653   7.247 -0.0393 -0.0337 -0.1198
    1PC     H1B 5263   1.088   0.667   7.086 -1.3082  2.0205  0.5985
    1PC     C32 5264   0.971   0.740   7.250  1.0106  0.0456 -0.4416
    1PC     H2A 5265   0.874   0.724   7.204  0.1261  0.5353  1.2019
    1PC     H2B 5266   0.949   0.725   7.355 -0.2173  0.9408 -0.5473
    1PC     N31 5267   0.998   0.892   7.225 -0.5816  0.0175  0.5126
    1PC     C33 5268   0.997   0.924   7.078 -0.1051 -0.4620  0.5616
    1PC     H3A 5269   1.013   1.030   7.062 -1.0946 -0.0116  2.2667
    1PC     H3B 5270   1.076   0.876   7.020 -0.8378  1.0301 -1.7843
    1PC     H3C 5271   0.902   0.897   7.032 -0.4262  1.4436  0.0356
    1PC     C34 5272   0.894   0.973   7.277 -0.1537 -0.2234 -0.1309
    1PC     H4A 5273   0.805   0.953   7.217 -1.1211  1.4559  0.6834
    1PC     H4B 5274   0.888   0.940   7.381 -0.6584  1.1904  0.3108
    1PC     H4C 5275   0.929   1.076   7.265  0.4818 -0.1259  2.1653
    1PC     C35 5276   1.122   0.939   7.293  0.0003 -0.2943 -0.0078
    1PC     H5A 5277   1.136   0.921   7.399  1.5013  0.3231 -0.0765
    1PC     H5B 5278   1.120   1.048   7.300  0.2357 -0.3917  2.1082
    1PC     H5C 5279   1.206   0.917   7.225 -0.2119 -1.3847  0.0693
    1PC     O33 5280   0.960   0.287   7.267  0.8447  0.7663 -0.7860
    1PC     O34 5281   1.130   0.433   7.386  0.0399 -0.3844 -0.0453
    1PC     O21 5282   0.972   0.345   6.911 -0.1704  0.0442 -0.3450
    1PC     C21 5283   0.920   0.458   6.879  0.3438  0.3667  0.1558
    1PC     O22 5284   0.989   0.559   6.872 -0.6718 -0.7259  0.1630
    1OL     C12 5285   0.770   0.452   6.870 -0.1760  0.3224 -0.0949
    1OL     H2R 5286   0.735   0.556   6.871  2.0097  1.1010  0.3433
    1OL     H2S 5287   0.734   0.407   6.962 -1.8465 -0.3947 -1.0535
    1OL     C13 5288   0.710   0.371   6.747  0.0247  0.5950 -0.5891
    1OL     H3R 5289   0.602   0.382   6.740  0.1442  1.6772 -0.9522
    1OL     H3S 5290   0.730   0.264   6.756  0.2003  0.7643  1.7036
    1OL     C14 5291   0.774   0.426   6.619 -1.3466 -0.1939 -0.0318
    1OL     H4R 5292   0.796   0.349   6.545 -1.0995  0.4120 -0.6027
    1OL     H4S 5293   0.872   0.467   6.643 -0.8778 -0.2569 -1.7135
    1OL     C15 5294   0.694   0.534   6.545  0.1526 -0.8073  0.1716
    1OL     H5R 5295   0.669   0.617   6.612  3.5153  0.9142 -0.5046
    1OL     H5S 5296   0.600   0.496   6.504 -1.1705  0.9603  1.3684
    1OL     C16 5297   0.788   0.615   6.450 -0.3497  0.5448 -0.5922
    1OL     H6R 5298   0.829   0.550   6.373  0.1243 -2.1052  1.7188
    1OL     H6S 5299   0.875   0.652   6.505  1.4373 -1.0745 -2.2002
    1OL     C17 5300   0.721   0.736   6.393  0.6883 -0.2268 -0.0635
    1OL     H7R 5301   0.666   0.779   6.477  1.8119  0.0900  0.5368
    1OL     H7S 5302   0.659   0.704   6.309  0.6481  0.1814 -0.1964
    1OL     C18 5303   0.819   0.843   6.349 -0.4265  0.0458 -0.0718
    1OL     H8R 5304   0.888   0.811   6.270 -0.9669  2.4351 -1.6160
    1OL     H8S 5305   0.875   0.864   6.440 -1.3452  0.8521  0.3185
    1OL     C19 5306   0.761   0.979   6.322  0.3075  0.1669  0.0498
    1OL     H9R 5307   0.758   1.054   6.401 -0.1304 -0.6856  0.8636
    1OL    C110 5308   0.719   1.011   6.205  0.5176  0.5297  0.0565
    1OL    H10R 5309   0.687   1.115   6.200  2.4284  1.1348 -0.1902
    1OL    C111 5310   0.719   0.928   6.078  0.6153  0.1010 -0.3810
    1OL    H11R 5311   0.613   0.904   6.068  0.1545  2.0040 -0.5546
    1OL    H11S 5312   0.757   0.827   6.094 -0.0150  0.1074  1.3434
    1OL    C112 5313   0.769   1.000   5.943 -0.0198 -0.3636 -0.0298
    1OL    H12R 5314   0.868   1.039   5.964  0.3841 -1.1742 -0.3644
    1OL    H12S 5315   0.707   1.085   5.914  1.2765  1.3048  1.8251
    1OL    C113 5316   0.782   0.899   5.820 -0.7215 -0.0818 -0.8843
    1OL    H13R 5317   0.683   0.861   5.795 -1.0884 -0.2788  0.7575
    1OL    H13S 5318   0.841   0.814   5.853 -1.9737 -1.0432 -1.0433
    1OL    C114 5319   0.841   0.969   5.706 -0.1928  0.6637  0.7999
    1OL    H14R 5320   0.911   1.045   5.739  0.0482  0.2946  1.1531
    1OL    H14S 5321   0.763   1.026   5.656 -0.2973 -0.0138  0.1601
    1OL    C115 5322   0.910   0.879   5.605 -0.4362  0.3270  0.5520
    1OL    H15R 5323   0.849   0.822   5.535  0.6059  0.9866 -0.9472
    1OL    H15S 5324   0.969   0.804   5.659 -1.2472 -0.8145 -0.0992
    1OL    C116 5325   1.021   0.955   5.523 -0.3974 -0.0732 -0.0080
    1OL    H16R 5326   1.091   1.007   5.590 -0.1025  0.2689 -0.5756
    1OL    H16S 5327   0.973   1.027   5.457 -1.8857 -2.0080 -1.1406
    1OL    C117 5328   1.105   0.865   5.436 -0.4994  0.6200 -1.0694
    1OL    H17R 5329   1.150   0.789   5.500 -0.9403  0.9297 -0.3770
    1OL    H17S 5330   1.186   0.927   5.396  0.6385  1.2052  1.8313
    1OL    C118 5331   1.025   0.801   5.321 -0.0504 -0.8505 -0.4612
    1OL    H18R 5332   1.091   0.759   5.245 -0.8548 -3.4070  0.1804
    1OL    H18S 5333   0.962   0.879   5.277  1.3622  1.0961  0.7552
    1OL    H18T 5334   0.973   0.716   5.367 -0.2083 -0.5653 -0.1021
    1PA    C116 5335   4.708   0.625   6.101  0.4969 -0.2416 -0.6316
    1PA    H16R 5336   4.606   0.620   6.138  1.3664  0.9153  2.1962
    1PA    H16S 5337   4.744   0.729   6.102  1.1585 -0.4624  0.8725
    1PA    H16T 5338   4.767   0.566   6.172 -0.7564  0.0919  0.7314
    1PA    C115 5339   4.711   0.556   5.969  0.0059  0.0357  0.0527
    1PA    H15R 5340   4.679   0.452   5.981 -0.2558  0.2170  1.0048
    1PA    H15S 5341   4.637   0.607   5.906 -2.6613 -2.1370  1.1817
    1PA    C114 5342   4.841   0.562   5.907 -0.5389  0.5529  0.1380
    1PA    H14R 5343   4.849   0.664   5.870 -1.1094  0.3261 -0.6058
    1PA    H14S 5344   4.918   0.537   5.981 -1.4153  1.8758  1.5878
    1PA    C113 5345   4.864   0.459   5.790 -0.6782  0.4920 -0.4698
    1PA    H13R 5346   4.806   0.489   5.702  0.7964  1.9964 -0.9966
    1PA    H13S 5347   4.961   0.489   5.749 -0.2741 -2.4138 -1.8860
    1PA    C112 5348   4.844   0.315   5.831 -0.5732 -0.4141 -0.0722
    1PA    H12R 5349   4.870   0.289   5.934 -1.8470  0.5317  0.5265
    1PA    H12S 5350   4.735   0.309   5.827 -0.8174  2.7352 -1.4985
    1PA    C111 5351   4.909   0.226   5.727 -0.4310 -0.4396  0.0174
    1PA    H11R 5352   4.863   0.128   5.746  2.8527 -2.6227 -2.2204
    1PA    H11S 5353   4.874   0.257   5.628  0.9432  1.2780  0.0322
    1PA    C110 5354   5.065   0.203   5.723 -0.2885 -0.5260 -0.4869
    1PA    H10R 5355   5.094   0.144   5.636  2.4857 -0.7075  0.4687
    1PA    H10S 5356   5.115   0.299   5.710 -0.5694 -0.0995  1.3092
    1PA     C19 5357   5.116   0.132   5.849  0.0761 -0.2270 -0.4369
    1PA     H9R 5358   5.225   0.129   5.854  0.1380  0.4415 -1.1721
    1PA     H9S 5359   5.091   0.187   5.941  0.8107  1.7526 -1.3599
    1PA     C18 5360   5.072  -0.016   5.872  1.0069 -0.4823 -0.0000
    1PA     H8R 5361   4.970  -0.036   5.836  2.0593 -0.6573 -3.2416
    1PA     H8S 5362   5.142  -0.073   5.811  0.8947 -0.1046 -0.4948
    1PA     C17 5363   5.087  -0.076   6.008 -0.1492  0.3261  0.0317
    1PA     H7R 5364   5.170  -0.022   6.054 -0.4700  0.6667  0.2161
    1PA     H7S 5365   4.996  -0.052   6.064 -0.0715 -0.8543  0.7074
    1PA     C16 5366   5.101  -0.231   6.022  0.1195 -0.1090  0.8264
    1PA     H6R 5367   5.009  -0.273   5.981  1.7183 -1.6129 -1.4951
    1PA     H6S 5368   5.174  -0.275   5.954 -2.8261 -2.2654 -1.2030
    1PA     C15 5369   5.110  -0.281   6.169 -0.3041 -0.2946  0.0917
    1PA     H5R 5370   5.023  -0.243   6.222  0.0114  0.3779  0.1279
    1PA     H5S 5371   5.111  -0.390   6.174 -1.5291 -0.3336 -0.2773
    1PA     C14 5372   5.249  -0.240   6.227  0.3517 -0.0502  0.6625
    1PA     H4R 5373   5.321  -0.278   6.155 -1.5948  2.9362 -3.2512
    1PA     H4S 5374   5.265  -0.132   6.220 -0.6012  0.0075 -1.5738
    1PA     C13 5375   5.279  -0.296   6.364 -0.4822  0.4850 -0.0108
    1PA     H3R 5376   5.238  -0.397   6.361 -1.1998  0.7171  1.1900
    1PA     H3S 5377   5.386  -0.303   6.384 -0.5356 -0.8826 -0.1340
    1PA     C12 5378   5.217  -0.199   6.466  0.8059 -0.2670 -0.3979
    1PA     H2R 5379   5.253  -0.100   6.435  0.4418  0.1275  0.4274
    1PA     H2S 5380   5.108  -0.193   6.460  0.8116  1.3217  0.6393
    1PC     C11 5381   5.265  -0.232   6.599  0.6085 -0.5651 -0.4818
    1PC     O12 5382   5.270  -0.351   6.642  0.0168 -0.1748 -0.2044
    1PC     O11 5383   5.310  -0.129   6.685  0.6690  0.5141  1.1987
    1PC      C1 5384   5.345  -0.155   6.823 -0.0392  0.7566  0.2979
    1PC      HR 5385   5.393  -0.254   6.828  0.4011  0.8827 -1.0232
    1PC      HS 5386   5.421  -0.082   6.851 -0.5052  0.8775  1.2669
    1PC      C2 5387   5.216  -0.151   6.909 -0.3225  0.8048  0.4859
    1PC      HX 5388   5.188  -0.046   6.907 -0.0119  0.9374  1.7755
    1PC      C3 5389   5.253  -0.164   7.061  0.4808  0.1307  0.0065
    1PC      HA 5390   5.264  -0.063   7.103 -0.4219  0.3162 -0.1836
    1PC      HB 5391   5.174  -0.216   7.114  0.7670 -1.3721 -0.9874
    1PC     O31 5392   5.377  -0.242   7.080  0.1443 -0.6155  0.1239
    1PC     P31 5393   5.418  -0.296   7.220 -0.3370  0.1088 -0.1215
    1PC     O32 5394   5.310  -0.400   7.256  0.4907 -0.0115 -0.2079
    1PC     C31 5395   5.311  -0.530   7.189 -0.1053  0.0529 -0.2855
    1PC     H1A 5396   5.409  -0.577   7.203 -0.1063 -0.0392 -0.5843
    1PC     H1B 5397   5.247  -0.595   7.249 -0.0198 -1.6180 -1.9170
    1PC     C32 5398   5.273  -0.532   7.042 -0.7866 -0.0317 -0.3393
    1PC     H2A 5399   5.180  -0.479   7.020 -0.2399 -0.0914 -3.1431
    1PC     H2B 5400   5.354  -0.484   6.987 -1.1846 -0.5762 -1.4368
    1PC     N31 5401   5.252  -0.673   6.979 -0.6099 -0.2707  0.4005
    1PC     C33 5402   5.117  -0.722   7.013  0.2119 -0.4580  0.5140
    1PC     H3A 5403   5.101  -0.812   6.953 -0.9579  2.0597 -3.3531
    1PC     H3B 5404   5.106  -0.748   7.118  0.1781 -1.2958  0.3108
    1PC     H3C 5405   5.039  -0.653   6.979  1.1125 -0.0796 -0.8960
    1PC     C34 5406   5.255  -0.665   6.834  0.5692 -0.2148  0.5044
    1PC     H4A 5407   5.272  -0.768   6.804 -0.0752 -0.3477  0.5833
    1PC     H4B 5408   5.162  -0.627   6.791  0.3942  2.2427  2.7352
    1PC     H4C 5409   5.344  -0.609   6.805  0.2870 -0.8634 -1.8095
    1PC     C35 5410   5.358  -0.770   7.021 -0.4032  0.4664  0.7852
    1PC     H5A 5411   5.343  -0.795   7.126 -0.7687  0.1143  0.6534
    1PC     H5B 5412   5.460  -0.732   7.014 -0.0222 -0.4288  1.3066
    1PC     H5C 5413   5.360  -0.857   6.956 -0.8435  0.1925  1.1320
    1PC     O33 5414   5.547  -0.369   7.200  0.0951  0.0118 -0.1676
    1PC     O34 5415   5.417  -0.188   7.320  0.0431  0.2075  0.5728
    1PC     O21 5416   5.115  -0.256   6.871  0.1519 -0.3643 -0.6187
    1PC     C21 5417   5.008  -0.212   6.806  0.4932 -0.2102  0.1652
    1PC     O22 5418   4.999  -0.095   6.778  0.5479 -0.0299 -0.4013
    1OL     C12 5419   4.904  -0.317   6.774  0.9607 -0.1146 -0.0732
    1OL     H2R 5420   4.813  -0.280   6.822  1.8189 -0.0964  1.6289
    1OL     H2S 5421   4.934  -0.402   6.836  1.2403  0.6233  0.8198
    1OL     C13 5422   4.884  -0.350   6.623  0.2646  0.8752  0.0740
    1OL     H3R 5423   4.962  -0.417   6.584 -0.3533  1.1674 -1.8044
    1OL     H3S 5424   4.883  -0.258   6.564  1.6007  1.1749  0.4990
    1OL     C14 5425   4.752  -0.423   6.593 -0.0286  0.0908 -0.1010
    1OL     H4R 5426   4.682  -0.405   6.675  0.3690  1.4047 -0.0302
    1OL     H4S 5427   4.773  -0.529   6.575  0.6393  0.3578 -0.9893
    1OL     C15 5428   4.684  -0.375   6.460  0.5861 -0.1838  0.6972
    1OL     H5R 5429   4.669  -0.268   6.472  1.1255 -0.0200 -0.0311
    1OL     H5S 5430   4.585  -0.421   6.453  0.3124  0.5035  0.0443
    1OL     C16 5431   4.762  -0.413   6.332 -0.4844 -0.4978 -0.3184
    1OL     H6R 5432   4.791  -0.518   6.329  0.0297 -0.3406 -1.1460
    1OL     H6S 5433   4.845  -0.342   6.334  0.6354 -1.7581  2.0048
    1OL     C17 5434   4.679  -0.392   6.209  0.0988 -0.0723  0.6822
    1OL     H7R 5435   4.641  -0.290   6.213  0.9235  0.2065  1.7835
    1OL     H7S 5436   4.596  -0.459   6.236  3.1380 -2.4448  5.4472
    1OL     C18 5437   4.740  -0.427   6.072  0.4465  0.2968  0.1321
    1OL     H8R 5438   4.841  -0.391   6.091  1.9558 -3.5559  0.3407
    1OL     H8S 5439   4.683  -0.382   5.990  0.2120  0.1011  0.1863
    1OL     C19 5440   4.734  -0.576   6.051 -0.1537  0.0311 -0.3780
    1OL     H9R 5441   4.762  -0.631   6.141  0.9043 -2.3967 -2.0661
    1OL    C110 5442   4.707  -0.644   5.940  0.3038 -0.5017  0.0447
    1OL    H10R 5443   4.716  -0.752   5.932  0.6204 -0.3581 -3.0473
    1OL    C111 5444   4.667  -0.586   5.803  0.4117  0.2127 -0.5526
    1OL    H11R 5445   4.610  -0.496   5.822 -1.4303 -1.2243  1.1217
    1OL    H11S 5446   4.605  -0.656   5.746 -0.2886 -0.1869  0.6605
    1OL    C112 5447   4.791  -0.548   5.715 -0.1934 -0.5670 -0.4403
    1OL    H12R 5448   4.855  -0.636   5.728 -3.6291 -3.1140  0.9388
    1OL    H12S 5449   4.847  -0.460   5.747 -0.9172  0.0379 -0.7999
    1OL    C113 5450   4.739  -0.523   5.570  0.0532 -0.3901  0.9374
    1OL    H13R 5451   4.656  -0.453   5.558  2.1245  1.7737 -2.8164
    1OL    H13S 5452   4.698  -0.617   5.532 -1.2025  0.5662 -0.1817
    1OL    C114 5453   4.858  -0.481   5.474 -0.2981  0.3208  0.6817
    1OL    H14R 5454   4.925  -0.567   5.471 -2.5096 -1.5371  1.3781
    1OL    H14S 5455   4.907  -0.393   5.515  2.6802 -0.3063 -1.1964
    1OL    C115 5456   4.808  -0.456   5.338 -0.4198 -0.6599  0.0168
    1OL    H15R 5457   4.751  -0.362   5.334  1.3429  0.4985  0.7522
    1OL    H15S 5458   4.738  -0.534   5.307 -2.1218  0.7836  0.0361
    1OL    C116 5459   4.923  -0.448   5.231 -0.0543 -0.7658 -0.1263
    1OL    H16R 5460   4.978  -0.542   5.219 -2.1390 -1.8402 -2.3579
    1OL    H16S 5461   4.986  -0.361   5.248  0.1875 -0.9191 -0.2347
    1OL    C117 5462   4.851  -0.420   5.097  0.3929  0.0768 -0.6267
    1OL    H17R 5463   4.811  -0.319   5.090  0.4977  0.2686  1.0222
    1OL    H17S 5464   4.768  -0.489   5.082 -1.5199  2.3385 -1.0147
    1OL    C118 5465   4.956  -0.442   4.986  0.4223  1.1153 -0.2317
    1OL    H18R 5466   5.036  -0.368   4.993  1.3487  0.0734  0.5249
    1OL    H18S 5467   4.917  -0.436   4.884  2.1682  1.3890 -0.9250
    1OL    H18T 5468   4.989  -0.545   4.995 -0.4185  0.7895 -0.7844
    1PA    C116 5469   0.348   3.205   5.261  0.1768 -0.0828  0.4631
    1PA    H16R 5470   0.379   3.153   5.352  0.6855 -2.2283 -0.8794
    1PA    H16S 5471   0.440   3.228   5.207  0.5385 -0.8512  0.7452
    1PA    H16T 5472   0.296   3.134   5.197 -3.1956  1.1278  1.5916
    1PA    C115 5473   0.256   3.326   5.290 -0.0426  0.6655 -0.6544
    1PA    H15R 5474   0.234   3.398   5.211 -2.4962  2.1962  1.2674
    1PA    H15S 5475   0.159   3.283   5.318  0.8022  0.2021  1.7897
    1PA    C114 5476   0.309   3.411   5.410 -0.6233  0.6755  0.5411
    1PA    H14R 5477   0.314   3.348   5.500  1.3125  0.9231  0.6463
    1PA    H14S 5478   0.410   3.444   5.389 -1.5875  2.4633 -1.6333
    1PA    C113 5479   0.216   3.530   5.443  0.0953  0.5281  0.1021
    1PA    H13R 5480   0.261   3.589   5.523  0.9961  0.7088 -0.5291
    1PA    H13S 5481   0.196   3.592   5.356  1.8874 -0.0412 -0.7616
    1PA    C112 5482   0.082   3.492   5.503  0.1898  0.3598 -0.3822
    1PA    H12R 5483   0.002   3.477   5.430 -0.6813 -0.0046  0.6072
    1PA    H12S 5484   0.091   3.402   5.565 -2.2463 -0.9750 -1.7884
    1PA    C111 5485   0.036   3.603   5.605 -1.0360 -0.0845  0.1933
    1PA    H11R 5486   0.116   3.624   5.677 -0.5536  1.3117 -0.6995
    1PA    H11S 5487   0.030   3.692   5.541  0.6903 -0.1489 -0.1200
    1PA    C110 5488  -0.099   3.566   5.663  0.2796  0.0930 -0.8277
    1PA    H10R 5489  -0.171   3.548   5.584 -0.8603 -3.1814  0.7840
    1PA    H10S 5490  -0.082   3.472   5.716 -1.3428 -1.0863 -2.2941
    1PA     C19 5491  -0.150   3.672   5.750  0.1466 -0.2870 -0.3226
    1PA     H9R 5492  -0.193   3.760   5.702  1.1253  2.1884  2.9744
    1PA     H9S 5493  -0.235   3.617   5.791  0.9665 -0.2444  1.5695
    1PA     C18 5494  -0.075   3.710   5.875 -0.0215 -0.1235 -0.4428
    1PA     H8R 5495   0.027   3.736   5.847  0.8592 -0.1360  2.4539
    1PA     H8S 5496  -0.114   3.799   5.925  0.1314  0.9971 -2.2082
    1PA     C17 5497  -0.073   3.589   5.975  0.3424 -0.6200 -0.4356
    1PA     H7R 5498  -0.176   3.556   5.988  0.0201 -0.1504 -1.7078
    1PA     H7S 5499  -0.023   3.505   5.926 -0.6837  0.0199 -2.6930
    1PA     C16 5500  -0.008   3.620   6.112  0.3298  0.1380 -0.7722
    1PA     H6R 5501   0.095   3.656   6.101  0.4303  0.0446 -0.1188
    1PA     H6S 5502  -0.065   3.700   6.159  0.4313 -1.0271  1.4300
    1PA     C15 5503  -0.016   3.497   6.206  0.2082  0.1492 -0.3855
    1PA     H5R 5504  -0.120   3.464   6.210 -0.1515  1.3411  1.1411
    1PA     H5S 5505   0.042   3.418   6.159 -0.6865 -1.3183  0.8878
    1PA     C14 5506   0.027   3.528   6.358  0.1795  0.4569  0.8112
    1PA     H4R 5507  -0.014   3.625   6.385 -1.2278  0.2215 -0.3463
    1PA     H4S 5508  -0.024   3.457   6.424 -1.4045  1.6965  0.9678
    1PA     C13 5509   0.178   3.530   6.377 -0.4881 -0.6705  0.8487
    1PA     H3R 5510   0.227   3.434   6.361  0.4613  0.0106 -0.5625
    1PA     H3S 5511   0.222   3.575   6.288  2.8017 -2.5665  1.3266
    1PA     C12 5512   0.232   3.583   6.512 -0.2097 -0.1952 -0.0904
    1PA     H2R 5513   0.341   3.590   6.518 -0.0787 -0.6345 -1.6670
    1PA     H2S 5514   0.196   3.686   6.522  1.1186  0.2836  0.0796
    1PC     C11 5515   0.192   3.497   6.625  0.2685 -0.8393  0.1507
    1PC     O12 5516   0.105   3.524   6.706  0.5127 -0.1179  0.1685
    1PC     O11 5517   0.272   3.388   6.635 -0.4634 -0.2621  0.2807
    1PC      C1 5518   0.263   3.297   6.748 -0.6630 -0.2446 -0.3232
    1PC      HR 5519   0.276   3.349   6.844 -0.5256 -0.7759 -0.0535
    1PC      HS 5520   0.161   3.260   6.750 -1.0342  0.7242  1.3918
    1PC      C2 5521   0.359   3.172   6.729 -0.1255  0.1604 -0.6426
    1PC      HX 5522   0.318   3.091   6.791  1.1744  1.7406  2.5082
    1PC      C3 5523   0.504   3.209   6.771 -0.2040  1.1722 -0.2763
    1PC      HA 5524   0.582   3.144   6.730 -0.4741  0.3976  0.4071
    1PC      HB 5525   0.529   3.309   6.734 -0.1855  0.8285 -1.2182
    1PC     O31 5526   0.518   3.206   6.922 -0.0569  0.2305  0.2357
    1PC     P31 5527   0.575   3.087   7.004 -0.0501 -0.1266  0.1483
    1PC     O32 5528   0.447   3.031   7.079 -0.2882  0.5368 -0.1588
    1PC     C31 5529   0.366   3.117   7.163  0.3186 -0.0839 -0.2543
    1PC     H1A 5530   0.440   3.160   7.231  0.4457 -1.6733  0.6681
    1PC     H1B 5531   0.300   3.182   7.106 -0.9070 -2.6473 -1.9332
    1PC     C32 5532   0.275   3.014   7.232 -0.3934  0.1903  0.3186
    1PC     H2A 5533   0.202   3.073   7.288  0.5876  2.6525 -0.8464
    1PC     H2B 5534   0.227   2.959   7.150  1.7458 -0.9326 -0.2426
    1PC     N31 5535   0.339   2.907   7.324  0.3818  0.9077 -0.3094
    1PC     C33 5536   0.420   2.962   7.436  0.0635 -0.0693 -0.3030
    1PC     H3A 5537   0.358   3.036   7.488 -2.1976 -1.3885 -0.9931
    1PC     H3B 5538   0.457   2.885   7.503  3.8348  1.6356 -0.1754
    1PC     H3C 5539   0.507   3.016   7.399 -1.0521  2.8396  0.9816
    1PC     C34 5540   0.223   2.829   7.390  0.1214  0.4909 -0.2366
    1PC     H4A 5541   0.148   2.898   7.429 -0.6040 -0.1292 -0.5032
    1PC     H4B 5542   0.183   2.756   7.320  0.7967 -2.4204  2.1988
    1PC     H4C 5543   0.261   2.774   7.477 -0.7035 -0.5898 -0.5420
    1PC     C35 5544   0.419   2.810   7.251  0.6135 -0.4202  0.1429
    1PC     H5A 5545   0.502   2.866   7.207  0.1821  1.6337  1.8123
    1PC     H5B 5546   0.355   2.774   7.170 -0.6502  0.3547  0.7586
    1PC     H5C 5547   0.453   2.730   7.318  1.2502 -0.7571 -0.5670
    1PC     O33 5548   0.627   2.980   6.913 -0.1135  0.1078 -0.3440
    1PC     O34 5549   0.662   3.131   7.113  0.1473 -0.5050  0.6564
    1PC     O21 5550   0.357   3.123   6.592  0.6685 -0.0816 -0.0218
    1PC     C21 5551   0.249   3.051   6.546 -0.0720 -0.1941  0.4030
    1PC     O22 5552   0.153   3.031   6.614  0.5906  0.3035  0.1108
    1OL     C12 5553   0.254   3.022   6.395  0.1535 -0.1540 -0.0685
    1OL     H2R 5554   0.298   2.922   6.384  0.3247 -0.3881  2.2121
    1OL     H2S 5555   0.323   3.096   6.353 -1.3141  1.7523  0.7406
    1OL     C13 5556   0.122   3.022   6.310 -0.0741 -0.1931 -0.0793
    1OL     H3R 5557   0.062   2.944   6.356  3.6419 -3.7666 -0.7789
    1OL     H3S 5558   0.141   2.978   6.212 -0.6797  3.3838 -1.9774
    1OL     C14 5559   0.048   3.157   6.303 -0.2314 -0.9382 -0.2501
    1OL     H4R 5560   0.108   3.223   6.238  1.5617 -1.2899  0.9684
    1OL     H4S 5561   0.053   3.195   6.405 -0.6711 -2.0647  0.1975
    1OL     C15 5562  -0.099   3.142   6.254 -0.3795 -0.3116 -0.3016
    1OL     H5R 5563  -0.146   3.240   6.268  1.1807  0.4865 -0.4211
    1OL     H5S 5564  -0.155   3.074   6.319 -0.3943 -0.7193 -0.7369
    1OL     C16 5565  -0.099   3.087   6.112 -0.1955  0.2339  0.0081
    1OL     H6R 5566  -0.202   3.071   6.080 -0.4414  1.2307  0.2787
    1OL     H6S 5567  -0.053   2.988   6.107  0.5065  0.5436  0.1553
    1OL     C17 5568  -0.012   3.176   6.013 -0.1571 -0.7595  0.3693
    1OL     H7R 5569   0.091   3.188   6.049 -0.1508  0.1028  0.0764
    1OL     H7S 5570  -0.048   3.276   5.989  0.1243 -0.9105 -0.7232
    1OL     C18 5571  -0.017   3.109   5.877 -0.4592 -0.3403 -0.1694
    1OL     H8R 5572  -0.119   3.092   5.841 -0.9671  0.0680  1.0419
    1OL     H8S 5573   0.034   3.013   5.882 -1.8949 -1.0542  1.4282
    1OL     C19 5574   0.065   3.194   5.783 -0.4277 -0.1889  0.3761
    1OL     H9R 5575   0.005   3.263   5.723  1.3416 -1.0346 -2.5818
    1OL    C110 5576   0.199   3.188   5.761  0.5647  0.2136 -0.7063
    1OL    H10R 5577   0.243   3.248   5.682 -0.2723  1.5958 -0.1522
    1OL    C111 5578   0.294   3.104   5.842 -0.7541 -0.1592 -0.3845
    1OL    H11R 5579   0.242   3.047   5.920 -1.7590  1.3480  0.1050
    1OL    H11S 5580   0.360   3.171   5.897 -2.1695  0.1392  1.0364
    1OL    C112 5581   0.388   3.006   5.762  0.0578 -0.2927 -0.1494
    1OL    H12R 5582   0.325   2.936   5.707  0.1068 -2.0162  1.8857
    1OL    H12S 5583   0.450   2.959   5.839  0.8366  2.4180  0.9919
    1OL    C113 5584   0.492   3.079   5.674 -0.4250  0.8034 -0.2213
    1OL    H13R 5585   0.432   3.142   5.608 -0.1861  1.7075  0.4077
    1OL    H13S 5586   0.558   3.016   5.614  1.3437  1.5744  0.8177
    1OL    C114 5587   0.583   3.179   5.747  0.2478 -0.0992  0.6940
    1OL    H14R 5588   0.658   3.111   5.789  0.0632 -0.1054  1.0228
    1OL    H14S 5589   0.539   3.222   5.837  2.2319 -0.0919  1.7142
    1OL    C115 5590   0.647   3.292   5.671 -0.3618 -0.7019  0.3189
    1OL    H15R 5591   0.722   3.343   5.732  0.7965 -0.7901 -0.9744
    1OL    H15S 5592   0.568   3.361   5.644 -2.3475 -2.9087  0.2074
    1OL    C116 5593   0.724   3.233   5.557 -0.1989  0.3300  0.3860
    1OL    H16R 5594   0.660   3.172   5.494  0.7175  1.6865 -1.9793
    1OL    H16S 5595   0.796   3.158   5.592  0.8373  0.5281 -1.2275
    1OL    C117 5596   0.804   3.329   5.468 -0.6263 -0.5172  0.5380
    1OL    H17R 5597   0.892   3.364   5.523 -1.4737  0.5906  1.2174
    1OL    H17S 5598   0.740   3.416   5.455 -0.9560 -0.7057  0.8808
    1OL    C118 5599   0.857   3.261   5.333 -0.1454  0.4577  0.4141
    1OL    H18R 5600   0.952   3.208   5.343  0.2466  1.1668  0.5116
    1OL    H18S 5601   0.787   3.189   5.290  2.4612 -0.4639 -2.6778
    1OL    H18T 5602   0.866   3.334   5.252 -2.9801  1.1472  0.5929
    1PA    C116 5603   0.872   4.499   5.037  0.7273 -0.2589 -0.0946
    1PA    H16R 5604   0.789   4.428   5.039  0.2068  0.2820 -1.3261
    1PA    H16S 5605   0.962   4.437   5.033  0.5644 -0.7030  1.9816
    1PA    H16T 5606   0.859   4.557   4.946 -2.3999 -0.8002 -0.0992
    1PA    C115 5607   0.867   4.607   5.148  0.4600  0.1210 -0.4507
    1PA    H15R 5608   0.776   4.667   5.140  0.9238  0.8901 -0.0937
    1PA    H15S 5609   0.853   4.550   5.240 -1.6433  0.2139 -0.6589
    1PA    C114 5610   0.986   4.700   5.155 -0.4428 -0.0066  0.0717
    1PA    H14R 5611   1.081   4.654   5.181  0.7528  2.0877 -0.3237
    1PA    H14S 5612   0.999   4.749   5.058  1.8698 -1.3821 -0.3723
    1PA    C113 5613   0.963   4.806   5.264 -0.2660  1.3860  0.3535
    1PA    H13R 5614   0.875   4.869   5.252 -1.1291  0.4129  1.3698
    1PA    H13S 5615   0.942   4.752   5.356 -1.0275  0.9732 -0.0556
    1PA    C112 5616   1.089   4.891   5.288 -0.6857  0.1093  0.4586
    1PA    H12R 5617   1.182   4.834   5.279  1.1979  2.3952  3.3564
    1PA    H12S 5618   1.091   4.966   5.209 -2.5327 -0.0956  0.1918
    1PA    C111 5619   1.092   4.970   5.427 -0.0224 -0.2237  0.2459
    1PA    H11R 5620   1.167   5.048   5.412 -0.3908  0.4192  1.5469
    1PA    H11S 5621   0.997   5.020   5.452 -0.1123 -0.9339  1.4073
    1PA    C110 5622   1.126   4.894   5.556  0.1724 -0.1355 -0.5335
    1PA    H10R 5623   1.044   4.828   5.583  0.6702  0.0784  1.6467
    1PA    H10S 5624   1.206   4.821   5.539 -0.7492 -1.4741  0.7157
    1PA     C19 5625   1.169   4.990   5.680 -0.2757  0.8824 -0.6085
    1PA     H9R 5626   1.243   5.064   5.650 -2.6748  3.3653 -0.8664
    1PA     H9S 5627   1.087   5.054   5.713 -0.6602  0.0433  0.0845
    1PA     C18 5628   1.206   4.909   5.810 -0.4047 -0.0443  0.2850
    1PA     H8R 5629   1.122   4.849   5.844 -0.6858 -0.0633 -0.4353
    1PA     H8S 5630   1.294   4.850   5.782  0.2418  0.6229  0.8766
    1PA     C17 5631   1.254   5.001   5.924 -0.4905  0.0700 -0.2121
    1PA     H7R 5632   1.344   5.050   5.887  0.5957 -1.2570  0.6023
    1PA     H7S 5633   1.178   5.076   5.949 -1.2020 -0.7401  0.1090
    1PA     C16 5634   1.292   4.907   6.041 -0.0552 -0.5354  0.2603
    1PA     H6R 5635   1.206   4.844   6.061 -2.3313  1.3944 -2.5499
    1PA     H6S 5636   1.371   4.841   6.006 -0.4427 -2.2327  2.3867
    1PA     C15 5637   1.334   4.983   6.166 -0.4573 -0.3719  0.6194
    1PA     H5R 5638   1.421   5.043   6.140 -1.5461  0.7176 -0.6335
    1PA     H5S 5639   1.245   5.037   6.199  0.9464  1.1876  2.0808
    1PA     C14 5640   1.364   4.893   6.276 -0.4333  0.0069  0.2877
    1PA     H4R 5641   1.345   4.956   6.364 -1.8883 -1.6461  1.2182
    1PA     H4S 5642   1.282   4.821   6.270 -0.0137 -0.4590  0.1151
    1PA     C13 5643   1.508   4.840   6.265 -0.5547 -0.0657 -1.2130
    1PA     H3R 5644   1.512   4.757   6.193 -0.3010 -0.0470 -1.2205
    1PA     H3S 5645   1.566   4.919   6.218 -2.0564  1.3098 -0.8212
    1PA     C12 5646   1.578   4.807   6.404 -0.0117  0.6617 -0.8723
    1PA     H2R 5647   1.505   4.757   6.468  0.5294  0.8788 -0.0623
    1PA     H2S 5648   1.660   4.739   6.382 -1.4822 -1.1995 -0.7907
    1PC     C11 5649   1.642   4.924   6.474  0.0919  0.6011  0.0098
    1PC     O12 5650   1.703   5.009   6.414  0.3682 -0.0628 -0.1201
    1PC     O11 5651   1.620   4.912   6.602 -0.1575 -0.2624 -0.0395
    1PC      C1 5652   1.635   5.026   6.689 -1.3149  1.1169 -0.1362
    1PC      HR 5653   1.701   4.995   6.771 -0.2455  0.5486 -1.1783
    1PC      HS 5654   1.685   5.109   6.638  1.2704  0.4050  1.0284
    1PC      C2 5655   1.494   5.065   6.735  0.4634  0.7476  1.1065
    1PC      HX 5656   1.526   5.152   6.793  3.2020 -0.5377  1.6985
    1PC      C3 5657   1.416   4.945   6.804 -0.3648 -0.2922 -0.8570
    1PC      HA 5658   1.370   4.889   6.722  0.8083 -2.3523 -0.2060
    1PC      HB 5659   1.485   4.883   6.861  0.4707  1.4488  0.0943
    1PC     O31 5660   1.317   4.996   6.892  0.5130 -0.4262  0.1398
    1PC     P31 5661   1.355   5.030   7.040  0.2794 -0.0111  0.2022
    1PC     O32 5662   1.374   4.887   7.112  0.3177  0.4163 -0.6362
    1PC     C31 5663   1.261   4.804   7.163  0.7096  0.1735  0.6201
    1PC     H1A 5664   1.175   4.819   7.098  0.7270 -0.8025  0.3515
    1PC     H1B 5665   1.293   4.699   7.160 -0.0992 -0.0677 -0.0060
    1PC     C32 5666   1.229   4.844   7.313  0.3501 -0.4278  0.4197
    1PC     H2A 5667   1.209   4.951   7.305  2.0218 -0.1325 -0.3869
    1PC     H2B 5668   1.141   4.787   7.342  0.6575 -0.5136  1.2281
    1PC     N31 5669   1.327   4.840   7.422  0.4388 -0.0719  0.1889
    1PC     C33 5670   1.388   4.703   7.426 -0.1378 -0.0243 -0.3217
    1PC     H3A 5671   1.435   4.675   7.332  1.7501  1.0557  0.2507
    1PC     H3B 5672   1.458   4.700   7.509  0.5757 -1.1543 -0.9479
    1PC     H3C 5673   1.302   4.644   7.457 -0.0225  0.0167  0.0851
    1PC     C34 5674   1.424   4.947   7.411 -0.6730  0.4218 -0.0490
    1PC     H4A 5675   1.498   4.923   7.334  1.7283  2.7620  1.3589
    1PC     H4B 5676   1.372   5.041   7.393  0.1053  0.4982 -2.2414
    1PC     H4C 5677   1.475   4.959   7.507 -2.4938  0.6488  0.9311
    1PC     C35 5678   1.247   4.855   7.545  0.5129 -0.3987 -0.1268
    1PC     H5A 5679   1.309   4.836   7.633  1.2986 -0.5312 -0.7000
    1PC     H5B 5680   1.160   4.789   7.540 -0.0409  0.3899 -1.4951
    1PC     H5C 5681   1.215   4.959   7.551  0.8116 -0.2134 -1.4824
    1PC     O33 5682   1.479   5.110   7.045  0.1349 -0.2125  0.7872
    1PC     O34 5683   1.230   5.082   7.097  0.7202 -0.3792 -0.0961
    1PC     O21 5684   1.426   5.099   6.606 -0.0484 -0.4421  0.6050
    1PC     C21 5685   1.345   5.197   6.612 -0.5324 -0.7478 -0.2670
    1PC     O22 5686   1.309   5.241   6.720  0.0561  0.0105  0.4148
    1OL     C12 5687   1.291   5.253   6.481 -0.0164 -0.7466 -0.2096
    1OL     H2R 5688   1.181   5.256   6.483  0.0019 -0.2393  0.3515
    1OL     H2S 5689   1.322   5.185   6.402  1.8419 -0.5411  0.2963
    1OL     C13 5690   1.344   5.399   6.461 -0.0579 -0.2858  0.5800
    1OL     H3R 5691   1.448   5.396   6.426 -0.4808  2.2573 -1.1018
    1OL     H3S 5692   1.356   5.433   6.564 -2.5835  1.4135  0.3873
    1OL     C14 5693   1.261   5.498   6.379 -0.2143  0.4039 -0.3790
    1OL     H4R 5694   1.305   5.597   6.370  1.6624 -0.5054 -2.1312
    1OL     H4S 5695   1.157   5.496   6.414 -0.4894 -0.6527 -1.1805
    1OL     C15 5696   1.265   5.446   6.230  0.2220 -0.8078 -0.4561
    1OL     H5R 5697   1.174   5.496   6.199  2.0855  3.2649  0.0763
    1OL     H5S 5698   1.261   5.337   6.223  0.9161 -0.8439 -0.4063
    1OL     C16 5699   1.383   5.481   6.138  0.3037 -0.0465 -0.7564
    1OL     H6R 5700   1.475   5.441   6.183 -0.2938  0.3796  0.9231
    1OL     H6S 5701   1.400   5.589   6.149  1.8354 -0.1517 -1.8264
    1OL     C17 5702   1.379   5.435   5.995 -0.6112 -0.4363 -0.7799
    1OL     H7R 5703   1.365   5.329   6.017 -1.6444 -0.2250 -0.3548
    1OL     H7S 5704   1.469   5.444   5.934 -0.2426 -0.6114 -0.2726
    1OL     C18 5705   1.260   5.479   5.912  0.4458  0.1515  0.9103
    1OL     H8R 5706   1.276   5.583   5.882 -0.2868 -0.3974 -1.5777
    1OL     H8S 5707   1.161   5.479   5.958 -0.4900  0.4174 -1.0277
    1OL     C19 5708   1.254   5.406   5.779  0.5050 -0.7961  0.1421
    1OL     H9R 5709   1.177   5.329   5.774  0.3709 -0.5844 -1.9360
    1OL    C110 5710   1.323   5.424   5.667 -0.3673 -0.2391  0.2469
    1OL    H10R 5711   1.296   5.365   5.580 -2.5515  0.2484  0.5376
    1OL    C111 5712   1.442   5.520   5.653  0.0206  0.7341 -0.5384
    1OL    H11R 5713   1.534   5.466   5.674  0.6081  2.4094  1.5216
    1OL    H11S 5714   1.441   5.597   5.730 -1.3941 -0.8534  1.0887
    1OL    C112 5715   1.471   5.581   5.514 -0.1590  0.8382 -0.2980
    1OL    H12R 5716   1.576   5.611   5.509 -0.4678  2.1820  0.6597
    1OL    H12S 5717   1.410   5.672   5.509 -0.1901  0.8444  0.1196
    1OL    C113 5718   1.439   5.483   5.400 -0.1358 -0.2232 -1.1497
    1OL    H13R 5719   1.331   5.476   5.388 -0.5795  1.9969  0.7824
    1OL    H13S 5720   1.464   5.386   5.444 -2.8075 -1.0401 -1.2674
    1OL    C114 5721   1.520   5.501   5.270  0.2384  0.0965 -0.3968
    1OL    H14R 5722   1.627   5.492   5.289  0.2437  0.7550 -0.0797
    1OL    H14S 5723   1.510   5.602   5.229 -0.1202  0.6056  0.8687
    1OL    C115 5724   1.488   5.401   5.162  0.1981 -0.5097 -0.0025
    1OL    H15R 5725   1.383   5.407   5.132 -0.2637 -4.2384  0.3996
    1OL    H15S 5726   1.487   5.307   5.218 -1.6062  0.6158  1.9953
    1OL    C116 5727   1.583   5.384   5.039 -0.3227 -0.7586 -0.8112
    1OL    H16R 5728   1.679   5.340   5.068 -0.4674 -0.9926 -0.6765
    1OL    H16S 5729   1.603   5.480   4.992  0.9507 -0.4706  0.2748
    1OL    C117 5730   1.520   5.289   4.943 -0.3390  1.1158  1.1040
    1OL    H17R 5731   1.423   5.332   4.914  0.1425 -0.1711 -2.9628
    1OL    H17S 5732   1.496   5.193   4.989  0.4044  0.2438 -0.2450
    1OL    C118 5733   1.608   5.265   4.817 -0.5371  0.0414  0.5077
    1OL    H18R 5734   1.637   5.362   4.777 -0.2233  1.0950  3.1428
    1OL    H18S 5735   1.546   5.207   4.748  0.5483 -0.4772 -0.0640
    1OL    H18T 5736   1.689   5.193   4.830 -1.5650 -1.8099 -2.2970
    1PA    C116 5737   0.121   0.415   4.966 -0.0701  0.4037 -0.0040
    1PA    H16R 5738   0.194   0.356   4.911 -1.8274 -0.5769 -1.3757
    1PA    H16S 5739   0.172   0.511   4.982  1.4967 -0.7016  2.1985
    1PA    H16T 5740   0.035   0.408   4.899  1.6037  1.7781 -2.4759
    1PA    C115 5741   0.082   0.343   5.094  0.5699  0.0834 -0.5560
    1PA    H15R 5742  -0.013   0.379   5.134  1.0781 -1.3725  2.2542
    1PA    H15S 5743   0.070   0.236   5.076 -0.3377 -0.2539  1.6411
    1PA    C114 5744   0.189   0.353   5.206 -0.0956 -0.0818  0.3399
    1PA    H14R 5745   0.286   0.309   5.181  0.7556  1.0002  1.5447
    1PA    H14S 5746   0.199   0.460   5.227 -1.6731  0.3437 -0.9319
    1PA    C113 5747   0.141   0.273   5.328  0.3732  0.4439  0.2008
    1PA    H13R 5748   0.051   0.329   5.356 -0.0755  0.8995 -1.9796
    1PA    H13S 5749   0.106   0.171   5.310  1.5118  0.2880 -1.3412
    1PA    C112 5750   0.233   0.276   5.453 -0.2548 -0.1687  0.2030
    1PA    H12R 5751   0.327   0.235   5.414 -1.4164 -2.2548 -0.5661
    1PA    H12S 5752   0.236   0.374   5.501 -3.3226 -0.3241  0.8985
    1PA    C111 5753   0.182   0.186   5.568 -0.1492  0.3855  0.0049
    1PA    H11R 5754   0.083   0.219   5.598 -0.8924  0.4710 -2.3500
    1PA    H11S 5755   0.177   0.085   5.528  0.9026  0.2634  0.1425
    1PA    C110 5756   0.279   0.186   5.689  0.4370 -0.3091 -0.8523
    1PA    H10R 5757   0.372   0.134   5.663  1.2179 -0.6627  2.2531
    1PA    H10S 5758   0.299   0.291   5.711  1.1547 -0.1260 -2.2430
    1PA     C19 5759   0.227   0.106   5.808  0.1088  0.2491  0.2730
    1PA     H9R 5760   0.303   0.092   5.886  1.3056 -1.3317 -1.1277
    1PA     H9S 5761   0.141   0.162   5.846 -1.1144 -0.4499 -1.3622
    1PA     C18 5762   0.159  -0.029   5.772  0.1738  0.3371 -0.5363
    1PA     H8R 5763   0.064  -0.022   5.719 -0.5023  1.6697  0.7749
    1PA     H8S 5764   0.222  -0.076   5.695  1.5242  0.7608  0.2685
    1PA     C17 5765   0.141  -0.113   5.894 -0.6254  0.0758  0.4227
    1PA     H7R 5766   0.089  -0.057   5.973 -0.1037  1.5575 -0.2505
    1PA     H7S 5767   0.076  -0.193   5.856 -0.2230  0.6561 -1.5933
    1PA     C16 5768   0.273  -0.172   5.950 -0.6063  0.9650  0.6738
    1PA     H6R 5769   0.343  -0.091   5.972  0.4469  0.9828 -2.3161
    1PA     H6S 5770   0.248  -0.223   6.044  0.5130  0.0482  0.4937
    1PA     C15 5771   0.344  -0.276   5.855 -0.2327 -0.1420 -0.3290
    1PA     H5R 5772   0.281  -0.363   5.833 -1.4980  0.7069 -0.1623
    1PA     H5S 5773   0.365  -0.228   5.760 -1.9626  1.3491 -0.0020
    1PA     C14 5774   0.477  -0.320   5.914  0.0607  0.1081 -0.5001
    1PA     H4R 5775   0.540  -0.367   5.839  2.0380  1.3458  0.3054
    1PA     H4S 5776   0.539  -0.231   5.930  3.2771 -1.8522 -1.2070
    1PA     C13 5777   0.479  -0.408   6.037 -0.9702 -0.0667 -0.0837
    1PA     H3R 5778   0.447  -0.350   6.124  1.7629 -1.1181  1.7527
    1PA     H3S 5779   0.421  -0.500   6.027  1.6137 -1.6222 -1.5906
    1PA     C12 5780   0.627  -0.454   6.064 -0.8369  0.3808  0.5396
    1PA     H2R 5781   0.653  -0.515   5.976  1.4307  3.1390 -0.8616
    1PA     H2S 5782   0.687  -0.364   6.069 -1.7635  1.0283  0.3267
    1PC     C11 5783   0.643  -0.534   6.188 -0.3669  0.1784 -0.2487
    1PC     O12 5784   0.715  -0.499   6.280  0.4078  0.3455 -0.7503
    1PC     O11 5785   0.585  -0.657   6.186 -0.1665  0.4984 -0.2535
    1PC      C1 5786   0.623  -0.751   6.293 -0.4656  0.0052  0.9551
    1PC      HR 5787   0.611  -0.851   6.250  3.3261 -0.0556 -0.3279
    1PC      HS 5788   0.732  -0.742   6.300 -0.6486  1.8760  1.8099
    1PC      C2 5789   0.557  -0.740   6.431  0.8053 -0.0782  0.1103
    1PC      HX 5790   0.572  -0.638   6.467  4.4628 -1.0824  1.8777
    1PC      C3 5791   0.599  -0.849   6.532 -0.3005 -0.1543  0.0633
    1PC      HA 5792   0.557  -0.816   6.628 -1.5771  1.2126 -0.9180
    1PC      HB 5793   0.565  -0.948   6.502  3.7826 -1.0344 -2.4308
    1PC     O31 5794   0.748  -0.857   6.552  0.1227  0.0268  0.7878
    1PC     P31 5795   0.831  -0.791   6.670  0.2703  0.0073 -0.1708
    1PC     O32 5796   0.871  -0.644   6.609  0.0468  0.0330 -0.1301
    1PC     C31 5797   0.795  -0.527   6.632  0.7111 -0.1962  0.4076
    1PC     H1A 5798   0.816  -0.460   6.548  0.4136 -1.1057 -0.4088
    1PC     H1B 5799   0.690  -0.556   6.644  1.1122 -1.3557  1.2039
    1PC     C32 5800   0.836  -0.474   6.766 -0.0481 -0.5844 -0.0321
    1PC     H2A 5801   0.777  -0.382   6.771  1.2172  0.1959  1.2482
    1PC     H2B 5802   0.793  -0.525   6.852  0.0136  0.9049  0.9256
    1PC     N31 5803   0.978  -0.433   6.794 -0.2506 -0.6001  0.0318
    1PC     C33 5804   1.020  -0.335   6.689 -0.0445 -0.6294 -0.2672
    1PC     H3A 5805   1.121  -0.299   6.712  0.7346 -1.6452 -1.9488
    1PC     H3B 5806   1.021  -0.386   6.593  1.0092  0.6139 -0.9420
    1PC     H3C 5807   0.942  -0.258   6.682  1.4012  0.8366 -0.9830
    1PC     C34 5808   0.984  -0.354   6.923 -0.1799 -0.4504 -0.1291
    1PC     H4A 5809   0.904  -0.280   6.922  1.4953  1.4984  1.3338
    1PC     H4B 5810   0.965  -0.418   7.010 -0.1698  1.4102  1.3032
    1PC     H4C 5811   1.078  -0.299   6.925 -0.4328  0.0217 -0.8125
    1PC     C35 5812   1.073  -0.541   6.818 -0.3056  0.7651  0.2221
    1PC     H5A 5813   1.071  -0.611   6.734  1.6337 -0.0352  0.7872
    1PC     H5B 5814   1.041  -0.609   6.897 -0.3635 -1.2300 -1.4478
    1PC     H5C 5815   1.173  -0.499   6.833  1.3366 -2.8149  0.3166
    1PC     O33 5816   0.747  -0.758   6.786  0.1456  0.3272  0.8818
    1PC     O34 5817   0.952  -0.875   6.690 -0.1629  0.2299 -0.3461
    1PC     O21 5818   0.415  -0.767   6.398  0.4496  0.4020  0.6711
    1PC     C21 5819   0.334  -0.663   6.374 -0.9763 -0.0815  0.8243
    1PC     O22 5820   0.385  -0.550   6.372 -0.2042  0.4148  0.0614
    1OL     C12 5821   0.188  -0.688   6.331  0.2600  0.3273 -0.7725
    1OL     H2R 5822   0.124  -0.614   6.380 -0.2580  0.8625 -2.2213
    1OL     H2S 5823   0.148  -0.786   6.357 -0.0079  1.1867  2.4649
    1OL     C13 5824   0.172  -0.665   6.180 -0.9030 -1.0205  0.0065
    1OL     H3R 5825   0.221  -0.576   6.140  0.9225 -1.3662  1.3640
    1OL     H3S 5826   0.068  -0.649   6.151 -0.4207  0.3463 -1.0785
    1OL     C14 5827   0.235  -0.778   6.101  0.3054 -0.3629  0.4432
    1OL     H4R 5828   0.189  -0.872   6.130  1.3810 -0.4824  1.8483
    1OL     H4S 5829   0.343  -0.792   6.111  0.1980 -0.1528  2.0231
    1OL     C15 5830   0.204  -0.761   5.953 -0.0826 -0.4873 -0.0380
    1OL     H5R 5831   0.255  -0.671   5.918 -3.0928  2.0436  1.5535
    1OL     H5S 5832   0.097  -0.743   5.934  0.0311  0.2410  0.0008
    1OL     C16 5833   0.250  -0.883   5.871  0.0708  0.6436  0.1036
    1OL     H6R 5834   0.196  -0.880   5.777 -0.0011  2.5280  0.1529
    1OL     H6S 5835   0.240  -0.975   5.929  1.8001  0.8993  0.8753
    1OL     C17 5836   0.398  -0.873   5.833 -1.0750  0.0947  0.1877
    1OL     H7R 5837   0.465  -0.854   5.917  0.0614  1.4842 -0.9772
    1OL     H7S 5838   0.407  -0.790   5.763  2.0250 -0.2828 -0.0151
    1OL     C18 5839   0.435  -1.002   5.760 -0.0309 -0.2119  0.6097
    1OL     H8R 5840   0.370  -1.030   5.676  1.4023 -2.4358  0.1522
    1OL     H8S 5841   0.417  -1.088   5.824 -0.2701 -1.3891 -0.9762
    1OL     C19 5842   0.578  -0.994   5.709  0.3404 -0.6906 -0.5117
    1OL     H9R 5843   0.655  -0.974   5.782  1.8181  0.1626 -2.2343
    1OL    C110 5844   0.626  -1.018   5.582 -0.0490 -0.2640 -0.0969
    1OL    H10R 5845   0.732  -1.012   5.560 -0.3802  0.0510 -1.6729
    1OL    C111 5846   0.553  -1.048   5.449  0.2861 -0.7950 -0.2256
    1OL    H11R 5847   0.444  -1.046   5.451  0.2593 -1.8865 -0.0389
    1OL    H11S 5848   0.588  -1.149   5.425  2.2910 -0.3836  0.7272
    1OL    C112 5849   0.604  -0.949   5.347  0.8804 -0.1502  0.0647
    1OL    H12R 5850   0.710  -0.957   5.321  1.2557  1.3084  0.9761
    1OL    H12S 5851   0.592  -0.850   5.391 -3.1996 -0.4143 -0.1323
    1OL    C113 5852   0.525  -0.945   5.218 -0.5202 -0.2224 -0.9505
    1OL    H13R 5853   0.541  -0.855   5.158  0.8826  0.3076  0.1397
    1OL    H13S 5854   0.420  -0.939   5.248 -0.6135 -1.4972 -0.9813
    1OL    C114 5855   0.544  -1.076   5.134  0.3874 -0.6360  0.4743
    1OL    H14R 5856   0.526  -1.171   5.184 -3.3560 -0.9192 -1.1235
    1OL    H14S 5857   0.646  -1.088   5.097  0.0746 -1.0036 -0.2865
    1OL    C115 5858   0.460  -1.069   5.005 -0.0448  0.5482 -0.1761
    1OL    H15R 5859   0.516  -1.063   4.911  0.6441 -1.8369  0.0138
    1OL    H15S 5860   0.392  -0.984   5.002 -0.1293  0.4676 -1.0348
    1OL    C116 5861   0.372  -1.187   4.985 -0.4194  0.5677  0.1885
    1OL    H16R 5862   0.302  -1.197   5.069 -1.4370  2.6464 -0.3404
    1OL    H16S 5863   0.430  -1.279   4.985  0.2469  0.9748 -0.9372
    1OL    C117 5864   0.291  -1.168   4.852 -0.4650 -0.5826 -0.0942
    1OL    H17R 5865   0.352  -1.147   4.764  0.3754 -0.0755  0.5889
    1OL    H17S 5866   0.228  -1.080   4.869  0.8747  0.2972  0.4984
    1OL    C118 5867   0.193  -1.287   4.837  0.2039  0.1758  0.6619
    1OL    H18R 5868   0.248  -1.380   4.822  0.3757  0.7070 -2.7563
    1OL    H18S 5869   0.151  -1.274   4.737 -1.7036 -0.7668  1.2796
    1OL    H18T 5870   0.113  -1.290   4.911  0.1562  2.7222  0.8109
    1PA    C116 5871   0.343   1.311   5.327  0.2897  0.4924  0.3870
    1PA    H16R 5872   0.375   1.340   5.427  0.3926  0.5302  0.3431
    1PA    H16S 5873   0.435   1.282   5.274  0.2699  0.0178  0.6066
    1PA    H16T 5874   0.277   1.224   5.325 -0.2741  0.9009  1.0107
    1PA    C115 5875   0.282   1.433   5.245 -0.2135 -0.1584  0.2596
    1PA    H15R 5876   0.315   1.424   5.141 -1.1318  1.0459 -0.1676
    1PA    H15S 5877   0.174   1.436   5.263 -0.2219 -1.6478  0.6177
    1PA    C114 5878   0.329   1.573   5.287 -0.0718 -0.6237  0.3596
    1PA    H14R 5879   0.435   1.582   5.262 -0.1217 -0.4239  0.2135
    1PA    H14S 5880   0.289   1.648   5.219  1.8511 -1.2499 -1.5628
    1PA    C113 5881   0.303   1.619   5.429 -0.5027 -0.1278 -0.0562
    1PA    H13R 5882   0.382   1.586   5.497 -0.9420 -1.1423 -0.0213
    1PA    H13S 5883   0.314   1.727   5.446 -0.9816 -0.1933  0.7368
    1PA    C112 5884   0.166   1.581   5.478  0.8882  0.2742  0.2021
    1PA    H12R 5885   0.093   1.623   5.408 -0.8437 -3.7091 -0.6554
    1PA    H12S 5886   0.147   1.473   5.478  0.2415  0.3350  2.8558
    1PA    C111 5887   0.124   1.622   5.619 -0.0991  0.5213 -0.8929
    1PA    H11R 5888   0.104   1.729   5.611  0.7980  0.6239 -1.9983
    1PA    H11S 5889   0.036   1.561   5.641 -0.4253  0.4872 -2.2179
    1PA    C110 5890   0.221   1.580   5.731 -0.6007  0.6187 -0.0052
    1PA    H10R 5891   0.317   1.625   5.705 -0.2650  1.0388  1.8575
    1PA    H10S 5892   0.198   1.629   5.825 -0.4528 -0.9119  0.8707
    1PA     C19 5893   0.233   1.426   5.763 -0.0150 -0.1878  0.1589
    1PA     H9R 5894   0.138   1.381   5.794 -0.5829  1.7953  1.4698
    1PA     H9S 5895   0.267   1.377   5.671 -0.3752  1.1604 -0.7153
    1PA     C18 5896   0.336   1.391   5.874  1.2832 -0.4987 -0.0893
    1PA     H8R 5897   0.407   1.320   5.830  1.1257 -1.2946  0.9103
    1PA     H8S 5898   0.394   1.476   5.908 -0.7382  1.4449 -1.2711
    1PA     C17 5899   0.255   1.345   6.003  0.2959 -0.1907  0.1609
    1PA     H7R 5900   0.189   1.422   6.044 -3.2395 -2.5481 -0.6197
    1PA     H7S 5901   0.186   1.263   5.984  1.1588 -0.9353  0.1596
    1PA     C16 5902   0.357   1.290   6.106 -0.5491 -0.1222 -0.4497
    1PA     H6R 5903   0.412   1.214   6.050 -0.0803  1.7800 -2.7282
    1PA     H6S 5904   0.430   1.370   6.117 -1.6854  0.7063  1.4077
    1PA     C15 5905   0.303   1.247   6.242 -0.2072 -0.2762  0.1044
    1PA     H5R 5906   0.270   1.333   6.300 -2.5057  1.2123 -3.1039
    1PA     H5S 5907   0.205   1.200   6.233  0.7081 -2.2148 -0.2652
    1PA     C14 5908   0.400   1.160   6.322  0.1879  0.4425 -0.0944
    1PA     H4R 5909   0.427   1.074   6.260 -1.0794  0.6195 -0.9343
    1PA     H4S 5910   0.485   1.223   6.349  0.7958 -1.0246  1.5923
    1PA     C13 5911   0.334   1.120   6.453 -0.3435 -0.2633 -1.2657
    1PA     H3R 5912   0.305   1.208   6.510 -0.1597 -0.7971 -0.3206
    1PA     H3S 5913   0.238   1.075   6.424  0.0127 -2.4383  0.5610
    1PA     C12 5914   0.423   1.020   6.536 -0.0970 -0.5468  0.3740
    1PA     H2R 5915   0.438   0.941   6.462  0.5336  0.9422 -1.1318
    1PA     H2S 5916   0.523   1.061   6.546 -0.0260 -0.5100 -0.4492
    1PC     C11 5917   0.364   0.988   6.674  0.0192  1.3121  0.5721
    1PC     O12 5918   0.309   1.072   6.740 -0.2003  0.6594  0.2508
    1PC     O11 5919   0.359   0.854   6.711  0.0706 -0.4768  0.7545
    1PC      C1 5920   0.312   0.816   6.842 -0.0781  0.2666  0.3318
    1PC      HR 5921   0.373   0.878   6.908  0.5600 -0.1268  0.1223
    1PC      HS 5922   0.206   0.843   6.852 -1.3505 -3.3475 -1.5384
    1PC      C2 5923   0.337   0.666   6.872  0.7137 -0.1194  0.0412
    1PC      HX 5924   0.274   0.632   6.956 -0.4132  1.7589  0.0072
    1PC      C3 5925   0.489   0.629   6.883  0.2194  0.5831 -0.0559
    1PC      HA 5926   0.501   0.525   6.915  0.8328  0.9590  0.9820
    1PC      HB 5927   0.530   0.643   6.783  0.8588  1.7854  0.3606
    1PC     O31 5928   0.557   0.726   6.973  0.3889 -0.1306  0.3084
    1PC     P31 5929   0.538   0.731   7.126  0.1213  0.2317 -0.2209
    1PC     O32 5930   0.662   0.659   7.185  0.1085  0.5637 -0.3461
    1PC     C31 5931   0.677   0.519   7.211  0.1500  0.3782  0.2491
    1PC     H1A 5932   0.583   0.471   7.182 -0.0942 -0.6200  2.4544
    1PC     H1B 5933   0.752   0.479   7.142 -1.5198 -0.3180 -1.2394
    1PC     C32 5934   0.705   0.492   7.357  0.1740 -0.2645  0.3544
    1PC     H2A 5935   0.695   0.384   7.369 -0.3202 -0.0753  1.8838
    1PC     H2B 5936   0.808   0.519   7.382 -0.8225  1.3038  3.2911
    1PC     N31 5937   0.621   0.556   7.458 -0.3340  0.6217  0.2930
    1PC     C33 5938   0.675   0.497   7.586 -0.5308 -0.1814 -0.1917
    1PC     H3A 5939   0.596   0.512   7.660  0.0279  0.3909  0.2965
    1PC     H3B 5940   0.684   0.389   7.574 -0.3067  0.0587 -2.6798
    1PC     H3C 5941   0.774   0.540   7.598 -1.1907  1.7347 -1.2142
    1PC     C34 5942   0.647   0.700   7.479 -0.4519 -0.4301 -0.7874
    1PC     H4A 5943   0.750   0.727   7.500 -1.4013  1.1213  2.5560
    1PC     H4B 5944   0.622   0.753   7.387  2.6367  0.8252 -1.0128
    1PC     H4C 5945   0.594   0.740   7.565 -0.9807 -0.3876 -1.1275
    1PC     C35 5946   0.470   0.521   7.432  0.3655 -0.1440  0.1571
    1PC     H5A 5947   0.450   0.557   7.331  1.6373 -0.0742 -0.0919
    1PC     H5B 5948   0.414   0.580   7.504 -0.1554 -0.4241 -0.0166
    1PC     H5C 5949   0.455   0.413   7.432  0.0073 -0.0939  0.2908
    1PC     O33 5950   0.552   0.872   7.163 -0.2383  0.1666 -0.6525
    1PC     O34 5951   0.413   0.659   7.158  0.2789 -0.2256 -0.6264
    1PC     O21 5952   0.296   0.592   6.753 -0.1444  0.3514 -0.4297
    1PC     C21 5953   0.175   0.609   6.709  1.3989  0.5675 -0.0468
    1PC     O22 5954   0.087   0.643   6.786  0.1647  0.5746 -0.0266
    1OL     C12 5955   0.158   0.580   6.559 -0.1116  0.4538  0.0369
    1OL     H2R 5956   0.052   0.568   6.536  0.2252 -1.9774 -0.4333
    1OL     H2S 5957   0.222   0.495   6.535 -0.1829  0.8159 -1.5019
    1OL     C13 5958   0.210   0.703   6.483 -0.1456 -0.3323 -0.0301
    1OL     H3R 5959   0.318   0.702   6.501 -0.0010 -0.1742 -0.8479
    1OL     H3S 5960   0.168   0.795   6.525 -0.4714 -1.3569  1.9912
    1OL     C14 5961   0.196   0.691   6.330 -0.0537 -1.0589 -0.2383
    1OL     H4R 5962   0.090   0.671   6.313  0.1272 -1.2525 -1.1952
    1OL     H4S 5963   0.259   0.606   6.302  3.4426  0.5899  1.9021
    1OL     C15 5964   0.244   0.820   6.264 -0.3272 -0.0049  0.8128
    1OL     H5R 5965   0.349   0.825   6.291 -0.2622 -0.0343  0.5721
    1OL     H5S 5966   0.183   0.902   6.303 -0.3383 -1.0754  3.2042
    1OL     C16 5967   0.238   0.816   6.108  0.3341  0.0486  0.1127
    1OL     H6R 5968   0.137   0.777   6.095  0.0548  0.7779  0.0517
    1OL     H6S 5969   0.312   0.749   6.064 -0.6648  0.1932 -1.8839
    1OL     C17 5970   0.264   0.947   6.032 -1.0434 -0.1139  0.3330
    1OL     H7R 5971   0.361   0.995   6.050 -0.7348  0.3114 -2.0564
    1OL     H7S 5972   0.192   1.023   6.062  0.6377  0.8283  2.2473
    1OL     C18 5973   0.238   0.919   5.884 -0.1690  0.0208 -1.0365
    1OL     H8R 5974   0.142   0.867   5.877 -0.2539  0.2456 -1.6265
    1OL     H8S 5975   0.314   0.847   5.850  0.7774  0.8204 -0.6541
    1OL     C19 5976   0.238   1.043   5.799  0.2101  1.2423  0.9150
    1OL     H9R 5977   0.143   1.095   5.791 -1.9355 -2.3519  1.0091
    1OL    C110 5978   0.345   1.069   5.720 -0.3608  0.1864 -0.1079
    1OL    H10R 5979   0.345   1.155   5.653  2.3257  2.3700  2.4223
    1OL    C111 5980   0.471   0.985   5.711 -0.3252 -0.8724  0.4847
    1OL    H11R 5981   0.490   0.922   5.798  0.3675  0.9739  1.7301
    1OL    H11S 5982   0.553   1.056   5.710 -0.6318 -0.4261 -2.6858
    1OL    C112 5983   0.480   0.899   5.585  0.4193  0.3570  0.4516
    1OL    H12R 5984   0.406   0.819   5.582  0.1963  0.5907 -0.7732
    1OL    H12S 5985   0.579   0.853   5.583  1.3992  2.3784  0.1584
    1OL    C113 5986   0.454   0.967   5.447 -0.5872  0.2965 -0.5078
    1OL    H13R 5987   0.497   1.067   5.455 -0.1224  0.1364 -0.9335
    1OL    H13S 5988   0.346   0.978   5.438 -0.5562  2.2838  0.9892
    1OL    C114 5989   0.518   0.895   5.325 -0.0504  0.2692 -0.3704
    1OL    H14R 5990   0.469   0.799   5.306  0.0696  0.2998 -0.8528
    1OL    H14S 5991   0.624   0.881   5.347  0.1477  1.6394 -0.3232
    1OL    C115 5992   0.508   0.992   5.204 -0.0517  0.0825  0.6133
    1OL    H15R 5993   0.581   1.073   5.217  0.1021  0.0515 -0.0437
    1OL    H15S 5994   0.410   1.037   5.189  1.3536  2.6356 -2.2880
    1OL    C116 5995   0.561   0.930   5.073  0.5276  0.5100  0.2964
    1OL    H16R 5996   0.652   0.874   5.097  0.1742 -0.1299  0.1701
    1OL    H16S 5997   0.581   1.014   5.007 -0.6962 -0.5524 -1.4971
    1OL    C117 5998   0.467   0.832   4.992 -0.0299 -0.6343 -1.2436
    1OL    H17R 5999   0.380   0.879   4.945 -0.4069 -1.0621 -0.9865
    1OL    H17S 6000   0.424   0.756   5.058 -1.2504 -0.2093 -1.5263
    1OL    C118 6001   0.558   0.761   4.891 -0.3842  0.1056  0.4163
    1OL    H18R 6002   0.630   0.699   4.945  0.0907  1.7724  1.7750
    1OL    H18S 6003   0.598   0.842   4.831 -2.3536  0.3478 -0.6690
    1OL    H18T 6004   0.489   0.701   4.831 -2.1014  1.2443  1.1711
    1PA    C116 6005   0.639   0.370   5.063  0.1902  0.0514 -0.0416
    1PA    H16R 6006   0.731   0.313   5.072  0.1796  0.1330  0.6078
    1PA    H16S 6007   0.640   0.411   4.961 -0.0236  1.1169  0.3663
    1PA    H16T 6008   0.550   0.308   5.075 -0.2513  0.5804 -0.5136
    1PA    C115 6009   0.620   0.477   5.172 -0.2421 -0.0332  0.5548
    1PA    H15R 6010   0.707   0.544   5.173 -1.2059  1.3146  3.0155
    1PA    H15S 6011   0.528   0.531   5.149  0.3679  0.1889 -1.5725
    1PA    C114 6012   0.604   0.410   5.311 -0.5451 -0.0108 -0.3000
    1PA    H14R 6013   0.516   0.347   5.296 -0.5998 -0.2093  0.8123
    1PA    H14S 6014   0.695   0.356   5.336 -0.3738  0.9156  1.2255
    1PA    C113 6015   0.575   0.511   5.431  0.2076 -0.1941  0.4284
    1PA    H13R 6016   0.642   0.597   5.438 -0.3260  0.2300  0.4769
    1PA    H13S 6017   0.477   0.557   5.414  0.4895  1.2719  2.3503
    1PA    C112 6018   0.551   0.444   5.570  0.1905  0.9610 -0.0826
    1PA    H12R 6019   0.465   0.378   5.560 -0.6581  2.0066  0.2382
    1PA    H12S 6020   0.633   0.376   5.596 -1.0720 -0.4355  0.3835
    1PA    C111 6021   0.519   0.544   5.681  0.1349 -0.1540 -0.1291
    1PA    H11R 6022   0.599   0.618   5.679  1.1660 -1.2592 -1.2087
    1PA    H11S 6023   0.417   0.579   5.665 -0.3523  0.5040  3.4986
    1PA    C110 6024   0.519   0.481   5.816 -0.0500  0.1543  0.2588
    1PA    H10R 6025   0.440   0.406   5.824  0.0839  0.1578  1.9011
    1PA    H10S 6026   0.617   0.433   5.828  0.2215  0.4586 -0.6982
    1PA     C19 6027   0.485   0.578   5.929 -0.5762  0.2658 -0.0740
    1PA     H9R 6028   0.536   0.668   5.894  0.2663  0.0389  0.5314
    1PA     H9S 6029   0.377   0.589   5.934 -0.5868 -0.0344  0.3612
    1PA     C18 6030   0.527   0.540   6.071 -0.1971 -0.0961 -0.2415
    1PA     H8R 6031   0.632   0.513   6.068 -0.5890 -1.6688 -2.4320
    1PA     H8S 6032   0.515   0.630   6.131  1.2446 -0.9905  1.4816
    1PA     C17 6033   0.447   0.416   6.119  0.3800  0.4265  0.1932
    1PA     H7R 6034   0.343   0.449   6.114  0.0636 -0.4050  1.1257
    1PA     H7S 6035   0.470   0.338   6.045  2.2447  1.0789  0.0471
    1PA     C16 6036   0.476   0.351   6.253 -0.5337  0.2267 -0.7278
    1PA     H6R 6037   0.572   0.299   6.258 -0.1983  0.6524 -2.2117
    1PA     H6S 6038   0.486   0.429   6.329  1.1391 -0.7622  0.1090
    1PA     C15 6039   0.363   0.269   6.316 -0.3724  0.4546  0.5597
    1PA     H5R 6040   0.269   0.318   6.340 -2.7330 -2.9184 -0.9879
    1PA     H5S 6041   0.346   0.204   6.230 -1.0799  0.4936  0.6622
    1PA     C14 6042   0.400   0.189   6.443  0.1432 -0.2622  0.3168
    1PA     H4R 6043   0.464   0.103   6.426  0.0712 -0.4502  0.9771
    1PA     H4S 6044   0.460   0.247   6.513  0.8231  1.8229 -1.8593
    1PA     C13 6045   0.274   0.157   6.519 -0.8313  0.0488 -0.1226
    1PA     H3R 6046   0.311   0.104   6.607 -0.3307  3.9479  2.2814
    1PA     H3S 6047   0.223   0.247   6.555 -2.6552 -1.4247  1.2028
    1PA     C12 6048   0.174   0.070   6.447 -0.3554 -0.1888 -0.2780
    1PA     H2R 6049   0.119   0.014   6.522 -0.0722 -1.3662 -0.9224
    1PA     H2S 6050   0.101   0.125   6.387  0.3837  1.4292  0.2238
    1PC     C11 6051   0.232  -0.034   6.357  0.3640 -0.3892  0.1500
    1PC     O12 6052   0.200  -0.038   6.239  0.2548 -0.1585 -0.5331
    1PC     O11 6053   0.321  -0.112   6.425  0.1360  0.2454 -0.3665
    1PC      C1 6054   0.411  -0.217   6.370 -0.4833 -0.1634 -0.3253
    1PC      HR 6055   0.361  -0.314   6.364  0.0302 -0.4090 -0.6648
    1PC      HS 6056   0.432  -0.188   6.267 -1.8646 -1.0655 -0.8858
    1PC      C2 6057   0.536  -0.233   6.465  0.5159 -0.6656 -0.0835
    1PC      HX 6058   0.598  -0.302   6.408 -1.6760 -2.7242 -0.1468
    1PC      C3 6059   0.504  -0.296   6.607 -0.2825  0.7529  0.5405
    1PC      HA 6060   0.409  -0.253   6.639 -1.3031  2.2524 -3.7754
    1PC      HB 6061   0.496  -0.405   6.610 -0.9578  0.7205 -1.1203
    1PC     O31 6062   0.601  -0.245   6.698 -0.2319  0.1459 -0.3606
    1PC     P31 6063   0.565  -0.250   6.856  0.1941 -0.0473  0.1149
    1PC     O32 6064   0.441  -0.154   6.887 -0.7538  0.4341 -0.4651
    1PC     C31 6065   0.474  -0.012   6.875 -0.1209 -0.6298  1.0777
    1PC     H1A 6066   0.544   0.002   6.792 -0.4396 -1.7577  0.5966
    1PC     H1B 6067   0.381   0.032   6.838  0.9089  0.5840 -0.2061
    1PC     C32 6068   0.514   0.052   7.006  0.6240 -0.1823 -0.0420
    1PC     H2A 6069   0.611   0.010   7.036  0.9656  0.9181  0.4480
    1PC     H2B 6070   0.514   0.159   6.986 -3.0703 -0.3752 -1.7767
    1PC     N31 6071   0.420   0.036   7.124 -0.1178 -0.0801 -0.1637
    1PC     C33 6072   0.452   0.146   7.216 -0.3433  0.1415  0.0918
    1PC     H3A 6073   0.560   0.143   7.233 -0.2650  1.1743 -0.1471
    1PC     H3B 6074   0.410   0.238   7.174 -0.8151 -0.4920 -0.8565
    1PC     H3C 6075   0.400   0.129   7.310 -0.3692  1.2012  0.2847
    1PC     C34 6076   0.276   0.056   7.088  0.4129 -0.7661  0.0631
    1PC     H4A 6077   0.274   0.154   7.040 -0.8721 -1.2093 -0.8071
    1PC     H4B 6078   0.251  -0.030   7.027  0.7396  0.7650 -2.3648
    1PC     H4C 6079   0.224   0.052   7.184  3.3566 -0.5563  1.8303
    1PC     C35 6080   0.449  -0.092   7.198  0.2652 -0.2172  0.5901
    1PC     H5A 6081   0.449  -0.172   7.124 -1.3006  0.4449 -0.1822
    1PC     H5B 6082   0.370  -0.098   7.272 -0.2902  4.1065  0.6503
    1PC     H5C 6083   0.541  -0.079   7.254 -0.9986  0.0122  2.7171
    1PC     O33 6084   0.524  -0.392   6.878  0.0017  0.0668  0.3057
    1PC     O34 6085   0.667  -0.190   6.945  0.0939  0.1315 -0.3864
    1PC     O21 6086   0.598  -0.097   6.481 -0.4003  0.1130 -0.7368
    1PC     C21 6087   0.728  -0.095   6.508 -0.2649 -0.0692  0.3925
    1PC     O22 6088   0.798  -0.188   6.478 -0.2360  0.5791  0.4462
    1OL     C12 6089   0.778   0.047   6.541  0.8486 -0.1283  0.1440
    1OL     H2R 6090   0.794   0.058   6.649  0.2310  2.6865  0.0205
    1OL     H2S 6091   0.697   0.111   6.507  0.3592  0.2732  1.9765
    1OL     C13 6092   0.908   0.082   6.471  0.1516  0.4284  0.2308
    1OL     H3R 6093   0.978  -0.002   6.463 -1.5611 -0.9852 -0.8212
    1OL     H3S 6094   0.952   0.164   6.527  0.1323 -0.6310  1.8727
    1OL     C14 6095   0.878   0.132   6.328 -0.2556  0.4530 -0.6419
    1OL     H4R 6096   0.973   0.133   6.274  0.5045 -1.0629  0.5977
    1OL     H4S 6097   0.835   0.232   6.330  0.4505  0.7486  0.2483
    1OL     C15 6098   0.787   0.056   6.238  0.7456  0.0646  0.0391
    1OL     H5R 6099   0.687   0.075   6.278 -0.0565 -1.6380 -1.0576
    1OL     H5S 6100   0.805  -0.051   6.235 -1.1566 -0.2627 -1.3775
    1OL     C16 6101   0.782   0.115   6.090  0.0396 -0.7802  0.3248
    1OL     H6R 6102   0.878   0.095   6.042  0.8108 -1.1563  1.9324
    1OL     H6S 6103   0.765   0.222   6.093  0.7769 -0.6789  1.3087
    1OL     C17 6104   0.677   0.047   5.997 -1.2003  0.1640  0.1519
    1OL     H7R 6105   0.578   0.056   6.042  0.1289  1.5381  3.0574
    1OL     H7S 6106   0.711  -0.057   5.995  0.7530  0.7469 -2.3448
    1OL     C18 6107   0.674   0.088   5.852 -0.6439 -0.2623  0.2973
    1OL     H8R 6108   0.776   0.094   5.812 -0.8818  1.6209 -0.1041
    1OL     H8S 6109   0.620   0.183   5.844 -0.5456 -0.2003  0.3620
    1OL     C19 6110   0.596  -0.024   5.778 -0.2741 -0.1805 -0.3381
    1OL     H9R 6111   0.491  -0.024   5.807 -0.3677 -1.1310 -0.6302
    1OL    C110 6112   0.630  -0.114   5.691 -0.0312  0.5769 -0.2702
    1OL    H10R 6113   0.558  -0.186   5.653  1.0147 -0.1761 -0.8873
    1OL    C111 6114   0.770  -0.139   5.632 -0.4053 -0.1096  0.2025
    1OL    H11R 6115   0.778  -0.240   5.593  1.1602 -0.3130  0.9544
    1OL    H11S 6116   0.856  -0.130   5.699 -0.1317 -0.8171 -0.0399
    1OL    C112 6117   0.794  -0.037   5.509  0.7287 -0.3476 -0.4824
    1OL    H12R 6118   0.894  -0.047   5.465  0.8503 -1.0320 -0.0572
    1OL    H12S 6119   0.783   0.067   5.539 -1.2749 -0.5674 -0.3502
    1OL    C113 6120   0.683  -0.060   5.400  0.4425 -0.6345 -0.1805
    1OL    H13R 6121   0.587  -0.037   5.446  0.6364 -2.6715  1.4231
    1OL    H13S 6122   0.679  -0.166   5.375 -0.1424 -1.0412  1.4668
    1OL    C114 6123   0.686   0.027   5.271  0.8884  0.4285 -1.0164
    1OL    H14R 6124   0.679   0.128   5.310 -0.0238 -0.5013  1.4080
    1OL    H14S 6125   0.596   0.007   5.212 -0.6851  0.4143  1.2332
    1OL    C115 6126   0.810   0.015   5.190  0.0981  0.3977  0.1669
    1OL    H15R 6127   0.891   0.077   5.228  0.0015  0.5632  0.1030
    1OL    H15S 6128   0.780   0.065   5.098 -1.5244 -0.5441  0.1491
    1OL    C116 6129   0.868  -0.127   5.156  0.0546 -0.3739  0.6886
    1OL    H16R 6130   0.782  -0.193   5.140 -1.4552  2.0155 -2.0125
    1OL    H16S 6131   0.916  -0.175   5.241 -1.6823 -1.5878  1.0439
    1OL    C117 6132   0.952  -0.130   5.027  0.2536 -1.0291  0.2904
    1OL    H17R 6133   0.888  -0.109   4.942 -0.9917 -3.5833  0.4915
    1OL    H17S 6134   0.989  -0.232   5.013  2.7988 -0.1860  0.3098
    1OL    C118 6135   1.079  -0.041   5.025 -0.6807 -0.2288 -0.0572
    1OL    H18R 6136   1.041   0.061   5.021 -0.7823 -0.1298  2.1885
    1OL    H18S 6137   1.142  -0.059   4.937 -1.9719  0.8749 -1.2411
    1OL    H18T 6138   1.141  -0.044   5.115 -0.4615 -0.4905 -0.2133
    1PA    C116 6139   3.197   0.834   4.767  0.0186 -0.3128 -0.5258
    1PA    H16R 6140   3.143   0.747   4.730 -2.1255  0.3718  0.8122
    1PA    H16S 6141   3.167   0.863   4.868  3.0885  0.7767  0.1978
    1PA    H16T 6142   3.301   0.805   4.787  0.4795  2.2798  1.4525
    1PA    C115 6143   3.207   0.951   4.670  1.1488 -0.2994 -0.1085
    1PA    H15R 6144   3.285   1.022   4.699 -0.6750  1.4347  0.8493
    1PA    H15S 6145   3.238   0.915   4.572  1.0641 -1.4548  0.2703
    1PA    C114 6146   3.078   1.035   4.652 -0.6370  0.0810 -0.3596
    1PA    H14R 6147   3.007   0.969   4.602  0.3698 -0.8648 -0.5834
    1PA    H14S 6148   3.046   1.047   4.756  0.2806 -0.4814 -0.0028
    1PA    C113 6149   3.099   1.164   4.571  0.5655  0.1861 -0.5136
    1PA    H13R 6150   3.163   1.228   4.633 -0.5413 -0.7270  1.6737
    1PA    H13S 6151   3.148   1.153   4.474 -3.3232 -0.6391 -2.6151
    1PA    C112 6152   2.957   1.241   4.552 -0.5856  0.5633 -0.5979
    1PA    H12R 6153   2.896   1.240   4.642  2.8414 -0.1482  1.9104
    1PA    H12S 6154   2.976   1.348   4.544 -0.6903  0.7123  0.8763
    1PA    C111 6155   2.875   1.188   4.432 -0.9709  0.4788 -0.0198
    1PA    H11R 6156   2.879   1.079   4.437  0.0340  0.0507 -5.2295
    1PA    H11S 6157   2.775   1.233   4.427 -1.1951  0.0668  0.5941
    1PA    C110 6158   2.941   1.233   4.302  0.2201 -0.6105  0.0602
    1PA    H10R 6159   2.945   1.342   4.301 -0.2800 -0.5607 -1.9936
    1PA    H10S 6160   3.045   1.203   4.293  1.4656  3.1810  0.0980
    1PA     C19 6161   2.873   1.171   4.180  0.0947  0.1964  0.7644
    1PA     H9R 6162   2.940   1.159   4.095  1.0583 -0.6663  1.6228
    1PA     H9S 6163   2.856   1.069   4.214 -1.0263  1.0153  2.7836
    1PA     C18 6164   2.740   1.243   4.136  0.4846 -0.2009 -0.2023
    1PA     H8R 6165   2.682   1.274   4.222  2.3532 -0.1374  1.0926
    1PA     H8S 6166   2.775   1.331   4.081 -3.8550  1.5057 -0.6279
    1PA     C17 6167   2.652   1.165   4.035 -0.4287 -0.3419  0.3387
    1PA     H7R 6168   2.644   1.062   4.071 -3.0833 -0.0997  0.6897
    1PA     H7S 6169   2.553   1.210   4.046  0.3146  0.8877  2.5042
    1PA     C16 6170   2.707   1.161   3.896 -0.3690  0.6471  1.0469
    1PA     H6R 6171   2.723   1.260   3.853  1.1805  0.0644  0.1895
    1PA     H6S 6172   2.806   1.115   3.904 -1.2490 -1.5073  0.2486
    1PA     C15 6173   2.619   1.074   3.793 -0.5934  0.0693 -0.2961
    1PA     H5R 6174   2.608   0.968   3.817  2.9469 -0.8432 -1.9847
    1PA     H5S 6175   2.523   1.126   3.787 -0.7848 -0.2569 -0.0618
    1PA     C14 6176   2.693   1.077   3.658  0.4562 -0.0881 -0.2088
    1PA     H4R 6177   2.723   1.180   3.637  0.7309 -0.5068 -2.0509
    1PA     H4S 6178   2.784   1.017   3.646  1.6177  1.6383 -0.4224
    1PA     C13 6179   2.599   1.017   3.554 -0.0463  0.2255  0.9661
    1PA     H3R 6180   2.655   0.981   3.467  0.1285  1.7944  0.3883
    1PA     H3S 6181   2.560   0.924   3.594 -2.1343  0.3509 -0.5715
    1PA     C12 6182   2.498   1.118   3.500 -0.0103  0.0594  0.2958
    1PA     H2R 6183   2.428   1.081   3.424  0.3346  1.9250 -1.0249
    1PA     H2S 6184   2.433   1.160   3.577  1.5165  0.5243  1.3697
    1PC     C11 6185   2.560   1.238   3.433  0.0969 -0.0591  0.2802
    1PC     O12 6186   2.654   1.231   3.355  0.4410  0.1992  0.1619
    1PC     O11 6187   2.510   1.347   3.481  0.2680 -0.6385  0.6205
    1PC      C1 6188   2.553   1.464   3.407  0.1286  0.2015 -0.0896
    1PC      HR 6189   2.661   1.483   3.411  0.4778 -1.4065 -1.0074
    1PC      HS 6190   2.519   1.466   3.304 -1.2384  1.1238  0.3560
    1PC      C2 6191   2.474   1.584   3.469 -0.1737  0.6589 -0.4049
    1PC      HX 6192   2.369   1.557   3.479 -0.2278  1.3778  1.6361
    1PC      C3 6193   2.481   1.713   3.383  0.4638 -0.0720  0.6246
    1PC      HA 6194   2.409   1.703   3.302  2.9814 -1.3314 -1.5882
    1PC      HB 6195   2.443   1.806   3.426 -3.9252 -2.6849  3.2419
    1PC     O31 6196   2.604   1.725   3.315  0.0266 -0.0908  0.2741
    1PC     P31 6197   2.629   1.796   3.178 -0.0005  0.6449 -0.2653
    1PC     O32 6198   2.592   1.947   3.196  0.4968 -0.4717 -0.4993
    1PC     C31 6199   2.677   2.033   3.276 -0.0525  0.9686  0.5592
    1PC     H1A 6200   2.704   1.979   3.367 -3.2968  1.4618  1.9522
    1PC     H1B 6201   2.756   2.068   3.210 -1.5050  1.4758 -0.9784
    1PC     C32 6202   2.585   2.154   3.318  0.1691  1.3433 -0.1201
    1PC     H2A 6203   2.494   2.113   3.362  2.2043 -4.1579 -0.2630
    1PC     H2B 6204   2.641   2.220   3.385  1.8405  2.9904 -2.9369
    1PC     N31 6205   2.556   2.247   3.204  0.3385  0.0503 -0.1443
    1PC     C33 6206   2.464   2.190   3.110  0.2511 -0.1050  0.5809
    1PC     H3A 6207   2.483   2.086   3.085 -0.8736  0.1367 -1.5776
    1PC     H3B 6208   2.361   2.200   3.144 -0.0537 -3.0259  0.7249
    1PC     H3C 6209   2.475   2.253   3.021  0.0019 -0.5453  0.2365
    1PC     C34 6210   2.489   2.373   3.254 -0.6381 -0.0622 -0.1294
    1PC     H4A 6211   2.455   2.441   3.176  2.8854  2.3393  0.1719
    1PC     H4B 6212   2.403   2.335   3.310 -2.3187  0.0709 -2.4976
    1PC     H4C 6213   2.562   2.408   3.328 -1.4280  0.3093  0.4982
    1PC     C35 6214   2.678   2.298   3.136 -0.2403 -0.3871 -0.6979
    1PC     H5A 6215   2.745   2.318   3.220  0.2759 -2.2896 -0.6123
    1PC     H5B 6216   2.659   2.396   3.092 -0.3778  1.6185  3.3171
    1PC     H5C 6217   2.721   2.223   3.070 -0.1563  1.1326 -2.4515
    1PC     O33 6218   2.776   1.798   3.151  0.6476  0.0757  0.2408
    1PC     O34 6219   2.540   1.744   3.073 -0.1269 -0.6803 -0.1229
    1PC     O21 6220   2.527   1.613   3.605 -0.1374 -0.4009  0.0681
    1PC     C21 6221   2.451   1.645   3.712  0.0737  0.0382  0.7169
    1PC     O22 6222   2.329   1.638   3.714  0.3883 -0.5892 -0.3539
    1OL     C12 6223   2.536   1.683   3.834  0.3962 -0.3819 -0.4217
    1OL     H2R 6224   2.587   1.779   3.825  0.3317 -0.2429  0.5758
    1OL     H2S 6225   2.609   1.604   3.848  0.1828 -0.1900  2.3701
    1OL     C13 6226   2.454   1.685   3.967  0.4298 -0.1412  0.2016
    1OL     H3R 6227   2.430   1.586   4.007 -0.3266 -0.6782 -1.4915
    1OL     H3S 6228   2.359   1.735   3.944 -0.0240 -1.2136 -0.3185
    1OL     C14 6229   2.516   1.768   4.083  0.0225 -0.3940 -0.1726
    1OL     H4R 6230   2.440   1.782   4.160  1.3100  3.5922  0.6334
    1OL     H4S 6231   2.545   1.866   4.043  1.5244 -0.9247 -0.4474
    1OL     C15 6232   2.640   1.698   4.142 -0.1014  0.8670 -0.2067
    1OL     H5R 6233   2.700   1.658   4.060  3.2854  2.2762  1.3974
    1OL     H5S 6234   2.607   1.618   4.209 -0.6954  0.5555 -0.8604
    1OL     C16 6235   2.729   1.793   4.227  0.4948 -0.2383 -0.3317
    1OL     H6R 6236   2.785   1.865   4.167  0.4992  0.5657  0.6107
    1OL     H6S 6237   2.813   1.744   4.276  0.7171 -0.2010 -0.6740
    1OL     C17 6238   2.635   1.862   4.337 -0.4147  0.9220  0.0316
    1OL     H7R 6239   2.569   1.787   4.382 -0.4091  0.4186 -0.7892
    1OL     H7S 6240   2.561   1.920   4.280  0.0682 -0.3816 -2.0047
    1OL     C18 6241   2.711   1.954   4.437  0.2787  0.1659  0.7060
    1OL     H8R 6242   2.749   2.041   4.382  1.2978 -0.9572 -0.4577
    1OL     H8S 6243   2.800   1.900   4.470  0.2043 -1.3676 -1.3897
    1OL     C19 6244   2.621   2.003   4.546 -0.0710 -0.3954 -0.1144
    1OL     H9R 6245   2.580   2.100   4.518  1.9013 -0.1894 -2.6466
    1OL    C110 6246   2.610   1.949   4.664 -0.4074  0.4634 -0.2423
    1OL    H10R 6247   2.543   1.988   4.740 -1.2118  0.0585 -0.7313
    1OL    C111 6248   2.690   1.827   4.716  0.5701  0.3006  0.2171
    1OL    H11R 6249   2.708   1.834   4.824 -1.3749  0.6996  0.5472
    1OL    H11S 6250   2.792   1.832   4.677  1.6250 -2.4430  2.2885
    1OL    C112 6251   2.618   1.693   4.673 -0.3682  0.3211  0.4798
    1OL    H12R 6252   2.648   1.677   4.570 -0.9253 -1.4200  0.5563
    1OL    H12S 6253   2.511   1.718   4.673 -0.2215  1.0632 -1.0183
    1OL    C113 6254   2.635   1.559   4.753  0.2978  0.1179  1.2727
    1OL    H13R 6255   2.742   1.543   4.769  0.2944  0.5595  1.7901
    1OL    H13S 6256   2.603   1.478   4.688  2.3692  2.1264 -2.6526
    1OL    C114 6257   2.559   1.562   4.890  0.3432 -0.6798 -0.6750
    1OL    H14R 6258   2.450   1.569   4.880  0.0885 -2.0910  0.7037
    1OL    H14S 6259   2.596   1.656   4.931  0.3359 -0.5149 -1.0471
    1OL    C115 6260   2.588   1.447   4.983  0.1147 -0.0237 -0.2311
    1OL    H15R 6261   2.697   1.443   4.987  0.3224  3.0923 -0.2854
    1OL    H15S 6262   2.545   1.358   4.937 -1.6705  1.3765 -1.4188
    1OL    C116 6263   2.527   1.456   5.119  0.3146 -0.2119  0.0245
    1OL    H16R 6264   2.577   1.531   5.181  1.8748 -0.8527 -0.4014
    1OL    H16S 6265   2.534   1.365   5.179 -0.4807  0.1324  0.6520
    1OL    C117 6266   2.379   1.496   5.117 -0.3999 -0.7634 -0.3134
    1OL    H17R 6267   2.364   1.593   5.070 -1.1348 -2.0334 -2.8825
    1OL    H17S 6268   2.346   1.520   5.218  1.0738 -1.7229  0.4380
    1OL    C118 6269   2.285   1.399   5.055  0.4514  0.3587  0.2720
    1OL    H18R 6270   2.179   1.421   5.067  0.2280 -0.2183 -0.5124
    1OL    H18S 6271   2.303   1.310   5.114 -0.5895  0.8454  1.3603
    1OL    H18T 6272   2.293   1.378   4.948  0.4560  0.9163  0.1568
    1PA    C116 6273   2.655   2.976   5.033 -0.0541  0.3779  0.2421
    1PA    H16R 6274   2.682   2.976   5.139 -0.7965  0.6915  0.4383
    1PA    H16S 6275   2.597   2.886   5.011 -3.7886  1.9996  2.4935
    1PA    H16T 6276   2.588   3.059   5.006  0.4543  0.1930 -1.7508
    1PA    C115 6277   2.789   2.967   4.960  0.0218 -0.0647 -0.3420
    1PA    H15R 6278   2.845   3.060   4.961  0.8170 -0.5425  0.1322
    1PA    H15S 6279   2.846   2.888   5.009 -0.0886 -0.0820 -0.2399
    1PA    C114 6280   2.766   2.938   4.808  0.2154 -0.8445 -0.8722
    1PA    H14R 6281   2.861   2.943   4.753  0.5647 -1.1920 -0.3156
    1PA    H14S 6282   2.728   2.837   4.791 -0.9094 -0.4831 -0.5725
    1PA    C113 6283   2.683   3.039   4.736  0.7020 -0.0039  0.8081
    1PA    H13R 6284   2.575   3.041   4.752  0.7004  1.5037  0.7098
    1PA    H13S 6285   2.714   3.133   4.782  1.1807 -0.6011  1.7377
    1PA    C112 6286   2.723   3.050   4.591 -0.0014 -0.1739  0.0693
    1PA    H12R 6287   2.674   3.137   4.547  0.6700  0.5305  0.6856
    1PA    H12S 6288   2.832   3.043   4.581 -0.0715 -1.1959 -0.0923
    1PA    C111 6289   2.679   2.923   4.505 -0.2505  0.3575 -0.1163
    1PA    H11R 6290   2.709   2.825   4.542 -0.7281 -0.4614 -1.8113
    1PA    H11S 6291   2.570   2.921   4.508 -0.2959  1.7544 -0.1429
    1PA    C110 6292   2.731   2.933   4.361 -0.5965  0.0258  0.1276
    1PA    H10R 6293   2.668   2.876   4.293 -1.5385  1.0843  0.0873
    1PA    H10S 6294   2.720   3.036   4.325 -0.0249 -0.5357 -1.7842
    1PA     C19 6295   2.874   2.884   4.347 -0.6086 -0.2539  0.4870
    1PA     H9R 6296   2.936   2.946   4.413 -1.1263  1.3695 -0.4787
    1PA     H9S 6297   2.869   2.782   4.384  0.7387  0.1732  1.9631
    1PA     C18 6298   2.940   2.871   4.204 -0.2976  0.0835 -0.3710
    1PA     H8R 6299   2.857   2.829   4.146 -0.6238 -0.8195  0.7150
    1PA     H8S 6300   2.978   2.963   4.158  1.1059 -0.4169 -0.2661
    1PA     C17 6301   3.058   2.776   4.207 -0.4398  0.2011  0.1147
    1PA     H7R 6302   3.137   2.814   4.271  0.5175 -0.8154 -0.4392
    1PA     H7S 6303   3.012   2.689   4.254 -1.4876 -0.2179 -1.5989
    1PA     C16 6304   3.127   2.731   4.081  0.4191 -0.1693  0.9339
    1PA     H6R 6305   3.172   2.818   4.033 -0.7133 -0.6516 -1.1167
    1PA     H6S 6306   3.204   2.658   4.106 -1.9175 -3.1378  0.1465
    1PA     C15 6307   3.027   2.657   3.991  0.5832  0.1165  0.0634
    1PA     H5R 6308   2.999   2.562   4.036  0.5165  0.0455 -0.1237
    1PA     H5S 6309   2.942   2.722   3.972 -0.7345 -1.6882 -0.4767
    1PA     C14 6310   3.080   2.624   3.850 -0.0275  0.0192  0.3489
    1PA     H4R 6311   3.142   2.536   3.865  2.1383  1.5070  0.6030
    1PA     H4S 6312   3.001   2.610   3.775 -1.6674  2.9042  1.3570
    1PA     C13 6313   3.179   2.721   3.779 -0.5885  0.9913 -0.5451
    1PA     H3R 6314   3.164   2.827   3.797  0.6777  0.9475  0.9783
    1PA     H3S 6315   3.281   2.707   3.817 -0.2791  0.3477 -1.5770
    1PA     C12 6316   3.185   2.694   3.625 -0.9086 -0.1854 -0.5571
    1PA     H2R 6317   3.274   2.746   3.589 -0.0600 -1.3271 -0.1853
    1PA     H2S 6318   3.208   2.589   3.603  0.4256 -0.0089 -0.1194
    1PC     C11 6319   3.066   2.733   3.547 -0.1598  0.4242 -0.4503
    1PC     O12 6320   2.961   2.668   3.549 -0.3748 -0.9386  0.3314
    1PC     O11 6321   3.074   2.857   3.487  0.2623 -1.1564  0.1575
    1PC      C1 6322   2.958   2.899   3.409  0.0983  0.7424 -0.2388
    1PC      HR 6323   2.959   2.836   3.320  1.5261 -1.9160  1.5186
    1PC      HS 6324   2.867   2.871   3.462  1.1742  0.4757  1.5470
    1PC      C2 6325   2.945   3.051   3.395 -0.3250 -0.4224  0.0140
    1PC      HX 6326   2.842   3.077   3.370 -1.2447 -3.4742  0.1478
    1PC      C3 6327   3.051   3.096   3.286  0.8066  0.1916  0.1625
    1PC      HA 6328   3.071   3.202   3.272 -1.3747  0.2517 -3.5870
    1PC      HB 6329   3.144   3.044   3.310 -0.7893 -2.7537  0.5818
    1PC     O31 6330   3.008   3.035   3.160  0.0846  0.3638 -0.2868
    1PC     P31 6331   3.079   3.038   3.019 -0.1455  0.1397  0.5725
    1PC     O32 6332   3.214   2.965   3.058 -0.5049 -0.2467  0.3601
    1PC     C31 6333   3.348   3.035   3.061 -0.2927 -0.0494 -0.2225
    1PC     H1A 6334   3.337   3.143   3.069  2.1235  0.2252  0.0606
    1PC     H1B 6335   3.408   3.005   3.147  1.5566  1.2770 -0.9791
    1PC     C32 6336   3.426   2.988   2.940 -0.8535 -0.2583 -0.2656
    1PC     H2A 6337   3.414   2.882   2.922  1.3817 -0.7020  0.5228
    1PC     H2B 6338   3.393   3.035   2.847  1.0494 -0.5843 -1.1396
    1PC     N31 6339   3.573   3.010   2.952  0.0501 -0.0459  0.4822
    1PC     C33 6340   3.604   3.154   2.974  0.0095  0.3743 -0.0777
    1PC     H3A 6341   3.712   3.173   2.971  0.2821 -0.9741  0.5231
    1PC     H3B 6342   3.542   3.220   2.914  1.6896  1.6783 -0.4843
    1PC     H3C 6343   3.574   3.172   3.078  0.5755 -2.2406  0.5951
    1PC     C34 6344   3.628   2.924   3.057  0.1562  0.3441  0.2961
    1PC     H4A 6345   3.736   2.940   3.054  0.1093  0.5782 -0.4745
    1PC     H4B 6346   3.586   2.958   3.151 -0.8289  2.0398 -0.7047
    1PC     H4C 6347   3.609   2.818   3.039 -0.2620  0.5156 -0.3027
    1PC     C35 6348   3.633   2.967   2.825 -0.2393 -0.8316  0.0321
    1PC     H5A 6349   3.739   2.996   2.822 -0.8129  1.4106 -1.3757
    1PC     H5B 6350   3.579   3.016   2.744 -0.3824  3.0017  2.2118
    1PC     H5C 6351   3.628   2.859   2.819  0.9452 -0.9721  1.0615
    1PC     O33 6352   2.999   2.953   2.922  0.6045 -0.0113  0.1126
    1PC     O34 6353   3.111   3.178   2.982 -1.0029 -0.4335  0.6762
    1PC     O21 6354   2.974   3.101   3.531 -0.4353 -0.4375  0.0126
    1PC     C21 6355   2.876   3.129   3.616  0.2989  0.6207 -0.1424
    1PC     O22 6356   2.762   3.127   3.579  0.6579 -0.4946 -0.3637
    1OL     C12 6357   2.912   3.162   3.755 -0.5783  0.4906  0.0736
    1OL     H2R 6358   3.017   3.139   3.774 -0.2676  1.0514 -0.8393
    1OL     H2S 6359   2.845   3.110   3.823 -0.1610 -1.9201 -1.2466
    1OL     C13 6360   2.900   3.310   3.789  0.2751  0.1093 -0.2987
    1OL     H3R 6361   2.797   3.344   3.793  0.4617  0.6098  1.2974
    1OL     H3S 6362   2.957   3.368   3.716 -1.7208  5.0763  1.6581
    1OL     C14 6363   2.969   3.341   3.924 -1.3682  0.2339  0.4280
    1OL     H4R 6364   2.983   3.449   3.935  0.3688  0.0763  0.0362
    1OL     H4S 6365   3.070   3.301   3.918 -0.6774  1.9477 -0.2084
    1OL     C15 6366   2.901   3.293   4.053  0.0941  0.1848 -0.7102
    1OL     H5R 6367   2.897   3.184   4.053 -1.5028  0.1309  2.3061
    1OL     H5S 6368   2.798   3.328   4.056 -0.0046 -0.0550 -1.2053
    1OL     C16 6369   2.970   3.336   4.183 -0.4100 -0.1820 -0.1405
    1OL     H6R 6370   3.001   3.439   4.169 -1.4583  0.3047  0.9825
    1OL     H6S 6371   3.062   3.279   4.202 -2.2302 -2.2698  3.5492
    1OL     C17 6372   2.873   3.337   4.299 -0.3630 -0.2113 -0.6080
    1OL     H7R 6373   2.822   3.240   4.299  1.0469 -1.0043  0.9921
    1OL     H7S 6374   2.799   3.416   4.282 -1.7678 -0.9985  1.3660
    1OL     C18 6375   2.939   3.379   4.435  0.4743 -0.0146 -0.1953
    1OL     H8R 6376   2.854   3.387   4.503 -0.9393 -1.1157 -1.7484
    1OL     H8S 6377   2.965   3.483   4.414 -4.3748  1.1931 -1.5007
    1OL     C19 6378   3.044   3.279   4.482  0.4634  0.0592 -0.0963
    1OL     H9R 6379   3.101   3.233   4.401  0.4803  0.5523 -0.3635
    1OL    C110 6380   3.074   3.244   4.603  0.8412 -0.6131 -0.4607
    1OL    H10R 6381   3.151   3.169   4.621  0.1228 -1.0850  0.7298
    1OL    C111 6382   2.997   3.284   4.730  0.1008 -0.5318  0.5496
    1OL    H11R 6383   2.973   3.195   4.789 -1.0580 -0.3607  0.3476
    1OL    H11S 6384   2.899   3.325   4.706 -0.5583 -2.3105  0.0475
    1OL    C112 6385   3.080   3.384   4.814  0.0402 -0.1589  0.4421
    1OL    H12R 6386   3.164   3.333   4.862  0.1410 -1.1633 -0.7582
    1OL    H12S 6387   3.003   3.410   4.886 -0.5227  2.1861 -0.8966
    1OL    C113 6388   3.145   3.511   4.748  0.4311  0.5877  0.1560
    1OL    H13R 6389   3.220   3.467   4.682  3.3936 -0.0613  3.6822
    1OL    H13S 6390   3.201   3.567   4.823  0.3123  0.1324  0.5911
    1OL    C114 6391   3.034   3.601   4.680  0.1660 -0.5588  0.7256
    1OL    H14R 6392   2.992   3.673   4.751 -2.2724  0.9590 -1.9776
    1OL    H14S 6393   2.950   3.540   4.645 -0.3711  1.0473 -1.0026
    1OL    C115 6394   3.093   3.684   4.563 -0.3467 -0.2776 -0.0899
    1OL    H15R 6395   3.163   3.618   4.512  0.8705 -0.7688  2.0544
    1OL    H15S 6396   3.149   3.770   4.601  0.8976 -0.6908 -0.9344
    1OL    C116 6397   2.989   3.745   4.465 -0.1966  0.0287  0.1712
    1OL    H16R 6398   2.910   3.676   4.433  1.0808 -1.0715 -0.7032
    1OL    H16S 6399   3.050   3.756   4.375  2.6103 -2.2704  1.6366
    1OL    C117 6400   2.930   3.874   4.517 -0.6040  0.2737  0.6445
    1OL    H17R 6401   2.899   3.942   4.437 -0.4836  1.3469  1.4771
    1OL    H17S 6402   3.012   3.930   4.562 -0.3507  1.1499 -0.8375
    1OL    C118 6403   2.802   3.863   4.605  0.5410  0.4465  0.1912
    1OL    H18R 6404   2.761   3.962   4.624 -1.9974 -0.8383  1.9807
    1OL    H18S 6405   2.815   3.815   4.702  1.2014 -1.4563 -0.7793
    1OL    H18T 6406   2.729   3.802   4.550  0.4854  1.0120 -0.3716
    1PA    C116 6407   4.043   1.464   4.927  0.3327  0.4739  0.0497
    1PA    H16R 6408   4.099   1.468   5.021  0.4540 -0.3344  0.0249
    1PA    H16S 6409   4.103   1.413   4.851 -1.5286 -1.7611 -0.0239
    1PA    H16T 6410   3.957   1.398   4.941  1.3939 -1.2427 -1.0974
    1PA    C115 6411   4.016   1.612   4.880 -0.2529 -0.4570 -0.1324
    1PA    H15R 6412   3.970   1.658   4.968  2.7747 -1.7153  2.3124
    1PA    H15S 6413   4.105   1.674   4.869 -0.9386  0.8950  1.5106
    1PA    C114 6414   3.919   1.616   4.762 -0.3207  0.0671 -0.2822
    1PA    H14R 6415   3.836   1.548   4.784 -0.4338 -0.0904 -1.1793
    1PA    H14S 6416   3.876   1.715   4.752  0.5159  0.2628 -2.4456
    1PA    C113 6417   3.989   1.572   4.634  1.0217  0.1963 -0.3500
    1PA    H13R 6418   4.078   1.634   4.621  1.2276 -0.1301 -0.4890
    1PA    H13S 6419   3.998   1.465   4.649 -1.6576 -0.1699 -0.7386
    1PA    C112 6420   3.913   1.585   4.503 -0.0064  0.0485 -0.1379
    1PA    H12R 6421   3.884   1.688   4.487  1.0072  0.7676  2.2339
    1PA    H12S 6422   3.985   1.565   4.423  0.4501  0.9448  0.0408
    1PA    C111 6423   3.779   1.500   4.489 -0.5903 -0.6590  0.4859
    1PA    H11R 6424   3.807   1.396   4.506  0.3014 -0.1698  2.2346
    1PA    H11S 6425   3.698   1.539   4.550  0.3992  1.6029  0.4827
    1PA    C110 6426   3.733   1.504   4.337  0.0774  0.7407  0.3913
    1PA    H10R 6427   3.695   1.605   4.322  3.5541  2.0827 -0.5042
    1PA    H10S 6428   3.809   1.492   4.259  1.2269 -2.8315  1.8572
    1PA     C19 6429   3.622   1.407   4.294  0.9094 -0.3883  1.2013
    1PA     H9R 6430   3.652   1.310   4.335  1.4365  0.8361  3.9492
    1PA     H9S 6431   3.536   1.443   4.351  1.3503 -0.5630  1.9980
    1PA     C18 6432   3.610   1.397   4.140  0.1788 -0.3387 -0.3649
    1PA     H8R 6433   3.621   1.492   4.088 -0.7049 -1.4412 -2.6745
    1PA     H8S 6434   3.691   1.346   4.089  2.1234  1.1175  1.1075
    1PA     C17 6435   3.480   1.316   4.110 -0.3128 -0.0578  0.0837
    1PA     H7R 6436   3.494   1.213   4.145 -1.6642 -0.4292 -0.4249
    1PA     H7S 6437   3.404   1.352   4.179  1.5476  0.7324  1.8435
    1PA     C16 6438   3.440   1.298   3.965 -0.3982 -0.1828  0.7701
    1PA     H6R 6439   3.427   1.394   3.915 -0.0790 -0.5949 -0.1274
    1PA     H6S 6440   3.518   1.247   3.908  0.4451  0.9148  0.9092
    1PA     C15 6441   3.306   1.224   3.947 -0.0367 -0.2665 -0.5683
    1PA     H5R 6442   3.316   1.121   3.983  0.5445 -0.8286 -2.2353
    1PA     H5S 6443   3.233   1.276   4.009 -1.5545 -2.3833 -0.4556
    1PA     C14 6444   3.264   1.211   3.804  0.3015  0.0164  0.1530
    1PA     H4R 6445   3.237   1.305   3.757 -2.0955 -0.2827  0.8199
    1PA     H4S 6446   3.353   1.183   3.747 -0.4090 -0.1717 -0.8925
    1PA     C13 6447   3.147   1.111   3.790 -0.1017  0.1561  0.3780
    1PA     H3R 6448   3.169   1.018   3.843 -2.1964  0.7124  2.4203
    1PA     H3S 6449   3.072   1.165   3.848 -1.3683  1.6274 -2.4251
    1PA     C12 6450   3.096   1.093   3.643  0.3152  0.0132  0.2044
    1PA     H2R 6451   3.170   1.044   3.580 -0.7506 -3.0101  1.1068
    1PA     H2S 6452   3.001   1.038   3.635 -0.9319  2.1839 -0.8020
    1PC     C11 6453   3.071   1.227   3.577 -0.4915 -0.1068 -0.5220
    1PC     O12 6454   3.017   1.324   3.631 -0.0365 -0.1879 -0.2051
    1PC     O11 6455   3.104   1.228   3.445  0.4775  0.0055 -0.0694
    1PC      C1 6456   3.113   1.352   3.372  0.4439 -0.0111 -0.4576
    1PC      HR 6457   3.107   1.327   3.266  1.4592  0.3604 -0.6059
    1PC      HS 6458   3.030   1.421   3.391  0.2932  0.2602 -2.0023
    1PC      C2 6459   3.258   1.409   3.392 -0.3248  0.6398  0.7037
    1PC      HX 6460   3.263   1.499   3.330  2.0697 -2.1303 -3.6705
    1PC      C3 6461   3.373   1.320   3.334 -0.3872 -0.9353  0.4749
    1PC      HA 6462   3.468   1.332   3.387 -0.4086 -1.5018  0.6469
    1PC      HB 6463   3.332   1.219   3.341  0.5549 -1.3676 -0.1221
    1PC     O31 6464   3.392   1.358   3.196  0.0505  0.0932 -0.0252
    1PC     P31 6465   3.330   1.279   3.066 -0.2225 -0.5552  0.0060
    1PC     O32 6466   3.454   1.194   3.008 -0.1068 -0.2216 -0.1681
    1PC     C31 6467   3.511   1.081   3.077  0.3029  0.0173  0.5862
    1PC     H1A 6468   3.615   1.095   3.048  0.7428 -0.5050  1.8221
    1PC     H1B 6469   3.498   1.090   3.185 -0.9677 -0.8062  0.5217
    1PC     C32 6470   3.450   0.947   3.028  0.3345  0.3585  0.2649
    1PC     H2A 6471   3.495   0.863   3.082 -0.0385 -1.0643 -1.5551
    1PC     H2B 6472   3.346   0.939   3.059  1.0871 -0.6139  2.8220
    1PC     N31 6473   3.464   0.907   2.888  0.3017 -0.0306 -0.0683
    1PC     C33 6474   3.604   0.910   2.847 -0.2907 -0.7016  0.7410
    1PC     H3A 6475   3.636   1.014   2.838  0.8028 -0.9486  1.5819
    1PC     H3B 6476   3.658   0.851   2.921 -0.5616 -2.1128 -0.1568
    1PC     H3C 6477   3.607   0.857   2.752 -0.1077  0.2565  0.2020
    1PC     C34 6478   3.404   0.770   2.865  0.0182 -0.0998  0.1780
    1PC     H4A 6479   3.467   0.703   2.925  0.4866 -0.6039 -0.8360
    1PC     H4B 6480   3.302   0.767   2.903 -0.7074  0.8956 -1.5707
    1PC     H4C 6481   3.420   0.755   2.757 -1.5862 -0.2518 -0.0601
    1PC     C35 6482   3.389   1.003   2.795  0.4251 -0.3982  0.0823
    1PC     H5A 6483   3.286   1.000   2.830 -0.5622 -0.6493 -2.6353
    1PC     H5B 6484   3.400   0.957   2.697 -2.1090  0.5014 -0.7018
    1PC     H5C 6485   3.435   1.102   2.787 -0.2759 -0.1205 -0.6297
    1PC     O33 6486   3.226   1.176   3.110 -0.1469  0.0930  0.2101
    1PC     O34 6487   3.288   1.384   2.966  0.4274  0.0152  0.1338
    1PC     O21 6488   3.277   1.435   3.539  0.3129  0.0487  0.3894
    1PC     C21 6489   3.239   1.557   3.586  0.6966 -0.1789 -0.2156
    1PC     O22 6490   3.173   1.630   3.517 -0.1469 -0.5183  0.7991
    1OL     C12 6491   3.267   1.586   3.730  0.0284 -0.4003  0.0417
    1OL     H2R 6492   3.314   1.684   3.735  1.0195 -0.9277  2.1621
    1OL     H2S 6493   3.351   1.521   3.754  0.7456  0.8484  1.0101
    1OL     C13 6494   3.144   1.567   3.823 -0.0661  0.7312 -0.1199
    1OL     H3R 6495   3.095   1.471   3.808 -2.3152  1.6466  0.9868
    1OL     H3S 6496   3.071   1.642   3.791 -0.5298 -0.7064 -2.6986
    1OL     C14 6497   3.172   1.591   3.977  1.5350  0.2862 -0.0202
    1OL     H4R 6498   3.171   1.698   3.998 -0.6639 -0.0627  2.0217
    1OL     H4S 6499   3.263   1.535   4.001  0.2738 -2.1567 -0.6826
    1OL     C15 6500   3.055   1.530   4.061  0.0032 -0.4460 -0.0648
    1OL     H5R 6501   3.051   1.421   4.057  2.1099 -0.5570 -0.6182
    1OL     H5S 6502   2.959   1.558   4.018  0.1974 -1.5355 -1.2631
    1OL     C16 6503   3.061   1.586   4.207 -0.7893 -0.2011  0.3734
    1OL     H6R 6504   2.972   1.556   4.263 -1.7082  1.8758  0.1225
    1OL     H6S 6505   3.061   1.695   4.207 -0.9127 -0.2005 -0.3209
    1OL     C17 6506   3.196   1.556   4.281  0.0326 -0.0820  0.4675
    1OL     H7R 6507   3.278   1.620   4.246  0.9458 -0.5076  1.7433
    1OL     H7S 6508   3.228   1.453   4.267 -0.4398 -0.2843  0.8545
    1OL     C18 6509   3.179   1.585   4.431  0.6906 -1.0604  0.4619
    1OL     H8R 6510   3.088   1.530   4.455 -1.3448  1.9750  0.3537
    1OL     H8S 6511   3.141   1.687   4.440 -0.9643 -1.0458 -3.8971
    1OL     C19 6512   3.304   1.551   4.509  0.3299  0.6002  0.6342
    1OL     H9R 6513   3.310   1.445   4.529 -0.5038  0.9597  3.3046
    1OL    C110 6514   3.394   1.633   4.564  0.2098 -0.0316 -0.4224
    1OL    H10R 6515   3.478   1.602   4.625  0.6016  1.6103 -0.0720
    1OL    C111 6516   3.388   1.779   4.525 -0.3136 -0.6478 -0.5932
    1OL    H11R 6517   3.426   1.831   4.613  2.0029 -1.6080 -0.9676
    1OL    H11S 6518   3.292   1.820   4.494 -0.6983 -0.4146  0.8090
    1OL    C112 6519   3.491   1.812   4.412  0.5833 -0.2396 -0.6398
    1OL    H12R 6520   3.470   1.750   4.325 -0.7978 -1.7612  0.7141
    1OL    H12S 6521   3.588   1.785   4.455  0.0107 -1.3209  0.0053
    1OL    C113 6522   3.497   1.960   4.378 -0.4611 -0.1722 -0.0650
    1OL    H13R 6523   3.521   2.012   4.471 -0.1238 -0.1485 -0.1606
    1OL    H13S 6524   3.403   2.001   4.342 -0.9265 -0.5257  0.7348
    1OL    C114 6525   3.617   1.983   4.279 -0.1765  0.1192 -0.0621
    1OL    H14R 6526   3.708   1.970   4.337  0.4440  0.4390 -0.9449
    1OL    H14S 6527   3.615   2.086   4.243  3.1044  0.3014  0.0207
    1OL    C115 6528   3.625   1.888   4.153 -0.2220 -0.7847  0.3245
    1OL    H15R 6529   3.617   1.780   4.168 -0.8705 -0.8921 -0.6942
    1OL    H15S 6530   3.723   1.902   4.107 -0.4715 -0.8505 -0.2328
    1OL    C116 6531   3.535   1.928   4.043  0.2023  0.4764 -0.2559
    1OL    H16R 6532   3.510   2.033   4.052  0.7293  0.5144  0.8882
    1OL    H16S 6533   3.443   1.874   4.066  0.1437  0.4795 -0.4738
    1OL    C117 6534   3.582   1.878   3.899 -0.1668 -0.2489 -0.1261
    1OL    H17R 6535   3.674   1.927   3.867  0.8777 -1.1507  1.3638
    1OL    H17S 6536   3.500   1.910   3.834 -0.2973  0.0523  0.1821
    1OL    C118 6537   3.593   1.725   3.897 -0.1653  0.2234 -0.0757
    1OL    H18R 6538   3.505   1.679   3.942 -0.1035 -0.8412 -0.9888
    1OL    H18S 6539   3.680   1.690   3.954 -1.1122 -1.2195  0.5560
    1OL    H18T 6540   3.610   1.680   3.798 -0.5968  1.6086 -0.7969
    1PA    C116 6541   3.173   2.091   5.099 -0.6874 -0.3778  0.2921
    1PA    H16R 6542   3.260   2.156   5.089 -2.3046  1.7389 -0.6896
    1PA    H16S 6543   3.156   2.060   5.203 -0.9211 -2.3901 -0.3058
    1PA    H16T 6544   3.088   2.153   5.071 -1.2651 -0.5854  1.4772
    1PA    C115 6545   3.177   1.957   5.026 -0.1546  0.4605  0.2836
    1PA    H15R 6546   3.258   1.892   5.060 -0.4189 -0.5218 -0.8582
    1PA    H15S 6547   3.084   1.907   5.053 -0.6491  0.9854 -0.3931
    1PA    C114 6548   3.160   1.965   4.869 -0.3387 -0.0325 -0.1800
    1PA    H14R 6549   3.251   2.015   4.832  0.1407 -1.9345 -1.7421
    1PA    H14S 6550   3.144   1.870   4.818 -3.6179 -0.1078  0.7926
    1PA    C113 6551   3.037   2.043   4.822  0.1700 -0.2353  0.1319
    1PA    H13R 6552   2.950   1.999   4.871  1.0675  1.0982  3.2227
    1PA    H13S 6553   3.037   2.148   4.855  1.1116  0.6087 -2.3038
    1PA    C112 6554   3.009   2.045   4.668 -0.1541 -1.0869  0.1582
    1PA    H12R 6555   3.005   1.939   4.641  0.6536 -1.2819  0.7602
    1PA    H12S 6556   2.907   2.081   4.659 -0.0807 -0.2525  2.2162
    1PA    C111 6557   3.106   2.134   4.579 -0.5224  0.8806  0.2062
    1PA    H11R 6558   3.100   2.242   4.595 -0.4114  1.0135 -0.6017
    1PA    H11S 6559   3.211   2.114   4.604 -0.2357  1.4441 -0.4997
    1PA    C110 6560   3.089   2.105   4.432  0.0945 -0.0377 -0.1162
    1PA    H10R 6561   3.102   2.000   4.401  0.0099 -0.1080  0.0863
    1PA    H10S 6562   2.987   2.137   4.409  1.0048  3.3009  0.0055
    1PA     C19 6563   3.196   2.192   4.350 -0.3255 -0.0785  0.5802
    1PA     H9R 6564   3.191   2.300   4.367  2.6304  0.7089 -2.5223
    1PA     H9S 6565   3.287   2.160   4.401  1.2121  2.1674 -0.6022
    1PA     C18 6566   3.212   2.165   4.197  0.4386  0.2811 -0.5287
    1PA     H8R 6567   3.316   2.185   4.171  0.9758 -2.1576 -0.4599
    1PA     H8S 6568   3.191   2.061   4.173 -0.7792  0.6747 -1.2470
    1PA     C17 6569   3.120   2.248   4.108 -0.0336  0.3617  0.1723
    1PA     H7R 6570   3.018   2.256   4.145  0.3908  0.7330  1.3076
    1PA     H7S 6571   3.156   2.351   4.116  0.5646  0.1910 -0.2252
    1PA     C16 6572   3.126   2.207   3.958  0.0974 -0.5078 -0.0221
    1PA     H6R 6573   3.056   2.277   3.910 -1.3053 -0.7474  1.5653
    1PA     H6S 6574   3.227   2.229   3.923  1.6868 -3.4358  2.3197
    1PA     C15 6575   3.089   2.064   3.919  0.2250  0.1831  0.1063
    1PA     H5R 6576   3.122   2.059   3.815 -1.0414 -0.5634 -0.2855
    1PA     H5S 6577   3.149   1.993   3.977  1.4680  1.1056  0.0065
    1PA     C14 6578   2.946   2.030   3.955  0.5119 -0.5071 -0.2555
    1PA     H4R 6579   2.938   2.033   4.064  0.0930  0.1344 -0.2974
    1PA     H4S 6580   2.878   2.104   3.913  0.7179 -1.1092 -1.7234
    1PA     C13 6581   2.888   1.905   3.901  0.1117  0.2283  0.1802
    1PA     H3R 6582   2.933   1.828   3.964 -0.3199 -0.8348 -0.7699
    1PA     H3S 6583   2.782   1.906   3.926  0.5491 -0.2999  2.2446
    1PA     C12 6584   2.905   1.875   3.752 -0.2724 -0.0222  0.6228
    1PA     H2R 6585   3.007   1.839   3.737 -0.3809 -0.2427  0.4092
    1PA     H2S 6586   2.850   1.783   3.731  0.6435 -0.3641 -0.4228
    1PC     C11 6587   2.855   1.977   3.654 -0.6259 -0.5250 -0.1641
    1PC     O12 6588   2.740   2.015   3.647 -0.1735  0.4386  0.0195
    1PC     O11 6589   2.946   2.030   3.573 -0.0276 -0.2281  0.0315
    1PC      C1 6590   2.921   2.145   3.488  0.4916  0.3756  0.0126
    1PC      HR 6591   2.970   2.121   3.394  2.6278 -2.3214  1.6683
    1PC      HS 6592   2.817   2.156   3.457  0.3891 -1.4701 -0.3975
    1PC      C2 6593   2.971   2.275   3.547  0.3152  0.0783 -0.1200
    1PC      HX 6594   2.958   2.366   3.488  0.4214  0.6106  0.6646
    1PC      C3 6595   3.125   2.267   3.581 -0.0289  0.1887 -0.4760
    1PC      HA 6596   3.128   2.299   3.686 -2.7460  2.6116 -1.0031
    1PC      HB 6597   3.165   2.166   3.569  4.9040  1.4592  2.4542
    1PC     O31 6598   3.217   2.359   3.513  0.6196  0.5147  0.0148
    1PC     P31 6599   3.299   2.308   3.389  0.0740  0.3248 -0.2596
    1PC     O32 6600   3.431   2.248   3.459 -0.1810  0.3325 -0.0468
    1PC     C31 6601   3.445   2.104   3.469  0.8724  0.0121  0.1800
    1PC     H1A 6602   3.519   2.082   3.547  0.6884  0.0333  0.3601
    1PC     H1B 6603   3.356   2.045   3.492  1.0880 -0.4520 -0.1457
    1PC     C32 6604   3.491   2.059   3.328 -0.4833 -0.2732  0.0701
    1PC     H2A 6605   3.480   1.951   3.338 -0.4126 -0.0763  3.6014
    1PC     H2B 6606   3.423   2.104   3.256 -1.4259 -0.6837  0.6828
    1PC     N31 6607   3.632   2.091   3.288 -0.2556 -0.2630 -0.1869
    1PC     C33 6608   3.651   2.052   3.150 -0.1166 -0.5075  0.4575
    1PC     H3A 6609   3.587   2.115   3.088 -0.7638 -2.2892 -0.7866
    1PC     H3B 6610   3.755   2.060   3.117 -0.4614  4.0148 -0.0978
    1PC     H3C 6611   3.615   1.949   3.157  2.8946 -1.6414  0.7808
    1PC     C34 6612   3.655   2.237   3.282 -0.0088 -0.0963 -0.0074
    1PC     H4A 6613   3.570   2.287   3.235 -0.5454  0.2809  1.3194
    1PC     H4B 6614   3.661   2.274   3.385 -0.3827 -1.9077  0.7041
    1PC     H4C 6615   3.749   2.270   3.239 -0.4842  0.8730 -0.3426
    1PC     C35 6616   3.722   2.017   3.384 -0.0198  0.1513  0.2468
    1PC     H5A 6617   3.706   1.909   3.371 -0.6083  0.1534  0.9239
    1PC     H5B 6618   3.704   2.055   3.484  1.5560 -1.0454  1.0365
    1PC     H5C 6619   3.825   2.036   3.354 -1.3055  1.9000 -3.8672
    1PC     O33 6620   3.226   2.197   3.325  0.5252 -0.3325  0.7511
    1PC     O34 6621   3.325   2.432   3.315 -0.0595  0.5316  0.5177
    1PC     O21 6622   2.903   2.294   3.674  0.5671  0.4798 -0.0982
    1PC     C21 6623   2.772   2.334   3.674  0.2620  0.3635 -0.1802
    1PC     O22 6624   2.705   2.359   3.573  0.6165  0.5706  0.2388
    1OL     C12 6625   2.716   2.363   3.817 -0.2148 -0.1015 -0.5586
    1OL     H2R 6626   2.657   2.455   3.816 -1.4804 -0.8608  0.6170
    1OL     H2S 6627   2.796   2.397   3.884 -0.4052 -0.3647 -0.1885
    1OL     C13 6628   2.633   2.243   3.868  0.4713  0.0598 -0.3963
    1OL     H3R 6629   2.668   2.143   3.841 -1.5919 -0.0563 -3.0161
    1OL     H3S 6630   2.541   2.247   3.809 -0.9478  1.8174  1.7965
    1OL     C14 6631   2.610   2.259   4.020  0.0783  0.0307 -0.7117
    1OL     H4R 6632   2.705   2.274   4.072  1.1127 -0.4265 -2.4103
    1OL     H4S 6633   2.575   2.166   4.068 -0.9346  1.0415  0.5970
    1OL     C15 6634   2.499   2.360   4.033 -0.2242 -0.5813 -0.2325
    1OL     H5R 6635   2.405   2.324   3.991 -0.6309  0.4872 -0.2657
    1OL     H5S 6636   2.530   2.447   3.974 -0.6822 -1.3651 -1.6602
    1OL     C16 6637   2.467   2.406   4.176 -0.4679 -0.1237  0.6466
    1OL     H6R 6638   2.433   2.329   4.246 -0.4943 -2.1261 -1.4466
    1OL     H6S 6639   2.383   2.470   4.149  0.1010  1.3471  2.1568
    1OL     C17 6640   2.572   2.502   4.237  0.4702  0.2544  0.3029
    1OL     H7R 6641   2.516   2.574   4.296  0.5305 -0.7975  1.7090
    1OL     H7S 6642   2.643   2.540   4.163 -0.1798 -0.9998 -1.0242
    1OL     C18 6643   2.651   2.423   4.336 -0.3533 -0.3495 -0.0485
    1OL     H8R 6644   2.728   2.372   4.277  1.8539  2.2008  0.4164
    1OL     H8S 6645   2.604   2.346   4.397  0.1854 -0.0663  0.7361
    1OL     C19 6646   2.729   2.512   4.434 -0.5910 -0.0999  0.6689
    1OL     H9R 6647   2.827   2.549   4.403 -0.3747 -0.6554  0.6722
    1OL    C110 6648   2.690   2.545   4.554  0.1482 -0.2355 -0.2107
    1OL    H10R 6649   2.758   2.602   4.616  2.5486 -2.4016 -0.7058
    1OL    C111 6650   2.550   2.514   4.605 -0.0493  0.5291  0.0425
    1OL    H11R 6651   2.554   2.413   4.645  1.2722  0.1478 -0.9844
    1OL    H11S 6652   2.489   2.523   4.514 -0.3764 -0.5467  0.1436
    1OL    C112 6653   2.504   2.606   4.722  0.0543 -0.4086  0.0262
    1OL    H12R 6654   2.397   2.586   4.734  0.5072 -1.5215  2.9870
    1OL    H12S 6655   2.529   2.710   4.697  0.7285 -0.6457 -0.3047
    1OL    C113 6656   2.577   2.578   4.856  0.3234 -0.3614 -0.3914
    1OL    H13R 6657   2.679   2.615   4.866  1.0932 -2.3799 -0.3187
    1OL    H13S 6658   2.579   2.469   4.868 -1.2075 -0.5761 -1.6068
    1OL    C114 6659   2.492   2.630   4.970 -0.0780 -0.6540  0.5015
    1OL    H14R 6660   2.392   2.587   4.968 -0.0408 -0.8317  1.7688
    1OL    H14S 6661   2.484   2.738   4.956  1.0404 -0.8188 -1.9058
    1OL    C115 6662   2.551   2.603   5.119 -0.2696  0.0757  1.2582
    1OL    H15R 6663   2.648   2.649   5.135 -0.6759 -0.0399  4.8475
    1OL    H15S 6664   2.564   2.494   5.120 -2.2889 -0.2261  0.4797
    1OL    C116 6665   2.448   2.650   5.228 -0.1689 -0.2127 -0.5294
    1OL    H16R 6666   2.349   2.604   5.230 -1.2028  1.9003  0.0348
    1OL    H16S 6667   2.439   2.758   5.217  0.9219  0.3958  3.1946
    1OL    C117 6668   2.504   2.632   5.374  0.0597  0.3014  0.1868
    1OL    H17R 6669   2.473   2.537   5.419  0.6897 -0.1399 -0.2895
    1OL    H17S 6670   2.473   2.712   5.441  2.6980  0.2552  1.5516
    1OL    C118 6671   2.655   2.626   5.382 -0.6667 -0.0349  0.6077
    1OL    H18R 6672   2.698   2.532   5.346  0.9859  1.1148 -0.5648
    1OL    H18S 6673   2.674   2.641   5.489  0.5050  0.0639  0.4045
    1OL    H18T 6674   2.710   2.691   5.313 -0.4029 -0.7596  0.1263
    1PA    C116 6675   2.191   3.096   5.098 -0.0032  0.2667  0.5631
    1PA    H16R 6676   2.251   3.131   5.182  3.4763 -0.6701 -1.3098
    1PA    H16S 6677   2.104   3.037   5.127  1.2053 -1.9474 -0.0696
    1PA    H16T 6678   2.161   3.187   5.045 -1.0446  0.4988  1.5191
    1PA    C115 6679   2.272   3.002   5.003  0.1793  0.1354 -0.4879
    1PA    H15R 6680   2.358   3.061   4.971  0.3900  0.1893  0.1518
    1PA    H15S 6681   2.311   2.915   5.058 -0.2636  0.2127 -0.0371
    1PA    C114 6682   2.203   2.954   4.875 -0.0425 -0.4890  0.1666
    1PA    H14R 6683   2.112   2.906   4.912  1.0479 -0.8059  2.6246
    1PA    H14S 6684   2.169   3.042   4.821  2.9031  1.0947  0.6947
    1PA    C113 6685   2.294   2.878   4.777 -0.2037 -0.0818 -0.3504
    1PA    H13R 6686   2.396   2.913   4.793  0.0223 -2.2942  4.9568
    1PA    H13S 6687   2.299   2.781   4.826  3.6121 -0.5281 -1.3690
    1PA    C112 6688   2.248   2.865   4.631 -0.7021  0.1316 -0.0921
    1PA    H12R 6689   2.322   2.808   4.575 -1.1515 -0.4784 -0.0807
    1PA    H12S 6690   2.164   2.795   4.633 -0.5099 -0.0989  2.1100
    1PA    C111 6691   2.209   2.993   4.553  0.4941  0.9547 -0.0313
    1PA    H11R 6692   2.135   3.048   4.612 -1.1989 -0.5196 -0.6678
    1PA    H11S 6693   2.292   3.057   4.526  0.9827 -0.3885 -1.9358
    1PA    C110 6694   2.148   2.956   4.414  0.1838  0.2626 -0.3429
    1PA    H10R 6695   2.052   2.906   4.430  0.2660  0.5531  1.1997
    1PA    H10S 6696   2.132   3.054   4.369  0.5445  1.0103  1.0850
    1PA     C19 6697   2.237   2.854   4.332 -0.4398 -0.1629 -0.5349
    1PA     H9R 6698   2.337   2.897   4.327 -0.2156 -0.6058 -0.0079
    1PA     H9S 6699   2.246   2.755   4.378 -0.7359  0.6559  1.4232
    1PA     C18 6700   2.181   2.840   4.189 -0.6766  0.3096  0.4606
    1PA     H8R 6701   2.100   2.767   4.192  0.0180 -0.4829  0.2842
    1PA     H8S 6702   2.146   2.935   4.147 -1.0328 -0.4541 -1.0499
    1PA     C17 6703   2.282   2.782   4.095  0.4659  0.8427  0.1124
    1PA     H7R 6704   2.328   2.695   4.142  0.4921 -0.6503 -2.4615
    1PA     H7S 6705   2.232   2.738   4.008  2.0582 -1.2294  0.1410
    1PA     C16 6706   2.381   2.878   4.036 -0.3068 -0.4229 -0.0036
    1PA     H6R 6707   2.334   2.968   3.995 -0.3279  0.8676  2.6769
    1PA     H6S 6708   2.459   2.910   4.105 -0.0151  0.8124 -0.8781
    1PA     C15 6709   2.459   2.800   3.928 -0.1261  0.0311 -0.2408
    1PA     H5R 6710   2.499   2.707   3.970  1.9981  0.1704 -1.7777
    1PA     H5S 6711   2.386   2.787   3.848 -2.8643 -0.2815  2.1254
    1PA     C14 6712   2.579   2.881   3.885  0.5636  0.1542  0.8377
    1PA     H4R 6713   2.541   2.960   3.820 -0.0242 -0.3778  0.5248
    1PA     H4S 6714   2.621   2.944   3.964  0.2727 -0.3024  1.3639
    1PA     C13 6715   2.682   2.799   3.796 -0.6066  0.2531 -1.0788
    1PA     H3R 6716   2.759   2.869   3.763  1.7569  0.1715  3.5038
    1PA     H3S 6717   2.745   2.727   3.849  2.0391  2.1908 -1.4125
    1PA     C12 6718   2.621   2.730   3.670  0.3069 -0.5392 -1.1124
    1PA     H2R 6719   2.698   2.682   3.608  1.2438 -0.1075 -0.3142
    1PA     H2S 6720   2.541   2.662   3.699 -0.8731  0.7661 -1.2559
    1PC     C11 6721   2.542   2.820   3.566 -0.0237 -0.2689  0.5841
    1PC     O12 6722   2.503   2.933   3.590 -0.4978  0.1426  0.2560
    1PC     O11 6723   2.526   2.754   3.450 -0.0041  0.3208 -0.2767
    1PC      C1 6724   2.463   2.809   3.334 -0.0173 -0.2600 -0.0984
    1PC      HR 6725   2.470   2.918   3.332  0.5297 -0.2810  0.3668
    1PC      HS 6726   2.520   2.764   3.252  1.0296  1.7091 -0.5123
    1PC      C2 6727   2.306   2.771   3.320 -0.2107 -0.1596  0.2549
    1PC      HX 6728   2.294   2.664   3.336  1.4063 -0.2323  1.1360
    1PC      C3 6729   2.258   2.789   3.176  0.5063 -0.0315  0.1825
    1PC      HA 6730   2.295   2.704   3.117  0.6203 -0.1391  0.4087
    1PC      HB 6731   2.150   2.788   3.188  0.6199  1.7423  1.9068
    1PC     O31 6732   2.296   2.916   3.121  0.2242 -0.1434 -0.4382
    1PC     P31 6733   2.212   3.001   3.013  0.2403 -0.0256 -0.3450
    1PC     O32 6734   2.162   3.128   3.100  0.3005  0.6637 -0.2007
    1PC     C31 6735   2.029   3.131   3.159 -0.1684  0.5591 -0.1269
    1PC     H1A 6736   2.027   3.236   3.191  0.0947  1.1711 -1.9652
    1PC     H1B 6737   1.953   3.119   3.080 -1.3905  0.6658  0.9936
    1PC     C32 6738   2.012   3.028   3.268  0.5205 -0.5349 -0.0209
    1PC     H2A 6739   2.005   2.927   3.229  2.2094 -1.4494  1.8305
    1PC     H2B 6740   2.098   3.026   3.335 -1.4723 -2.1372  2.7331
    1PC     N31 6741   1.886   3.037   3.344 -0.2291 -0.0571  0.1319
    1PC     C33 6742   1.764   3.059   3.261  0.2620 -0.5501 -0.5320
    1PC     H3A 6743   1.737   2.966   3.211  0.0891  0.2113 -1.9097
    1PC     H3B 6744   1.680   3.074   3.329  1.9612  0.4802  1.4717
    1PC     H3C 6745   1.780   3.147   3.198  2.0702 -0.2756  0.2470
    1PC     C34 6746   1.860   2.904   3.423  0.4865 -0.3790  0.2043
    1PC     H4A 6747   1.855   2.815   3.359  0.6211 -1.2176  1.3335
    1PC     H4B 6748   1.948   2.882   3.484 -0.0462  0.7892  1.4490
    1PC     H4C 6749   1.763   2.910   3.472  0.7546  1.7817  0.5520
    1PC     C35 6750   1.894   3.153   3.438 -0.4700 -0.0622  0.5338
    1PC     H5A 6751   1.810   3.143   3.506  0.1165 -2.1953  1.0253
    1PC     H5B 6752   1.887   3.245   3.380 -1.5671  0.3847  1.3425
    1PC     H5C 6753   1.985   3.163   3.498  1.6472  0.2235 -2.4906
    1PC     O33 6754   2.312   3.041   2.909  0.1031  0.1513  0.6559
    1PC     O34 6755   2.094   2.920   2.983  0.2356 -0.4405  0.0975
    1PC     O21 6756   2.230   2.843   3.411 -0.4150  0.3673 -0.6567
    1PC     C21 6757   2.224   2.805   3.545  1.0730 -0.4973 -0.5636
    1PC     O22 6758   2.265   2.702   3.588  0.0022  0.3849  0.0516
    1OL     C12 6759   2.158   2.913   3.628  0.3223 -0.4321  0.8107
    1OL     H2R 6760   2.091   2.975   3.568 -0.4302 -0.4808  1.5859
    1OL     H2S 6761   2.244   2.969   3.664  1.6612 -0.9584 -1.3544
    1OL     C13 6762   2.076   2.860   3.744  0.8998  0.4351 -0.1614
    1OL     H3R 6763   2.136   2.806   3.816 -1.6281 -1.7719  0.4401
    1OL     H3S 6764   1.997   2.799   3.699  0.1660  0.7351  0.6954
    1OL     C14 6765   1.992   2.959   3.829 -0.4628  0.3342 -0.7487
    1OL     H4R 6766   1.907   3.001   3.774 -2.1759 -0.6958  0.9887
    1OL     H4S 6767   2.060   3.038   3.859  1.1877 -0.1267 -3.0474
    1OL     C15 6768   1.932   2.882   3.945  0.5125  0.1452 -0.5268
    1OL     H5R 6769   2.004   2.812   3.988  1.6691  0.0890 -2.4185
    1OL     H5S 6770   1.853   2.819   3.903 -0.5614  0.7640  0.5159
    1OL     C16 6771   1.858   2.958   4.058  0.3332 -0.0969  0.2588
    1OL     H6R 6772   1.772   3.012   4.018  0.1816 -0.1201  0.5459
    1OL     H6S 6773   1.936   3.025   4.094  0.0415  1.1705 -1.3439
    1OL     C17 6774   1.806   2.868   4.165 -0.0102  0.0422  0.1376
    1OL     H7R 6775   1.901   2.828   4.200  0.9664  0.8760 -1.4303
    1OL     H7S 6776   1.754   2.794   4.104 -0.5033  1.7732 -1.6970
    1OL     C18 6777   1.719   2.926   4.282  0.3727  0.7489  1.3016
    1OL     H8R 6778   1.632   2.961   4.227  0.6349 -1.3066 -0.5538
    1OL     H8S 6779   1.777   3.011   4.318  0.4514  0.4457  1.9247
    1OL     C19 6780   1.683   2.815   4.372 -0.2977  0.6955 -0.1607
    1OL     H9R 6781   1.663   2.719   4.323  0.9473 -0.4879  1.5518
    1OL    C110 6782   1.692   2.818   4.506  0.6568 -0.5692  0.4405
    1OL    H10R 6783   1.662   2.736   4.571 -0.7977  0.1486  0.7263
    1OL    C111 6784   1.730   2.939   4.588  0.2894 -0.3248  0.4955
    1OL    H11R 6785   1.718   3.032   4.532 -0.1192 -1.1034 -0.7548
    1OL    H11S 6786   1.831   2.921   4.624  0.0730 -1.0023  0.7955
    1OL    C112 6787   1.649   2.947   4.719  0.0668  0.1558 -0.2475
    1OL    H12R 6788   1.669   2.857   4.778 -0.8485 -0.5715 -1.0005
    1OL    H12S 6789   1.542   2.947   4.699 -0.0418  1.6278  0.2473
    1OL    C113 6790   1.678   3.080   4.797 -0.2562  0.4683 -0.3608
    1OL    H13R 6791   1.660   3.162   4.728 -2.6022  0.5456  0.2448
    1OL    H13S 6792   1.783   3.090   4.825 -0.0971  0.8011 -1.0703
    1OL    C114 6793   1.597   3.108   4.927 -0.4458  0.4099  0.5146
    1OL    H14R 6794   1.634   3.193   4.985 -1.6514  1.8635 -0.7948
    1OL    H14S 6795   1.614   3.014   4.981  1.6752 -0.3884 -1.3662
    1OL    C115 6796   1.444   3.111   4.904  0.4177 -0.6849 -0.7851
    1OL    H15R 6797   1.404   3.021   4.856 -0.8547  0.1426 -1.3342
    1OL    H15S 6798   1.411   3.191   4.837 -1.4673  0.3396  1.2217
    1OL    C116 6799   1.380   3.148   5.044 -0.8263  0.0055  0.7046
    1OL    H16R 6800   1.421   3.236   5.095  2.1883 -0.0570 -1.3459
    1OL    H16S 6801   1.417   3.063   5.102 -3.0784 -0.9123  0.8897
    1OL    C117 6802   1.223   3.144   5.034 -0.6266  1.3951  0.0185
    1OL    H17R 6803   1.172   3.111   5.125 -1.4698  0.4042 -0.7967
    1OL    H17S 6804   1.187   3.079   4.955  0.6616 -0.5796  0.9725
    1OL    C118 6805   1.176   3.290   5.021  0.2611  0.2678  0.4534
    1OL    H18R 6806   1.078   3.295   4.973  0.5676 -0.2791 -0.2558
    1OL    H18S 6807   1.230   3.353   4.950 -1.0156  0.0960 -0.7299
    1OL    H18T 6808   1.178   3.339   5.118  0.9883 -0.1141  0.6396
    1PA    C116 6809   1.704   1.221   5.154  0.3568 -0.2711 -0.2501
    1PA    H16R 6810   1.635   1.281   5.093 -0.9113  0.4237  1.7698
    1PA    H16S 6811   1.730   1.279   5.242  1.1786 -0.1007 -0.5945
    1PA    H16T 6812   1.641   1.135   5.179 -0.7414  0.0491 -1.7691
    1PA    C115 6813   1.828   1.166   5.085  0.8486  0.6451 -0.1207
    1PA    H15R 6814   1.795   1.077   5.031 -2.8078  1.5939  0.3080
    1PA    H15S 6815   1.860   1.226   5.000  0.7278  1.3355  0.3189
    1PA    C114 6816   1.954   1.142   5.170  0.5455 -0.4126 -0.2331
    1PA    H14R 6817   1.976   1.237   5.219 -2.1131  1.1734 -1.8705
    1PA    H14S 6818   1.939   1.074   5.254 -0.2152  0.4819  0.3740
    1PA    C113 6819   2.073   1.102   5.079  0.4976  0.2047 -0.4822
    1PA    H13R 6820   2.075   1.176   4.999  1.6217  0.7445  0.0302
    1PA    H13S 6821   2.166   1.129   5.130 -0.9170  2.1440  1.2252
    1PA    C112 6822   2.079   0.961   5.023  0.4408  0.1094  0.4457
    1PA    H12R 6823   2.079   0.887   5.103 -0.2092 -0.1405  0.2242
    1PA    H12S 6824   1.990   0.954   4.960  0.3376  1.5622  0.3794
    1PA    C111 6825   2.197   0.921   4.940 -0.6114 -0.7032 -0.5526
    1PA    H11R 6826   2.209   0.992   4.858 -4.3349  1.6102  0.6909
    1PA    H11S 6827   2.295   0.932   4.988  0.1716 -2.7881 -1.5223
    1PA    C110 6828   2.192   0.770   4.891 -0.1062 -0.1637  0.2449
    1PA    H10R 6829   2.220   0.709   4.976 -2.2671 -1.5434  0.0528
    1PA    H10S 6830   2.089   0.750   4.861  0.0605  0.0375 -0.5038
    1PA     C19 6831   2.286   0.730   4.775  0.3052 -0.1434 -0.4823
    1PA     H9R 6832   2.389   0.756   4.799 -0.4358  1.5058  1.1664
    1PA     H9S 6833   2.290   0.621   4.770 -2.4128 -0.3164 -0.5954
    1PA     C18 6834   2.249   0.790   4.635  0.4417  0.1205  0.3470
    1PA     H8R 6835   2.147   0.758   4.611 -0.4323  2.4357  0.6791
    1PA     H8S 6836   2.239   0.896   4.658 -0.4017 -0.5349  3.5434
    1PA     C17 6837   2.340   0.764   4.520 -0.0724 -0.2040  0.7225
    1PA     H7R 6838   2.431   0.819   4.543  0.2072  1.4597 -3.4020
    1PA     H7S 6839   2.355   0.656   4.511  0.0408 -0.1136 -0.2754
    1PA     C16 6840   2.288   0.808   4.379 -0.1113  0.0006 -0.0915
    1PA     H6R 6841   2.198   0.747   4.369  0.1263 -0.7539  1.9908
    1PA     H6S 6842   2.264   0.915   4.382  0.3610  0.0874  0.6935
    1PA     C15 6843   2.381   0.777   4.258  0.3545  0.3045 -0.3332
    1PA     H5R 6844   2.478   0.826   4.269 -0.5540  2.3798 -0.9629
    1PA     H5S 6845   2.387   0.668   4.255 -0.8589  0.2073 -3.6066
    1PA     C14 6846   2.313   0.827   4.133  0.3561 -0.7310 -0.5625
    1PA     H4R 6847   2.213   0.783   4.125 -0.1645  0.6195 -2.3428
    1PA     H4S 6848   2.294   0.934   4.134 -1.0437 -0.8043  4.1723
    1PA     C13 6849   2.398   0.792   4.013  0.1119  0.6228  0.1935
    1PA     H3R 6850   2.505   0.796   4.034 -0.0855  2.0633  1.0967
    1PA     H3S 6851   2.386   0.687   3.986  2.6293  0.6093 -1.1312
    1PA     C12 6852   2.365   0.868   3.885 -0.1439  0.1368  0.2614
    1PA     H2R 6853   2.348   0.972   3.914  0.2442  0.7331 -1.4900
    1PA     H2S 6854   2.440   0.857   3.806 -0.7948  0.2893 -0.3850
    1PC     C11 6855   2.239   0.812   3.826 -0.7360  0.3360  0.1215
    1PC     O12 6856   2.166   0.731   3.886  0.3081 -0.7266  1.1402
    1PC     O11 6857   2.210   0.878   3.714  0.2679  0.1686 -0.0273
    1PC      C1 6858   2.087   0.853   3.640  0.5545  0.5375  0.0218
    1PC      HR 6859   2.080   0.745   3.631  1.9991  0.2660  1.6975
    1PC      HS 6860   1.997   0.881   3.696 -0.5458 -3.8747  0.8504
    1PC      C2 6861   2.084   0.915   3.495 -0.0361 -0.2150  0.2877
    1PC      HX 6862   1.990   0.890   3.447  0.6986  2.0320 -2.6377
    1PC      C3 6863   2.194   0.858   3.408  0.6421  0.2402 -0.3338
    1PC      HA 6864   2.293   0.887   3.443 -0.2601  1.3080  1.4686
    1PC      HB 6865   2.189   0.750   3.390  0.4532  0.4352 -1.5828
    1PC     O31 6866   2.184   0.923   3.277  0.1304 -0.3514 -1.1256
    1PC     P31 6867   2.289   0.896   3.165  0.1104  0.1650 -0.2369
    1PC     O32 6868   2.402   1.000   3.176  0.4193 -0.4920  0.1638
    1PC     C31 6869   2.371   1.141   3.144 -1.1655 -0.5023 -0.7836
    1PC     H1A 6870   2.268   1.166   3.170 -1.2826 -1.0974 -0.6619
    1PC     H1B 6871   2.431   1.205   3.209 -0.9496 -1.1907 -0.2878
    1PC     C32 6872   2.408   1.173   2.991  0.1929  0.3670 -0.2766
    1PC     H2A 6873   2.348   1.099   2.938  0.1986 -0.7145  1.1408
    1PC     H2B 6874   2.383   1.277   2.973  1.1857  0.2847 -2.4391
    1PC     N31 6875   2.548   1.167   2.939 -0.0166 -0.9915 -0.3178
    1PC     C33 6876   2.538   1.182   2.785 -0.3851  0.3563  0.3191
    1PC     H3A 6877   2.636   1.178   2.738 -0.0101  0.3477  1.0843
    1PC     H3B 6878   2.468   1.106   2.749 -2.0412  2.0739 -0.2773
    1PC     H3C 6879   2.496   1.278   2.754 -2.3460 -0.0462  1.5478
    1PC     C34 6880   2.628   1.281   2.996 -0.0525  0.8836  0.4680
    1PC     H4A 6881   2.574   1.372   2.971 -1.5334 -0.1530 -0.2700
    1PC     H4B 6882   2.637   1.283   3.104  3.7416 -1.1750  0.3490
    1PC     H4C 6883   2.728   1.285   2.952 -0.0602 -1.7925  0.0027
    1PC     C35 6884   2.616   1.040   2.972 -0.5681  0.0384  0.6351
    1PC     H5A 6885   2.625   1.034   3.080 -0.5166  1.2179  0.7156
    1PC     H5B 6886   2.716   1.040   2.930 -0.6591  2.8307  0.2360
    1PC     H5C 6887   2.554   0.962   2.927  0.4011 -0.6473  0.4599
    1PC     O33 6888   2.352   0.757   3.175  0.1331 -0.4004  0.2447
    1PC     O34 6889   2.221   0.925   3.039  0.2025  0.5280  0.0634
    1PC     O21 6890   2.089   1.058   3.504  0.0643 -0.2083 -0.1155
    1PC     C21 6891   1.989   1.115   3.565 -0.3080 -0.1456 -0.4416
    1PC     O22 6892   1.879   1.062   3.591 -0.2436 -0.4859 -0.0633
    1OL     C12 6893   2.014   1.267   3.574 -0.7112  0.3206  0.1483
    1OL     H2R 6894   1.926   1.325   3.603  0.1011  2.4826 -1.4914
    1OL     H2S 6895   2.040   1.301   3.473 -0.2831 -0.7467 -0.1200
    1OL     C13 6896   2.134   1.294   3.670  0.3762 -0.3866 -0.0319
    1OL     H3R 6897   2.160   1.399   3.656 -1.4542  0.0010 -0.7506
    1OL     H3S 6898   2.219   1.239   3.628 -0.7184 -0.6247 -2.0418
    1OL     C14 6899   2.099   1.258   3.817 -1.2663 -0.7870  0.0078
    1OL     H4R 6900   2.059   1.156   3.824  0.3048 -1.5600 -1.4398
    1OL     H4S 6901   2.026   1.332   3.849 -0.2031  0.5558 -0.5819
    1OL     C15 6902   2.227   1.275   3.903  0.3057  0.5957 -0.3146
    1OL     H5R 6903   2.275   1.365   3.862 -0.1927 -0.0111 -2.3077
    1OL     H5S 6904   2.306   1.202   3.882  1.5457  0.8120  2.9447
    1OL     C16 6905   2.217   1.282   4.062  0.2154 -0.4561 -0.0407
    1OL     H6R 6906   2.316   1.310   4.096  0.0285  1.7342 -1.1024
    1OL     H6S 6907   2.181   1.187   4.101  1.0555 -0.3689  0.9836
    1OL     C17 6908   2.116   1.389   4.115  0.1921  0.4782 -0.2322
    1OL     H7R 6909   2.013   1.362   4.092  0.5647 -0.8522 -0.4078
    1OL     H7S 6910   2.141   1.480   4.061  2.5914  0.7862  1.2567
    1OL     C18 6911   2.125   1.426   4.261  0.3358 -0.1852  0.7104
    1OL     H8R 6912   2.073   1.519   4.285  2.6150  1.1860  0.5654
    1OL     H8S 6913   2.230   1.450   4.277  0.1300  1.0249  0.2972
    1OL     C19 6914   2.080   1.311   4.348  0.3271  0.6434 -0.5277
    1OL     H9R 6915   1.986   1.267   4.316 -0.1943  1.6286 -0.4087
    1OL    C110 6916   2.152   1.262   4.450  0.8482  0.1404 -0.7598
    1OL    H10R 6917   2.119   1.182   4.516 -0.2595  1.7062  0.6733
    1OL    C111 6918   2.282   1.316   4.500  0.0317  0.3638 -0.0174
    1OL    H11R 6919   2.289   1.326   4.608  1.4257 -1.5952  0.1295
    1OL    H11S 6920   2.296   1.417   4.461 -1.4246  1.3540  1.8650
    1OL    C112 6921   2.406   1.237   4.452  0.5521  0.4724 -0.8756
    1OL    H12R 6922   2.491   1.303   4.438  1.4742 -0.2760  0.8731
    1OL    H12S 6923   2.381   1.189   4.357  2.1122 -1.4036 -0.4100
    1OL    C113 6924   2.442   1.114   4.547 -0.3877  0.1146 -0.0759
    1OL    H13R 6925   2.481   1.034   4.484  0.4109  0.3507  0.1083
    1OL    H13S 6926   2.350   1.073   4.590 -1.3083  0.6162 -1.4741
    1OL    C114 6927   2.553   1.135   4.652  0.3718 -0.0243 -0.3195
    1OL    H14R 6928   2.530   1.220   4.717 -1.1787 -0.2078 -0.5868
    1OL    H14S 6929   2.642   1.169   4.599  0.9264  0.9750  1.1899
    1OL    C115 6930   2.572   1.014   4.740  0.2233 -0.0976  0.2208
    1OL    H15R 6931   2.614   0.939   4.673  0.3916  0.3046 -0.1348
    1OL    H15S 6932   2.475   0.990   4.782 -0.5045 -1.7822 -2.2328
    1OL    C116 6933   2.669   1.043   4.859  1.1914 -0.0898  0.1072
    1OL    H16R 6934   2.605   1.058   4.946 -0.3668 -2.4544 -0.5181
    1OL    H16S 6935   2.715   1.138   4.831 -1.6919  1.7901  1.2447
    1OL    C117 6936   2.770   0.930   4.880 -0.1864  0.2129  0.2798
    1OL    H17R 6937   2.842   0.932   4.798 -0.5203  3.1185 -0.0370
    1OL    H17S 6938   2.715   0.836   4.873 -1.1613  0.8341 -0.8161
    1OL    C118 6939   2.831   0.929   5.020  0.1439  0.7101 -0.0827
    1OL    H18R 6940   2.866   0.828   5.041  0.1580  0.2743 -2.0431
    1OL    H18S 6941   2.759   0.959   5.097 -1.3416 -0.9630 -0.7349
    1OL    H18T 6942   2.915   0.999   5.022  1.8739 -1.2433 -1.0823
    1PA    C116 6943   2.098   2.697   5.321  0.2367 -0.0432  0.0197
    1PA    H16R 6944   2.014   2.760   5.351  0.8140  0.6042  0.3095
    1PA    H16S 6945   2.185   2.759   5.296  0.3872 -0.8377 -1.5488
    1PA    H16T 6946   2.120   2.641   5.412 -0.0494 -2.6059 -1.3894
    1PA    C115 6947   2.060   2.604   5.210  0.0157  0.8430 -0.0287
    1PA    H15R 6948   2.141   2.532   5.199 -0.8846 -0.2031  0.0895
    1PA    H15S 6949   1.973   2.549   5.245  2.3769 -1.3436  2.8783
    1PA    C114 6950   2.037   2.672   5.072 -0.1522  0.3696 -0.7204
    1PA    H14R 6951   1.944   2.730   5.076 -0.0941  0.4123  0.1735
    1PA    H14S 6952   2.118   2.740   5.045 -0.7575  0.2007 -3.2320
    1PA    C113 6953   2.035   2.549   4.973 -0.2725 -0.5190  0.1725
    1PA    H13R 6954   2.121   2.484   4.984 -1.0763 -1.7814 -0.7493
    1PA    H13S 6955   1.948   2.484   4.990  1.0305 -3.2900 -2.8396
    1PA    C112 6956   2.025   2.597   4.827 -0.6786  0.5392 -0.0293
    1PA    H12R 6957   1.950   2.675   4.810  0.6994  2.2219  1.2120
    1PA    H12S 6958   2.124   2.635   4.798  0.0693 -2.4368 -1.7500
    1PA    C111 6959   1.997   2.482   4.727 -0.9877  0.5576 -0.3333
    1PA    H11R 6960   2.084   2.419   4.744 -2.1629 -0.6782  1.3979
    1PA    H11S 6961   1.904   2.434   4.758 -1.1357  2.5862  2.8793
    1PA    C110 6962   1.979   2.533   4.584 -0.4560 -0.5739 -0.2264
    1PA    H10R 6963   1.879   2.577   4.574 -0.4473 -0.1730  1.1352
    1PA    H10S 6964   2.046   2.611   4.547  1.5527 -2.1635 -0.1152
    1PA     C19 6965   1.990   2.417   4.475  0.9471 -0.3289 -0.5533
    1PA     H9R 6966   2.093   2.383   4.468  1.0813  0.1625 -0.9900
    1PA     H9S 6967   1.929   2.333   4.510  1.3806 -1.5313 -2.5547
    1PA     C18 6968   1.947   2.474   4.340  0.0794 -0.0653 -0.6077
    1PA     H8R 6969   1.839   2.471   4.326  0.1332 -0.7143 -0.9397
    1PA     H8S 6970   1.975   2.579   4.336 -0.7345  0.1425 -0.9827
    1PA     C17 6971   2.004   2.389   4.229  0.2266 -0.4579 -0.0106
    1PA     H7R 6972   2.112   2.400   4.233  0.2488 -0.9878  2.0126
    1PA     H7S 6973   1.980   2.287   4.260 -0.5862  0.1888  1.6349
    1PA     C16 6974   1.955   2.438   4.092 -0.5559  0.0483 -0.7162
    1PA     H6R 6975   1.979   2.544   4.098  0.3826 -0.1797 -0.1759
    1PA     H6S 6976   2.014   2.387   4.015 -1.0090 -1.7781  0.0913
    1PA     C15 6977   1.806   2.420   4.055 -0.2128 -0.4776 -0.0780
    1PA     H5R 6978   1.778   2.318   4.080  1.2530 -1.2660 -1.4296
    1PA     H5S 6979   1.760   2.488   4.126  3.0101  1.4004  0.4256
    1PA     C14 6980   1.765   2.428   3.906 -0.6321  0.1833 -0.2861
    1PA     H4R 6981   1.828   2.358   3.850  0.3964 -1.6638  2.9028
    1PA     H4S 6982   1.659   2.402   3.910 -0.9595  0.7066 -3.0489
    1PA     C13 6983   1.770   2.568   3.845  0.3223 -0.1318 -0.2022
    1PA     H3R 6984   1.717   2.640   3.907  1.3010  2.2595 -1.9867
    1PA     H3S 6985   1.877   2.591   3.845  0.3627 -0.3055  0.6358
    1PA     C12 6986   1.719   2.584   3.701 -0.9353  0.4878 -0.0986
    1PA     H2R 6987   1.613   2.557   3.696 -0.4644 -1.8637  1.0233
    1PA     H2S 6988   1.721   2.686   3.664 -3.3981 -0.1697 -2.3720
    1PC     C11 6989   1.800   2.502   3.600 -0.3353 -0.0280  0.0841
    1PC     O12 6990   1.922   2.514   3.595  0.2573 -1.0101 -0.5704
    1PC     O11 6991   1.717   2.420   3.528  0.5680 -0.3781 -0.2541
    1PC      C1 6992   1.786   2.337   3.431  0.5241 -0.0752  0.5918
    1PC      HR 6993   1.807   2.394   3.340  0.0733 -0.9444 -0.0712
    1PC      HS 6994   1.877   2.301   3.480  0.0957 -0.2606  1.2651
    1PC      C2 6995   1.701   2.213   3.403 -0.0336  0.0149  0.1398
    1PC      HX 6996   1.740   2.148   3.324  0.1675  0.0064  0.2458
    1PC      C3 6997   1.563   2.255   3.353  0.1457 -0.1258 -0.0170
    1PC      HA 6998   1.490   2.188   3.400  0.0284  0.6699  0.9809
    1PC      HB 6999   1.525   2.351   3.391 -0.9543 -0.6750  0.3179
    1PC     O31 7000   1.550   2.247   3.210 -0.0966 -0.1276 -0.2161
    1PC     P31 7001   1.599   2.360   3.105 -0.2205 -0.0542 -0.3826
    1PC     O32 7002   1.751   2.324   3.096 -0.5525  0.2539 -0.0845
    1PC     C31 7003   1.801   2.204   3.032 -0.2703 -0.0873  0.2579
    1PC     H1A 7004   1.840   2.138   3.111 -2.1943 -1.5160  0.0903
    1PC     H1B 7005   1.723   2.151   2.977 -1.0535  1.9418 -0.6629
    1PC     C32 7006   1.908   2.242   2.927 -0.2396  0.3404  0.0422
    1PC     H2A 7007   1.996   2.275   2.982 -0.7325  0.6104  0.6794
    1PC     H2B 7008   1.942   2.147   2.885 -0.9900 -1.3462  3.0002
    1PC     N31 7009   1.879   2.336   2.809  0.1725  0.2129 -0.6299
    1PC     C33 7010   1.771   2.275   2.724 -0.0104 -0.4408  0.0184
    1PC     H3A 7011   1.764   2.317   2.623  2.6381 -2.0358 -0.9263
    1PC     H3B 7012   1.801   2.171   2.715  0.8978 -0.1902  0.0604
    1PC     H3C 7013   1.675   2.289   2.775  0.9892 -2.3935  2.6166
    1PC     C34 7014   1.836   2.470   2.851  0.0488 -0.3773 -0.4870
    1PC     H4A 7015   1.740   2.473   2.901  0.4353  1.6301  0.2412
    1PC     H4B 7016   1.910   2.527   2.908  0.8365  0.0302 -1.8492
    1PC     H4C 7017   1.825   2.524   2.756  0.1584  0.1871 -0.1814
    1PC     C35 7018   2.004   2.354   2.728 -0.1529 -0.3724 -0.0755
    1PC     H5A 7019   2.040   2.261   2.683  0.0280 -0.6423  0.6171
    1PC     H5B 7020   2.073   2.408   2.794 -1.0753  1.0021 -0.1930
    1PC     H5C 7021   1.979   2.429   2.652  0.9058  0.3447  0.2549
    1PC     O33 7022   1.534   2.336   2.974  0.2417  0.1737  0.4635
    1PC     O34 7023   1.583   2.495   3.166 -0.2634 -0.4069 -0.5997
    1PC     O21 7024   1.683   2.146   3.525  0.2582 -0.3346 -0.2258
    1PC     C21 7025   1.774   2.052   3.556 -0.0240 -0.1848 -0.4220
    1PC     O22 7026   1.881   2.043   3.497  0.0178  0.1974  0.2531
    1OL     C12 7027   1.753   1.972   3.684  0.3949  0.8766 -0.3354
    1OL     H2R 7028   1.808   1.880   3.662 -1.8357 -0.2847 -1.4510
    1OL     H2S 7029   1.645   1.963   3.700  0.6563 -1.4456  0.6879
    1OL     C13 7030   1.811   2.027   3.808 -0.7262 -0.3590 -0.3013
    1OL     H3R 7031   1.778   1.964   3.890 -1.2469  1.3399  0.8538
    1OL     H3S 7032   1.778   2.131   3.821 -0.2743 -0.4213  1.5893
    1OL     C14 7033   1.968   2.030   3.805  0.2505 -0.8990 -0.1709
    1OL     H4R 7034   2.009   2.099   3.731  0.9211 -1.0866  0.0218
    1OL     H4S 7035   2.009   1.933   3.776  1.4853 -0.7473  0.9619
    1OL     C15 7036   2.027   2.063   3.941  0.7563 -0.1846  0.5812
    1OL     H5R 7037   1.993   1.984   4.007  1.4830 -1.2534 -0.2893
    1OL     H5S 7038   1.978   2.153   3.978 -0.3979 -0.9821  1.0367
    1OL     C16 7039   2.179   2.077   3.945 -0.6107  0.0090  0.0830
    1OL     H6R 7040   2.199   2.164   3.882  0.0985 -1.8886 -2.5288
    1OL     H6S 7041   2.220   1.984   3.905 -1.2874 -0.8146  1.2477
    1OL     C17 7042   2.242   2.113   4.077  0.4356  0.2845 -0.6625
    1OL     H7R 7043   2.226   2.216   4.111  1.7020 -0.1867  1.5759
    1OL     H7S 7044   2.349   2.118   4.056  0.7871 -2.3445  0.1707
    1OL     C18 7045   2.238   2.018   4.190  0.2988 -0.2744 -0.6588
    1OL     H8R 7046   2.327   2.029   4.252 -0.6117  0.3797  0.5939
    1OL     H8S 7047   2.245   1.918   4.147  0.9755  0.1673 -1.6036
    1OL     C19 7048   2.110   2.025   4.270 -0.1715 -0.5067 -0.4312
    1OL     H9R 7049   2.022   2.000   4.211  0.5158  2.3940 -2.9998
    1OL    C110 7050   2.109   2.050   4.399  0.0752  0.1688  0.5444
    1OL    H10R 7051   2.012   2.045   4.447  0.1541  0.3911  0.7312
    1OL    C111 7052   2.228   2.076   4.492 -1.6652  0.8657  0.7190
    1OL    H11R 7053   2.196   2.152   4.563 -1.8076  2.0429 -0.5716
    1OL    H11S 7054   2.310   2.127   4.442 -0.4957 -2.4309 -1.0754
    1OL    C112 7055   2.287   1.950   4.557 -0.0263  0.1009 -0.3187
    1OL    H12R 7056   2.359   1.981   4.632  0.8465  1.6860 -1.7378
    1OL    H12S 7057   2.347   1.890   4.488 -1.3479 -1.0349 -0.5220
    1OL    C113 7058   2.176   1.868   4.625 -0.0987 -0.8085 -0.5493
    1OL    H13R 7059   2.086   1.861   4.564  0.7178  1.9457 -2.2719
    1OL    H13S 7060   2.142   1.941   4.698  1.6861 -1.2725  0.8211
    1OL    C114 7061   2.223   1.736   4.686  0.3856  0.3448  0.3131
    1OL    H14R 7062   2.305   1.755   4.755  1.2256 -0.0020 -0.5764
    1OL    H14S 7063   2.267   1.677   4.606 -1.0944 -0.8850  0.3604
    1OL    C115 7064   2.115   1.644   4.743  0.0753  0.2715  0.1915
    1OL    H15R 7065   2.049   1.692   4.816 -1.7786 -0.3485 -0.9813
    1OL    H15S 7066   2.172   1.576   4.807 -1.6178 -0.8477  0.5918
    1OL    C116 7067   2.032   1.570   4.637  0.7511 -0.5503 -0.4438
    1OL    H16R 7068   2.103   1.497   4.600  2.3599 -0.1872  1.7315
    1OL    H16S 7069   1.998   1.637   4.557  0.0121 -1.2792 -0.7515
    1OL    C117 7070   1.908   1.501   4.692 -0.4259  0.3872 -1.1826
    1OL    H17R 7071   1.841   1.496   4.606 -0.0988 -0.8433 -1.3921
    1OL    H17S 7072   1.866   1.563   4.772 -0.8349 -1.0143 -0.2709
    1OL    C118 7073   1.923   1.358   4.733  0.4553  0.0948 -0.6169
    1OL    H18R 7074   2.006   1.342   4.803  0.3671 -0.3584 -0.6121
    1OL    H18S 7075   1.933   1.298   4.642  0.7077 -2.6047  1.0661
    1OL    H18T 7076   1.835   1.316   4.782  0.2754 -1.5937 -2.2674
    1PA    C116 7077   2.606   3.427   5.329 -0.3579  0.6683  0.7280
    1PA    H16R 7078   2.526   3.486   5.284 -0.2199 -0.1795 -0.6819
    1PA    H16S 7079   2.663   3.503   5.382 -0.1769  1.2150 -0.2299
    1PA    H16T 7080   2.558   3.362   5.404  1.9399 -0.2959  1.4632
    1PA    C115 7081   2.690   3.335   5.243 -0.6162  0.1536 -1.3197
    1PA    H15R 7082   2.778   3.306   5.302 -2.2567 -1.1853  0.5862
    1PA    H15S 7083   2.638   3.242   5.222  0.5779 -0.8780  0.0454
    1PA    C114 7084   2.736   3.390   5.112  0.8033 -0.4507  1.1906
    1PA    H14R 7085   2.775   3.492   5.115  0.4124 -0.2497  0.0212
    1PA    H14S 7086   2.817   3.326   5.075  1.6275  0.7186  0.9198
    1PA    C113 7087   2.634   3.394   4.996  0.0373  0.2071  0.4877
    1PA    H13R 7088   2.622   3.293   4.957  1.3681  0.4085 -0.5208
    1PA    H13S 7089   2.533   3.419   5.028 -0.2089 -1.0594  0.7670
    1PA    C112 7090   2.683   3.485   4.887 -0.4336  0.4677  0.4724
    1PA    H12R 7091   2.679   3.585   4.931 -1.8708  0.6604 -0.0474
    1PA    H12S 7092   2.785   3.461   4.856 -1.3257  0.5704 -2.9271
    1PA    C111 7093   2.598   3.512   4.752 -0.1062  0.9873 -0.1824
    1PA    H11R 7094   2.507   3.559   4.792  0.1147 -1.2956  3.4566
    1PA    H11S 7095   2.657   3.573   4.684 -1.2888 -0.7049 -2.8752
    1PA    C110 7096   2.556   3.384   4.685  0.0881  0.0877  0.3960
    1PA    H10R 7097   2.644   3.323   4.662  1.2258  1.9655 -0.5151
    1PA    H10S 7098   2.480   3.334   4.746 -0.7215 -0.8495 -1.2935
    1PA     C19 7099   2.492   3.409   4.546 -0.7449 -0.2472 -0.1384
    1PA     H9R 7100   2.449   3.508   4.531 -0.1462 -0.3383 -2.8739
    1PA     H9S 7101   2.582   3.404   4.484  0.1121 -1.1732  1.1288
    1PA     C18 7102   2.401   3.294   4.504  0.1744  0.0253  0.5800
    1PA     H8R 7103   2.467   3.209   4.522  1.1034  0.6093  0.0054
    1PA     H8S 7104   2.312   3.288   4.566 -1.3931 -0.8896 -1.6036
    1PA     C17 7105   2.362   3.285   4.354  0.4737 -0.4899 -0.0449
    1PA     H7R 7106   2.278   3.216   4.341 -1.1132  1.2644  0.4152
    1PA     H7S 7107   2.319   3.383   4.335 -1.8564 -1.1031  1.6521
    1PA     C16 7108   2.458   3.245   4.241  0.9289  0.2110  1.1101
    1PA     H6R 7109   2.560   3.278   4.263  1.9840 -0.7777 -1.8265
    1PA     H6S 7110   2.471   3.137   4.239  0.6347  0.1788 -0.1083
    1PA     C15 7111   2.419   3.273   4.096  0.2027  0.5923 -0.4939
    1PA     H5R 7112   2.505   3.234   4.040  0.0222 -0.6132  0.0252
    1PA     H5S 7113   2.323   3.230   4.069 -0.0588  0.7419  0.1761
    1PA     C14 7114   2.405   3.423   4.060  0.3373  0.3706  0.4111
    1PA     H4R 7115   2.319   3.466   4.112 -0.9510 -1.6401  0.0870
    1PA     H4S 7116   2.496   3.473   4.094  0.7731  0.2605 -0.5432
    1PA     C13 7117   2.381   3.443   3.912  0.0766 -0.0420  0.1335
    1PA     H3R 7118   2.311   3.367   3.878 -0.5281  0.1964  0.8383
    1PA     H3S 7119   2.340   3.542   3.888  1.0677  0.2630 -0.3794
    1PA     C12 7120   2.523   3.421   3.837  0.4535  0.0723  0.1846
    1PA     H2R 7121   2.603   3.434   3.909  2.7800 -3.1242 -1.5693
    1PA     H2S 7122   2.531   3.316   3.808  2.1272  0.1773  0.1983
    1PC     C11 7123   2.533   3.500   3.710 -0.3720  0.2908  0.2472
    1PC     O12 7124   2.451   3.562   3.645 -0.3345 -0.7470 -0.2355
    1PC     O11 7125   2.656   3.512   3.670  0.1516  0.1431  0.0066
    1PC      C1 7126   2.695   3.589   3.553 -0.1351  0.0084  0.1145
    1PC      HR 7127   2.667   3.533   3.463  0.2388 -1.5761  0.9449
    1PC      HS 7128   2.648   3.687   3.559  0.0043 -0.0094  1.9309
    1PC      C2 7129   2.849   3.604   3.543  0.1599 -0.2384 -0.4483
    1PC      HX 7130   2.878   3.694   3.488 -0.5251 -0.5347 -1.3332
    1PC      C3 7131   2.927   3.483   3.476  0.2334 -0.1278  0.1964
    1PC      HA 7132   3.025   3.464   3.521  0.8662 -0.9218 -1.4564
    1PC      HB 7133   2.866   3.392   3.490  1.2238 -1.0006 -0.9890
    1PC     O31 7134   2.952   3.502   3.337 -0.0641 -0.0662  0.1236
    1PC     P31 7135   2.827   3.504   3.234  0.4013 -0.4922  0.2216
    1PC     O32 7136   2.755   3.365   3.268 -0.5798 -0.2305 -0.3702
    1PC     C31 7137   2.751   3.256   3.171 -0.4874  0.3347  0.4277
    1PC     H1A 7138   2.850   3.244   3.127  1.0615  0.6849  3.5441
    1PC     H1B 7139   2.723   3.157   3.209  0.3869 -0.2355 -0.3565
    1PC     C32 7140   2.645   3.298   3.063  0.0348 -1.1419 -0.1104
    1PC     H2A 7141   2.678   3.394   3.023  0.0018 -0.5049  1.3188
    1PC     H2B 7142   2.652   3.220   2.987 -0.0128 -1.0729 -0.1858
    1PC     N31 7143   2.507   3.309   3.107 -0.2172  0.4296  0.6057
    1PC     C33 7144   2.421   3.321   2.992 -0.2523  0.1010 -0.0811
    1PC     H3A 7145   2.324   3.357   3.026  0.4329  4.1524 -1.7665
    1PC     H3B 7146   2.452   3.402   2.925 -0.7371  1.3410  1.1341
    1PC     H3C 7147   2.403   3.222   2.949 -0.7700  0.1245  0.0696
    1PC     C34 7148   2.463   3.191   3.190  0.1378  0.3220  0.8832
    1PC     H4A 7149   2.359   3.211   3.217 -0.6584  0.4397 -1.9213
    1PC     H4B 7150   2.483   3.103   3.129  0.5127 -1.2434  3.1422
    1PC     H4C 7151   2.528   3.195   3.277  0.2256 -1.2101  0.9295
    1PC     C35 7152   2.480   3.435   3.186  0.5882 -0.0690 -0.0206
    1PC     H5A 7153   2.374   3.443   3.208  0.3713  1.2376 -1.3584
    1PC     H5B 7154   2.517   3.517   3.124  0.4946  0.0552  0.0892
    1PC     H5C 7155   2.541   3.434   3.277  1.2247  1.2128 -0.4037
    1PC     O33 7156   2.743   3.617   3.266  0.4407 -1.0600 -0.0318
    1PC     O34 7157   2.881   3.492   3.098  0.0827  0.0631  0.4568
    1PC     O21 7158   2.904   3.616   3.677  0.2104 -0.0099 -0.6772
    1PC     C21 7159   2.901   3.739   3.734 -0.2501 -1.2245 -0.0098
    1PC     O22 7160   2.882   3.842   3.669  0.0663  0.2686  0.3544
    1OL     C12 7161   2.933   3.734   3.883 -0.2819 -0.5046 -0.1541
    1OL     H2R 7162   3.006   3.656   3.905  1.8259  1.1286 -0.9597
    1OL     H2S 7163   2.838   3.711   3.931 -0.6659  2.0103  0.3920
    1OL     C13 7164   2.983   3.867   3.944 -0.1288 -0.0307 -0.0063
    1OL     H3R 7165   2.912   3.945   3.915  0.0425 -0.5003 -1.8221
    1OL     H3S 7166   3.077   3.893   3.895  0.4661 -1.2499  0.4494
    1OL     C14 7167   3.006   3.883   4.096  0.3813  0.2656 -0.3907
    1OL     H4R 7168   3.080   3.811   4.133 -0.7080 -1.9160 -2.2875
    1OL     H4S 7169   2.910   3.869   4.146  0.9564  0.4126  0.8057
    1OL     C15 7170   3.068   4.022   4.134 -0.2781 -0.0626 -0.4474
    1OL     H5R 7171   2.995   4.103   4.138  0.3350  0.5822 -1.6687
    1OL     H5S 7172   3.136   4.060   4.057 -1.9649  1.5961 -1.1985
    1OL     C16 7173   3.149   4.021   4.266  1.0637  0.9786 -0.4575
    1OL     H6R 7174   3.232   3.951   4.255  0.5523  0.3075 -0.1686
    1OL     H6S 7175   3.093   3.985   4.353  2.7622 -0.2905  0.1611
    1OL     C17 7176   3.195   4.165   4.318 -0.3966 -0.9294 -0.2184
    1OL     H7R 7177   3.284   4.207   4.270 -1.0178  1.1314  0.3303
    1OL     H7S 7178   3.223   4.161   4.423 -1.6022  2.9301  0.4209
    1OL     C18 7179   3.082   4.274   4.316 -0.2665 -0.0689 -0.0823
    1OL     H8R 7180   3.008   4.221   4.377  1.0941 -1.3507  0.5470
    1OL     H8S 7181   3.055   4.292   4.212 -0.7605  3.1980  0.5052
    1OL     C19 7182   3.126   4.401   4.379 -0.5988  0.7934  1.1323
    1OL     H9R 7183   3.226   4.429   4.346 -1.2175  0.2451 -1.4539
    1OL    C110 7184   3.053   4.475   4.459 -0.1503 -0.4344 -0.2989
    1OL    H10R 7185   3.090   4.572   4.491 -1.2574  0.4305 -1.5311
    1OL    C111 7186   2.906   4.453   4.503  0.0510 -0.4453  0.2126
    1OL    H11R 7187   2.872   4.356   4.465 -2.7632 -0.0295  1.4083
    1OL    H11S 7188   2.844   4.534   4.464 -0.8391  0.3644  3.0838
    1OL    C112 7189   2.870   4.465   4.654  0.5291 -0.2996  0.1522
    1OL    H12R 7190   2.761   4.476   4.659  0.6437  1.2474 -0.3643
    1OL    H12S 7191   2.913   4.556   4.696  1.4862 -0.9614  0.6383
    1OL    C113 7192   2.919   4.351   4.736 -0.6912  0.3458 -0.1604
    1OL    H13R 7193   3.021   4.381   4.763 -1.4728  2.9798  0.2271
    1OL    H13S 7194   2.909   4.251   4.694 -0.6189  0.4120 -0.3350
    1OL    C114 7195   2.844   4.362   4.871 -0.1855  0.2592  0.4110
    1OL    H14R 7196   2.739   4.356   4.843  0.4869  0.4993 -2.4157
    1OL    H14S 7197   2.870   4.454   4.925 -1.3818  1.2244 -0.5862
    1OL    C115 7198   2.877   4.243   4.965 -0.1833 -0.3050 -0.3687
    1OL    H15R 7199   2.981   4.260   4.994 -0.5988  0.7432  0.6040
    1OL    H15S 7200   2.885   4.152   4.905 -1.4778 -1.3416  0.9609
    1OL    C116 7201   2.773   4.218   5.077 -0.1593 -0.3213 -0.6549
    1OL    H16R 7202   2.803   4.135   5.141  1.6537 -0.2198 -1.3203
    1OL    H16S 7203   2.684   4.182   5.024 -1.3166 -0.2159  1.1224
    1OL    C117 7204   2.738   4.349   5.158 -0.3934  0.6808 -0.1168
    1OL    H17R 7205   2.694   4.423   5.091  2.4373  0.7682 -2.0759
    1OL    H17S 7206   2.832   4.386   5.201 -1.5425 -0.3406  3.6392
    1OL    C118 7207   2.642   4.327   5.283 -0.1478 -0.3104  0.1257
    1OL    H18R 7208   2.607   4.422   5.324  0.1403 -0.6096  1.0753
    1OL    H18S 7209   2.700   4.270   5.355  1.8523 -0.5469 -1.5601
    1OL    H18T 7210   2.560   4.260   5.255 -0.8765  0.4288  0.4562
    1PA    C116 7211   3.577   1.602   5.006  0.2828 -0.0778 -0.1053
    1PA    H16R 7212   3.508   1.517   5.008  1.7557 -1.3107  1.9217
    1PA    H16S 7213   3.621   1.619   5.104 -2.4995 -0.1301  1.2636
    1PA    H16T 7214   3.656   1.574   4.936 -0.5661  1.6157 -1.8394
    1PA    C115 7215   3.503   1.729   4.952 -0.5391 -0.5104  0.9593
    1PA    H15R 7216   3.447   1.704   4.861 -0.7264  0.4430  0.8077
    1PA    H15S 7217   3.421   1.752   5.021 -1.1872  0.6860 -0.1607
    1PA    C114 7218   3.594   1.856   4.942  0.1447  0.3781  0.7239
    1PA    H14R 7219   3.640   1.875   5.040  0.6114  0.5981  0.4662
    1PA    H14S 7220   3.671   1.841   4.866  0.9566  0.4415  1.5081
    1PA    C113 7221   3.511   1.983   4.904  0.4519 -0.0142 -0.3455
    1PA    H13R 7222   3.446   1.979   4.815  0.7872 -2.0814 -0.5346
    1PA    H13S 7223   3.445   2.009   4.987  0.0750  3.2289 -1.4762
    1PA    C112 7224   3.604   2.107   4.886  0.2193  0.2459 -0.4850
    1PA    H12R 7225   3.547   2.200   4.893  2.1121  1.4933 -0.9170
    1PA    H12S 7226   3.680   2.118   4.963 -1.8284  1.0001  1.5334
    1PA    C111 7227   3.656   2.105   4.749 -0.1230  0.3499  0.6791
    1PA    H11R 7228   3.724   2.021   4.734 -0.8236 -0.4815  2.0134
    1PA    H11S 7229   3.567   2.099   4.686 -0.5118  2.1073  1.0083
    1PA    C110 7230   3.736   2.233   4.728 -0.5584 -0.0436  0.2909
    1PA    H10R 7231   3.678   2.320   4.760  0.7479  1.1587 -0.4596
    1PA    H10S 7232   3.822   2.228   4.794 -0.1865 -2.2335 -0.2890
    1PA     C19 7233   3.776   2.260   4.575 -0.4529  0.6466  0.5994
    1PA     H9R 7234   3.813   2.162   4.544 -2.7875  0.2151 -1.1238
    1PA     H9S 7235   3.688   2.294   4.521 -0.2449 -0.8592 -0.7747
    1PA     C18 7236   3.887   2.366   4.568 -0.4327 -0.2279 -0.4744
    1PA     H8R 7237   3.845   2.451   4.622 -0.2557  0.0132 -0.7206
    1PA     H8S 7238   3.977   2.337   4.622 -1.0365 -0.0499  0.6731
    1PA     C17 7239   3.926   2.407   4.430  0.5055  0.2673 -0.0744
    1PA     H7R 7240   3.855   2.475   4.382 -1.9930 -2.2211 -0.1701
    1PA     H7S 7241   4.016   2.464   4.450 -0.5012  2.1889 -0.7925
    1PA     C16 7242   3.971   2.296   4.333  0.0452  0.0138 -0.3512
    1PA     H6R 7243   4.038   2.231   4.389 -1.0694 -0.0890  0.9085
    1PA     H6S 7244   3.886   2.234   4.307  0.6042 -1.1560  0.4757
    1PA     C15 7245   4.041   2.343   4.205 -0.5661  0.0731 -0.3237
    1PA     H5R 7246   4.139   2.383   4.234  0.0746 -1.0030 -0.9214
    1PA     H5S 7247   4.042   2.251   4.146  0.3305 -0.0917 -0.0784
    1PA     C14 7248   3.971   2.467   4.134 -0.1157  0.7539 -0.7746
    1PA     H4R 7249   3.863   2.454   4.135  0.0494 -0.8554 -0.2285
    1PA     H4S 7250   3.991   2.553   4.198 -3.4629 -1.5792  4.0511
    1PA     C13 7251   4.029   2.490   3.992 -0.4684  0.0389 -0.1002
    1PA     H3R 7252   4.013   2.597   3.977 -0.4194  0.0760  0.1185
    1PA     H3S 7253   4.137   2.470   3.986  0.2916  2.8097  2.2138
    1PA     C12 7254   3.960   2.411   3.876  0.2729 -0.8473 -0.3668
    1PA     H2R 7255   3.972   2.305   3.898 -0.2488 -1.1977 -1.6683
    1PA     H2S 7256   3.852   2.428   3.878  0.3019 -0.6739 -0.2574
    1PC     C11 7257   4.020   2.454   3.741 -0.1229 -0.0991 -0.5233
    1PC     O12 7258   4.105   2.392   3.673 -0.2014 -0.3154  0.2032
    1PC     O11 7259   3.957   2.570   3.710 -0.8612  0.3711 -0.1401
    1PC      C1 7260   3.973   2.623   3.578 -0.2225  0.2085  0.4525
    1PC      HR 7261   3.950   2.729   3.591 -0.0014  0.2755  0.3040
    1PC      HS 7262   4.078   2.618   3.550 -0.5867  2.7157 -1.7343
    1PC      C2 7263   3.873   2.563   3.476  0.5099 -0.5689 -0.3556
    1PC      HX 7264   3.895   2.456   3.479  0.0980 -0.6693  2.4561
    1PC      C3 7265   3.896   2.633   3.339  0.1367  0.2380  0.1641
    1PC      HA 7266   3.897   2.740   3.362 -1.7458  0.6182 -1.2577
    1PC      HB 7267   3.985   2.600   3.285  0.8887 -1.7838  2.4281
    1PC     O31 7268   3.773   2.604   3.260 -0.3206  0.2125 -0.3690
    1PC     P31 7269   3.778   2.529   3.117 -0.5396  0.1640  0.5826
    1PC     O32 7270   3.801   2.632   3.006  0.5546  0.3837  0.0990
    1PC     C31 7271   3.932   2.638   2.942  0.1594  0.2670 -0.0506
    1PC     H1A 7272   3.941   2.745   2.922  2.6190  0.0239 -0.5549
    1PC     H1B 7273   4.011   2.604   3.010  0.7962 -2.3810 -1.9341
    1PC     C32 7274   3.930   2.548   2.815 -0.8168 -0.1223  0.3463
    1PC     H2A 7275   3.920   2.445   2.849  3.8775 -0.0466  2.8089
    1PC     H2B 7276   3.839   2.571   2.760 -0.9320  1.9922  1.2966
    1PC     N31 7277   4.030   2.558   2.711 -0.3077  0.7366  0.7452
    1PC     C33 7278   4.161   2.530   2.762  0.2781  0.7772  0.0531
    1PC     H3A 7279   4.179   2.597   2.846 -2.4830  1.4658  0.2021
    1PC     H3B 7280   4.162   2.429   2.803 -0.6395 -0.5380 -2.8584
    1PC     H3C 7281   4.232   2.527   2.679 -1.4722  0.7964 -1.5323
    1PC     C34 7282   4.008   2.449   2.611  0.3533 -0.4079  0.3205
    1PC     H4A 7283   3.908   2.468   2.572 -0.1884 -1.7134  1.0085
    1PC     H4B 7284   4.075   2.467   2.526 -0.1796 -0.5190 -0.1304
    1PC     H4C 7285   4.001   2.352   2.660 -2.0692 -0.6249 -0.3238
    1PC     C35 7286   4.024   2.688   2.639 -0.0634 -0.3315 -0.6465
    1PC     H5A 7287   3.923   2.718   2.611 -0.3978 -0.4202  0.4150
    1PC     H5B 7288   4.103   2.682   2.565  0.2624  0.4158 -0.3737
    1PC     H5C 7289   4.056   2.771   2.703  0.5578  0.2265 -1.6561
    1PC     O33 7290   3.896   2.435   3.115 -0.7707 -0.1372 -0.2924
    1PC     O34 7291   3.647   2.466   3.090 -0.6446  0.1133  0.2545
    1PC     O21 7292   3.740   2.594   3.520 -0.0155  0.3716 -0.0458
    1PC     C21 7293   3.669   2.495   3.578  0.0958  0.3451 -0.7182
    1PC     O22 7294   3.715   2.383   3.591 -0.0709 -0.1244 -0.2227
    1OL     C12 7295   3.532   2.535   3.630 -0.1916  0.3716 -0.4052
    1OL     H2R 7296   3.456   2.552   3.554 -0.0455 -1.0734 -0.9052
    1OL     H2S 7297   3.548   2.631   3.679 -0.2778 -0.0571  0.4771
    1OL     C13 7298   3.471   2.437   3.733  0.1068 -0.2065  0.4861
    1OL     H3R 7299   3.471   2.338   3.688 -0.0016  1.1380 -2.7475
    1OL     H3S 7300   3.370   2.470   3.757  0.3433 -0.1119  1.3849
    1OL     C14 7301   3.542   2.447   3.866 -0.0427  0.5194 -0.0917
    1OL     H4R 7302   3.516   2.542   3.914  1.9881  1.2709 -0.3588
    1OL     H4S 7303   3.651   2.442   3.865  0.0460  1.9551 -0.4882
    1OL     C15 7304   3.478   2.349   3.974 -0.8877  0.3173 -0.0376
    1OL     H5R 7305   3.461   2.247   3.939  0.2687  0.6216 -1.6015
    1OL     H5S 7306   3.379   2.385   4.003 -0.3762  1.1686  0.7085
    1OL     C16 7307   3.564   2.339   4.102 -0.6852 -0.4844 -0.5895
    1OL     H6R 7308   3.663   2.300   4.079  0.4247  0.3782  2.2907
    1OL     H6S 7309   3.519   2.281   4.184 -0.0624  0.0670  0.1576
    1OL     C17 7310   3.597   2.475   4.167  0.0317 -0.3216  0.3715
    1OL     H7R 7311   3.655   2.530   4.092 -0.9654  0.4039  0.1195
    1OL     H7S 7312   3.665   2.461   4.252  0.4781 -0.6849 -0.0385
    1OL     C18 7313   3.475   2.566   4.207 -0.4265  0.1139  0.2442
    1OL     H8R 7314   3.385   2.513   4.239 -0.8902  1.3736  1.0747
    1OL     H8S 7315   3.443   2.622   4.119  1.0604 -1.3790 -1.3288
    1OL     C19 7316   3.527   2.660   4.311 -0.0506  1.1022  0.0339
    1OL     H9R 7317   3.633   2.682   4.298  0.9520 -1.6484  2.3717
    1OL    C110 7318   3.462   2.696   4.424  0.1664  0.5859 -0.1069
    1OL    H10R 7319   3.512   2.747   4.506  1.5567 -1.4746  0.4141
    1OL    C111 7320   3.320   2.657   4.465  0.0932 -0.3039  1.1130
    1OL    H11R 7321   3.252   2.659   4.379 -2.6907 -0.9678  3.1628
    1OL    H11S 7322   3.284   2.731   4.536 -0.3594  0.7299 -0.1442
    1OL    C112 7323   3.303   2.515   4.527 -0.1132 -0.3083 -0.2314
    1OL    H12R 7324   3.373   2.448   4.476  1.3544 -0.2443  1.6023
    1OL    H12S 7325   3.205   2.477   4.496  0.7717 -2.2281 -0.8451
    1OL    C113 7326   3.333   2.489   4.675 -0.3157 -0.2237  0.4043
    1OL    H13R 7327   3.438   2.509   4.697  0.0046 -2.2342  0.9126
    1OL    H13S 7328   3.328   2.381   4.694  0.7094 -0.5158 -0.8555
    1OL    C114 7329   3.250   2.570   4.768  0.5392  0.1438 -0.2070
    1OL    H14R 7330   3.260   2.673   4.734  0.7501 -0.5600 -2.4997
    1OL    H14S 7331   3.295   2.565   4.867 -0.8924 -0.1531  0.4556
    1OL    C115 7332   3.105   2.532   4.774 -0.7173 -0.2750 -0.2020
    1OL    H15R 7333   3.095   2.426   4.798 -2.0615 -0.2561 -0.5747
    1OL    H15S 7334   3.052   2.535   4.678 -3.4688  0.0576  1.2275
    1OL    C116 7335   3.025   2.616   4.882  0.0566 -0.8209 -0.2761
    1OL    H16R 7336   2.918   2.619   4.861 -0.0011  0.3593  0.0726
    1OL    H16S 7337   3.064   2.718   4.894 -0.9639 -0.4290 -0.1505
    1OL    C117 7338   3.040   2.554   5.026  0.4440  0.3992  0.7508
    1OL    H17R 7339   3.146   2.549   5.054  0.3449 -1.3956  0.9015
    1OL    H17S 7340   3.023   2.446   5.028  1.0096  0.2713 -0.3022
    1OL    C118 7341   2.957   2.632   5.134  0.4470 -0.0929 -0.7797
    1OL    H18R 7342   2.852   2.619   5.107  0.6739 -0.6480 -1.4445
    1OL    H18S 7343   2.979   2.739   5.136 -0.9420  0.1898  0.5969
    1OL    H18T 7344   2.967   2.590   5.234 -1.1171  1.1007 -0.0893
    1PA    C116 7345   3.716   3.094   5.076 -0.0425  0.1733  0.0538
    1PA    H16R 7346   3.766   3.119   4.982 -0.0614 -1.5106 -0.4279
    1PA    H16S 7347   3.790   3.071   5.153  2.3928 -0.7559 -2.4152
    1PA    H16T 7348   3.663   3.183   5.111  1.3293 -0.1209  3.2490
    1PA    C115 7349   3.624   2.974   5.052 -0.0547  0.0155  0.2002
    1PA    H15R 7350   3.682   2.881   5.056  1.6336  1.0086 -0.2591
    1PA    H15S 7351   3.554   2.953   5.133  0.2266  0.8245  0.6568
    1PA    C114 7352   3.557   2.979   4.913 -0.2546 -0.8286 -0.7707
    1PA    H14R 7353   3.501   2.886   4.903 -0.0868 -0.9043 -1.0083
    1PA    H14S 7354   3.486   3.062   4.915  0.5976 -0.0798  1.0205
    1PA    C113 7355   3.640   2.983   4.782  0.5599  0.3586 -0.2368
    1PA    H13R 7356   3.708   3.069   4.781 -1.9819  2.4791  0.1899
    1PA    H13S 7357   3.688   2.885   4.770  1.1915  0.6419 -0.0821
    1PA    C112 7358   3.555   2.988   4.654 -0.9895  0.5027 -0.5201
    1PA    H12R 7359   3.623   2.949   4.578 -0.3589  0.2301  0.1740
    1PA    H12S 7360   3.473   2.916   4.661  1.4471 -2.4547 -0.1325
    1PA    C111 7361   3.502   3.124   4.632 -0.0578 -0.8589 -0.3015
    1PA    H11R 7362   3.410   3.145   4.688  0.4935  0.1348  0.2692
    1PA    H11S 7363   3.584   3.191   4.659  0.5965 -0.9216 -2.0112
    1PA    C110 7364   3.482   3.151   4.481 -0.0834 -0.5698  0.1209
    1PA    H10R 7365   3.443   3.252   4.464 -1.2455 -0.7975  1.2903
    1PA    H10S 7366   3.575   3.142   4.425  0.6185  0.5292  1.0700
    1PA     C19 7367   3.374   3.051   4.420  0.1188 -0.2596 -0.3709
    1PA     H9R 7368   3.416   2.951   4.405 -1.2889 -1.2112  1.5767
    1PA     H9S 7369   3.284   3.041   4.481  0.3804 -3.7361 -0.3571
    1PA     C18 7370   3.325   3.107   4.286 -0.0451  0.4136  0.2253
    1PA     H8R 7371   3.251   3.031   4.257  1.2946  0.1583 -2.8956
    1PA     H8S 7372   3.270   3.201   4.289 -1.0445 -0.1639  1.1559
    1PA     C17 7373   3.434   3.122   4.180 -0.5203 -0.1595  0.6213
    1PA     H7R 7374   3.507   3.196   4.211 -0.3023 -0.0303 -0.1820
    1PA     H7S 7375   3.489   3.028   4.175 -1.1987 -0.5247 -0.3275
    1PA     C16 7376   3.377   3.161   4.038 -0.2190 -0.0511 -1.5190
    1PA     H6R 7377   3.322   3.076   3.996 -1.3491 -0.6224  0.9457
    1PA     H6S 7378   3.300   3.237   4.050  1.1104  1.4983 -2.4068
    1PA     C15 7379   3.493   3.214   3.946 -0.2798 -0.8101  0.3690
    1PA     H5R 7380   3.556   3.281   4.004 -1.1970 -0.8178  1.4096
    1PA     H5S 7381   3.554   3.128   3.918  1.6313 -0.1910  2.3529
    1PA     C14 7382   3.433   3.278   3.815 -0.4196 -0.8251  0.2299
    1PA     H4R 7383   3.382   3.372   3.835 -0.5640 -1.4985  3.6286
    1PA     H4S 7384   3.522   3.296   3.754  0.1413 -0.4863  1.1175
    1PA     C13 7385   3.336   3.191   3.738 -0.5267 -0.3076  0.5748
    1PA     H3R 7386   3.382   3.103   3.693  0.4050  0.1217  0.6686
    1PA     H3S 7387   3.258   3.155   3.806 -1.0526 -1.9650 -0.8332
    1PA     C12 7388   3.260   3.283   3.641 -0.0363 -0.4929  0.2165
    1PA     H2R 7389   3.174   3.227   3.604  0.1148 -0.0097 -0.9215
    1PA     H2S 7390   3.228   3.378   3.684  2.7847  0.8069 -0.2621
    1PC     C11 7391   3.344   3.311   3.520  0.3800  0.9543  0.5659
    1PC     O12 7392   3.429   3.240   3.473 -0.3233  0.0185 -0.4406
    1PC     O11 7393   3.320   3.439   3.484  0.3143 -0.3038  0.1698
    1PC      C1 7394   3.376   3.487   3.355  0.0196 -0.2655  0.1159
    1PC      HR 7395   3.485   3.481   3.369  0.1991  1.1076 -0.5560
    1PC      HS 7396   3.353   3.420   3.271 -0.4865  0.1189 -0.0538
    1PC      C2 7397   3.326   3.631   3.322  0.1819 -0.3470  0.3478
    1PC      HX 7398   3.217   3.625   3.328  0.2667 -0.8574  1.6246
    1PC      C3 7399   3.367   3.690   3.185 -0.0965  0.4356 -0.2411
    1PC      HA 7400   3.325   3.619   3.113 -0.1509  0.4631 -0.2359
    1PC      HB 7401   3.326   3.792   3.184 -4.9497 -1.1056  2.7864
    1PC     O31 7402   3.510   3.689   3.167 -0.2553 -0.1258  0.0275
    1PC     P31 7403   3.573   3.736   3.026  0.6845 -0.0383 -0.3328
    1PC     O32 7404   3.585   3.890   3.053  0.0310 -0.5011 -0.1355
    1PC     C31 7405   3.700   3.942   3.123 -0.2817  0.5712  0.4988
    1PC     H1A 7406   3.705   3.913   3.228 -2.7937  1.3957  0.9045
    1PC     H1B 7407   3.794   3.913   3.074 -1.2359 -1.1197 -0.4181
    1PC     C32 7408   3.687   4.091   3.119 -0.6790  0.1948 -0.3222
    1PC     H2A 7409   3.582   4.114   3.138 -0.8388 -1.0055  0.3649
    1PC     H2B 7410   3.749   4.132   3.198 -1.9079  2.1192 -0.3108
    1PC     N31 7411   3.715   4.175   2.996 -0.4852 -0.2883  1.3166
    1PC     C33 7412   3.639   4.131   2.877  1.1912 -0.5987  0.0620
    1PC     H3A 7413   3.535   4.127   2.908  1.1633  1.3582  0.3212
    1PC     H3B 7414   3.660   4.201   2.796 -0.2338  0.6501  0.7119
    1PC     H3C 7415   3.673   4.033   2.842 -1.8268 -1.1716 -1.6024
    1PC     C34 7416   3.663   4.306   3.036  0.3087 -0.5953  0.1210
    1PC     H4A 7417   3.681   4.373   2.951 -1.7034 -1.7957 -1.3587
    1PC     H4B 7418   3.555   4.307   3.052  0.3128 -1.5170  0.2618
    1PC     H4C 7419   3.722   4.334   3.123  0.4402 -0.0217 -0.1498
    1PC     C35 7420   3.856   4.180   2.966 -0.6154 -0.3171  0.3348
    1PC     H5A 7421   3.903   4.201   3.063 -1.9640  0.7960  0.7782
    1PC     H5B 7422   3.876   4.261   2.896 -1.4890 -0.8458 -0.5605
    1PC     H5C 7423   3.883   4.081   2.928 -0.5980 -0.5422  0.9099
    1PC     O33 7424   3.703   3.677   3.022 -0.6057 -0.5601  0.1387
    1PC     O34 7425   3.478   3.726   2.911  0.1502 -0.0265 -0.5055
    1PC     O21 7426   3.371   3.729   3.421 -0.2235  0.0311 -0.5718
    1PC     C21 7427   3.290   3.825   3.456  0.4606  0.3942 -0.1180
    1PC     O22 7428   3.177   3.839   3.413 -0.8538  0.0139 -0.4232
    1OL     C12 7429   3.343   3.910   3.567 -0.0202  0.7403 -0.5472
    1OL     H2R 7430   3.313   4.013   3.548  0.7821  0.7753 -1.6872
    1OL     H2S 7431   3.452   3.911   3.577  0.0756 -0.6598 -1.2592
    1OL     C13 7432   3.269   3.880   3.699 -0.1059  0.1341 -0.3148
    1OL     H3R 7433   3.164   3.911   3.710 -0.8607 -2.3649  0.0579
    1OL     H3S 7434   3.326   3.935   3.774 -0.4620  0.2068 -0.0956
    1OL     C14 7435   3.262   3.728   3.731  0.0390  0.8734 -0.1469
    1OL     H4R 7436   3.231   3.664   3.648 -1.4952 -0.4308  1.3684
    1OL     H4S 7437   3.187   3.704   3.806  0.7808  0.3718  0.4505
    1OL     C15 7438   3.403   3.673   3.781 -0.7926 -0.0271  0.4102
    1OL     H5R 7439   3.480   3.694   3.706  0.9308  0.9161  2.3161
    1OL     H5S 7440   3.399   3.564   3.791 -0.8944  0.0707  1.6042
    1OL     C16 7441   3.455   3.746   3.909 -0.3121 -0.2877  0.4573
    1OL     H6R 7442   3.456   3.854   3.898  2.0190 -0.2978  0.1438
    1OL     H6S 7443   3.560   3.717   3.914 -0.6546 -1.5630  0.8238
    1OL     C17 7444   3.386   3.702   4.044 -0.1497  0.3047  0.1516
    1OL     H7R 7445   3.281   3.732   4.055  0.1809  2.4372 -1.6854
    1OL     H7S 7446   3.441   3.742   4.129  0.7925 -2.0158  0.7016
    1OL     C18 7447   3.378   3.546   4.067  0.0168 -0.3413  0.4210
    1OL     H8R 7448   3.478   3.502   4.075  0.8915  1.6867  1.1911
    1OL     H8S 7449   3.324   3.501   3.983 -1.8796  3.2771 -0.5114
    1OL     C19 7450   3.298   3.505   4.186 -0.0999  0.4754  0.1392
    1OL     H9R 7451   3.192   3.493   4.168  0.0891  1.5616 -2.0580
    1OL    C110 7452   3.362   3.492   4.303  0.6600  0.1877  1.2396
    1OL    H10R 7453   3.304   3.472   4.393  0.2236  0.7439  1.0871
    1OL    C111 7454   3.510   3.503   4.333 -0.4164  0.3988  0.1327
    1OL    H11R 7455   3.551   3.583   4.271 -2.4078  0.9224 -0.5888
    1OL    H11S 7456   3.553   3.407   4.302 -0.4413  0.6424 -0.6609
    1OL    C112 7457   3.525   3.530   4.487 -0.4848 -0.2649 -1.0797
    1OL    H12R 7458   3.485   3.446   4.544  1.1158 -0.5261 -0.2569
    1OL    H12S 7459   3.479   3.626   4.512 -1.4669 -0.9342 -0.2388
    1OL    C113 7460   3.671   3.535   4.526  0.1777 -0.4422  0.5912
    1OL    H13R 7461   3.725   3.607   4.465  0.3111 -1.2652 -0.2803
    1OL    H13S 7462   3.716   3.436   4.513 -0.3167 -0.5933 -0.0131
    1OL    C114 7463   3.690   3.588   4.667 -0.0272  0.2928  0.1420
    1OL    H14R 7464   3.604   3.551   4.723 -0.8227 -0.5638 -1.5739
    1OL    H14S 7465   3.692   3.697   4.674 -1.2709  0.2460  4.6980
    1OL    C115 7466   3.821   3.543   4.740  0.3783 -0.2306 -0.0686
    1OL    H15R 7467   3.823   3.434   4.746 -0.0474 -0.1974  0.7764
    1OL    H15S 7468   3.829   3.584   4.841 -0.0822 -0.4667  0.0661
    1OL    C116 7469   3.945   3.601   4.660  0.2359  0.0428  1.0328
    1OL    H16R 7470   3.939   3.709   4.648  0.4363 -0.1451 -1.0030
    1OL    H16S 7471   3.942   3.559   4.560 -4.6035  1.5886  0.2774
    1OL    C117 7472   4.070   3.564   4.745  0.2824  0.4786 -0.4270
    1OL    H17R 7473   4.086   3.456   4.742 -1.4002  0.2064 -0.7030
    1OL    H17S 7474   4.066   3.585   4.852 -0.6247 -0.7150 -0.2054
    1OL    C118 7475   4.196   3.614   4.683 -0.2655  0.3513 -0.3947
    1OL    H18R 7476   4.200   3.722   4.695  0.4120  0.6369 -2.7435
    1OL    H18S 7477   4.192   3.590   4.576 -0.4135  1.5781 -0.6828
    1OL    H18T 7478   4.278   3.567   4.738 -0.8478 -0.1655  0.0589
    1PA    C116 7479   4.755   0.586   4.816 -0.0155  0.2376 -0.0180
    1PA    H16R 7480   4.805   0.651   4.888 -2.6617  0.9057  1.3342
    1PA    H16S 7481   4.813   0.493   4.815 -0.7212 -0.2053 -0.9358
    1PA    H16T 7482   4.657   0.567   4.859  0.6015  1.2855  1.9706
    1PA    C115 7483   4.746   0.648   4.675 -0.1660  0.6416  0.2933
    1PA    H15R 7484   4.845   0.657   4.629  0.0375 -1.8958  0.0934
    1PA    H15S 7485   4.690   0.578   4.613  1.1250  0.1590 -0.3679
    1PA    C114 7486   4.675   0.788   4.672 -0.6212 -0.4631 -0.3724
    1PA    H14R 7487   4.573   0.768   4.706  0.5514 -0.6464  3.5448
    1PA    H14S 7488   4.719   0.838   4.758 -3.4612 -0.5561  1.2753
    1PA    C113 7489   4.691   0.866   4.536 -0.0245 -0.5128  0.1331
    1PA    H13R 7490   4.796   0.894   4.526  0.1946 -0.6673  1.6873
    1PA    H13S 7491   4.652   0.799   4.459  3.3763 -0.2139 -2.0622
    1PA    C112 7492   4.601   0.993   4.515  0.7851  0.2310  0.1999
    1PA    H12R 7493   4.505   0.960   4.555  1.0119  0.8711  1.3433
    1PA    H12S 7494   4.628   1.083   4.572 -2.0223  2.6183 -1.9495
    1PA    C111 7495   4.593   1.044   4.371  0.1312 -0.3479  0.2606
    1PA    H11R 7496   4.692   1.072   4.334 -0.0398 -0.3405 -0.1975
    1PA    H11S 7497   4.557   0.961   4.310  1.8542 -0.7882 -0.2147
    1PA    C110 7498   4.490   1.157   4.351  0.3164  0.2082  0.2285
    1PA    H10R 7499   4.398   1.113   4.390  1.1958 -1.4242  0.6030
    1PA    H10S 7500   4.509   1.247   4.409  1.6593  0.6199 -0.7933
    1PA     C19 7501   4.471   1.190   4.200  1.2009  0.7558 -0.4781
    1PA     H9R 7502   4.384   1.256   4.197  0.6527  0.0408 -0.3184
    1PA     H9S 7503   4.559   1.244   4.162  2.3506 -1.7132 -1.5336
    1PA     C18 7504   4.450   1.085   4.094 -0.0867 -0.1134  0.1253
    1PA     H8R 7505   4.529   1.009   4.095  1.1198  1.0907 -0.3053
    1PA     H8S 7506   4.353   1.040   4.118 -0.7434 -0.3257 -2.5883
    1PA     C17 7507   4.431   1.148   3.956 -0.1729 -0.5124 -0.3929
    1PA     H7R 7508   4.341   1.209   3.962 -0.5682 -0.9883 -1.2557
    1PA     H7S 7509   4.522   1.207   3.941  0.2242 -1.2311 -0.9012
    1PA     C16 7510   4.427   1.050   3.836 -0.2038 -0.3386 -0.2003
    1PA     H6R 7511   4.424   1.108   3.744  0.9504 -0.9901 -0.6797
    1PA     H6S 7512   4.516   0.987   3.831 -1.6807 -2.4179 -2.3466
    1PA     C15 7513   4.317   0.947   3.842 -0.3561  0.2457 -0.0348
    1PA     H5R 7514   4.325   0.876   3.760 -1.1634  0.6479 -0.4754
    1PA     H5S 7515   4.327   0.883   3.930 -2.0685 -0.7412 -0.5004
    1PA     C14 7516   4.170   1.003   3.851  0.0399  0.3165  0.0959
    1PA     H4R 7517   4.100   0.919   3.845 -1.4847  1.5452  0.0629
    1PA     H4S 7518   4.153   1.042   3.951 -3.1685 -1.2011  0.2654
    1PA     C13 7519   4.123   1.102   3.744  0.1033 -0.1463 -0.0061
    1PA     H3R 7520   4.015   1.119   3.743  0.1196 -0.0128  0.3644
    1PA     H3S 7521   4.172   1.195   3.769  0.9973 -0.3901 -0.8207
    1PA     C12 7522   4.163   1.057   3.600 -0.2943 -0.3160  0.6650
    1PA     H2R 7523   4.272   1.053   3.591 -0.2146  2.0185 -0.1387
    1PA     H2S 7524   4.133   0.955   3.575  1.4870 -0.6584 -0.2283
    1PC     C11 7525   4.107   1.152   3.493 -0.0433 -0.3797  0.2019
    1PC     O12 7526   4.181   1.222   3.426  0.2251  0.3845  0.2964
    1PC     O11 7527   3.979   1.147   3.475 -0.1658 -0.3929  0.3411
    1PC      C1 7528   3.916   1.235   3.373  0.5336 -0.2450 -0.3692
    1PC      HR 7529   3.966   1.333   3.370  1.5726 -0.7608 -2.6871
    1PC      HS 7530   3.936   1.198   3.272 -0.1446  0.8910 -0.9441
    1PC      C2 7531   3.765   1.252   3.378 -0.2698  0.4936 -0.9476
    1PC      HX 7532   3.715   1.156   3.392  2.0144 -0.7609 -0.8900
    1PC      C3 7533   3.721   1.318   3.238 -0.0391 -0.2222 -0.1150
    1PC      HA 7534   3.749   1.249   3.159 -0.7215  0.0321 -0.5822
    1PC      HB 7535   3.614   1.334   3.227  0.2623  0.0543 -3.5766
    1PC     O31 7536   3.797   1.437   3.221 -0.0398 -0.1883  0.4403
    1PC     P31 7537   3.883   1.471   3.088 -0.3328  0.3802  0.2939
    1PC     O32 7538   3.788   1.541   2.983  0.4063 -0.4806  0.4521
    1PC     C31 7539   3.673   1.471   2.918  0.5672  0.0849  0.6186
    1PC     H1A 7540   3.709   1.376   2.878 -0.4106 -0.5763  1.2713
    1PC     H1B 7541   3.597   1.446   2.992 -0.7962 -1.8334 -1.3491
    1PC     C32 7542   3.611   1.547   2.802 -0.5645  0.2546  0.0783
    1PC     H2A 7543   3.529   1.483   2.767  0.4026 -0.3736 -1.1298
    1PC     H2B 7544   3.576   1.643   2.838 -1.0240  0.0436  0.2084
    1PC     N31 7545   3.702   1.593   2.685 -0.4201 -1.1504  0.1121
    1PC     C33 7546   3.783   1.481   2.634 -0.2344 -0.1359 -0.3140
    1PC     H3A 7547   3.872   1.477   2.698 -0.1184  2.8249 -0.1524
    1PC     H3B 7548   3.728   1.390   2.658  1.0866 -0.9895 -0.3838
    1PC     H3C 7549   3.807   1.475   2.527  0.7466 -0.6558 -0.0781
    1PC     C34 7550   3.612   1.634   2.575  0.2696  0.1420 -0.6165
    1PC     H4A 7551   3.534   1.698   2.616  0.6594 -0.9410  2.0232
    1PC     H4B 7552   3.668   1.700   2.509  2.0724 -0.6790  0.0326
    1PC     H4C 7553   3.578   1.541   2.528 -1.9951  0.0551  1.0361
    1PC     C35 7554   3.799   1.699   2.723  1.0704 -0.2534 -0.4834
    1PC     H5A 7555   3.745   1.794   2.727 -2.0738 -1.8590 -1.1434
    1PC     H5B 7556   3.887   1.689   2.660 -0.0255 -1.9905 -1.8459
    1PC     H5C 7557   3.839   1.676   2.822  1.9826  1.0693 -0.5143
    1PC     O33 7558   3.988   1.572   3.120 -0.6741  0.6060  0.4684
    1PC     O34 7559   3.926   1.345   3.016 -0.1519 -0.1855 -0.4176
    1PC     O21 7560   3.740   1.342   3.484  0.4859 -0.8784 -0.2661
    1PC     C21 7561   3.650   1.320   3.577  0.3257 -0.4353 -0.4213
    1PC     O22 7562   3.562   1.234   3.565 -0.5944 -0.3604 -0.2933
    1OL     C12 7563   3.665   1.409   3.698  0.1598 -0.1062  0.1301
    1OL     H2R 7564   3.576   1.392   3.760 -0.7728  2.4226 -0.4016
    1OL     H2S 7565   3.671   1.512   3.663  0.6924  0.4015  1.6646
    1OL     C13 7566   3.795   1.364   3.770 -0.4404 -0.3666 -0.4007
    1OL     H3R 7567   3.866   1.321   3.699  1.3841 -0.4458  1.3670
    1OL     H3S 7568   3.773   1.281   3.837 -0.5187 -0.3943 -0.4611
    1OL     C14 7569   3.860   1.475   3.853 -1.1044  0.4520 -0.3528
    1OL     H4R 7570   3.786   1.509   3.926  0.5190  1.7709  0.7504
    1OL     H4S 7571   3.887   1.558   3.788 -0.3926  0.4015 -0.1273
    1OL     C15 7572   3.988   1.431   3.926 -0.0216 -0.3774 -0.6816
    1OL     H5R 7573   4.046   1.520   3.950 -0.6297  1.3699 -4.8357
    1OL     H5S 7574   4.047   1.377   3.851  1.8937 -0.6928  0.9727
    1OL     C16 7575   3.959   1.329   4.044 -0.2911  0.0933 -0.3453
    1OL     H6R 7576   3.917   1.241   3.994  0.0154  0.6889 -1.7071
    1OL     H6S 7577   3.882   1.375   4.107 -0.7611 -1.0494 -0.0622
    1OL     C17 7578   4.086   1.290   4.123  0.1403  0.6359  0.3189
    1OL     H7R 7579   4.135   1.379   4.163  0.2542  0.1637  1.2557
    1OL     H7S 7580   4.155   1.251   4.048 -1.7183  0.4173 -1.3517
    1OL     C18 7581   4.089   1.191   4.236 -0.3045  0.6688 -0.4246
    1OL     H8R 7582   4.177   1.211   4.298  0.1364 -1.4065 -0.3027
    1OL     H8S 7583   4.106   1.094   4.189 -1.2118  0.4744 -0.3694
    1OL     C19 7584   3.964   1.195   4.321 -0.6247 -0.2615  0.1893
    1OL     H9R 7585   3.878   1.236   4.269  0.0351  3.1024  1.4774
    1OL    C110 7586   3.963   1.177   4.453  0.1208 -0.7149  0.3843
    1OL    H10R 7587   3.867   1.184   4.504  0.0409  0.4857  0.0984
    1OL    C111 7588   4.078   1.150   4.541 -0.2406  0.4553 -0.0433
    1OL    H11R 7589   4.067   1.214   4.629  1.4132  0.1617  0.4018
    1OL    H11S 7590   4.173   1.178   4.494 -2.0468  2.1310 -3.0692
    1OL    C112 7591   4.079   1.003   4.595  0.8289  0.4757  0.4751
    1OL    H12R 7592   4.122   0.932   4.524 -1.4517 -2.3066  1.6378
    1OL    H12S 7593   3.973   0.975   4.604  0.4878  1.4136 -0.4275
    1OL    C113 7594   4.151   0.995   4.732 -0.0556  0.5133  0.2902
    1OL    H13R 7595   4.174   0.890   4.749 -1.1062  0.2121 -0.0644
    1OL    H13S 7596   4.080   1.026   4.809 -0.0771  0.7410  0.1802
    1OL    C114 7597   4.277   1.080   4.742 -0.3207 -0.4871 -0.0057
    1OL    H14R 7598   4.260   1.186   4.722 -1.6064 -0.8288 -0.8612
    1OL    H14S 7599   4.338   1.046   4.658 -2.3842 -0.4628 -1.5868
    1OL    C115 7600   4.352   1.060   4.880 -0.0358 -0.3416  0.2539
    1OL    H15R 7601   4.381   0.954   4.879 -0.1748 -0.3907 -1.1561
    1OL    H15S 7602   4.273   1.070   4.954 -0.6193 -0.8002 -0.2918
    1OL    C116 7603   4.478   1.146   4.915  0.0545 -0.0141  0.2851
    1OL    H16R 7604   4.465   1.254   4.909 -0.1451  0.0669  1.7173
    1OL    H16S 7605   4.552   1.125   4.837  0.8779  2.4595  0.3080
    1OL    C117 7606   4.533   1.105   5.057  0.2003  0.2033  0.3978
    1OL    H17R 7607   4.501   1.002   5.073 -1.7427  0.8785  1.2062
    1OL    H17S 7608   4.482   1.166   5.132  0.0168  2.0238 -1.1250
    1OL    C118 7609   4.692   1.127   5.072  0.2651 -0.0493  0.5609
    1OL    H18R 7610   4.714   1.231   5.049 -0.1511 -0.3548 -1.4457
    1OL    H18S 7611   4.747   1.059   5.006 -0.1403  0.1044  0.0554
    1OL    H18T 7612   4.724   1.106   5.174  0.8189 -1.9510  0.0464
    1PA    C116 7613   0.267   3.345   4.491  0.4218  0.0163 -0.1087
    1PA    H16R 7614   0.226   3.366   4.590  0.3194  0.1610 -0.1812
    1PA    H16S 7615   0.205   3.411   4.430  0.6062 -0.7556 -1.1711
    1PA    H16T 7616   0.369   3.384   4.491  0.9147 -1.0671 -2.5659
    1PA    C115 7617   0.257   3.200   4.443  0.1415 -0.0646 -0.6541
    1PA    H15R 7618   0.289   3.123   4.514  1.9586 -1.1283 -2.5367
    1PA    H15S 7619   0.148   3.188   4.439  0.1625 -0.6482  0.1887
    1PA    C114 7620   0.308   3.182   4.299  0.0002  0.0301  0.5766
    1PA    H14R 7621   0.274   3.092   4.246  1.1038  0.4684 -0.9505
    1PA    H14S 7622   0.259   3.263   4.245 -1.8858 -0.7168  1.1144
    1PA    C113 7623   0.465   3.190   4.290 -0.4029 -0.1710 -0.6158
    1PA    H13R 7624   0.500   3.272   4.352  0.8034 -0.0424 -1.4401
    1PA    H13S 7625   0.509   3.098   4.329 -0.4920 -0.3661 -0.9650
    1PA    C112 7626   0.511   3.212   4.149  0.1885 -0.1189  0.0041
    1PA    H12R 7627   0.428   3.255   4.093 -0.1293 -0.5665  0.1231
    1PA    H12S 7628   0.593   3.283   4.144 -0.2590  0.3406 -0.8977
    1PA    C111 7629   0.544   3.082   4.072  0.6142  0.2982 -0.5750
    1PA    H11R 7630   0.453   3.022   4.061  1.0443 -0.0175 -3.0673
    1PA    H11S 7631   0.571   3.103   3.968 -0.6684 -2.3704 -1.5750
    1PA    C110 7632   0.657   3.002   4.128 -0.6139  0.1951 -0.2430
    1PA    H10R 7633   0.648   2.983   4.236 -0.3402  0.3788 -0.1877
    1PA    H10S 7634   0.658   2.905   4.077  2.9903 -1.1620  1.9601
    1PA     C19 7635   0.792   3.073   4.102 -0.4361 -0.1018 -0.5213
    1PA     H9R 7636   0.813   3.103   4.000  2.2338  0.7055  0.1773
    1PA     H9S 7637   0.789   3.167   4.157 -0.5158 -0.4975  0.1678
    1PA     C18 7638   0.914   2.990   4.128  0.1501  0.4355  0.2494
    1PA     H8R 7639   0.905   2.949   4.229 -1.2571 -0.9125 -0.3907
    1PA     H8S 7640   0.907   2.904   4.062 -0.8149 -0.0765  0.9958
    1PA     C17 7641   1.044   3.072   4.122 -0.1795  0.8063  0.0023
    1PA     H7R 7642   1.016   3.162   4.176 -0.0862  1.1693 -0.5410
    1PA     H7S 7643   1.123   3.026   4.182 -2.5177  0.4908  3.0738
    1PA     C16 7644   1.103   3.112   3.982 -0.1599  0.4516 -0.3739
    1PA     H6R 7645   1.095   3.029   3.911  0.5330  0.5447 -0.5606
    1PA     H6S 7646   1.054   3.201   3.941 -1.8143  0.3969  1.3230
    1PA     C15 7647   1.250   3.147   4.009  1.0163 -0.4816  0.4444
    1PA     H5R 7648   1.258   3.217   4.092 -0.7983 -0.2533  0.4664
    1PA     H5S 7649   1.298   3.053   4.037  0.7806 -0.8824 -0.4545
    1PA     C14 7650   1.312   3.199   3.868  0.7409  0.2741 -0.3180
    1PA     H4R 7651   1.280   3.126   3.794 -0.9857  2.0120 -1.4039
    1PA     H4S 7652   1.270   3.296   3.841 -1.0018 -0.3228  0.1222
    1PA     C13 7653   1.469   3.212   3.870  0.1241 -1.2617  0.1146
    1PA     H3R 7654   1.501   3.287   3.943  0.6040 -2.4825  1.2052
    1PA     H3S 7655   1.501   3.116   3.911  1.0843 -0.0451  2.3828
    1PA     C12 7656   1.523   3.225   3.723  0.6908 -0.0199 -0.9209
    1PA     H2R 7657   1.471   3.298   3.660  2.3021  0.0408 -2.2784
    1PA     H2S 7658   1.620   3.274   3.733  1.1882 -0.8500 -1.5443
    1PC     C11 7659   1.540   3.098   3.648  0.3507 -0.3074  0.8365
    1PC     O12 7660   1.650   3.046   3.631  0.1530 -0.9073 -0.0869
    1PC     O11 7661   1.428   3.058   3.578 -0.4470 -0.0411  0.3060
    1PC      C1 7662   1.443   2.950   3.481  0.5380 -0.9346 -0.2021
    1PC      HR 7663   1.507   2.994   3.404 -0.6570 -1.0230 -1.2823
    1PC      HS 7664   1.501   2.870   3.527  0.6473 -2.3601 -2.6506
    1PC      C2 7665   1.307   2.898   3.424  0.9294 -0.0099  0.1241
    1PC      HX 7666   1.332   2.825   3.347  0.4607 -0.4923  0.4205
    1PC      C3 7667   1.222   3.009   3.358 -0.1442 -0.1065 -0.5380
    1PC      HA 7668   1.187   3.075   3.437  1.4950 -0.5345  0.5884
    1PC      HB 7669   1.284   3.062   3.286  0.5959  0.5629  0.5667
    1PC     O31 7670   1.106   2.957   3.291 -0.1099 -0.5116  0.1026
    1PC     P31 7671   1.113   2.866   3.159 -0.1555 -0.0073 -0.1522
    1PC     O32 7672   1.145   2.730   3.228 -0.3931  0.6277 -0.5598
    1PC     C31 7673   1.054   2.613   3.209  0.4003  0.4019  0.2889
    1PC     H1A 7674   1.046   2.539   3.289 -1.0588  0.3540  0.1197
    1PC     H1B 7675   0.955   2.659   3.207 -1.0122 -2.4173  0.1117
    1PC     C32 7676   1.082   2.545   3.074  0.5795  0.0606  0.0327
    1PC     H2A 7677   1.009   2.465   3.065  1.5625 -0.9593  0.8498
    1PC     H2B 7678   1.064   2.617   2.994 -4.2411 -2.6133 -1.6783
    1PC     N31 7679   1.220   2.482   3.049 -0.0017  0.0010 -0.6118
    1PC     C33 7680   1.259   2.423   3.176 -0.4588  0.0256  0.4424
    1PC     H3A 7681   1.187   2.348   3.210 -1.7695 -0.1004 -2.3832
    1PC     H3B 7682   1.357   2.376   3.162 -1.2335 -2.7680  3.2333
    1PC     H3C 7683   1.265   2.500   3.253 -0.9850 -0.1111  0.6226
    1PC     C34 7684   1.219   2.374   2.950 -0.0682  0.7913  0.4909
    1PC     H4A 7685   1.189   2.412   2.852 -1.2028  0.0567  0.5343
    1PC     H4B 7686   1.318   2.329   2.947  0.6720  2.4060 -0.2226
    1PC     H4C 7687   1.144   2.302   2.985  2.4780 -1.5990  1.3540
    1PC     C35 7688   1.320   2.579   3.009  0.3941  0.2018 -0.3225
    1PC     H5A 7689   1.415   2.527   3.019 -0.6042 -1.2339  4.0537
    1PC     H5B 7690   1.312   2.670   3.069  0.3039 -0.8379  1.3334
    1PC     H5C 7691   1.304   2.604   2.904  0.4878  2.0585  0.0654
    1PC     O33 7692   0.975   2.863   3.108 -0.2579  0.0001  0.1465
    1PC     O34 7693   1.221   2.906   3.065 -0.4034  0.5178  0.1053
    1PC     O21 7694   1.221   2.845   3.525 -0.3123  0.5384  0.1014
    1PC     C21 7695   1.211   2.709   3.546  0.0732 -0.3661 -0.9663
    1PC     O22 7696   1.283   2.639   3.477  0.1104  0.5172 -0.4742
    1OL     C12 7697   1.122   2.665   3.656  0.0001 -0.1605  0.4561
    1OL     H2R 7698   1.085   2.566   3.630  2.2572 -0.7438 -0.7383
    1OL     H2S 7699   1.034   2.729   3.670 -0.6215 -1.0594  0.7450
    1OL     C13 7700   1.192   2.647   3.789  0.5709  0.1116 -0.3047
    1OL     H3R 7701   1.249   2.556   3.772  0.8802 -0.0801  1.6487
    1OL     H3S 7702   1.114   2.636   3.865  0.7659 -2.0964 -0.3596
    1OL     C14 7703   1.292   2.763   3.836 -0.0012  0.4291 -0.3212
    1OL     H4R 7704   1.232   2.829   3.900  0.9582  1.6326 -0.6300
    1OL     H4S 7705   1.320   2.829   3.754 -0.5215  2.0305  0.7339
    1OL     C15 7706   1.408   2.723   3.921 -0.0239  0.4821 -0.1473
    1OL     H5R 7707   1.466   2.814   3.932  0.6634  0.3768 -2.4323
    1OL     H5S 7708   1.475   2.648   3.878  0.1038  1.1857 -1.2014
    1OL     C16 7709   1.384   2.660   4.064  0.2919  0.4975 -0.3625
    1OL     H6R 7710   1.478   2.622   4.104  1.0591  1.6211 -1.0566
    1OL     H6S 7711   1.315   2.578   4.043  0.0357  0.7681 -0.5870
    1OL     C17 7712   1.322   2.761   4.161 -0.0999 -0.1164 -0.3431
    1OL     H7R 7713   1.227   2.796   4.120  0.8649  1.0636 -1.6810
    1OL     H7S 7714   1.386   2.850   4.167  2.9589 -2.2184  0.9646
    1OL     C18 7715   1.308   2.702   4.303  0.2527  0.0998  0.1219
    1OL     H8R 7716   1.275   2.781   4.371 -0.6103  1.6901 -2.0000
    1OL     H8S 7717   1.401   2.662   4.345  0.6782  1.9454  1.0719
    1OL     C19 7718   1.210   2.583   4.302 -0.0207 -0.0262 -0.9385
    1OL     H9R 7719   1.245   2.505   4.234  0.3440 -1.4640  0.8277
    1OL    C110 7720   1.104   2.557   4.375  0.1015  0.6876  1.0727
    1OL    H10R 7721   1.060   2.459   4.363  1.6622  0.1049 -0.2365
    1OL    C111 7722   1.044   2.650   4.473 -0.2015 -0.0232 -0.0625
    1OL    H11R 7723   1.112   2.733   4.495 -3.0907  2.3133  0.6676
    1OL    H11S 7724   1.029   2.594   4.566 -0.0056  2.5758  1.6216
    1OL    C112 7725   0.908   2.703   4.431 -0.1438  0.4412 -0.1571
    1OL    H12R 7726   0.838   2.620   4.416  0.8338 -0.7796  1.7278
    1OL    H12S 7727   0.912   2.759   4.337  1.2092 -0.4713 -0.6711
    1OL    C113 7728   0.848   2.789   4.542 -0.0326 -0.0537  0.1409
    1OL    H13R 7729   0.914   2.869   4.573  0.9009 -0.0212 -1.7896
    1OL    H13S 7730   0.829   2.714   4.619 -0.7415 -1.4495 -1.3278
    1OL    C114 7731   0.713   2.867   4.518 -0.4053 -0.3995 -0.4724
    1OL    H14R 7732   0.728   2.918   4.423  0.2390  0.2004 -0.0659
    1OL    H14S 7733   0.690   2.935   4.600 -0.2037  1.0936 -1.6231
    1OL    C115 7734   0.586   2.773   4.503  0.5354  0.0074 -0.1561
    1OL    H15R 7735   0.617   2.673   4.536 -0.9316  0.2243  2.1002
    1OL    H15S 7736   0.555   2.774   4.398  1.4604 -1.2306 -0.4696
    1OL    C116 7737   0.467   2.817   4.596 -0.0564 -0.7198 -0.0953
    1OL    H16R 7738   0.423   2.913   4.569 -0.1949 -0.7245  0.1106
    1OL    H16S 7739   0.490   2.816   4.703 -0.2188  0.2112 -0.0368
    1OL    C117 7740   0.349   2.717   4.576  0.1723 -0.0238 -0.8943
    1OL    H17R 7741   0.379   2.612   4.585  2.4000  0.7248  1.9263
    1OL    H17S 7742   0.313   2.725   4.473 -1.5090 -2.0911 -0.5258
    1OL    C118 7743   0.239   2.751   4.675 -0.5577  0.0800  0.6721
    1OL    H18R 7744   0.156   2.687   4.645  0.0692 -1.3865  1.9047
    1OL    H18S 7745   0.227   2.860   4.677  1.7199  0.4601 -1.5105
    1OL    H18T 7746   0.277   2.719   4.772  1.5080  0.3711  0.0125
    1PA    C116 7747   1.345   1.440   4.689  0.2667  0.1938 -0.6851
    1PA    H16R 7748   1.436   1.449   4.630 -0.8838  3.2688 -2.2735
    1PA    H16S 7749   1.321   1.541   4.723 -1.0747  0.1341 -1.3604
    1PA    H16T 7750   1.259   1.402   4.632  1.1523  0.6860 -2.4343
    1PA    C115 7751   1.365   1.350   4.807  0.3603 -0.2114 -0.3584
    1PA    H15R 7752   1.406   1.406   4.892 -0.7861 -0.1677  0.1812
    1PA    H15S 7753   1.265   1.324   4.842  0.8321 -0.7041  0.6704
    1PA    C114 7754   1.437   1.220   4.790 -0.0086 -0.0321 -0.0904
    1PA    H14R 7755   1.450   1.165   4.883  0.0222  0.1348  0.0026
    1PA    H14S 7756   1.377   1.154   4.726  1.1109 -2.2118  0.9998
    1PA    C113 7757   1.578   1.225   4.732 -0.0547  0.0742 -0.0374
    1PA    H13R 7758   1.588   1.262   4.630  1.7576 -1.5421 -0.4931
    1PA    H13S 7759   1.645   1.290   4.787 -2.5843  2.5355  0.3930
    1PA    C112 7760   1.649   1.085   4.731 -0.2691 -0.2809  0.0511
    1PA    H12R 7761   1.754   1.099   4.701 -0.3557  1.1973  0.3672
    1PA    H12S 7762   1.654   1.048   4.833 -3.3738 -1.9199 -0.2743
    1PA    C111 7763   1.579   0.982   4.646 -0.3392  0.1434 -0.6012
    1PA    H11R 7764   1.488   0.940   4.689  1.2819 -1.2491  1.7006
    1PA    H11S 7765   1.550   1.024   4.550 -1.8769 -1.3857 -0.8530
    1PA    C110 7766   1.657   0.858   4.602 -0.5471 -0.4380  0.4717
    1PA    H10R 7767   1.683   0.805   4.693 -2.9446 -0.6781  1.0879
    1PA    H10S 7768   1.593   0.790   4.546 -2.5592  1.4499  0.3228
    1PA     C19 7769   1.792   0.892   4.533 -0.0641  0.7754  0.0908
    1PA     H9R 7770   1.763   0.965   4.457  1.2113  0.8512 -0.3464
    1PA     H9S 7771   1.860   0.938   4.604 -0.9179  2.3819 -0.0795
    1PA     C18 7772   1.858   0.771   4.463  0.3398  0.0527 -0.4293
    1PA     H8R 7773   1.964   0.795   4.468  0.7549 -1.8576  1.4993
    1PA     H8S 7774   1.840   0.691   4.536  1.4511 -1.3241 -1.5909
    1PA     C17 7775   1.810   0.735   4.322  0.1253  0.9638  0.1584
    1PA     H7R 7776   1.847   0.636   4.292  0.1269  1.1807 -0.5925
    1PA     H7S 7777   1.701   0.734   4.312  0.0569 -1.3826  0.6016
    1PA     C16 7778   1.867   0.813   4.203  0.3418 -0.3320 -0.5336
    1PA     H6R 7779   1.976   0.816   4.215  0.5621 -0.1001 -2.3134
    1PA     H6S 7780   1.852   0.752   4.114 -0.8209  0.6068 -1.0073
    1PA     C15 7781   1.799   0.946   4.175  0.3751  0.7838  0.9223
    1PA     H5R 7782   1.692   0.929   4.166  0.5945  0.2795 -1.2227
    1PA     H5S 7783   1.824   1.012   4.258 -0.4329  1.4845  0.6241
    1PA     C14 7784   1.848   0.992   4.040  0.6703 -0.6792  0.4675
    1PA     H4R 7785   1.955   1.012   4.043  0.5894 -0.3076  2.8934
    1PA     H4S 7786   1.842   0.910   3.968  0.1546 -2.3285  2.3158
    1PA     C13 7787   1.772   1.109   3.964  0.0101  0.1828 -0.5421
    1PA     H3R 7788   1.782   1.207   4.010  0.0125  0.1737 -0.5230
    1PA     H3S 7789   1.824   1.121   3.869  2.2180  0.6169  0.6544
    1PA     C12 7790   1.622   1.089   3.943 -0.4126  0.9909  0.1815
    1PA     H2R 7791   1.611   1.001   3.880  1.4142  0.3744  0.6708
    1PA     H2S 7792   1.588   1.073   4.046  0.8202  0.9470  0.5937
    1PC     C11 7793   1.547   1.206   3.878  0.3896  0.1064  0.0427
    1PC     O12 7794   1.540   1.315   3.939  0.2258 -0.0950  0.2629
    1PC     O11 7795   1.494   1.178   3.759  0.0331  0.7075  0.1966
    1PC      C1 7796   1.433   1.279   3.679  0.2659 -0.4861  0.0742
    1PC      HR 7797   1.350   1.229   3.627 -1.2138  0.1868  1.7004
    1PC      HS 7798   1.389   1.361   3.736 -1.1734 -0.1540 -1.4155
    1PC      C2 7799   1.540   1.332   3.576  0.4996 -0.2760  0.2321
    1PC      HX 7800   1.498   1.408   3.509  0.0160 -0.1265  0.7017
    1PC      C3 7801   1.588   1.226   3.477 -0.4160  0.0512 -0.4969
    1PC      HA 7802   1.639   1.145   3.529  3.2867  1.6576 -1.3000
    1PC      HB 7803   1.503   1.191   3.418  0.1356 -0.5443 -0.9633
    1PC     O31 7804   1.703   1.269   3.390  0.6998 -0.3286 -0.0471
    1PC     P31 7805   1.693   1.381   3.278 -0.2468 -0.0722 -0.2271
    1PC     O32 7806   1.719   1.523   3.348 -0.1474 -0.3791 -0.4901
    1PC     C31 7807   1.622   1.629   3.366  0.0509 -0.5064 -0.0624
    1PC     H1A 7808   1.538   1.584   3.420  0.1068  0.3349  0.7323
    1PC     H1B 7809   1.676   1.704   3.424  0.7711  0.2326 -1.6253
    1PC     C32 7810   1.590   1.679   3.225 -0.0124  0.0190  1.1081
    1PC     H2A 7811   1.679   1.723   3.180 -1.1585  0.1770 -1.1722
    1PC     H2B 7812   1.552   1.596   3.164 -0.6845  0.6632  0.6384
    1PC     N31 7813   1.479   1.778   3.209  0.1945  0.4817  0.7728
    1PC     C33 7814   1.440   1.814   3.072 -0.2424 -0.1475  0.4942
    1PC     H3A 7815   1.351   1.876   3.084 -0.2084  0.2571 -1.0974
    1PC     H3B 7816   1.521   1.875   3.032  2.3444 -1.6475  3.1127
    1PC     H3C 7817   1.425   1.729   3.005 -2.3669 -1.0990  2.0754
    1PC     C34 7818   1.354   1.723   3.269 -0.2593  0.1327 -0.2122
    1PC     H4A 7819   1.316   1.636   3.215  0.1273 -0.3940  0.3426
    1PC     H4B 7820   1.373   1.687   3.370 -0.0762 -1.4489 -0.7859
    1PC     H4C 7821   1.276   1.799   3.259  0.5923  0.7021 -3.9414
    1PC     C35 7822   1.516   1.899   3.282 -0.2902  0.1911 -0.3580
    1PC     H5A 7823   1.604   1.948   3.240 -0.8118  2.9610  1.5181
    1PC     H5B 7824   1.543   1.864   3.382 -0.9755  2.0809  0.5487
    1PC     H5C 7825   1.437   1.975   3.286  0.3391  0.8068  0.9996
    1PC     O33 7826   1.798   1.342   3.184 -0.2580 -0.0483 -0.1890
    1PC     O34 7827   1.550   1.378   3.233 -0.4254  0.1320 -0.5733
    1PC     O21 7828   1.651   1.380   3.646  0.0958 -1.1322 -0.2852
    1PC     C21 7829   1.644   1.508   3.695 -0.6641  0.1392  0.3821
    1PC     O22 7830   1.548   1.581   3.685  0.5189 -0.5833  0.8945
    1OL     C12 7831   1.776   1.562   3.748  0.8136 -0.2911  0.0324
    1OL     H2R 7832   1.793   1.650   3.685 -3.0581  0.2256 -0.5246
    1OL     H2S 7833   1.864   1.501   3.730  0.8988 -0.1836  0.0799
    1OL     C13 7834   1.765   1.597   3.896 -0.2586  0.8483  0.3266
    1OL     H3R 7835   1.714   1.516   3.950 -0.3384 -0.0773 -1.0904
    1OL     H3S 7836   1.688   1.674   3.907 -0.5363  0.6592 -0.2640
    1OL     C14 7837   1.894   1.659   3.950 -0.3288  0.0840 -0.1557
    1OL     H4R 7838   1.888   1.761   3.911 -2.5010  0.6005  1.3507
    1OL     H4S 7839   1.976   1.598   3.911  1.0441  1.9163 -0.2524
    1OL     C15 7840   1.903   1.673   4.104 -0.5266  0.6734 -0.7109
    1OL     H5R 7841   2.002   1.711   4.129  0.2381 -1.0552 -0.9374
    1OL     H5S 7842   1.887   1.583   4.164 -3.2154  1.2439 -0.4204
    1OL     C16 7843   1.805   1.768   4.169 -0.1448  0.2707  1.5370
    1OL     H6R 7844   1.703   1.740   4.142  0.1214  1.1963 -0.6749
    1OL     H6S 7845   1.816   1.868   4.128  0.2778 -0.0567  0.8174
    1OL     C17 7846   1.816   1.764   4.321  0.2166 -0.0384  0.6615
    1OL     H7R 7847   1.920   1.779   4.348  0.3536 -0.0551  0.1408
    1OL     H7S 7848   1.785   1.663   4.351 -0.2516 -1.0328 -2.7708
    1OL     C18 7849   1.725   1.861   4.401 -0.2754  0.1927  1.1270
    1OL     H8R 7850   1.626   1.842   4.360  0.3097  0.2564 -0.3926
    1OL     H8S 7851   1.758   1.964   4.390  2.6357 -0.6378  0.9866
    1OL     C19 7852   1.724   1.813   4.544  0.3680 -0.3082 -0.0087
    1OL     H9R 7853   1.677   1.716   4.563 -1.3516  0.2391 -1.2398
    1OL    C110 7854   1.774   1.873   4.648 -0.2575 -1.1952  0.0898
    1OL    H10R 7855   1.774   1.822   4.744  1.5976 -0.7864  0.3350
    1OL    C111 7856   1.834   2.012   4.647 -0.4707 -0.1263 -0.3906
    1OL    H11R 7857   1.816   2.056   4.548  0.9756  1.5688  0.0398
    1OL    H11S 7858   1.940   1.990   4.660 -0.5351 -0.1424  0.1123
    1OL    C112 7859   1.789   2.108   4.760 -0.0445  0.4905 -0.4353
    1OL    H12R 7860   1.680   2.103   4.764 -0.0128 -3.3033 -1.2469
    1OL    H12S 7861   1.818   2.212   4.741 -0.8607  1.4434  2.9197
    1OL    C113 7862   1.849   2.069   4.894  0.4575 -0.1263  0.5184
    1OL    H13R 7863   1.958   2.062   4.891  0.4430 -1.0306  1.3048
    1OL    H13S 7864   1.809   1.968   4.903  1.5278 -0.3883  4.8974
    1OL    C114 7865   1.801   2.163   5.006 -0.4766 -0.3865  0.3950
    1OL    H14R 7866   1.694   2.163   5.024 -0.6068 -0.5358 -0.3424
    1OL    H14S 7867   1.834   2.263   4.974 -1.9577 -0.4868 -1.6783
    1OL    C115 7868   1.879   2.144   5.142  0.2106 -0.7952  1.1601
    1OL    H15R 7869   1.988   2.154   5.136  0.8378 -4.5927  3.1846
    1OL    H15S 7870   1.862   2.038   5.159 -0.7396 -0.6095  1.4402
    1OL    C116 7871   1.812   2.231   5.250 -0.2913 -0.4907  0.2321
    1OL    H16R 7872   1.710   2.196   5.264 -0.2275 -0.7335  0.0977
    1OL    H16S 7873   1.798   2.332   5.211  1.1704 -1.0226 -1.8720
    1OL    C117 7874   1.899   2.253   5.372  0.1350  0.4655  0.1347
    1OL    H17R 7875   1.854   2.329   5.436 -1.2390 -1.1009  1.1282
    1OL    H17S 7876   1.999   2.276   5.337 -0.0736 -0.2958 -0.9947
    1OL    C118 7877   1.902   2.128   5.462  0.1916  0.0059 -0.0863
    1OL    H18R 7878   1.802   2.084   5.464 -0.1289  0.7206  1.8159
    1OL    H18S 7879   1.928   2.142   5.567 -2.5621 -0.1237  0.6981
    1OL    H18T 7880   1.963   2.051   5.415  1.4948  2.1119 -2.0720
    1PA    C116 7881   2.626   0.123   4.938 -0.1077 -0.1608  0.1431
    1PA    H16R 7882   2.723   0.134   4.888  0.1109 -1.4454  0.2592
    1PA    H16S 7883   2.583   0.036   4.889 -0.5695  0.6617 -0.9391
    1PA    H16T 7884   2.649   0.103   5.043  0.9168 -0.6474 -0.1590
    1PA    C115 7885   2.530   0.243   4.929 -0.5754 -0.1509  0.0209
    1PA    H15R 7886   2.442   0.242   4.993 -0.3169  0.2735  0.3844
    1PA    H15S 7887   2.591   0.325   4.966 -0.2443 -1.0890  1.6196
    1PA    C114 7888   2.496   0.267   4.779  0.8025 -0.7755  0.1820
    1PA    H14R 7889   2.464   0.172   4.736 -0.4877 -0.1132 -0.3646
    1PA    H14S 7890   2.409   0.332   4.794 -1.8506 -4.2996  1.3772
    1PA    C113 7891   2.604   0.327   4.690  0.1500  0.0251  0.4012
    1PA    H13R 7892   2.701   0.276   4.693  0.7306  1.1005  2.6343
    1PA    H13S 7893   2.557   0.321   4.592 -0.8638 -0.1046  0.8874
    1PA    C112 7894   2.639   0.475   4.737  0.0066  0.4475  0.5572
    1PA    H12R 7895   2.549   0.534   4.757  0.2865  1.3321 -0.6574
    1PA    H12S 7896   2.687   0.474   4.834  1.4309  0.8520 -0.1263
    1PA    C111 7897   2.741   0.536   4.632 -0.4983  0.6906 -0.3704
    1PA    H11R 7898   2.837   0.522   4.681  0.0465 -0.1294 -1.6234
    1PA    H11S 7899   2.742   0.480   4.538  1.2212  1.9849 -1.1789
    1PA    C110 7900   2.718   0.687   4.623  0.4866  0.4595  0.0672
    1PA    H10R 7901   2.610   0.700   4.627  0.2974 -1.0231  0.1263
    1PA    H10S 7902   2.759   0.735   4.712 -1.6719  1.0138  0.8096
    1PA     C19 7903   2.768   0.757   4.495  0.2500 -0.1907  0.2048
    1PA     H9R 7904   2.716   0.852   4.480  0.8470  0.0831 -0.1933
    1PA     H9S 7905   2.875   0.776   4.507  0.5579 -1.1680 -0.7472
    1PA     C18 7906   2.749   0.672   4.369 -0.3184 -0.7547 -0.3228
    1PA     H8R 7907   2.804   0.579   4.383 -1.2699 -1.0014  2.3392
    1PA     H8S 7908   2.646   0.640   4.355 -0.2437 -1.1661  0.0639
    1PA     C17 7909   2.783   0.738   4.239 -0.0327 -0.2807  0.2159
    1PA     H7R 7910   2.713   0.821   4.232 -0.0360 -0.2306  0.7527
    1PA     H7S 7911   2.887   0.769   4.229 -0.4303  0.9947 -0.0802
    1PA     C16 7912   2.747   0.648   4.115  0.0621  0.2268  0.1442
    1PA     H6R 7913   2.784   0.545   4.123  1.1940  0.7369  2.0287
    1PA     H6S 7914   2.639   0.637   4.100  0.1884  0.9310 -1.4382
    1PA     C15 7915   2.816   0.722   3.994 -0.2222  0.1695  0.0577
    1PA     H5R 7916   2.747   0.804   3.974 -1.3938 -0.5417  1.0697
    1PA     H5S 7917   2.916   0.759   4.016  0.7263 -1.4857 -1.2290
    1PA     C14 7918   2.825   0.623   3.876  0.3594  0.3870 -0.0329
    1PA     H4R 7919   2.730   0.578   3.846 -1.0982  1.7082  2.2334
    1PA     H4S 7920   2.859   0.682   3.791 -0.0622  0.2676 -0.2843
    1PA     C13 7921   2.919   0.507   3.897  0.2177 -0.3233 -0.0955
    1PA     H3R 7922   3.020   0.550   3.899 -0.8920  2.6097 -1.5672
    1PA     H3S 7923   2.922   0.452   3.991  1.2143 -3.0566 -1.6122
    1PA     C12 7924   2.905   0.404   3.779  0.0574 -0.2993  0.4511
    1PA     H2R 7925   2.907   0.459   3.684 -1.4214 -0.8492  0.0725
    1PA     H2S 7926   2.985   0.330   3.785 -0.2190 -0.5254  1.5949
    1PC     C11 7927   2.779   0.326   3.789  0.0488 -0.0380 -0.4828
    1PC     O12 7928   2.716   0.309   3.892  0.2554  0.8131  0.6913
    1PC     O11 7929   2.750   0.266   3.673 -0.2151  0.7735 -0.4500
    1PC      C1 7930   2.628   0.188   3.656 -0.7366  0.0776 -0.7314
    1PC      HR 7931   2.653   0.119   3.575  0.4140  1.0540 -1.2471
    1PC      HS 7932   2.596   0.132   3.745 -0.0426 -0.2028 -0.6501
    1PC      C2 7933   2.516   0.277   3.605 -0.5819  0.5769  0.0320
    1PC      HX 7934   2.433   0.218   3.565 -0.1551 -0.0240  0.0102
    1PC      C3 7935   2.573   0.361   3.480 -0.1237  1.1897 -0.0797
    1PC      HA 7936   2.602   0.452   3.531 -0.5801  1.8939 -1.0376
    1PC      HB 7937   2.652   0.303   3.430 -0.9654 -1.1283  1.1215
    1PC     O31 7938   2.469   0.389   3.379 -0.1994  0.1647  0.3383
    1PC     P31 7939   2.423   0.280   3.272  0.0965 -0.1265  0.2131
    1PC     O32 7940   2.532   0.299   3.155  0.2900  0.6425  0.3087
    1PC     C31 7941   2.504   0.385   3.046  0.3162 -0.1975  0.6739
    1PC     H1A 7942   2.558   0.349   2.958 -1.4271  0.3943 -0.7021
    1PC     H1B 7943   2.396   0.387   3.025  0.2953 -0.4957  0.7524
    1PC     C32 7944   2.539   0.531   3.084 -0.2805  0.5406 -0.2395
    1PC     H2A 7945   2.506   0.602   3.009 -2.0625  1.8371  1.6724
    1PC     H2B 7946   2.488   0.547   3.180 -1.3520  0.0694 -0.7104
    1PC     N31 7947   2.686   0.571   3.088  0.3768 -0.0028 -0.0934
    1PC     C33 7948   2.681   0.714   3.123 -0.0522 -0.6193  0.0271
    1PC     H3A 7949   2.784   0.734   3.154 -1.1812  1.0585  3.1012
    1PC     H3B 7950   2.644   0.769   3.037  1.3369 -0.3606 -0.4255
    1PC     H3C 7951   2.608   0.748   3.197 -1.1600  2.1306 -2.1488
    1PC     C34 7952   2.752   0.517   3.207 -0.2066  0.0824  0.0913
    1PC     H4A 7953   2.728   0.579   3.294  1.9534 -0.4740  1.1594
    1PC     H4B 7954   2.719   0.414   3.222  1.3923 -0.2981  1.3101
    1PC     H4C 7955   2.860   0.522   3.200 -0.1292  1.2978  1.6255
    1PC     C35 7956   2.758   0.542   2.958  0.1375 -0.0931 -0.3520
    1PC     H5A 7957   2.710   0.608   2.886 -0.0525 -0.7173 -0.8154
    1PC     H5B 7958   2.757   0.433   2.951 -0.8106 -0.2181  1.2680
    1PC     H5C 7959   2.858   0.585   2.956  1.5773 -3.0698  0.6986
    1PC     O33 7960   2.435   0.144   3.323  0.6860  0.1356 -0.0879
    1PC     O34 7961   2.289   0.335   3.227 -0.2111  0.1786 -0.1643
    1PC     O21 7962   2.477   0.371   3.705 -0.2060  0.6173 -0.6785
    1PC     C21 7963   2.390   0.325   3.798  0.9255  0.3819 -0.1728
    1PC     O22 7964   2.368   0.207   3.817  0.1173  0.6097 -0.2428
    1OL     C12 7965   2.311   0.422   3.886  0.3115  0.1692 -0.1019
    1OL     H2R 7966   2.263   0.483   3.809  0.0926 -1.6609 -1.4969
    1OL     H2S 7967   2.382   0.489   3.936  1.6220 -0.2879 -1.2557
    1OL     C13 7968   2.220   0.365   3.996 -0.2265 -0.1546 -0.6900
    1OL     H3R 7969   2.148   0.290   3.961 -2.3007  1.1664  0.5322
    1OL     H3S 7970   2.173   0.448   4.049  2.1233  0.3248  0.7822
    1OL     C14 7971   2.301   0.296   4.109 -0.1672  0.1096 -0.3982
    1OL     H4R 7972   2.374   0.231   4.061  1.5852  2.6527 -1.4302
    1OL     H4S 7973   2.228   0.239   4.166  1.9856 -1.7498  0.6100
    1OL     C15 7974   2.381   0.382   4.204 -0.0779 -0.2878  0.8423
    1OL     H5R 7975   2.311   0.434   4.270  1.4023  1.0682  1.4289
    1OL     H5S 7976   2.436   0.456   4.145 -0.2436 -0.1964  0.8023
    1OL     C16 7977   2.488   0.305   4.284  0.0759  0.6477  0.1455
    1OL     H6R 7978   2.449   0.217   4.335 -0.5899  2.1063  2.2902
    1OL     H6S 7979   2.524   0.375   4.359 -0.2279 -2.1970  3.1788
    1OL     C17 7980   2.612   0.269   4.197 -0.7045 -0.0558  0.2897
    1OL     H7R 7981   2.659   0.359   4.156  2.4247 -2.1721 -1.2286
    1OL     H7S 7982   2.586   0.205   4.112 -4.9478  1.4897  0.2004
    1OL     C18 7983   2.714   0.193   4.282  0.4001 -0.2775 -0.7346
    1OL     H8R 7984   2.673   0.112   4.343 -0.3350  1.9680  1.9827
    1OL     H8S 7985   2.755   0.269   4.349 -1.2796  2.3643 -2.5069
    1OL     C19 7986   2.826   0.140   4.194 -0.1552  0.3921  0.7372
    1OL     H9R 7987   2.787   0.101   4.100 -3.0745  0.5333  1.7696
    1OL    C110 7988   2.955   0.139   4.220 -0.8830 -0.5891  0.0267
    1OL    H10R 7989   3.021   0.090   4.149  2.2807  2.7771  0.3953
    1OL    C111 7990   3.018   0.198   4.349 -0.1952  0.4675 -0.3021
    1OL    H11R 7991   3.096   0.129   4.381 -1.0044 -0.2594  0.1530
    1OL    H11S 7992   2.947   0.209   4.432  0.2542  1.7854 -0.0773
    1OL    C112 7993   3.074   0.342   4.324 -0.0718 -0.0649  0.6751
    1OL    H12R 7994   2.988   0.403   4.296  0.1830  0.1698  0.4006
    1OL    H12S 7995   3.128   0.343   4.229 -0.1077 -2.7226  0.5460
    1OL    C113 7996   3.144   0.412   4.441 -0.1858 -0.3016  0.2713
    1OL    H13R 7997   3.234   0.361   4.475 -0.4131  0.2440  1.7519
    1OL    H13S 7998   3.074   0.416   4.525 -0.5562  2.3176 -0.0730
    1OL    C114 7999   3.157   0.562   4.416 -0.2972  0.4388 -0.5145
    1OL    H14R 8000   3.190   0.616   4.506  2.4636 -0.3239 -0.9869
    1OL    H14S 8001   3.058   0.597   4.387 -0.7613 -0.1293  0.3518
    1OL    C115 8002   3.258   0.592   4.302  0.1671  0.1865  0.2345
    1OL    H15R 8003   3.222   0.573   4.201 -0.7480 -1.4679  0.8373
    1OL    H15S 8004   3.357   0.547   4.315  1.0045  1.8181 -0.1740
    1OL    C116 8005   3.281   0.745   4.285  0.0267 -0.3042  0.8443
    1OL    H16R 8006   3.365   0.755   4.216 -0.3855 -0.0017  0.3820
    1OL    H16S 8007   3.321   0.795   4.373  1.4838 -1.1713  0.6988
    1OL    C117 8008   3.156   0.820   4.233 -0.8245 -0.3244  0.6560
    1OL    H17R 8009   3.080   0.826   4.312 -0.6362  1.5585  0.7502
    1OL    H17S 8010   3.115   0.764   4.149  3.1276 -1.1259 -0.9279
    1OL    C118 8011   3.191   0.957   4.175  0.1078 -0.3318  0.1096
    1OL    H18R 8012   3.286   0.944   4.121 -0.3384 -0.1752 -0.7277
    1OL    H18S 8013   3.212   1.026   4.257  2.5824  0.2521 -0.9058
    1OL    H18T 8014   3.117   0.991   4.103  0.7322  0.9574  0.0453
    1PA    C116 8015   2.136   3.657   5.001  0.1972 -0.7463  1.1287
    1PA    H16R 8016   2.244   3.645   4.989  0.1731 -2.1018  2.0241
    1PA    H16S 8017   2.112   3.669   5.107 -0.5101  2.0423  0.7209
    1PA    H16T 8018   2.111   3.752   4.953  1.1551 -0.0126  2.0497
    1PA    C115 8019   2.063   3.533   4.935  0.3534 -0.2532 -0.2070
    1PA    H15R 8020   2.130   3.453   4.966 -0.0742 -0.2345  0.7997
    1PA    H15S 8021   1.964   3.522   4.980  0.9860 -0.9769  1.0686
    1PA    C114 8022   2.059   3.546   4.784  0.0924 -0.6133 -0.2453
    1PA    H14R 8023   1.991   3.626   4.753  0.6245  0.2803  0.8001
    1PA    H14S 8024   2.165   3.558   4.758  0.1542 -0.0536  0.2437
    1PA    C113 8025   2.025   3.412   4.723  0.4061  0.1176  0.5690
    1PA    H13R 8026   2.092   3.332   4.755  0.2436 -0.3662 -0.2534
    1PA    H13S 8027   1.925   3.381   4.755  1.0639 -1.5591  1.0851
    1PA    C112 8028   2.021   3.422   4.571 -0.1994 -0.0910  0.0539
    1PA    H12R 8029   1.940   3.489   4.540 -1.8700 -1.4885  1.1958
    1PA    H12S 8030   2.117   3.457   4.534 -0.9778  0.3736 -1.6527
    1PA    C111 8031   1.988   3.285   4.506  0.5847 -0.7954  0.0358
    1PA    H11R 8032   2.072   3.218   4.521  1.1343 -0.3679 -1.0006
    1PA    H11S 8033   1.900   3.242   4.555  0.5618 -0.4000  0.3456
    1PA    C110 8034   1.962   3.301   4.353  0.2944 -0.4616 -0.3142
    1PA    H10R 8035   2.052   3.347   4.311  0.3597  0.4727  0.7892
    1PA    H10S 8036   1.961   3.196   4.322 -2.1025 -0.7736  0.6344
    1PA     C19 8037   1.831   3.368   4.309  0.1870 -0.3211  0.6266
    1PA     H9R 8038   1.743   3.336   4.366 -0.6631 -1.3061 -1.1591
    1PA     H9S 8039   1.852   3.474   4.321 -0.6021  0.2122 -2.0941
    1PA     C18 8040   1.794   3.335   4.159  0.1102  0.1311  0.6910
    1PA     H8R 8041   1.785   3.227   4.172  0.5475 -0.2807 -1.8641
    1PA     H8S 8042   1.702   3.384   4.127 -0.3611 -0.3444  1.2898
    1PA     C17 8043   1.895   3.370   4.042  0.6235  0.2701  0.1823
    1PA     H7R 8044   1.902   3.479   4.041  0.1092  0.2967 -0.3236
    1PA     H7S 8045   1.984   3.319   4.080 -2.0212 -0.8771  6.0985
    1PA     C16 8046   1.864   3.308   3.897 -1.0707  0.4898  0.5827
    1PA     H6R 8047   1.855   3.200   3.909 -1.5358  0.1198 -2.4260
    1PA     H6S 8048   1.768   3.337   3.855 -1.4035 -1.0520  0.2172
    1PA     C15 8049   1.971   3.344   3.796  0.0806  0.3389  0.4128
    1PA     H5R 8050   2.066   3.325   3.846  1.0546  3.3648 -0.0969
    1PA     H5S 8051   1.963   3.275   3.712  2.1082  0.8513 -0.2581
    1PA     C14 8052   1.974   3.490   3.748 -0.0817  0.3080  0.3180
    1PA     H4R 8053   1.922   3.547   3.825 -0.2137  0.9206 -0.2172
    1PA     H4S 8054   2.077   3.524   3.738 -0.0247 -0.1857 -0.9553
    1PA     C13 8055   1.905   3.519   3.609  0.0151  0.0443 -0.7437
    1PA     H3R 8056   1.946   3.447   3.538  1.6054  0.5852 -0.4227
    1PA     H3S 8057   1.799   3.494   3.616  0.2423 -1.0523 -1.0452
    1PA     C12 8058   1.920   3.659   3.539 -0.0950 -0.4753 -0.1399
    1PA     H2R 8059   1.883   3.733   3.610 -1.3758 -2.1241  0.9651
    1PA     H2S 8060   2.027   3.681   3.540 -0.2692  0.4285  0.0534
    1PC     C11 8061   1.848   3.675   3.408  0.0900 -0.6936  0.2170
    1PC     O12 8062   1.864   3.596   3.319  0.0511  0.1986 -0.0344
    1PC     O11 8063   1.758   3.778   3.403 -0.5955 -0.0064 -0.1932
    1PC      C1 8064   1.680   3.795   3.281 -0.4048 -1.0248 -0.4253
    1PC      HR 8065   1.634   3.894   3.290  0.0646 -0.6697 -1.6980
    1PC      HS 8066   1.755   3.801   3.202 -1.1036 -1.6763 -1.1644
    1PC      C2 8067   1.567   3.693   3.260 -0.1094  0.2593  0.0603
    1PC      HX 8068   1.610   3.593   3.257 -0.3699  0.1403 -2.7515
    1PC      C3 8069   1.495   3.698   3.120 -0.2932  0.6324 -0.2594
    1PC      HA 8070   1.462   3.798   3.093  3.5105  1.5609 -2.0748
    1PC      HB 8071   1.575   3.668   3.052 -1.4328 -2.1086 -0.5249
    1PC     O31 8072   1.386   3.598   3.114 -0.0416 -0.4702  0.3848
    1PC     P31 8073   1.430   3.455   3.064 -0.2802 -0.1701 -0.0886
    1PC     O32 8074   1.418   3.466   2.906  0.3552  0.2971  0.3601
    1PC     C31 8075   1.533   3.504   2.822  0.1918  0.4444  0.9004
    1PC     H1A 8076   1.599   3.583   2.859 -0.0422  0.9763  0.1950
    1PC     H1B 8077   1.580   3.407   2.813 -0.0299  0.5262 -1.6145
    1PC     C32 8078   1.489   3.553   2.684  0.5608 -0.2334 -0.0226
    1PC     H2A 8079   1.584   3.554   2.630  0.3170  1.8609 -0.4855
    1PC     H2B 8080   1.413   3.493   2.633 -1.0540  2.4635 -0.9822
    1PC     N31 8081   1.435   3.694   2.679  0.6717 -0.2107 -0.4900
    1PC     C33 8082   1.414   3.735   2.535 -0.3536 -0.2439  0.1685
    1PC     H3A 8083   1.492   3.701   2.467  2.5882  2.3815  1.9357
    1PC     H3B 8084   1.323   3.692   2.492  1.3000 -1.8788 -1.9114
    1PC     H3C 8085   1.416   3.844   2.533  0.9724 -0.2625 -1.1890
    1PC     C34 8086   1.306   3.691   2.748  0.0616  0.7802 -0.4954
    1PC     H4A 8087   1.329   3.665   2.851 -0.2841 -1.7382 -0.9741
    1PC     H4B 8088   1.258   3.788   2.734 -0.1977  0.6668 -0.3873
    1PC     H4C 8089   1.235   3.620   2.704 -0.9905  0.3939  1.7203
    1PC     C35 8090   1.525   3.796   2.740 -0.2113 -0.3391  0.4474
    1PC     H5A 8091   1.543   3.758   2.840 -2.1113 -1.9031  0.2575
    1PC     H5B 8092   1.471   3.890   2.737 -0.6161 -0.4191  3.1404
    1PC     H5C 8093   1.615   3.801   2.677 -1.0266  1.1942 -0.6744
    1PC     O33 8094   1.575   3.433   3.098 -0.3789  0.2082 -0.3410
    1PC     O34 8095   1.331   3.363   3.116  0.0085  0.3234  0.4302
    1PC     O21 8096   1.470   3.699   3.372  0.2146  0.2891 -0.4217
    1PC     C21 8097   1.477   3.630   3.484 -0.0886 -0.5074 -0.2111
    1PC     O22 8098   1.558   3.544   3.501  0.6501 -0.0013 -1.0649
    1OL     C12 8099   1.375   3.670   3.588  0.0022 -0.7270  0.4882
    1OL     H2R 8100   1.283   3.624   3.551  0.2077 -0.1691 -0.7566
    1OL     H2S 8101   1.350   3.775   3.599  0.7245 -0.6239  1.2007
    1OL     C13 8102   1.412   3.607   3.723 -0.6821 -0.0245 -0.2053
    1OL     H3R 8103   1.513   3.636   3.756  0.1760 -1.5438 -1.3944
    1OL     H3S 8104   1.390   3.501   3.720  0.0507 -0.2812  1.9210
    1OL     C14 8105   1.336   3.670   3.843 -0.0674 -0.0989 -0.0059
    1OL     H4R 8106   1.228   3.663   3.826  0.2270 -0.5418 -1.8491
    1OL     H4S 8107   1.356   3.777   3.851 -0.4143 -0.0951  1.0906
    1OL     C15 8108   1.369   3.602   3.976 -0.0926 -0.5891  0.3086
    1OL     H5R 8109   1.478   3.610   3.987 -0.1489  2.6271 -0.4714
    1OL     H5S 8110   1.335   3.499   3.967 -3.2593  0.5134 -2.1208
    1OL     C16 8111   1.304   3.685   4.092 -0.0959 -0.4475 -0.4968
    1OL     H6R 8112   1.196   3.674   4.102  0.1169 -0.7486  2.3299
    1OL     H6S 8113   1.327   3.791   4.092 -0.0043 -0.4023  1.9469
    1OL     C17 8114   1.343   3.640   4.232 -0.6771  0.0423  0.8893
    1OL     H7R 8115   1.291   3.545   4.243 -0.1868 -0.6218 -1.7672
    1OL     H7S 8116   1.301   3.702   4.311 -0.7796  2.6184 -1.0493
    1OL     C18 8117   1.493   3.627   4.250 -0.0144 -0.0145 -0.6104
    1OL     H8R 8118   1.533   3.545   4.191  1.4100 -0.2670  0.6384
    1OL     H8S 8119   1.509   3.589   4.351 -1.8212  1.1069  0.1608
    1OL     C19 8120   1.567   3.755   4.217  0.2433  0.2555  0.5966
    1OL     H9R 8121   1.513   3.816   4.145 -0.7860 -0.6000  0.6194
    1OL    C110 8122   1.669   3.804   4.284 -0.0340  0.2162  0.3444
    1OL    H10R 8123   1.707   3.904   4.263 -1.6368  1.3585  2.4492
    1OL    C111 8124   1.735   3.739   4.401 -0.3360  0.7106  1.1402
    1OL    H11R 8125   1.844   3.738   4.393 -0.2579  3.1951  1.1212
    1OL    H11S 8126   1.712   3.632   4.404  0.1722  0.4874 -1.2862
    1OL    C112 8127   1.709   3.821   4.527  0.5463  0.5316  0.8831
    1OL    H12R 8128   1.612   3.786   4.563 -0.1594  0.5669 -0.9108
    1OL    H12S 8129   1.713   3.928   4.509  0.9496  0.3656 -0.1010
    1OL    C113 8130   1.815   3.794   4.633  0.5817  0.4599 -0.0766
    1OL    H13R 8131   1.911   3.811   4.584 -1.5644  2.6294 -4.0137
    1OL    H13S 8132   1.799   3.697   4.680 -0.0623  0.4780 -0.2536
    1OL    C114 8133   1.801   3.888   4.749 -0.6853  0.3447 -0.1752
    1OL    H14R 8134   1.764   3.985   4.716 -1.4304 -0.1589 -0.8487
    1OL    H14S 8135   1.901   3.892   4.793  0.0997 -0.0999 -1.8037
    1OL    C115 8136   1.713   3.842   4.858 -0.4937 -0.1897 -0.4154
    1OL    H15R 8137   1.752   3.744   4.887 -0.3173 -0.2584 -0.8745
    1OL    H15S 8138   1.605   3.836   4.839 -0.4131 -1.2010 -0.6101
    1OL    C116 8139   1.720   3.934   4.975  0.3796  0.5957 -0.4958
    1OL    H16R 8140   1.686   4.034   4.946 -0.1403  1.6604  3.2380
    1OL    H16S 8141   1.825   3.936   5.005  0.6014 -2.4915 -0.7742
    1OL    C117 8142   1.637   3.880   5.099 -1.2996  0.2694  0.4573
    1OL    H17R 8143   1.529   3.891   5.088 -1.0609  0.5664 -2.2609
    1OL    H17S 8144   1.672   3.930   5.189  2.4632 -1.7637  0.3388
    1OL    C118 8145   1.680   3.734   5.132  0.1462  0.1385 -0.2223
    1OL    H18R 8146   1.789   3.735   5.137  0.1930 -0.3334 -0.8752
    1OL    H18S 8147   1.649   3.671   5.047 -1.8831  1.2930 -0.3973
    1OL    H18T 8148   1.637   3.696   5.224  0.4453  0.2612 -0.0299
    1PA    C116 8149   4.788   1.278   4.706 -0.4548  0.1569 -0.2828
    1PA    H16R 8150   4.757   1.290   4.602 -1.2807 -2.2372 -0.3688
    1PA    H16S 8151   4.758   1.179   4.741  0.5896 -0.5638 -1.3494
    1PA    H16T 8152   4.897   1.281   4.700 -0.4950  0.9999 -0.7884
    1PA    C115 8153   4.750   1.384   4.809 -0.2898 -0.7463  0.4225
    1PA    H15R 8154   4.644   1.371   4.834 -0.9948  1.5680 -1.0204
    1PA    H15S 8155   4.803   1.380   4.904  0.3404 -1.3753  0.0503
    1PA    C114 8156   4.757   1.523   4.746 -0.2369  0.8432 -0.1276
    1PA    H14R 8157   4.741   1.598   4.824  1.1813  0.1373  0.8921
    1PA    H14S 8158   4.856   1.547   4.706  0.0080  1.5681  0.8564
    1PA    C113 8159   4.648   1.546   4.643  0.2283 -0.0718  1.0572
    1PA    H13R 8160   4.675   1.632   4.582  1.5357 -1.7129 -0.8419
    1PA    H13S 8161   4.650   1.466   4.568 -1.4837  0.9617 -0.1741
    1PA    C112 8162   4.502   1.571   4.697 -1.2007  0.2866  0.5707
    1PA    H12R 8163   4.458   1.485   4.749 -1.7539  0.8001  0.9682
    1PA    H12S 8164   4.520   1.649   4.771  0.3098 -0.1691  0.7298
    1PA    C111 8165   4.412   1.616   4.585  0.2809  0.3889  0.3876
    1PA    H11R 8166   4.312   1.630   4.627  0.8849  0.7605  1.7557
    1PA    H11S 8167   4.432   1.721   4.559 -1.4304  1.1508  1.9025
    1PA    C110 8168   4.402   1.523   4.467 -0.1489  0.4735 -0.2141
    1PA    H10R 8169   4.500   1.499   4.425  0.5301 -0.7332  1.9434
    1PA    H10S 8170   4.361   1.430   4.506  1.1634 -1.3741 -2.9343
    1PA     C19 8171   4.316   1.568   4.351  0.4196  0.4660  0.1292
    1PA     H9R 8172   4.227   1.506   4.338 -1.6666  3.3452 -0.2254
    1PA     H9S 8173   4.293   1.672   4.375  3.6410  0.5376  3.9297
    1PA     C18 8174   4.390   1.575   4.218 -0.4395 -0.2478 -0.2270
    1PA     H8R 8175   4.469   1.647   4.239 -2.3174  1.6109  0.8452
    1PA     H8S 8176   4.433   1.478   4.191  0.5972  1.0738 -3.7751
    1PA     C17 8177   4.317   1.623   4.101 -0.6060 -0.3474 -0.1984
    1PA     H7R 8178   4.235   1.552   4.087 -0.6187 -0.0446 -1.7913
    1PA     H7S 8179   4.267   1.715   4.135 -2.3701 -1.1366 -0.5252
    1PA     C16 8180   4.402   1.648   3.977  0.3105  0.1835  0.4378
    1PA     H6R 8181   4.494   1.705   3.995 -0.3660  0.7932  2.1436
    1PA     H6S 8182   4.446   1.554   3.941 -0.7052 -0.8445  1.7836
    1PA     C15 8183   4.319   1.703   3.862  0.3399  0.0987  0.1612
    1PA     H5R 8184   4.238   1.630   3.856 -0.8027  1.4248 -2.2026
    1PA     H5S 8185   4.273   1.796   3.896  0.1402  0.1357 -0.2029
    1PA     C14 8186   4.394   1.710   3.725  0.2787 -0.0776  0.3910
    1PA     H4R 8187   4.327   1.756   3.652 -0.2474 -0.3475  0.6979
    1PA     H4S 8188   4.485   1.769   3.744  0.4732  0.3151 -1.5506
    1PA     C13 8189   4.441   1.576   3.660  0.3631  0.4400  0.9457
    1PA     H3R 8190   4.499   1.603   3.571 -0.2654  0.6489  0.5936
    1PA     H3S 8191   4.514   1.522   3.721  1.1791  0.2808 -0.1252
    1PA     C12 8192   4.317   1.479   3.616  0.1494 -0.2208  0.9375
    1PA     H2R 8193   4.359   1.384   3.582  0.9864  0.2022  0.7557
    1PA     H2S 8194   4.250   1.462   3.700 -1.5389 -0.8117 -0.4649
    1PC     C11 8195   4.239   1.544   3.506 -0.2630 -0.3206  0.2158
    1PC     O12 8196   4.271   1.553   3.389 -0.9765  0.1457  0.0024
    1PC     O11 8197   4.122   1.583   3.550  0.3279  0.3525 -0.7421
    1PC      C1 8198   4.007   1.606   3.464 -0.2667  0.5264 -0.2382
    1PC      HR 8199   4.023   1.547   3.373 -0.3965  0.9593 -0.5467
    1PC      HS 8200   3.916   1.575   3.517  1.0816 -1.9775  0.7450
    1PC      C2 8201   3.993   1.762   3.435  0.0445  0.8100 -0.2016
    1PC      HX 8202   3.892   1.781   3.399 -0.3188 -0.9181 -0.1749
    1PC      C3 8203   4.111   1.809   3.339  0.0909 -0.3202  0.0882
    1PC      HA 8204   4.207   1.799   3.390  0.3157 -0.4833 -0.3603
    1PC      HB 8205   4.106   1.757   3.243 -1.2530  2.2185 -1.3534
    1PC     O31 8206   4.093   1.951   3.299  0.3436 -0.0987 -0.0184
    1PC     P31 8207   4.209   2.038   3.229  0.2873 -0.2133  0.1893
    1PC     O32 8208   4.303   2.097   3.340 -0.4191 -0.6495 -0.1882
    1PC     C31 8209   4.253   2.141   3.464 -0.4967  0.4789  0.4144
    1PC     H1A 8210   4.161   2.199   3.454 -0.4369  0.3793 -0.8333
    1PC     H1B 8211   4.238   2.048   3.519 -2.1570 -0.1484 -1.0129
    1PC     C32 8212   4.359   2.227   3.537  0.5635 -0.5737  0.3532
    1PC     H2A 8213   4.325   2.248   3.638 -0.6927 -1.1734  0.0810
    1PC     H2B 8214   4.457   2.179   3.541  1.3658  0.9213 -0.4078
    1PC     N31 8215   4.398   2.359   3.468  0.4956  0.2759  0.1389
    1PC     C33 8216   4.502   2.336   3.365 -0.7379  0.0057  0.6104
    1PC     H3A 8217   4.530   2.433   3.324  1.6090 -0.9193 -0.1902
    1PC     H3B 8218   4.588   2.301   3.423 -0.2816  1.5327  0.8850
    1PC     H3C 8219   4.461   2.266   3.292 -0.2789 -1.0378  1.3214
    1PC     C34 8220   4.283   2.422   3.394  0.5663  0.2092 -0.1159
    1PC     H4A 8221   4.188   2.414   3.447  0.7558  0.8392  0.3326
    1PC     H4B 8222   4.307   2.528   3.388  0.5770  0.1447 -1.6166
    1PC     H4C 8223   4.270   2.374   3.296  0.7916 -2.0732  0.9121
    1PC     C35 8224   4.456   2.453   3.560 -0.5431 -0.9002 -0.1568
    1PC     H5A 8225   4.394   2.476   3.647  0.5425  1.5085  0.0610
    1PC     H5B 8226   4.476   2.545   3.506 -0.5179 -0.4783  0.5529
    1PC     H5C 8227   4.552   2.412   3.594 -0.2927 -1.2441 -1.2542
    1PC     O33 8228   4.285   1.941   3.144  0.4619  0.4522 -0.5829
    1PC     O34 8229   4.145   2.156   3.163 -0.0719 -0.1553 -0.6192
    1PC     O21 8230   4.018   1.841   3.555  0.7675 -0.0807  0.4096
    1PC     C21 8231   3.925   1.838   3.655 -0.1803 -0.9401  0.1344
    1PC     O22 8232   3.818   1.785   3.654  0.2057 -0.7871  0.0199
    1OL     C12 8233   3.974   1.926   3.768 -0.1127 -0.0429 -0.5267
    1OL     H2R 8234   3.926   2.023   3.774  1.3436  0.6859 -0.1774
    1OL     H2S 8235   4.076   1.961   3.750  0.4639 -0.6406  1.3565
    1OL     C13 8236   3.974   1.858   3.912 -0.3704  0.5862  0.2900
    1OL     H3R 8237   4.016   1.758   3.915 -2.4001 -0.3215  0.1347
    1OL     H3S 8238   3.868   1.848   3.937 -0.4315  2.0242  0.6904
    1OL     C14 8239   4.041   1.935   4.021  0.1119 -0.4667 -0.0881
    1OL     H4R 8240   4.006   2.039   4.021  1.1844 -0.0382 -2.4611
    1OL     H4S 8241   4.146   1.935   3.994 -0.2165  0.3370 -1.4698
    1OL     C15 8242   4.018   1.878   4.169 -0.2750 -0.2293  0.2171
    1OL     H5R 8243   4.048   1.774   4.177  0.2571  0.0030  1.4543
    1OL     H5S 8244   3.913   1.896   4.192 -0.2739 -1.5701  1.3815
    1OL     C16 8245   4.112   1.959   4.266 -0.2970 -0.2540 -0.5740
    1OL     H6R 8246   4.131   2.064   4.241  0.4956  0.1068  1.3573
    1OL     H6S 8247   4.207   1.906   4.257 -0.2765  0.1117 -4.0825
    1OL     C17 8248   4.046   1.947   4.403 -0.2550 -0.0159 -0.4452
    1OL     H7R 8249   4.015   1.843   4.410 -0.1534 -0.0168  0.1045
    1OL     H7S 8250   3.957   2.010   4.408 -1.5779 -1.7491 -1.4966
    1OL     C18 8251   4.151   1.994   4.505  0.2341 -0.2934  0.1165
    1OL     H8R 8252   4.198   2.087   4.474  1.4344  0.2490  3.1831
    1OL     H8S 8253   4.222   1.911   4.501 -0.7023 -1.1235  0.3417
    1OL     C19 8254   4.086   1.999   4.643  0.6967 -0.7429 -0.0961
    1OL     H9R 8255   4.003   1.930   4.652  0.7565 -1.1168 -1.9165
    1OL    C110 8256   4.115   2.081   4.742 -1.1748 -0.2879 -0.1438
    1OL    H10R 8257   4.054   2.077   4.833 -2.1464  1.1242 -0.7154
    1OL    C111 8258   4.227   2.181   4.751 -0.4073 -1.0083  0.1737
    1OL    H11R 8259   4.192   2.285   4.750  0.0480 -0.8418 -1.0164
    1OL    H11S 8260   4.305   2.170   4.675  0.7298  0.7220  1.0355
    1OL    C112 8261   4.309   2.169   4.880  0.2872  1.1333  0.3940
    1OL    H12R 8262   4.247   2.185   4.968 -0.8375  0.8022 -0.3152
    1OL    H12S 8263   4.384   2.247   4.894  1.6251 -0.0058 -0.1832
    1OL    C113 8264   4.384   2.031   4.884 -0.0852  0.3321 -0.4803
    1OL    H13R 8265   4.466   2.043   4.813 -0.2267  1.0045 -0.5385
    1OL    H13S 8266   4.325   1.947   4.847  1.4587 -0.3836 -1.3772
    1OL    C114 8267   4.438   1.979   5.015  0.5332  0.1592 -0.3583
    1OL    H14R 8268   4.354   1.963   5.084  0.5725 -0.1158 -0.3698
    1OL    H14S 8269   4.507   2.053   5.057 -1.7596  1.1826  1.8708
    1OL    C115 8270   4.508   1.843   4.996  0.3243 -0.5753  0.1538
    1OL    H15R 8271   4.593   1.853   4.928 -0.6881  2.7959 -0.7867
    1OL    H15S 8272   4.432   1.773   4.961 -1.3664  0.7360  1.0574
    1OL    C116 8273   4.543   1.791   5.132 -0.9796  0.2652 -0.7886
    1OL    H16R 8274   4.448   1.777   5.185 -0.8408 -3.4272 -1.2578
    1OL    H16S 8275   4.605   1.862   5.188 -1.2739 -0.8920  1.0927
    1OL    C117 8276   4.620   1.656   5.136 -0.2553 -0.1979 -0.4465
    1OL    H17R 8277   4.641   1.630   5.240 -0.0220 -1.4123 -0.7809
    1OL    H17S 8278   4.712   1.672   5.081 -1.0586 -1.9620 -2.4673
    1OL    C118 8279   4.556   1.538   5.072 -0.2229  0.0116  0.2092
    1OL    H18R 8280   4.511   1.468   5.142 -1.8264 -0.1969 -0.9889
    1OL    H18S 8281   4.618   1.464   5.020 -1.2275 -0.7437  0.0612
    1OL    H18T 8282   4.485   1.572   4.997  1.8095 -1.3838 -2.5219
    1PA    C116 8283   3.769   5.231   5.293  0.6983 -0.0596  0.2447
    1PA    H16R 8284   3.662   5.237   5.310  0.7241  1.5378  0.0335
    1PA    H16S 8285   3.809   5.331   5.309 -0.7624  0.7677 -1.0065
    1PA    H16T 8286   3.813   5.155   5.359 -2.1775 -2.3100 -0.2167
    1PA    C115 8287   3.793   5.208   5.139 -0.0444 -0.4291 -0.0248
    1PA    H15R 8288   3.900   5.210   5.116 -0.2000 -0.4295 -0.7523
    1PA    H15S 8289   3.749   5.112   5.112 -2.5878  0.7949 -0.4661
    1PA    C114 8290   3.713   5.308   5.055  0.4213 -0.7343  0.2400
    1PA    H14R 8291   3.606   5.304   5.078 -0.7734  1.8413 -3.8123
    1PA    H14S 8292   3.743   5.410   5.076  0.0403 -0.1923 -1.6269
    1PA    C113 8293   3.745   5.291   4.903 -0.2368 -0.4336  0.3089
    1PA    H13R 8294   3.852   5.287   4.885  0.0916  0.4978  1.9122
    1PA    H13S 8295   3.701   5.195   4.873 -1.9219  0.8719 -1.6726
    1PA    C112 8296   3.688   5.416   4.822 -0.0568  0.9413 -0.5973
    1PA    H12R 8297   3.591   5.448   4.860  0.5476  0.0689  1.9387
    1PA    H12S 8298   3.760   5.494   4.849 -2.5746  2.6027  1.8264
    1PA    C111 8299   3.670   5.406   4.667 -0.2239  0.2249  0.2978
    1PA    H11R 8300   3.648   5.508   4.636 -0.8455  0.1316  0.4181
    1PA    H11S 8301   3.760   5.375   4.613 -0.7311 -0.2491 -0.2797
    1PA    C110 8302   3.554   5.315   4.619 -0.3039 -0.3738 -0.0801
    1PA    H10R 8303   3.567   5.210   4.645  0.9804 -0.3979 -0.7637
    1PA    H10S 8304   3.456   5.341   4.659 -0.7629 -1.1141 -0.7014
    1PA     C19 8305   3.538   5.325   4.461  0.3674 -0.3671  0.5213
    1PA     H9R 8306   3.511   5.427   4.434  1.0069 -0.5927 -1.0829
    1PA     H9S 8307   3.635   5.304   4.416  0.4914  0.8126  0.2117
    1PA     C18 8308   3.437   5.233   4.408  0.1714  0.2193  0.6041
    1PA     H8R 8309   3.464   5.129   4.429 -0.6828  0.1706  1.5819
    1PA     H8S 8310   3.344   5.246   4.464  1.1948  0.9992  2.2018
    1PA     C17 8311   3.405   5.268   4.264 -0.1339 -0.1259  0.6511
    1PA     H7R 8312   3.399   5.377   4.266 -2.5310 -0.2045  2.0621
    1PA     H7S 8313   3.482   5.238   4.193 -1.5236 -2.6019  0.0735
    1PA     C16 8314   3.274   5.196   4.213 -0.3256  0.1514  0.7085
    1PA     H6R 8315   3.293   5.088   4.204  0.6630  0.3460  0.3078
    1PA     H6S 8316   3.192   5.222   4.279  0.7402  1.3124  1.5979
    1PA     C15 8317   3.238   5.250   4.064  0.0781  0.6597 -0.0906
    1PA     H5R 8318   3.210   5.355   4.059  0.5778  0.9055  1.5600
    1PA     H5S 8319   3.330   5.242   4.007 -0.0010  1.3425 -0.3213
    1PA     C14 8320   3.139   5.151   3.999 -0.5349 -0.1322 -0.5177
    1PA     H4R 8321   3.172   5.049   4.015 -1.8868 -0.7398 -1.4234
    1PA     H4S 8322   3.042   5.158   4.049  0.1440 -2.6699  1.3434
    1PA     C13 8323   3.118   5.165   3.848 -0.8608  0.1036  0.2656
    1PA     H3R 8324   3.214   5.181   3.797 -0.6854 -0.7706  0.3066
    1PA     H3S 8325   3.079   5.075   3.802  1.9590 -0.0322 -2.1533
    1PA     C12 8326   3.032   5.280   3.797  0.1335 -0.1482  0.0056
    1PA     H2R 8327   2.927   5.264   3.820 -0.2200  2.0119  0.0406
    1PA     H2S 8328   3.052   5.378   3.840 -1.2419 -0.9126  2.5925
    1PC     C11 8329   3.040   5.295   3.644  0.1440 -0.1481  0.0062
    1PC     O12 8330   3.008   5.209   3.566 -0.0596 -0.0499 -0.1365
    1PC     O11 8331   3.099   5.414   3.612  0.3229  0.2059 -0.3321
    1PC      C1 8332   3.130   5.459   3.474  1.0385  0.3262 -0.4425
    1PC      HR 8333   3.222   5.406   3.450 -0.8173 -2.2983 -2.4153
    1PC      HS 8334   3.056   5.436   3.397  1.5367  0.8027 -1.0616
    1PC      C2 8335   3.144   5.611   3.469  0.0121  0.0837  0.1322
    1PC      HX 8336   3.046   5.656   3.489  0.6242  1.1951  0.6893
    1PC      C3 8337   3.183   5.643   3.322 -0.3120 -0.3611  0.7041
    1PC      HA 8338   3.113   5.592   3.254  0.3451 -1.6971  0.9885
    1PC      HB 8339   3.183   5.750   3.301 -1.5516 -0.5935 -0.6705
    1PC     O31 8340   3.318   5.592   3.290 -0.0824  0.7057 -0.2983
    1PC     P31 8341   3.355   5.579   3.139 -0.2013 -0.1481  0.4174
    1PC     O32 8342   3.308   5.432   3.104 -0.0794 -0.4774 -0.4556
    1PC     C31 8343   3.352   5.315   3.180  0.3920  0.6144  0.2591
    1PC     H1A 8344   3.374   5.349   3.281 -2.3987  2.1824  0.4404
    1PC     H1B 8345   3.269   5.244   3.184  0.4012  0.5353 -0.7033
    1PC     C32 8346   3.479   5.255   3.124 -0.6514  0.5522  0.4321
    1PC     H2A 8347   3.563   5.322   3.103  0.8787 -1.3205  0.2312
    1PC     H2B 8348   3.518   5.172   3.183 -1.3845 -1.0413 -1.2509
    1PC     N31 8349   3.462   5.192   2.989 -0.1736 -0.1425 -0.0373
    1PC     C33 8350   3.475   5.290   2.876 -0.1199  0.5212  0.0843
    1PC     H3A 8351   3.566   5.349   2.888  2.3157 -2.5647 -1.5827
    1PC     H3B 8352   3.498   5.235   2.785  0.6647 -1.8832  1.6421
    1PC     H3C 8353   3.383   5.348   2.884 -1.3454 -1.3851  0.5122
    1PC     C34 8354   3.566   5.086   2.976 -0.3143 -0.2403 -0.3171
    1PC     H4A 8355   3.556   5.022   2.888  0.1124  0.4135 -0.8495
    1PC     H4B 8356   3.665   5.131   2.965 -0.8409  0.7228 -1.4339
    1PC     H4C 8357   3.577   5.024   3.065 -2.3410  0.8939  0.8154
    1PC     C35 8358   3.326   5.126   2.987 -0.3014  0.3655  0.2939
    1PC     H5A 8359   3.299   5.082   2.890 -0.2584  0.1490  0.3805
    1PC     H5B 8360   3.249   5.204   2.996 -0.0782  0.3240  3.3991
    1PC     H5C 8361   3.312   5.062   3.073  0.3037 -0.5448 -0.2722
    1PC     O33 8362   3.262   5.657   3.052  0.0085  0.0794 -0.0847
    1PC     O34 8363   3.497   5.592   3.109 -0.2500  0.5764 -0.6495
    1PC     O21 8364   3.247   5.665   3.556 -0.8310 -0.3309  0.0993
    1PC     C21 8365   3.239   5.795   3.593 -0.6328  0.6351  0.8001
    1PC     O22 8366   3.152   5.876   3.550  0.1280  0.6832 -0.5008
    1OL     C12 8367   3.351   5.825   3.688  0.0214  0.0731 -0.0488
    1OL     H2R 8368   3.445   5.795   3.640  0.7412 -0.5846  1.7080
    1OL     H2S 8369   3.347   5.747   3.764  0.1989 -0.5164 -0.6343
    1OL     C13 8370   3.357   5.960   3.746  0.7010 -0.0827  0.0719
    1OL     H3R 8371   3.254   5.995   3.760 -0.3267 -2.8961  0.0724
    1OL     H3S 8372   3.395   6.034   3.675 -1.6742  0.8055 -0.3920
    1OL     C14 8373   3.426   5.964   3.884  0.3499 -0.8582 -0.4371
    1OL     H4R 8374   3.371   5.898   3.951 -1.4523 -0.2005 -1.2150
    1OL     H4S 8375   3.433   6.064   3.928  1.6434 -0.5679 -1.2625
    1OL     C15 8376   3.571   5.917   3.876 -1.1236 -0.0079  0.6394
    1OL     H5R 8377   3.591   5.816   3.841  3.1556 -0.1410  2.7581
    1OL     H5S 8378   3.600   5.908   3.981  0.2475  0.6034  0.3421
    1OL     C16 8379   3.653   6.023   3.796 -0.3655  0.5069 -0.6452
    1OL     H6R 8380   3.620   6.125   3.814 -2.4546  0.1915 -2.2467
    1OL     H6S 8381   3.630   6.015   3.689  0.1685 -0.1034 -0.7244
    1OL     C17 8382   3.805   6.007   3.825 -0.3463  0.4783 -0.0166
    1OL     H7R 8383   3.866   6.066   3.756 -0.8501  0.5934 -0.3640
    1OL     H7S 8384   3.843   5.905   3.813  0.1031  0.7059 -0.6110
    1OL     C18 8385   3.847   6.071   3.959  1.4599 -0.1628 -0.1907
    1OL     H8R 8386   3.953   6.050   3.968  1.8426 -0.1520 -3.3462
    1OL     H8S 8387   3.793   6.016   4.036  3.6170  0.0090  1.5353
    1OL     C19 8388   3.830   6.218   3.972 -0.2538 -0.0380  0.1269
    1OL     H9R 8389   3.888   6.284   3.908 -0.3435  0.2242  0.3123
    1OL    C110 8390   3.745   6.277   4.052 -0.3343 -0.0902  0.8842
    1OL    H10R 8391   3.739   6.385   4.042 -0.4488 -0.0496  1.3462
    1OL    C111 8392   3.654   6.210   4.151  0.2944  0.4624  0.3434
    1OL    H11R 8393   3.686   6.111   4.185  0.5155  0.6005  0.5389
    1OL    H11S 8394   3.554   6.202   4.107 -0.1700  0.3761  1.3990
    1OL    C112 8395   3.642   6.297   4.280 -0.1107  0.3748 -0.5795
    1OL    H12R 8396   3.629   6.399   4.243  0.9284  0.6739 -0.1428
    1OL    H12S 8397   3.730   6.301   4.344 -0.6906 -0.4861  0.2930
    1OL    C113 8398   3.520   6.276   4.361 -0.4965  0.6125 -0.0026
    1OL    H13R 8399   3.540   6.190   4.425 -0.2635  2.2574  2.2660
    1OL    H13S 8400   3.431   6.260   4.301 -0.4785  1.9110 -0.4118
    1OL    C114 8401   3.493   6.385   4.467  0.0953 -0.2713 -0.4271
    1OL    H14R 8402   3.389   6.379   4.499 -0.3165  1.5225 -1.2682
    1OL    H14S 8403   3.499   6.487   4.427 -1.6787  0.2932  0.6354
    1OL    C115 8404   3.585   6.381   4.593  0.5664  0.5657  0.0466
    1OL    H15R 8405   3.688   6.403   4.566  0.1541  2.2696 -0.2513
    1OL    H15S 8406   3.585   6.286   4.647 -0.7249  1.2584  1.3418
    1OL    C116 8407   3.555   6.496   4.685  0.1576 -0.4841  0.6539
    1OL    H16R 8408   3.450   6.482   4.712  0.0076 -0.1180  0.2774
    1OL    H16S 8409   3.564   6.586   4.624  1.1027 -1.3986 -0.6274
    1OL    C117 8410   3.634   6.510   4.812  0.3469 -0.3250  0.0080
    1OL    H17R 8411   3.582   6.442   4.879 -0.9317  1.0555  0.4404
    1OL    H17S 8412   3.610   6.607   4.856 -0.4825 -0.3755 -0.3129
    1OL    C118 8413   3.787   6.485   4.803  0.6758  0.1536 -0.3459
    1OL    H18R 8414   3.830   6.491   4.903 -2.5797  1.0498  1.1233
    1OL    H18S 8415   3.839   6.548   4.729  1.1252 -0.8696 -0.9291
    1OL    H18T 8416   3.815   6.384   4.772  1.0476 -0.6186  2.2721
    1PA    C116 8417   3.463   3.958   4.565 -0.7131  0.3645  0.2900
    1PA    H16R 8418   3.512   3.860   4.566 -3.4719 -1.1106  0.6786
    1PA    H16S 8419   3.463   3.987   4.460  0.5622 -0.5028  0.0215
    1PA    H16T 8420   3.358   3.942   4.591 -1.1630  0.6195 -1.2998
    1PA    C115 8421   3.532   4.066   4.647  0.2466  0.5369 -0.8080
    1PA    H15R 8422   3.466   4.152   4.657 -0.5782 -0.2126  0.5981
    1PA    H15S 8423   3.529   4.035   4.752  2.4286  1.5221 -0.4086
    1PA    C114 8424   3.677   4.107   4.617  0.2236  0.0160  0.2451
    1PA    H14R 8425   3.675   4.151   4.517  2.2820 -3.6710 -1.6166
    1PA    H14S 8426   3.699   4.184   4.692 -2.5816  1.6868 -0.4811
    1PA    C113 8427   3.779   3.992   4.614  0.3842  0.4257 -0.4854
    1PA    H13R 8428   3.791   3.952   4.716 -1.7064 -0.4937 -0.5553
    1PA    H13S 8429   3.740   3.904   4.563 -2.4352  1.9909 -1.1970
    1PA    C112 8430   3.917   4.026   4.566  0.4008 -0.7938  0.0377
    1PA    H12R 8431   3.962   4.109   4.622  0.4572  0.3231 -1.5898
    1PA    H12S 8432   3.980   3.939   4.583  2.3632  0.5673  0.1144
    1PA    C111 8433   3.929   4.062   4.419  0.1930  1.0010  0.7989
    1PA    H11R 8434   3.853   4.137   4.400 -0.8063 -0.4158 -1.2737
    1PA    H11S 8435   4.028   4.092   4.383  0.6696 -1.4316 -0.1299
    1PA    C110 8436   3.881   3.948   4.317 -0.6322 -0.0852 -0.6142
    1PA    H10R 8437   3.775   3.930   4.337 -0.7420  1.9795  0.9597
    1PA    H10S 8438   3.874   3.990   4.217 -1.9712 -1.5657 -1.1788
    1PA     C19 8439   3.968   3.820   4.311  0.2459  0.5049 -0.1641
    1PA     H9R 8440   4.064   3.840   4.264  0.5652  1.5255  0.8553
    1PA     H9S 8441   3.975   3.787   4.415 -0.4182  1.5556  0.2308
    1PA     C18 8442   3.895   3.704   4.233  0.3718  0.0407 -0.3776
    1PA     H8R 8443   3.800   3.681   4.281  0.8368 -0.6947  0.2077
    1PA     H8S 8444   3.872   3.731   4.130 -0.8413 -0.5834 -0.2789
    1PA     C17 8445   3.977   3.573   4.223 -1.0045 -0.4124  0.0422
    1PA     H7R 8446   4.055   3.593   4.150 -2.5057 -1.4620 -1.9304
    1PA     H7S 8447   4.030   3.565   4.318 -0.8106  2.4978  0.2717
    1PA     C16 8448   3.919   3.439   4.181 -0.3204  0.0014  0.8293
    1PA     H6R 8449   4.007   3.381   4.152 -0.7087 -0.1216 -0.1190
    1PA     H6S 8450   3.879   3.383   4.266  1.1002 -2.6765 -0.1421
    1PA     C15 8451   3.823   3.429   4.062  0.1437 -0.0851 -0.4729
    1PA     H5R 8452   3.784   3.328   4.052  0.3893 -0.1920 -0.3852
    1PA     H5S 8453   3.732   3.482   4.091 -0.7579 -2.5899  1.6051
    1PA     C14 8454   3.891   3.475   3.932 -0.2358 -0.1669 -0.4501
    1PA     H4R 8455   3.944   3.570   3.944  0.4305 -0.6762  0.7971
    1PA     H4S 8456   3.962   3.397   3.902  0.1172 -1.3855  3.0895
    1PA     C13 8457   3.789   3.482   3.823  0.2150 -0.3130  0.3012
    1PA     H3R 8458   3.722   3.397   3.830 -1.3122  0.7471 -0.8156
    1PA     H3S 8459   3.714   3.560   3.837 -1.5072 -1.3964 -2.2373
    1PA     C12 8460   3.847   3.484   3.679  0.5477  0.0118 -0.1972
    1PA     H2R 8461   3.915   3.399   3.675  1.5863  0.8032  0.3868
    1PA     H2S 8462   3.774   3.455   3.603  2.8689 -0.2526 -2.4569
    1PC     C11 8463   3.912   3.618   3.650  0.2337 -0.3891 -0.0694
    1PC     O12 8464   3.916   3.715   3.732  0.3461  0.3639 -0.0274
    1PC     O11 8465   3.966   3.634   3.526 -0.2168 -0.1535  0.2659
    1PC      C1 8466   4.036   3.763   3.492 -0.1483  0.6159 -0.0144
    1PC      HR 8467   4.014   3.780   3.386 -1.2934 -1.4460 -0.1551
    1PC      HS 8468   3.995   3.848   3.548  0.1213  1.3203 -0.8591
    1PC      C2 8469   4.196   3.776   3.519 -0.5377 -0.2664  0.2829
    1PC      HX 8470   4.229   3.880   3.513  0.0548 -0.5150 -1.3241
    1PC      C3 8471   4.276   3.688   3.418  0.0275 -0.7645  0.6302
    1PC      HA 8472   4.323   3.610   3.479  0.7058  0.8205  2.2384
    1PC      HB 8473   4.212   3.648   3.339  0.5747 -0.7735  0.1857
    1PC     O31 8474   4.380   3.763   3.350  0.0713 -0.1335 -0.6908
    1PC     P31 8475   4.354   3.865   3.236  0.1798 -0.5935  0.2683
    1PC     O32 8476   4.364   3.786   3.101 -0.6111  0.4714  0.3370
    1PC     C31 8477   4.473   3.701   3.062  0.4641 -0.5621  0.5518
    1PC     H1A 8478   4.489   3.640   3.151  0.5760 -0.7236  0.4224
    1PC     H1B 8479   4.432   3.643   2.978  1.9339 -0.9594  0.0816
    1PC     C32 8480   4.601   3.785   3.020 -0.1344  0.6034 -0.0812
    1PC     H2A 8481   4.625   3.871   3.083  1.7967 -0.4948  0.7701
    1PC     H2B 8482   4.692   3.727   3.037  1.1409  2.4412 -0.3410
    1PC     N31 8483   4.605   3.850   2.887  0.0149  0.2901  0.2612
    1PC     C33 8484   4.482   3.925   2.855  0.0294  0.2701 -0.2463
    1PC     H3A 8485   4.403   3.855   2.830  0.0948 -1.4912  3.6418
    1PC     H3B 8486   4.455   3.985   2.943 -0.7716  0.7508 -0.8144
    1PC     H3C 8487   4.503   3.996   2.775  1.0356 -1.4236 -1.5318
    1PC     C34 8488   4.721   3.942   2.883 -0.5898  0.1659  0.0959
    1PC     H4A 8489   4.698   4.031   2.941 -2.4437 -0.2185  0.0468
    1PC     H4B 8490   4.811   3.888   2.911 -0.0842  0.2258 -1.3180
    1PC     H4C 8491   4.746   3.962   2.778 -0.2547 -1.3033 -0.1348
    1PC     C35 8492   4.621   3.747   2.783  0.0815 -0.5023  0.2269
    1PC     H5A 8493   4.633   3.805   2.692 -3.1716 -1.0781 -0.7056
    1PC     H5B 8494   4.523   3.702   2.765 -0.6925  1.0296  0.4056
    1PC     H5C 8495   4.705   3.684   2.810  0.5619  0.4748  1.1029
    1PC     O33 8496   4.218   3.906   3.246  0.2862 -0.3045 -0.5301
    1PC     O34 8497   4.466   3.963   3.227 -1.1125  0.0898 -0.1897
    1PC     O21 8498   4.216   3.734   3.656 -0.4184 -0.4275 -0.5390
    1PC     C21 8499   4.218   3.823   3.753  0.4204  0.4140  0.7309
    1PC     O22 8500   4.206   3.939   3.736  0.7206 -0.4399  0.1911
    1OL     C12 8501   4.211   3.754   3.888 -0.1283  0.3347 -0.1383
    1OL     H2R 8502   4.211   3.646   3.876 -0.3918  0.5465 -2.7071
    1OL     H2S 8503   4.118   3.787   3.934 -0.7688 -0.1597 -1.0513
    1OL     C13 8504   4.328   3.794   3.985  0.5438  0.1115  0.6434
    1OL     H3R 8505   4.363   3.897   3.977  3.2520 -0.7482  0.5142
    1OL     H3S 8506   4.414   3.739   3.947  0.1154  0.3322 -0.6968
    1OL     C14 8507   4.307   3.760   4.130  0.5655 -0.3379  0.4368
    1OL     H4R 8508   4.266   3.659   4.138  1.5357 -0.7783  0.0106
    1OL     H4S 8509   4.232   3.826   4.175 -0.6766 -2.6295  1.9527
    1OL     C15 8510   4.440   3.767   4.204 -0.2593  0.8636 -0.4806
    1OL     H5R 8511   4.471   3.868   4.229 -2.3232  0.9516  2.1684
    1OL     H5S 8512   4.505   3.717   4.132 -1.5237  1.0173 -1.7981
    1OL     C16 8513   4.442   3.685   4.341  0.3654  0.0428  0.9294
    1OL     H6R 8514   4.410   3.582   4.329 -2.5709  0.9960 -0.1405
    1OL     H6S 8515   4.366   3.736   4.401  0.0939 -0.3350  0.9057
    1OL     C17 8516   4.570   3.687   4.420  0.1174 -0.0838  0.2804
    1OL     H7R 8517   4.592   3.789   4.454  0.1546  0.3736 -1.0549
    1OL     H7S 8518   4.656   3.656   4.360  0.7042 -0.0331  1.0754
    1OL     C18 8519   4.563   3.593   4.542  0.7323  0.0027 -0.9102
    1OL     H8R 8520   4.567   3.490   4.505  1.3183 -0.2076 -0.2972
    1OL     H8S 8521   4.473   3.602   4.604  1.0577 -0.8795 -0.2733
    1OL     C19 8522   4.692   3.629   4.623  0.1573  0.4025  0.0633
    1OL     H9R 8523   4.786   3.635   4.569 -1.1312  0.4749 -2.3019
    1OL    C110 8524   4.693   3.658   4.750  0.8832 -0.0625 -0.0990
    1OL    H10R 8525   4.793   3.676   4.788  1.5484  1.7457 -2.4457
    1OL    C111 8526   4.567   3.665   4.844 -0.7195 -0.4018  0.4786
    1OL    H11R 8527   4.491   3.599   4.804  1.5687 -2.1289 -1.2931
    1OL    H11S 8528   4.537   3.770   4.850  1.6365  0.3772  0.0897
    1OL    C112 8529   4.605   3.629   4.986 -0.2329 -0.3592 -0.3620
    1OL    H12R 8530   4.656   3.532   4.994  1.4205  0.4248 -0.8910
    1OL    H12S 8531   4.510   3.635   5.038 -0.8143 -0.3375 -1.3953
    1OL    C113 8532   4.686   3.735   5.065  0.0473 -0.7739 -0.2676
    1OL    H13R 8533   4.646   3.835   5.046 -0.5241 -0.5324  1.9039
    1OL    H13S 8534   4.783   3.733   5.014 -0.7701 -0.0971 -1.9304
    1OL    C114 8535   4.708   3.717   5.216 -0.4038  0.0501 -0.0807
    1OL    H14R 8536   4.760   3.623   5.234 -1.1666 -0.2424  0.6138
    1OL    H14S 8537   4.618   3.719   5.277 -0.5705  0.2371 -0.3275
    1OL    C115 8538   4.805   3.824   5.274  0.1274  0.2331  0.1149
    1OL    H15R 8539   4.765   3.925   5.279  1.1766  0.6684 -0.0531
    1OL    H15S 8540   4.898   3.824   5.217  0.7101  0.0108  1.0538
    1OL    C116 8541   4.859   3.773   5.407 -0.2304  1.0194  0.0266
    1OL    H16R 8542   4.925   3.687   5.394  0.0619  1.1745  0.4298
    1OL    H16S 8543   4.766   3.751   5.461 -0.9429  0.4038 -1.4219
    1OL    C117 8544   4.931   3.882   5.494 -0.3364 -0.1255 -0.7385
    1OL    H17R 8545   4.948   3.858   5.599  0.1899  0.6255 -0.6424
    1OL    H17S 8546   4.872   3.974   5.505 -1.6226 -1.1630  2.4712
    1OL    C118 8547   5.076   3.897   5.436 -0.0529 -0.3998  0.0951
    1OL    H18R 8548   5.118   3.799   5.412  0.0553 -0.2368 -0.3920
    1OL    H18S 8549   5.138   3.965   5.494 -0.6886 -0.8031  1.2689
    1OL    H18T 8550   5.072   3.949   5.340  2.0098 -0.2086  0.0639
    1PA    C116 8551   3.197   0.363   4.828 -0.1839  0.3249  0.5321
    1PA    H16R 8552   3.200   0.337   4.934  1.5997 -2.8371 -0.1436
    1PA    H16S 8553   3.111   0.428   4.813 -0.5108 -0.2687 -0.3002
    1PA    H16T 8554   3.293   0.412   4.812 -0.2118  0.6767  1.4362
    1PA    C115 8555   3.180   0.231   4.745 -0.7943 -0.0347 -0.4363
    1PA    H15R 8556   3.162   0.250   4.639 -1.5187 -3.3789 -1.0416
    1PA    H15S 8557   3.272   0.172   4.740 -0.3741  0.3210  1.7926
    1PA    C114 8558   3.061   0.144   4.807 -0.4746  0.6735  0.3186
    1PA    H14R 8559   3.093   0.082   4.891  0.6529 -2.1813 -2.0757
    1PA    H14S 8560   2.974   0.210   4.813 -0.4985  0.6882 -0.2133
    1PA    C113 8561   3.031   0.042   4.698  0.2763 -0.4114  0.3539
    1PA    H13R 8562   2.928   0.011   4.712  0.0996 -1.6103 -2.7220
    1PA    H13S 8563   3.022   0.084   4.597 -0.9149  0.8144  0.9324
    1PA    C112 8564   3.120  -0.083   4.700  0.0899 -0.0886  0.0297
    1PA    H12R 8565   3.223  -0.051   4.684 -0.5287  1.4186 -1.2287
    1PA    H12S 8566   3.112  -0.121   4.802 -0.3390  0.8748  0.3706
    1PA    C111 8567   3.076  -0.182   4.586 -0.3077  0.1712  0.1358
    1PA    H11R 8568   2.985  -0.234   4.621 -0.8684  0.5479 -0.7420
    1PA    H11S 8569   3.045  -0.116   4.505  2.3229  1.7478  0.3213
    1PA    C110 8570   3.189  -0.282   4.542  0.5010  0.7272  0.3580
    1PA    H10R 8571   3.266  -0.213   4.507  0.5911 -0.6892 -2.5360
    1PA    H10S 8572   3.241  -0.333   4.623 -1.3418 -2.7327 -0.4170
    1PA     C19 8573   3.151  -0.388   4.437 -0.9902  0.2387  0.0020
    1PA     H9R 8574   3.070  -0.448   4.480 -1.3781  0.4612 -0.4049
    1PA     H9S 8575   3.111  -0.338   4.348 -1.6152 -0.5330 -0.1721
    1PA     C18 8576   3.270  -0.483   4.397  0.9708  0.2938 -0.6914
    1PA     H8R 8577   3.361  -0.423   4.393  0.7223  0.6247 -1.6587
    1PA     H8S 8578   3.281  -0.556   4.478 -0.8400  0.9540  0.2052
    1PA     C17 8579   3.246  -0.558   4.262  0.2150  0.6527  0.6766
    1PA     H7R 8580   3.304  -0.651   4.264 -0.6942  0.0025 -1.3562
    1PA     H7S 8581   3.143  -0.592   4.256 -0.5376  2.2036  3.2182
    1PA     C16 8582   3.276  -0.473   4.138  0.5748  0.9141 -0.0167
    1PA     H6R 8583   3.195  -0.400   4.143 -0.9466 -0.7182  0.1617
    1PA     H6S 8584   3.373  -0.423   4.152 -0.0790  2.1323  0.3332
    1PA     C15 8585   3.267  -0.550   4.006  0.2827  0.0229 -0.3108
    1PA     H5R 8586   3.360  -0.608   4.011  0.2921 -0.4066 -3.6639
    1PA     H5S 8587   3.186  -0.623   4.006 -1.3306  1.7483 -0.4807
    1PA     C14 8588   3.256  -0.464   3.881 -0.4522  0.1838 -0.1758
    1PA     H4R 8589   3.163  -0.408   3.884  0.2244  1.3450 -0.2277
    1PA     H4S 8590   3.323  -0.378   3.892  1.2403 -1.0122 -0.6923
    1PA     C13 8591   3.288  -0.542   3.752  0.5626  0.3205 -0.4030
    1PA     H3R 8592   3.395  -0.563   3.752  0.7715  1.2443  0.7422
    1PA     H3S 8593   3.238  -0.639   3.747  1.3199 -0.0283 -1.7588
    1PA     C12 8594   3.255  -0.469   3.620  0.5260 -0.6136  0.3610
    1PA     H2R 8595   3.149  -0.447   3.634  0.1934 -0.5116 -1.9930
    1PA     H2S 8596   3.317  -0.379   3.617 -0.2251 -0.1004 -0.2868
    1PC     C11 8597   3.281  -0.557   3.501 -0.1359  0.3568 -0.3611
    1PC     O12 8598   3.389  -0.549   3.437  0.2646 -0.4475  0.5029
    1PC     O11 8599   3.183  -0.644   3.477 -0.3682  0.3012 -0.3042
    1PC      C1 8600   3.200  -0.736   3.367 -0.1652  0.6449 -0.9607
    1PC      HR 8601   3.186  -0.679   3.274 -1.6867  3.2711  0.7627
    1PC      HS 8602   3.299  -0.783   3.373 -0.9372 -1.3057 -2.2968
    1PC      C2 8603   3.103  -0.851   3.381 -0.1215 -0.9355  0.3594
    1PC      HX 8604   3.117  -0.935   3.313  0.5942 -0.0539 -0.6158
    1PC      C3 8605   2.957  -0.806   3.342 -0.4729  0.2931 -0.9222
    1PC      HA 8606   2.890  -0.890   3.362 -0.1509  0.5948  1.7183
    1PC      HB 8607   2.942  -0.717   3.403  0.3135 -1.3335  1.8139
    1PC     O31 8608   2.950  -0.783   3.197 -0.1702 -0.2637 -0.4323
    1PC     P31 8609   2.884  -0.896   3.101 -0.1420  0.2812 -0.0544
    1PC     O32 8610   2.989  -1.022   3.100  0.2313 -0.6679  0.4247
    1PC     C31 8611   3.009  -1.097   2.980  0.0625  0.0921  0.2445
    1PC     H1A 8612   2.938  -1.086   2.898  0.1786 -0.7089  0.0226
    1PC     H1B 8613   3.098  -1.048   2.939 -1.3992  1.7641 -1.0744
    1PC     C32 8614   3.045  -1.239   3.030  0.3216 -0.4308 -0.3729
    1PC     H2A 8615   3.095  -1.296   2.951 -0.4030 -1.0177 -0.4238
    1PC     H2B 8616   3.113  -1.228   3.115  0.4991  1.0508 -0.6782
    1PC     N31 8617   2.936  -1.327   3.084  0.2312 -0.4923 -0.5577
    1PC     C33 8618   2.834  -1.345   2.978 -0.2058 -0.1947 -0.0552
    1PC     H3A 8619   2.883  -1.384   2.888  0.8603 -1.0950  0.8918
    1PC     H3B 8620   2.760  -1.412   3.022 -0.5198  0.7571  0.8992
    1PC     H3C 8621   2.784  -1.253   2.947  0.4124  0.4600  0.8722
    1PC     C34 8622   2.982  -1.460   3.142 -0.0271  0.2349 -0.1015
    1PC     H4A 8623   3.045  -1.438   3.228 -1.2099  0.5700  0.7127
    1PC     H4B 8624   2.892  -1.518   3.166  0.1071  0.0735  0.0097
    1PC     H4C 8625   3.043  -1.514   3.070  1.6359 -1.0499  2.1752
    1PC     C35 8626   2.861  -1.261   3.194 -0.6713 -0.1328 -0.1374
    1PC     H5A 8627   2.936  -1.217   3.261 -1.2075 -0.4568  0.6930
    1PC     H5B 8628   2.797  -1.330   3.249  0.8571 -1.6112 -0.1302
    1PC     H5C 8629   2.791  -1.187   3.155 -1.7541 -0.6132  0.8443
    1PC     O33 8630   2.762  -0.948   3.163 -0.2321 -0.0626  0.4886
    1PC     O34 8631   2.883  -0.834   2.967 -0.0267  0.1515  0.1594
    1PC     O21 8632   3.099  -0.896   3.518  0.3132  0.0718 -0.0490
    1PC     C21 8633   3.200  -0.967   3.565 -0.4286  0.0116  0.2389
    1PC     O22 8634   3.312  -0.965   3.524  0.3258  0.7591  0.1056
    1OL     C12 8635   3.162  -1.036   3.692  0.3400  0.4204 -0.0645
    1OL     H2R 8636   3.213  -1.130   3.716  0.1657  0.4755  0.5279
    1OL     H2S 8637   3.058  -1.067   3.682  0.9360 -1.4814 -1.1233
    1OL     C13 8638   3.169  -0.935   3.811 -0.5555 -0.2677  0.0695
    1OL     H3R 8639   3.115  -0.986   3.891  0.4628 -1.1084  0.2472
    1OL     H3S 8640   3.139  -0.834   3.781 -1.0191 -0.8095 -1.3607
    1OL     C14 8641   3.312  -0.911   3.857  0.0706  0.1131  0.3870
    1OL     H4R 8642   3.334  -0.813   3.902 -1.2820  0.0841  1.1718
    1OL     H4S 8643   3.387  -0.902   3.779  1.7060 -1.4268  1.7167
    1OL     C15 8644   3.375  -1.021   3.945 -0.2851 -0.1234 -0.3130
    1OL     H5R 8645   3.362  -1.126   3.918  2.6074 -0.5141 -0.5554
    1OL     H5S 8646   3.346  -1.006   4.049  2.1318  1.0866  0.2819
    1OL     C16 8647   3.536  -1.004   3.935  0.5660  0.4864  0.3599
    1OL     H6R 8648   3.563  -0.909   3.983 -1.8293  2.4828 -1.9241
    1OL     H6S 8649   3.573  -1.006   3.832  2.0338  0.9668  0.8534
    1OL     C17 8650   3.599  -1.124   4.017 -0.4916  0.1190  0.2954
    1OL     H7R 8651   3.701  -1.147   3.985 -0.6917 -4.3987  2.2849
    1OL     H7S 8652   3.536  -1.212   4.004 -1.0382  0.7003 -1.2765
    1OL     C18 8653   3.599  -1.093   4.164  0.4173 -0.6376  0.0648
    1OL     H8R 8654   3.635  -1.188   4.205  0.4694 -1.5760 -2.0052
    1OL     H8S 8655   3.497  -1.075   4.200 -0.3556  1.0068 -2.6508
    1OL     C19 8656   3.704  -0.994   4.215  0.6604 -0.2367  0.2404
    1OL     H9R 8657   3.794  -0.994   4.155  0.8829  2.2616  0.4654
    1OL    C110 8658   3.684  -0.895   4.305  0.9055  0.2297  0.2680
    1OL    H10R 8659   3.765  -0.826   4.329 -0.5083  1.8098  0.6159
    1OL    C111 8660   3.544  -0.873   4.370 -0.1050  0.2130 -0.1157
    1OL    H11R 8661   3.497  -0.971   4.385 -1.1977  0.8707  0.8864
    1OL    H11S 8662   3.471  -0.806   4.325 -0.0555 -0.1148 -0.7011
    1OL    C112 8663   3.573  -0.814   4.515  0.2057 -0.1797  0.3003
    1OL    H12R 8664   3.601  -0.710   4.501  0.0221 -0.1272  0.3285
    1OL    H12S 8665   3.665  -0.864   4.548  0.5446 -0.1028 -0.5001
    1OL    C113 8666   3.464  -0.834   4.618  0.1557  0.5300 -0.1646
    1OL    H13R 8667   3.418  -0.932   4.606  0.9056  0.1668 -0.1554
    1OL    H13S 8668   3.389  -0.757   4.598 -0.3730 -0.4082 -2.0635
    1OL    C114 8669   3.520  -0.812   4.756  0.1079  0.4494  0.4304
    1OL    H14R 8670   3.603  -0.877   4.783 -0.7085 -0.3718  1.0393
    1OL    H14S 8671   3.438  -0.836   4.825  0.8381  0.0619  1.1908
    1OL    C115 8672   3.579  -0.666   4.775  0.2118  0.1456  0.0585
    1OL    H15R 8673   3.502  -0.591   4.754  1.7561  1.4347 -1.3026
    1OL    H15S 8674   3.656  -0.649   4.699 -0.8241  1.2293 -0.7757
    1OL    C116 8675   3.621  -0.631   4.919 -0.2641  0.2063 -0.0984
    1OL    H16R 8676   3.691  -0.707   4.953 -2.6744 -2.4277 -0.6794
    1OL    H16S 8677   3.541  -0.641   4.993  0.3826  0.8985  0.7193
    1OL    C117 8678   3.686  -0.496   4.949 -0.0227 -0.2299  0.2591
    1OL    H17R 8679   3.702  -0.480   5.055  2.3510  2.3809 -0.3614
    1OL    H17S 8680   3.631  -0.408   4.912 -1.2569 -0.2243  1.9781
    1OL    C118 8681   3.827  -0.492   4.891 -0.5280 -0.0898 -0.5442
    1OL    H18R 8682   3.889  -0.405   4.913  1.0895 -1.3529  0.1761
    1OL    H18S 8683   3.827  -0.509   4.784 -2.4168  0.5027 -0.6650
    1OL    H18T 8684   3.882  -0.578   4.931 -0.6654 -0.8483 -1.9359
    1PA    C116 8685   1.183   2.724   4.863 -1.1435  0.0397  0.3024
    1PA    H16R 8686   1.183   2.666   4.955 -1.3443  0.2397  0.4303
    1PA    H16S 8687   1.095   2.701   4.802 -0.2232  2.5817 -2.2326
    1PA    H16T 8688   1.171   2.830   4.887  0.0385  0.4273 -0.7437
    1PA    C115 8689   1.306   2.705   4.779  0.1416  0.0690  0.1849
    1PA    H15R 8690   1.291   2.773   4.695 -0.3485  1.7802  1.5985
    1PA    H15S 8691   1.386   2.755   4.833  0.7949  2.7889 -2.9468
    1PA    C114 8692   1.340   2.569   4.724  0.0738  0.0465 -0.0920
    1PA    H14R 8693   1.362   2.496   4.802 -1.6261  0.3596  0.7324
    1PA    H14S 8694   1.248   2.528   4.682  0.5886  0.2798 -1.5285
    1PA    C113 8695   1.443   2.568   4.614  0.0108 -0.1604  0.2766
    1PA    H13R 8696   1.430   2.650   4.543 -2.2963 -0.6724  0.0424
    1PA    H13S 8697   1.539   2.585   4.664 -0.4618  2.1306  0.5164
    1PA    C112 8698   1.446   2.441   4.536 -0.6011  0.7279 -0.0224
    1PA    H12R 8699   1.465   2.359   4.605 -2.6267 -0.4841 -0.8069
    1PA    H12S 8700   1.352   2.432   4.480  0.6624  1.1884 -2.3270
    1PA    C111 8701   1.561   2.422   4.433  0.2985 -0.2739 -0.3463
    1PA    H11R 8702   1.544   2.494   4.352 -0.3540 -0.0715 -0.0356
    1PA    H11S 8703   1.658   2.429   4.482 -0.3748 -1.5215  1.2811
    1PA    C110 8704   1.563   2.289   4.366 -0.3593  0.8159 -0.2613
    1PA    H10R 8705   1.654   2.283   4.306 -1.4964 -1.1983 -1.9090
    1PA    H10S 8706   1.575   2.212   4.443 -1.7343  1.7114  0.9094
    1PA     C19 8707   1.447   2.256   4.270  0.0815  0.1719  0.3994
    1PA     H9R 8708   1.364   2.228   4.334  2.2466 -0.6235  3.0316
    1PA     H9S 8709   1.411   2.345   4.218 -1.9232 -0.2874  0.9240
    1PA     C18 8710   1.484   2.145   4.175 -0.4253 -0.0707 -1.2286
    1PA     H8R 8711   1.580   2.157   4.124  1.4782  1.0878  2.2833
    1PA     H8S 8712   1.494   2.050   4.228  2.9293  0.1621 -1.2245
    1PA     C17 8713   1.378   2.130   4.065  0.1746 -0.4254  0.6157
    1PA     H7R 8714   1.289   2.085   4.108  1.4727 -3.4682  0.4279
    1PA     H7S 8715   1.351   2.222   4.014 -1.4143 -2.1215 -1.7998
    1PA     C16 8716   1.437   2.035   3.956  0.2745 -0.0178  0.2286
    1PA     H6R 8717   1.517   2.093   3.909 -0.7483  0.3435 -1.1387
    1PA     H6S 8718   1.489   1.955   4.010 -0.2874  0.7174  1.9284
    1PA     C15 8719   1.327   1.984   3.852 -0.3315 -0.0500 -0.0775
    1PA     H5R 8720   1.376   1.912   3.786  2.5415  0.0965  1.7586
    1PA     H5S 8721   1.250   1.929   3.907  0.0911 -1.7713 -1.1338
    1PA     C14 8722   1.260   2.096   3.776  0.0120 -0.6249 -0.0414
    1PA     H4R 8723   1.172   2.052   3.728  0.9776 -1.2236 -1.3277
    1PA     H4S 8724   1.228   2.173   3.847  0.7730 -0.4684  0.1415
    1PA     C13 8725   1.348   2.173   3.674 -0.3840  0.4704  0.7565
    1PA     H3R 8726   1.426   2.220   3.733 -1.1858  0.5590  1.7736
    1PA     H3S 8727   1.405   2.115   3.601  1.6025  0.9647  1.8468
    1PA     C12 8728   1.276   2.301   3.613  0.7812  0.5604 -0.3587
    1PA     H2R 8729   1.213   2.349   3.687 -3.5375 -4.2518 -0.3600
    1PA     H2S 8730   1.342   2.370   3.561  1.5470  1.1391  1.3238
    1PC     C11 8731   1.187   2.252   3.501  0.0956 -0.1687  0.0635
    1PC     O12 8732   1.231   2.182   3.415 -0.0344 -0.2664  0.4567
    1PC     O11 8733   1.061   2.290   3.523  0.0299 -0.6671 -0.5725
    1PC      C1 8734   0.962   2.259   3.421  0.3184 -0.2896 -0.2839
    1PC      HR 8735   0.876   2.323   3.438 -0.3251 -0.8000 -1.5001
    1PC      HS 8736   1.005   2.282   3.323  0.0096 -0.5184 -0.4723
    1PC      C2 8737   0.924   2.107   3.434  0.1210 -1.0559  0.0197
    1PC      HX 8738   1.014   2.044   3.431 -0.1294 -1.3785 -0.9275
    1PC      C3 8739   0.817   2.060   3.341  0.1093 -0.4131  0.1298
    1PC      HA 8740   0.829   1.956   3.308 -0.2718 -0.4655  0.1518
    1PC      HB 8741   0.725   2.056   3.400  0.9752  1.1994  1.6914
    1PC     O31 8742   0.789   2.148   3.231  0.5122 -0.1405  0.0492
    1PC     P31 8743   0.877   2.140   3.097  0.1010 -0.3870  0.2858
    1PC     O32 8744   0.787   2.055   3.010 -0.2108 -0.2015 -0.2593
    1PC     C31 8745   0.657   2.099   2.957  0.4193 -0.4034  0.0801
    1PC     H1A 8746   0.678   2.178   2.886  0.4208  1.4256  2.0063
    1PC     H1B 8747   0.616   2.015   2.900  0.2255 -0.4381  0.2685
    1PC     C32 8748   0.564   2.145   3.071  0.3964  0.4053 -0.5056
    1PC     H2A 8749   0.552   2.066   3.145 -0.5877  0.7156 -0.3116
    1PC     H2B 8750   0.611   2.230   3.121 -2.3200  0.2225  2.8124
    1PC     N31 8751   0.434   2.202   3.042  0.3391  0.9851  0.1446
    1PC     C33 8752   0.351   2.116   2.958 -0.6837  0.1432 -0.4400
    1PC     H3A 8753   0.412   2.077   2.877 -1.1929  0.6035 -1.0618
    1PC     H3B 8754   0.328   2.022   3.008  0.4095 -0.4077 -0.9494
    1PC     H3C 8755   0.257   2.162   2.926 -0.6034 -0.5119 -1.6655
    1PC     C34 8756   0.365   2.218   3.172 -0.3592 -0.2478 -0.3026
    1PC     H4A 8757   0.419   2.278   3.246 -0.0376 -2.4701  1.3947
    1PC     H4B 8758   0.269   2.263   3.147  1.3419  2.1271 -3.3042
    1PC     H4C 8759   0.343   2.120   3.214 -0.4260 -1.5329 -3.1573
    1PC     C35 8760   0.419   2.332   2.968 -0.1190 -0.7367  0.7065
    1PC     H5A 8761   0.312   2.348   2.952 -0.0810 -1.4165 -0.3018
    1PC     H5B 8762   0.459   2.320   2.867  0.2591  1.9110  0.4770
    1PC     H5C 8763   0.479   2.408   3.018 -0.0371 -2.1175  2.8351
    1PC     O33 8764   0.888   2.277   3.039 -0.8585 -0.1727  0.0323
    1PC     O34 8765   1.001   2.071   3.129 -0.2019 -0.1273  0.0101
    1PC     O21 8766   0.862   2.103   3.565  0.3746 -0.0403  0.3736
    1PC     C21 8767   0.873   1.992   3.636  0.4706 -0.3515  0.2305
    1PC     O22 8768   0.936   1.896   3.595 -0.2015  0.1605  0.4759
    1OL     C12 8769   0.808   2.006   3.775  0.3476  0.2326  0.6549
    1OL     H2R 8770   0.716   1.950   3.761  1.4113 -1.0401 -1.8760
    1OL     H2S 8771   0.799   2.114   3.788  1.2270  0.4838 -0.6531
    1OL     C13 8772   0.903   1.946   3.881  0.1192 -0.3502  0.0964
    1OL     H3R 8773   1.001   1.992   3.869  0.7242 -1.9098 -1.4240
    1OL     H3S 8774   0.923   1.839   3.866 -1.3999 -0.4460 -1.4736
    1OL     C14 8775   0.841   1.969   4.022 -0.2964 -0.2302 -0.6137
    1OL     H4R 8776   0.855   2.074   4.049  1.2988 -0.7878  0.8844
    1OL     H4S 8777   0.906   1.913   4.089  1.1058  1.4779 -0.4861
    1OL     C15 8778   0.694   1.918   4.035 -0.6301  0.6966 -0.0365
    1OL     H5R 8779   0.673   1.875   4.133 -0.2587  1.6782  0.4836
    1OL     H5S 8780   0.670   1.851   3.952  2.0344 -0.9097  0.3605
    1OL     C16 8781   0.588   2.029   4.025  0.3975 -0.0540  0.3151
    1OL     H6R 8782   0.623   2.093   3.944  1.7040 -0.0974  0.8151
    1OL     H6S 8783   0.587   2.089   4.116  2.1593  1.1249 -0.3934
    1OL     C17 8784   0.441   1.983   3.995 -0.1259  0.3599 -0.7875
    1OL     H7R 8785   0.443   1.921   3.904  0.4882 -0.0143 -0.5263
    1OL     H7S 8786   0.378   2.070   3.977 -0.7035  0.3871  1.2048
    1OL     C18 8787   0.381   1.902   4.112  0.1522 -0.4333  0.0256
    1OL     H8R 8788   0.395   1.953   4.207 -3.2162  1.6831 -0.4479
    1OL     H8S 8789   0.432   1.806   4.115  0.6744 -0.1429  0.6031
    1OL     C19 8790   0.234   1.872   4.085 -0.4235 -0.2261  0.2659
    1OL     H9R 8791   0.212   1.832   3.987 -0.1575 -0.9185  0.4814
    1OL    C110 8792   0.133   1.897   4.167  0.3159 -0.3379  0.3137
    1OL    H10R 8793   0.033   1.884   4.128 -0.2082  0.4603  1.3382
    1OL    C111 8794   0.137   1.962   4.305 -0.0694  0.0309  0.1046
    1OL    H11R 8795   0.080   2.054   4.293 -1.2843 -0.7623 -0.3309
    1OL    H11S 8796   0.242   1.982   4.327  0.1625  0.3091 -1.1416
    1OL    C112 8797   0.067   1.873   4.409  0.4847  0.2345 -0.3668
    1OL    H12R 8798   0.084   1.907   4.512 -1.1450 -0.5264  0.1995
    1OL    H12S 8799   0.106   1.772   4.396  0.0723 -0.4513  2.8339
    1OL    C113 8800  -0.087   1.877   4.397  0.4642  0.2647  0.3432
    1OL    H13R 8801  -0.131   1.790   4.445  1.6245 -0.5700 -0.0512
    1OL    H13S 8802  -0.105   1.859   4.291 -3.6906 -0.7531  1.0542
    1OL    C114 8803  -0.153   2.006   4.443  1.0200 -1.1382 -0.0259
    1OL    H14R 8804  -0.256   2.014   4.407  1.7202  1.1528 -1.7250
    1OL    H14S 8805  -0.104   2.097   4.408 -2.3881  1.4088  1.3732
    1OL    C115 8806  -0.154   2.020   4.599 -0.3323  0.5582  0.2578
    1OL    H15R 8807  -0.204   2.115   4.615  0.6291  1.5221 -2.0670
    1OL    H15S 8808  -0.052   2.032   4.638 -0.5998  0.5039  0.9899
    1OL    C116 8809  -0.226   1.906   4.676 -0.5735  0.0576  0.1918
    1OL    H16R 8810  -0.163   1.818   4.687 -0.7137 -0.2511 -1.2611
    1OL    H16S 8811  -0.317   1.879   4.621 -0.3496 -0.5003  0.0967
    1OL    C117 8812  -0.266   1.953   4.822 -0.4597 -0.0280 -0.6143
    1OL    H17R 8813  -0.320   2.047   4.833  2.0374  1.4674 -0.2933
    1OL    H17S 8814  -0.180   1.960   4.889 -0.4353 -1.9765 -0.3718
    1OL    C118 8815  -0.357   1.847   4.886 -0.7549  0.1690 -0.5983
    1OL    H18R 8816  -0.295   1.757   4.892  1.2569  1.5206 -0.3312
    1OL    H18S 8817  -0.446   1.829   4.825 -0.7742  0.3631 -0.6282
    1OL    H18T 8818  -0.393   1.875   4.986  1.2033 -1.2817  0.5937
    1PA    C116 8819   4.449   2.778   5.008  0.5172 -0.3828 -0.1361
    1PA    H16R 8820   4.407   2.705   4.938  1.7157 -0.8614 -0.3738
    1PA    H16S 8821   4.472   2.734   5.106 -2.5626  0.6294  1.1709
    1PA    H16T 8822   4.534   2.815   4.951  1.6466  0.1009  1.7858
    1PA    C115 8823   4.333   2.877   5.041  0.1530  0.6257  1.0417
    1PA    H15R 8824   4.264   2.827   5.110  0.5516  0.9725  1.6974
    1PA    H15S 8825   4.374   2.966   5.089 -0.7555  1.0075  1.1225
    1PA    C114 8826   4.249   2.927   4.915  0.1809 -0.1383 -0.0950
    1PA    H14R 8827   4.188   3.011   4.947  0.5726  0.5509 -1.0962
    1PA    H14S 8828   4.318   2.966   4.839  0.8829 -0.6491  0.2620
    1PA    C113 8829   4.163   2.815   4.853  0.2962  0.0960 -0.1008
    1PA    H13R 8830   4.224   2.725   4.862 -1.9665 -1.4192  0.9317
    1PA    H13S 8831   4.070   2.804   4.908  0.0199 -0.1817 -0.6217
    1PA    C112 8832   4.128   2.863   4.704  0.4507 -0.1064 -0.1318
    1PA    H12R 8833   4.085   2.963   4.711 -0.3331 -0.4754  0.5953
    1PA    H12S 8834   4.213   2.863   4.637  0.9230 -1.4836  0.4154
    1PA    C111 8835   4.016   2.770   4.641  0.4915  0.3429  0.0458
    1PA    H11R 8836   4.037   2.663   4.653 -4.4336 -0.6874  1.9804
    1PA    H11S 8837   3.922   2.779   4.696  0.4879 -2.2097  0.6069
    1PA    C110 8838   3.994   2.798   4.493  0.1979  0.1238  0.7485
    1PA    H10R 8839   4.091   2.781   4.446  0.7137 -0.2326  1.8978
    1PA    H10S 8840   3.909   2.738   4.461 -0.8829  0.9716  1.8920
    1PA     C19 8841   3.961   2.946   4.457  0.2730 -0.0434  0.3841
    1PA     H9R 8842   3.879   2.975   4.523 -1.5056 -2.5935 -0.5017
    1PA     H9S 8843   4.056   2.997   4.474  1.6614 -1.1135 -3.1454
    1PA     C18 8844   3.931   2.966   4.302 -0.6676 -0.8408  0.7306
    1PA     H8R 8845   3.903   3.070   4.281  1.2610 -0.8067 -2.2195
    1PA     H8S 8846   4.017   2.958   4.236 -0.9747  0.8391  0.0726
    1PA     C17 8847   3.832   2.869   4.228 -0.6772 -0.1507  0.4275
    1PA     H7R 8848   3.874   2.768   4.229  0.0865  0.0773 -2.0398
    1PA     H7S 8849   3.738   2.870   4.284  0.3870  1.6206  2.3038
    1PA     C16 8850   3.792   2.913   4.089  0.1335 -0.0772  0.5576
    1PA     H6R 8851   3.694   2.876   4.061 -0.4971  1.4581  0.6396
    1PA     H6S 8852   3.764   3.018   4.087 -1.5946 -0.4953 -1.9667
    1PA     C15 8853   3.886   2.861   3.978  0.1929 -0.3088  0.3223
    1PA     H5R 8854   3.991   2.877   4.004  1.3244 -0.2776 -3.6279
    1PA     H5S 8855   3.867   2.757   3.953 -2.9746  0.1478  0.4598
    1PA     C14 8856   3.880   2.950   3.848  0.1253  0.5680 -0.0916
    1PA     H4R 8857   3.883   3.057   3.872 -2.7215  0.7766 -0.2819
    1PA     H4S 8858   3.961   2.916   3.784 -0.2974  2.6229 -1.8502
    1PA     C13 8859   3.751   2.933   3.767 -0.0375  0.5397 -0.2072
    1PA     H3R 8860   3.753   2.829   3.735 -2.1980 -0.1601  1.6906
    1PA     H3S 8861   3.663   2.944   3.830  0.2630  0.4154  0.2353
    1PA     C12 8862   3.725   3.046   3.664  0.1041  0.3770 -0.7409
    1PA     H2R 8863   3.632   3.035   3.607 -0.0517  2.3098 -0.9157
    1PA     H2S 8864   3.724   3.140   3.718 -2.1502 -0.9222  1.7125
    1PC     C11 8865   3.850   3.052   3.573 -0.1713  0.0328 -0.0256
    1PC     O12 8866   3.869   2.966   3.490 -0.2297 -0.3745 -0.4997
    1PC     O11 8867   3.939   3.146   3.604  0.1677 -0.4577  0.8488
    1PC      C1 8868   4.074   3.125   3.541  0.6721 -0.6112  0.6719
    1PC      HR 8869   4.117   3.026   3.556  2.5702  0.3166  1.7041
    1PC      HS 8870   4.061   3.157   3.437  1.5950 -0.1377  0.6999
    1PC      C2 8871   4.174   3.224   3.610 -0.2387 -0.4214  0.6111
    1PC      HX 8872   4.137   3.327   3.608  0.2850 -0.2219 -1.7819
    1PC      C3 8873   4.313   3.240   3.539 -0.6014 -0.2262 -0.6405
    1PC      HA 8874   4.314   3.320   3.465  0.3813 -0.1023 -0.5108
    1PC      HB 8875   4.387   3.267   3.615 -0.1688  1.8140 -1.7022
    1PC     O31 8876   4.364   3.116   3.495 -0.0881  0.2441  0.1632
    1PC     P31 8877   4.388   3.094   3.338 -0.1447  0.0354  0.3454
    1PC     O32 8878   4.541   3.153   3.316 -0.6738  0.3942 -0.3337
    1PC     C31 8879   4.655   3.061   3.333 -0.3901  0.5931  0.6206
    1PC     H1A 8880   4.744   3.124   3.340 -0.8924  1.3655  0.1948
    1PC     H1B 8881   4.631   3.001   3.421 -1.8763  0.4801  0.1639
    1PC     C32 8882   4.665   2.967   3.206 -0.6394  0.9061  0.0932
    1PC     H2A 8883   4.770   2.936   3.210 -0.7880  0.5638  1.8034
    1PC     H2B 8884   4.614   2.871   3.207  1.0548 -0.1041 -1.8292
    1PC     N31 8885   4.642   3.019   3.063 -0.6235  0.4207  0.1846
    1PC     C33 8886   4.702   3.156   3.033  0.1087  0.0530 -0.2032
    1PC     H3A 8887   4.681   3.227   3.113  2.5567 -0.2567  0.8327
    1PC     H3B 8888   4.810   3.137   3.031 -0.0827 -1.0576 -1.0686
    1PC     H3C 8889   4.672   3.189   2.934 -0.6398  1.2887  0.4215
    1PC     C34 8890   4.713   2.924   2.970  0.5413  0.1681 -0.6518
    1PC     H4A 8891   4.674   2.933   2.869 -1.4659 -1.0358 -0.0408
    1PC     H4B 8892   4.818   2.954   2.974  0.5288  0.4558 -2.1333
    1PC     H4C 8893   4.712   2.823   3.011  0.6105  1.4937  3.0227
    1PC     C35 8894   4.502   3.027   3.027 -0.1073  0.2100 -0.2121
    1PC     H5A 8895   4.466   3.112   3.084 -0.4175  0.2452 -0.4593
    1PC     H5B 8896   4.449   2.934   3.047 -1.3834  0.8090 -0.7445
    1PC     H5C 8897   4.495   3.048   2.920 -0.1386 -1.4517 -0.5698
    1PC     O33 8898   4.386   2.951   3.317  0.0830  0.0256  0.8722
    1PC     O34 8899   4.299   3.181   3.254  0.5258  0.2325  0.1269
    1PC     O21 8900   4.203   3.167   3.740  0.0306 -0.2273 -0.2857
    1PC     C21 8901   4.247   3.252   3.839 -0.3516  0.0331 -0.1423
    1PC     O22 8902   4.250   3.376   3.829  0.4280  0.7162 -0.0806
    1OL     C12 8903   4.280   3.180   3.966  0.7050  0.2165  0.2371
    1OL     H2R 8904   4.380   3.138   3.951  1.4238  1.0316  2.3690
    1OL     H2S 8905   4.219   3.091   3.979  0.6382 -0.4128 -3.2956
    1OL     C13 8906   4.290   3.275   4.079  0.2215  0.1180 -0.5120
    1OL     H3R 8907   4.205   3.340   4.101 -0.8520 -1.8312  1.5587
    1OL     H3S 8908   4.374   3.344   4.073 -1.0029  1.6792 -0.4147
    1OL     C14 8909   4.299   3.185   4.200 -0.8539  0.3442  0.3244
    1OL     H4R 8910   4.381   3.115   4.186 -2.1361 -1.7700  2.6107
    1OL     H4S 8911   4.204   3.134   4.219  0.1140 -2.0676 -0.8578
    1OL     C15 8912   4.317   3.289   4.316  0.0001 -0.1439 -0.1678
    1OL     H5R 8913   4.233   3.358   4.328  1.0698  1.1323  0.2492
    1OL     H5S 8914   4.406   3.346   4.288  0.1987 -0.9364 -1.1826
    1OL     C16 8915   4.347   3.218   4.444 -0.5408 -0.1983 -0.3163
    1OL     H6R 8916   4.455   3.201   4.451 -0.5904 -0.1928  0.5145
    1OL     H6S 8917   4.302   3.118   4.450  0.4828 -0.8748 -2.7483
    1OL     C17 8918   4.318   3.301   4.570  0.0884 -0.5857  0.1296
    1OL     H7R 8919   4.220   3.348   4.579  0.1859 -0.7216  2.2166
    1OL     H7S 8920   4.397   3.375   4.579 -0.7108  0.0243  2.9399
    1OL     C18 8921   4.340   3.212   4.689 -0.0334  0.1365 -0.2210
    1OL     H8R 8922   4.443   3.177   4.700 -0.3596 -0.8214 -0.1130
    1OL     H8S 8923   4.283   3.125   4.659  1.5695 -0.3146 -2.1708
    1OL     C19 8924   4.296   3.271   4.820  0.0939 -0.0076  0.3907
    1OL     H9R 8925   4.199   3.320   4.813  0.5834  0.7090 -2.7302
    1OL    C110 8926   4.363   3.273   4.936  0.6546  0.6232 -0.2151
    1OL    H10R 8927   4.329   3.316   5.029  0.9696  2.5559 -0.9423
    1OL    C111 8928   4.504   3.212   4.947  0.3528 -1.0250  0.6576
    1OL    H11R 8929   4.576   3.259   4.880 -2.3169  1.0836 -0.8734
    1OL    H11S 8930   4.510   3.103   4.943  1.5487 -0.9401 -0.7009
    1OL    C112 8931   4.563   3.244   5.083  0.5336 -0.5156  0.4856
    1OL    H12R 8932   4.514   3.185   5.161  1.0556 -0.8400  0.5703
    1OL    H12S 8933   4.544   3.348   5.108 -0.4566  0.0526 -2.2846
    1OL    C113 8934   4.707   3.220   5.102 -0.2231  0.4133  0.7548
    1OL    H13R 8935   4.738   3.246   5.203 -0.2601  0.8104  0.6663
    1OL    H13S 8936   4.759   3.289   5.035  2.3198 -0.8053  1.3612
    1OL    C114 8937   4.752   3.075   5.094  0.2884 -0.3086  0.0754
    1OL    H14R 8938   4.861   3.070   5.080  0.2545 -2.3738  0.2041
    1OL    H14S 8939   4.725   3.027   5.000 -0.3289  0.7496 -0.3001
    1OL    C115 8940   4.709   2.993   5.215  0.5333 -0.6848  0.2306
    1OL    H15R 8941   4.602   2.972   5.211  0.3278  0.3700 -0.2185
    1OL    H15S 8942   4.731   3.050   5.306  1.3096 -0.7089  0.0633
    1OL    C116 8943   4.788   2.861   5.227  0.2233 -0.1766  0.4645
    1OL    H16R 8944   4.893   2.893   5.223 -0.2107  1.7872  2.4709
    1OL    H16S 8945   4.763   2.790   5.149  0.9918 -1.1701  1.0925
    1OL    C117 8946   4.771   2.793   5.365 -0.3839  0.8478  0.8318
    1OL    H17R 8947   4.663   2.782   5.378 -0.1506 -1.5741  1.2848
    1OL    H17S 8948   4.815   2.858   5.441  0.4688  0.6059  0.5584
    1OL    C118 8949   4.846   2.655   5.375  0.4874 -0.0362  0.5952
    1OL    H18R 8950   4.836   2.607   5.278  1.5433  1.0686 -0.0931
    1OL    H18S 8951   4.806   2.610   5.466 -0.4808  3.1788  1.8988
    1OL    H18T 8952   4.952   2.681   5.383  0.9234 -0.7478 -2.0788
    1PA    C116 8953   1.910   4.888   4.850  0.5765 -0.5907  0.0421
    1PA    H16R 8954   1.835   4.814   4.876  1.4118 -1.2758  0.5645
    1PA    H16S 8955   1.926   4.898   4.742  0.7665  2.3458  0.2446
    1PA    H16T 8956   1.877   4.986   4.885  0.8965 -0.5281  0.1760
    1PA    C115 8957   2.037   4.871   4.928 -0.2216  0.0638  0.2567
    1PA    H15R 8958   2.111   4.943   4.891  0.9586 -1.9665 -1.6188
    1PA    H15S 8959   2.024   4.887   5.035 -1.0041  0.4825  0.1058
    1PA    C114 8960   2.103   4.725   4.912  0.2840  0.1453  0.0284
    1PA    H14R 8961   2.200   4.713   4.961 -0.0856 -3.7155  0.0695
    1PA    H14S 8962   2.038   4.653   4.962 -1.2065  1.5202  0.1617
    1PA    C113 8963   2.128   4.670   4.766  0.1339 -0.0116  0.1537
    1PA    H13R 8964   2.178   4.573   4.772 -1.5279 -0.9925 -0.8914
    1PA    H13S 8965   2.041   4.642   4.706  0.4003 -3.2046  1.0763
    1PA    C112 8966   2.217   4.766   4.683  0.5533  0.2251  0.2704
    1PA    H12R 8967   2.168   4.861   4.665  1.8682  0.9016  0.1590
    1PA    H12S 8968   2.309   4.790   4.738 -0.3126 -1.2066  2.4696
    1PA    C111 8969   2.269   4.713   4.553  0.1501  0.4631 -0.2479
    1PA    H11R 8970   2.328   4.795   4.512  2.0403 -0.6798  0.0890
    1PA    H11S 8971   2.334   4.629   4.579  0.3215  0.8005  0.4454
    1PA    C110 8972   2.159   4.672   4.455 -0.1014  0.0558 -0.0451
    1PA    H10R 8973   2.100   4.587   4.490  0.1602 -0.1723 -0.1580
    1PA    H10S 8974   2.091   4.757   4.448 -0.3352 -0.0707  0.5880
    1PA     C19 8975   2.209   4.641   4.313 -0.0560 -0.1801  0.5106
    1PA     H9R 8976   2.237   4.737   4.268 -0.4886 -1.1626 -1.9901
    1PA     H9S 8977   2.299   4.580   4.314  0.4746  0.3500 -2.8447
    1PA     C18 8978   2.088   4.584   4.233  0.1090  0.3333  0.2217
    1PA     H8R 8979   2.027   4.516   4.294 -0.0625 -1.4614 -1.8217
    1PA     H8S 8980   2.029   4.670   4.200 -0.7047 -0.9835 -1.9584
    1PA     C17 8981   2.137   4.512   4.099  0.3185 -0.4493 -0.0950
    1PA     H7R 8982   2.183   4.420   4.137 -0.6269 -0.4832  1.0399
    1PA     H7S 8983   2.218   4.572   4.056 -0.0915 -0.4996 -0.9510
    1PA     C16 8984   2.018   4.499   3.997 -0.4910  0.0962 -0.3386
    1PA     H6R 8985   1.936   4.447   4.047 -0.2380  0.0152 -0.0009
    1PA     H6S 8986   1.988   4.597   3.959  0.1141 -0.2095 -1.6818
    1PA     C15 8987   2.069   4.422   3.871 -0.1476 -0.3862 -0.5495
    1PA     H5R 8988   2.142   4.492   3.829 -0.0059  1.1439  1.9945
    1PA     H5S 8989   2.129   4.336   3.902  1.5274  0.9274  0.0335
    1PA     C14 8990   1.968   4.380   3.771 -0.3534 -0.3351 -1.0568
    1PA     H4R 8991   2.016   4.318   3.696  1.3748  0.2809 -0.5008
    1PA     H4S 8992   1.893   4.314   3.815 -1.1678  1.1995 -0.0275
    1PA     C13 8993   1.900   4.490   3.699 -0.1766 -0.7134 -0.7787
    1PA     H3R 8994   1.848   4.547   3.776  0.3380  0.5099 -1.3186
    1PA     H3S 8995   1.972   4.561   3.658  0.7453 -1.8109 -1.1161
    1PA     C12 8996   1.788   4.452   3.606  0.2063 -0.2087 -0.2871
    1PA     H2R 8997   1.703   4.414   3.664  0.0070  0.0916 -0.3790
    1PA     H2S 8998   1.758   4.543   3.554  1.7112  0.2237 -0.4291
    1PC     C11 8999   1.827   4.349   3.495  0.7323 -1.2778 -0.2137
    1PC     O12 9000   1.870   4.385   3.389  0.2322 -0.4595 -0.4877
    1PC     O11 9001   1.794   4.222   3.523  0.3298  0.3542 -0.3543
    1PC      C1 9002   1.838   4.125   3.421  0.1274 -0.3005  0.0050
    1PC      HR 9003   1.810   4.022   3.448 -0.6101 -0.3373 -0.8701
    1PC      HS 9004   1.793   4.153   3.326 -0.0528  0.0952  0.2025
    1PC      C2 9005   1.993   4.116   3.409  0.4016  0.3813 -0.1651
    1PC      HX 9006   2.039   4.183   3.336  3.5725 -2.0413 -0.6205
    1PC      C3 9007   2.034   3.981   3.354 -0.4275 -0.2818  0.6014
    1PC      HA 9008   2.143   3.974   3.346 -0.2958  0.5280  1.4701
    1PC      HB 9009   2.001   3.901   3.421 -0.3177  0.4416  1.5484
    1PC     O31 9010   1.966   3.950   3.223  0.5897  0.2895  0.5062
    1PC     P31 9011   2.029   3.991   3.085 -0.1488  0.3330  0.0976
    1PC     O32 9012   1.990   4.140   3.075  0.1075 -0.1669 -0.4090
    1PC     C31 9013   1.852   4.171   3.046  0.6576 -0.3947 -0.3004
    1PC     H1A 9014   1.822   4.150   2.943  0.2987  4.5580 -1.4343
    1PC     H1B 9015   1.792   4.115   3.119 -1.2591  1.1196 -0.6324
    1PC     C32 9016   1.828   4.324   3.070  0.2731  0.1254  0.5119
    1PC     H2A 9017   1.859   4.364   3.167 -1.2093 -0.6097  1.3306
    1PC     H2B 9018   1.882   4.377   2.992 -1.9405 -1.1248 -2.0239
    1PC     N31 9019   1.690   4.367   3.047  0.0910 -0.3390 -0.1155
    1PC     C33 9020   1.686   4.510   3.080 -0.1181 -0.1335  0.3880
    1PC     H3A 9021   1.770   4.561   3.032 -1.2923  1.6139  0.1081
    1PC     H3B 9022   1.588   4.554   3.063 -0.2482  0.6291  2.6772
    1PC     H3C 9023   1.705   4.517   3.188 -1.6013 -0.2746  0.6724
    1PC     C34 9024   1.662   4.342   2.904  0.6131  0.4846 -0.3205
    1PC     H4A 9025   1.726   4.401   2.839 -0.5276 -0.4915 -2.4209
    1PC     H4B 9026   1.671   4.234   2.890  0.9320  0.5493 -0.5890
    1PC     H4C 9027   1.557   4.363   2.882  0.3339 -1.9917 -1.7618
    1PC     C35 9028   1.587   4.288   3.128 -0.6702 -0.4126  0.0841
    1PC     H5A 9029   1.592   4.186   3.089 -0.1255 -0.0883 -0.7259
    1PC     H5B 9030   1.489   4.330   3.106 -0.3785  1.0170  1.4233
    1PC     H5C 9031   1.615   4.308   3.231 -0.2799  0.5614 -0.2008
    1PC     O33 9032   2.172   3.984   3.105  0.3416  0.4717 -0.0350
    1PC     O34 9033   1.970   3.911   2.975  0.0066 -0.5425  0.5606
    1PC     O21 9034   2.054   4.135   3.542  0.6112 -0.4861  0.6369
    1PC     C21 9035   2.184   4.157   3.533 -0.1425 -0.3325 -0.0785
    1PC     O22 9036   2.251   4.171   3.431 -0.1314 -0.0415  0.4198
    1OL     C12 9037   2.250   4.156   3.665 -0.3564  0.7335 -0.5946
    1OL     H2R 9038   2.175   4.132   3.740 -1.1112  1.6257 -1.0466
    1OL     H2S 9039   2.286   4.254   3.695  1.7636  0.3665 -1.7111
    1OL     C13 9040   2.366   4.058   3.681  0.4189 -0.6071  0.2974
    1OL     H3R 9041   2.408   4.051   3.781 -1.9162  0.1144  1.4013
    1OL     H3S 9042   2.445   4.094   3.614  0.7597 -2.3831 -0.3171
    1OL     C14 9043   2.336   3.916   3.638  0.0253  0.9660 -0.6535
    1OL     H4R 9044   2.433   3.870   3.659 -0.9415 -0.5326  0.7436
    1OL     H4S 9045   2.329   3.902   3.530  1.2579 -3.0764 -0.3986
    1OL     C15 9046   2.223   3.839   3.713  0.2077 -0.1229 -0.0812
    1OL     H5R 9047   2.206   3.736   3.682 -1.5055 -0.5710  2.0816
    1OL     H5S 9048   2.129   3.893   3.700  0.2539 -0.1773 -0.6358
    1OL     C16 9049   2.255   3.843   3.863  0.3143 -0.0408 -0.6780
    1OL     H6R 9050   2.262   3.945   3.901  1.9248 -0.2041 -0.4841
    1OL     H6S 9051   2.354   3.801   3.880  0.2445 -0.1407 -0.5095
    1OL     C17 9052   2.156   3.768   3.947  0.4851  0.2681  0.2150
    1OL     H7R 9053   2.151   3.661   3.923 -2.7764 -0.2620  2.5633
    1OL     H7S 9054   2.055   3.810   3.946  0.9396  1.4107  0.8860
    1OL     C18 9055   2.196   3.779   4.093  0.4719 -0.1235 -0.4999
    1OL     H8R 9056   2.175   3.881   4.124  1.2637  0.3562 -1.4830
    1OL     H8S 9057   2.302   3.759   4.107  0.0517 -1.3361  1.1961
    1OL     C19 9058   2.131   3.685   4.194 -0.2547  0.5003  0.2610
    1OL     H9R 9059   2.032   3.651   4.162 -0.0988  0.1162  0.1859
    1OL    C110 9060   2.189   3.643   4.304  0.5700 -0.3764 -0.2235
    1OL    H10R 9061   2.129   3.571   4.359  1.4355 -0.0566  1.1670
    1OL    C111 9062   2.314   3.704   4.369 -0.6518  0.7521  0.0981
    1OL    H11R 9063   2.360   3.782   4.308 -1.7962  1.3917  0.0233
    1OL    H11S 9064   2.384   3.622   4.385 -1.3950  0.2535  0.8906
    1OL    C112 9065   2.276   3.772   4.501  0.0666  0.9612 -0.2784
    1OL    H12R 9066   2.218   3.699   4.559  0.2026  2.0128  1.2569
    1OL    H12S 9067   2.213   3.861   4.496 -3.0013 -1.1191 -1.1197
    1OL    C113 9068   2.403   3.816   4.581 -0.8219  0.9315 -0.2946
    1OL    H13R 9069   2.441   3.906   4.531  1.2067  0.2274 -0.1167
    1OL    H13S 9070   2.474   3.733   4.576 -2.3830 -0.5721  1.0645
    1OL    C114 9071   2.370   3.848   4.734 -0.5035 -0.0981  0.6852
    1OL    H14R 9072   2.331   3.757   4.780 -2.4999  1.2851  1.9104
    1OL    H14S 9073   2.292   3.924   4.726 -1.1655 -0.9272 -2.4771
    1OL    C115 9074   2.490   3.913   4.810 -0.4255  0.1067  0.1006
    1OL    H15R 9075   2.521   3.999   4.750 -3.2717 -0.6797 -2.7868
    1OL    H15S 9076   2.575   3.846   4.801 -0.5008  0.0756 -0.4035
    1OL    C116 9077   2.468   3.948   4.959  0.3126  0.3012 -0.4248
    1OL    H16R 9078   2.366   3.986   4.967  0.8312  1.8395 -0.6818
    1OL    H16S 9079   2.538   4.028   4.987  0.3728  0.5544 -1.2636
    1OL    C117 9080   2.484   3.828   5.053  0.2218 -0.2214 -0.2886
    1OL    H17R 9081   2.581   3.779   5.046 -0.2035 -1.2456  0.5857
    1OL    H17S 9082   2.414   3.749   5.023  0.4530 -0.4345 -0.2760
    1OL    C118 9083   2.462   3.871   5.199 -0.3114 -0.6314  0.2168
    1OL    H18R 9084   2.370   3.928   5.209  0.9461  1.3418  1.1884
    1OL    H18S 9085   2.549   3.935   5.218 -1.1056  0.4212  0.3490
    1OL    H18T 9086   2.470   3.786   5.266 -1.1865  0.0264  1.1688
    1PA    C116 9087   2.307   0.232   5.481 -0.0233 -0.3636 -0.3655
    1PA    H16R 9088   2.335   0.134   5.440  0.3183 -0.1605 -0.6220
    1PA    H16S 9089   2.220   0.226   5.547 -0.9870 -0.2953 -1.5975
    1PA    H16T 9090   2.401   0.260   5.531  1.8060 -3.9259 -1.4063
    1PA    C115 9091   2.268   0.315   5.357  0.3829 -0.3571 -0.1901
    1PA    H15R 9092   2.206   0.400   5.386 -0.0180 -0.3245 -1.1132
    1PA    H15S 9093   2.351   0.359   5.303  1.2370  0.4151  1.6584
    1PA    C114 9094   2.181   0.236   5.260  0.5642  0.6411 -0.3721
    1PA    H14R 9095   2.211   0.133   5.243  0.6297  0.7145 -0.6994
    1PA    H14S 9096   2.085   0.224   5.312  1.7086  0.4249  1.7942
    1PA    C113 9097   2.155   0.310   5.129 -0.9703 -0.1088 -0.6562
    1PA    H13R 9098   2.105   0.401   5.162 -1.0402 -0.0066 -1.0495
    1PA    H13S 9099   2.249   0.338   5.081 -0.5374 -1.9854 -1.0021
    1PA    C112 9100   2.077   0.243   5.027 -0.1144  0.5943 -0.7085
    1PA    H12R 9101   2.124   0.155   4.984  0.7174  1.4694 -1.6347
    1PA    H12S 9102   1.983   0.205   5.068  0.3042 -2.6016 -2.4627
    1PA    C111 9103   2.050   0.328   4.903  0.3366  0.0661 -0.1036
    1PA    H11R 9104   1.977   0.406   4.929  0.5822  0.1898  0.2314
    1PA    H11S 9105   2.139   0.371   4.857  1.0036  0.3700  1.4015
    1PA    C110 9106   1.978   0.245   4.795  0.0361  0.2023 -1.3068
    1PA    H10R 9107   2.046   0.163   4.768 -1.5481 -1.7704  0.3688
    1PA    H10S 9108   1.884   0.198   4.824 -0.7593  0.9052 -2.6291
    1PA     C19 9109   1.945   0.326   4.663  0.3628  0.1807 -0.1560
    1PA     H9R 9110   1.864   0.272   4.614 -1.2347  1.4285  1.0168
    1PA     H9S 9111   1.899   0.420   4.692  0.7215  0.3708 -0.1997
    1PA     C18 9112   2.062   0.354   4.565  0.2744  0.4626 -0.0711
    1PA     H8R 9113   2.089   0.460   4.561 -0.2957  0.6256  0.2037
    1PA     H8S 9114   2.146   0.297   4.605 -0.7223 -0.0699  1.3446
    1PA     C17 9115   2.037   0.304   4.421  0.9489  0.3477  0.0492
    1PA     H7R 9116   2.123   0.346   4.369  0.9829  2.1846  1.5060
    1PA     H7S 9117   2.045   0.196   4.437  1.2131  0.3273 -0.2059
    1PA     C16 9118   1.905   0.343   4.348  0.4072 -0.7384 -0.4190
    1PA     H6R 9119   1.819   0.311   4.407 -0.4342  3.3786  0.9252
    1PA     H6S 9120   1.898   0.452   4.344  1.1724 -0.6503  0.5025
    1PA     C15 9121   1.891   0.274   4.216 -0.1637  0.7142  0.0833
    1PA     H5R 9122   1.972   0.300   4.148 -1.1970  1.2222 -0.9909
    1PA     H5S 9123   1.894   0.166   4.228  1.6927  0.9843  3.3053
    1PA     C14 9124   1.758   0.314   4.142  0.2445  0.1134 -0.6703
    1PA     H4R 9125   1.673   0.274   4.196  1.9142 -2.7036  0.0894
    1PA     H4S 9126   1.755   0.423   4.130 -1.6804  0.1694  0.0766
    1PA     C13 9127   1.749   0.252   4.004  0.3167 -0.7078 -0.1303
    1PA     H3R 9128   1.843   0.257   3.949  0.4120  0.7952  0.1100
    1PA     H3S 9129   1.729   0.145   4.011  2.0104 -1.1820 -1.7012
    1PA     C12 9130   1.628   0.314   3.915 -1.4171  0.2711 -0.3368
    1PA     H2R 9131   1.531   0.291   3.961 -1.5115 -1.3658 -1.2440
    1PA     H2S 9132   1.652   0.420   3.906 -2.2620  0.8457  2.8287
    1PC     C11 9133   1.633   0.254   3.776 -0.0294 -1.4043  0.2699
    1PC     O12 9134   1.715   0.183   3.731 -0.0716 -0.2275  0.3662
    1PC     O11 9135   1.523   0.296   3.709 -0.2697  0.2541 -0.2467
    1PC      C1 9136   1.509   0.238   3.572 -0.9999  0.0461 -0.7480
    1PC      HR 9137   1.603   0.223   3.519 -2.0918 -0.3636 -2.6353
    1PC      HS 9138   1.459   0.142   3.580 -0.1611 -0.2441  2.7606
    1PC      C2 9139   1.414   0.326   3.489  0.2083  0.4207 -0.7197
    1PC      HX 9140   1.394   0.272   3.396 -2.4023 -0.8387  0.4739
    1PC      C3 9141   1.472   0.469   3.479 -0.1737  0.0353 -0.5112
    1PC      HA 9142   1.475   0.521   3.575  1.3168  1.3175 -1.2026
    1PC      HB 9143   1.568   0.450   3.430 -0.0519 -2.8026  0.6473
    1PC     O31 9144   1.399   0.559   3.384  0.1469  0.1592  0.0402
    1PC     P31 9145   1.452   0.571   3.238  0.1654 -0.1979 -0.3837
    1PC     O32 9146   1.562   0.678   3.257  0.2129  0.1302  0.2437
    1PC     C31 9147   1.693   0.650   3.215 -0.3182 -0.5303 -0.7110
    1PC     H1A 9148   1.730   0.553   3.250  1.8443 -0.4091 -2.4303
    1PC     H1B 9149   1.694   0.649   3.105  0.6030 -0.2651 -0.7099
    1PC     C32 9150   1.783   0.770   3.261  0.1804  0.7049  0.6927
    1PC     H2A 9151   1.772   0.791   3.368  1.2267  0.3131  0.8910
    1PC     H2B 9152   1.887   0.745   3.240 -0.1448 -0.5044  0.4669
    1PC     N31 9153   1.752   0.903   3.194 -0.5158  0.0660 -0.3454
    1PC     C33 9154   1.724   0.908   3.054  0.5401  0.3508  0.3210
    1PC     H3A 9155   1.715   1.013   3.026 -1.9350  0.0696 -0.1911
    1PC     H3B 9156   1.798   0.858   2.992 -0.2079 -2.7749  1.7820
    1PC     H3C 9157   1.625   0.866   3.035  0.1047  1.1933  0.6404
    1PC     C34 9158   1.640   0.965   3.275  0.1957  0.4246 -0.1753
    1PC     H4A 9159   1.599   1.050   3.220  0.3216 -0.0946 -1.0878
    1PC     H4B 9160   1.559   0.893   3.286  1.2605 -1.0663 -1.6725
    1PC     H4C 9161   1.685   0.995   3.370  1.2569 -3.3465  0.6691
    1PC     C35 9162   1.860   1.002   3.218 -0.3469  0.3757 -0.0152
    1PC     H5A 9163   1.955   0.970   3.174  0.4643  2.2481  0.2676
    1PC     H5B 9164   1.878   1.023   3.323 -1.7339 -1.0533  0.5549
    1PC     H5C 9165   1.830   1.097   3.175 -0.2170 -0.3580 -1.8152
    1PC     O33 9166   1.509   0.445   3.189  0.5428  0.2577  0.2407
    1PC     O34 9167   1.347   0.636   3.156  0.2283 -0.6288  0.0136
    1PC     O21 9168   1.289   0.338   3.565  0.4668  0.0911  0.4623
    1PC     C21 9169   1.177   0.339   3.497 -0.6637  0.7300  0.0696
    1PC     O22 9170   1.180   0.362   3.377 -0.3864  0.0887 -0.2554
    1OL     C12 9171   1.053   0.332   3.598  0.0735  0.6561  0.3657
    1OL     H2R 9172   1.090   0.336   3.700  3.7345  1.8651 -0.8439
    1OL     H2S 9173   1.011   0.232   3.585 -1.8647  1.2334  1.7464
    1OL     C13 9174   0.950   0.441   3.558  0.1508 -0.4313 -0.4534
    1OL     H3R 9175   0.866   0.433   3.627 -0.5560  0.1000 -1.2279
    1OL     H3S 9176   0.910   0.417   3.460 -0.8073  2.4556 -0.8744
    1OL     C14 9177   0.988   0.592   3.573 -0.4156  0.5258 -0.3653
    1OL     H4R 9178   0.895   0.646   3.552 -0.3478  0.6082 -0.4544
    1OL     H4S 9179   1.058   0.607   3.490  0.2315 -1.3204 -0.1900
    1OL     C15 9180   1.053   0.640   3.708 -0.1266 -0.1610 -0.5107
    1OL     H5R 9181   1.014   0.586   3.795  0.3613  2.3781  1.4233
    1OL     H5S 9182   1.031   0.747   3.718  0.8750  0.4235 -3.6122
    1OL     C16 9183   1.211   0.627   3.715  0.5511 -0.3046  0.7018
    1OL     H6R 9184   1.258   0.662   3.623 -0.2943 -0.3679  0.2305
    1OL     H6S 9185   1.223   0.519   3.728  1.1373 -0.2263  0.8247
    1OL     C17 9186   1.274   0.691   3.834  0.6852  0.2657 -0.2075
    1OL     H7R 9187   1.236   0.640   3.923  1.2792 -0.4378 -0.3506
    1OL     H7S 9188   1.257   0.799   3.829  2.2914  0.5563  0.0137
    1OL     C18 9189   1.424   0.674   3.852 -0.8883  0.2671  0.3305
    1OL     H8R 9190   1.477   0.710   3.764 -0.0933  1.5781  1.3209
    1OL     H8S 9191   1.448   0.571   3.882  2.5009  0.9911  0.4942
    1OL     C19 9192   1.464   0.770   3.956 -0.7871  0.6514  0.3204
    1OL     H9R 9193   1.483   0.868   3.912  1.9694  0.2772  0.4911
    1OL    C110 9194   1.487   0.756   4.089  0.4062  0.2350  0.7313
    1OL    H10R 9195   1.530   0.837   4.147  1.8665  0.0486 -0.0331
    1OL    C111 9196   1.467   0.630   4.169 -0.2242 -0.0390  0.6796
    1OL    H11R 9197   1.568   0.596   4.191  0.2579  0.7715 -0.1686
    1OL    H11S 9198   1.400   0.559   4.120 -0.9540  1.2648 -0.2798
    1OL    C112 9199   1.396   0.668   4.298 -0.2800 -0.1595 -0.2916
    1OL    H12R 9200   1.298   0.713   4.286 -0.3918 -0.4449 -0.4682
    1OL    H12S 9201   1.450   0.753   4.339 -3.1813  1.7159 -0.0965
    1OL    C113 9202   1.388   0.562   4.413  0.2358 -0.4613 -0.0683
    1OL    H13R 9203   1.334   0.473   4.381  0.9832 -1.3363  1.0153
    1OL    H13S 9204   1.338   0.598   4.503  0.0764 -2.0070  0.4948
    1OL    C114 9205   1.520   0.496   4.468  0.2723  0.4757  0.6771
    1OL    H14R 9206   1.592   0.572   4.497 -0.7268  1.1576  1.4186
    1OL    H14S 9207   1.562   0.428   4.393 -0.6274 -0.2422  0.8021
    1OL    C115 9208   1.494   0.407   4.588 -0.6819 -0.1792  0.0577
    1OL    H15R 9209   1.425   0.467   4.648 -1.1480 -1.7908  1.2138
    1OL    H15S 9210   1.585   0.383   4.644 -0.0308  1.2944 -0.3207
    1OL    C116 9211   1.425   0.276   4.544 -0.1817 -0.1961 -0.1839
    1OL    H16R 9212   1.334   0.302   4.491  0.8660  0.7777 -1.5657
    1OL    H16S 9213   1.400   0.224   4.637 -0.4470  3.4059  1.9757
    1OL    C117 9214   1.520   0.187   4.467 -0.6715  0.5609 -0.0239
    1OL    H17R 9215   1.620   0.165   4.506 -1.0533 -2.6831 -0.5847
    1OL    H17S 9216   1.552   0.238   4.376  1.6987  2.0117  1.4990
    1OL    C118 9217   1.456   0.045   4.440  0.9208 -0.5433 -0.0466
    1OL    H18R 9218   1.419  -0.008   4.528  0.6347 -0.8184 -0.3340
    1OL    H18S 9219   1.528  -0.016   4.385  1.0145  1.5642 -2.4599
    1OL    H18T 9220   1.364   0.063   4.383  1.0081 -1.9610 -0.6603
    1PA    C116 9221   4.370   5.196   5.384 -0.4451  0.3095 -0.2416
    1PA    H16R 9222   4.276   5.213   5.438  0.5553  0.9132  1.3743
    1PA    H16S 9223   4.436   5.270   5.429  0.1866 -0.0060 -0.6406
    1PA    H16T 9224   4.395   5.090   5.392 -0.5048  0.2430 -0.8548
    1PA    C115 9225   4.353   5.238   5.241 -0.1551  0.2011  0.4878
    1PA    H15R 9226   4.294   5.330   5.249 -0.5997  0.3000 -2.6431
    1PA    H15S 9227   4.442   5.270   5.187 -1.1960  0.4886 -1.1547
    1PA    C114 9228   4.256   5.149   5.154 -0.0722  0.5951 -0.0073
    1PA    H14R 9229   4.296   5.049   5.168 -2.9262 -1.2403 -3.3766
    1PA    H14S 9230   4.154   5.160   5.190  0.1117 -0.9396  1.0686
    1PA    C113 9231   4.264   5.186   5.001 -0.5136 -0.1883 -0.7301
    1PA    H13R 9232   4.239   5.291   4.984 -2.3823 -0.6139 -0.7752
    1PA    H13S 9233   4.368   5.173   4.970 -0.2053 -3.5641  1.2565
    1PA    C112 9234   4.175   5.107   4.913 -0.1846  0.4938 -0.3906
    1PA    H12R 9235   4.184   5.000   4.934  1.9504  0.3204 -1.8829
    1PA    H12S 9236   4.074   5.143   4.932 -0.1530  1.5631 -2.0751
    1PA    C111 9237   4.214   5.125   4.765  0.0298  0.4620 -0.2560
    1PA    H11R 9238   4.195   5.226   4.728  1.7016  0.0982 -2.3464
    1PA    H11S 9239   4.322   5.113   4.760  0.0952  0.5515  0.7472
    1PA    C110 9240   4.140   5.026   4.666  0.1102 -0.3154  0.0245
    1PA    H10R 9241   4.176   5.032   4.563 -1.2213 -1.4362 -0.5479
    1PA    H10S 9242   4.152   4.923   4.700  0.4706 -0.3682 -0.2616
    1PA     C19 9243   3.990   5.058   4.661  0.6888 -0.7159 -0.2144
    1PA     H9R 9244   3.946   5.029   4.757  0.5408  2.4970  0.8092
    1PA     H9S 9245   3.967   5.163   4.646 -0.5295 -1.0519 -0.8212
    1PA     C18 9246   3.934   4.968   4.542 -0.1010 -0.5762  0.0801
    1PA     H8R 9247   3.975   5.003   4.447 -0.0619 -0.6150  0.0831
    1PA     H8S 9248   3.977   4.869   4.557 -0.2840 -0.4278  1.7416
    1PA     C17 9249   3.775   4.963   4.530 -0.4943  0.2472 -0.0292
    1PA     H7R 9250   3.733   4.948   4.629 -0.7771 -1.3119 -0.3543
    1PA     H7S 9251   3.735   5.059   4.497 -1.5294 -0.4086 -0.7542
    1PA     C16 9252   3.723   4.848   4.437  0.1963  0.3320  0.8677
    1PA     H6R 9253   3.769   4.754   4.468  1.8250  0.7439 -0.1817
    1PA     H6S 9254   3.615   4.849   4.454 -0.0431  0.8541 -0.5979
    1PA     C15 9255   3.746   4.864   4.281  0.4171 -0.4502  0.5748
    1PA     H5R 9256   3.688   4.954   4.258  0.0209 -0.4888  1.3848
    1PA     H5S 9257   3.851   4.886   4.262  0.1351  0.7809  0.3088
    1PA     C14 9258   3.687   4.749   4.204  0.6538 -0.0332 -0.6978
    1PA     H4R 9259   3.755   4.665   4.220  0.6084  0.2264  1.0866
    1PA     H4S 9260   3.587   4.716   4.235  1.4042 -2.0015 -0.2088
    1PA     C13 9261   3.685   4.777   4.058 -0.3806  0.0201  0.2087
    1PA     H3R 9262   3.608   4.844   4.020 -1.7588 -0.4041  2.0726
    1PA     H3S 9263   3.776   4.830   4.030  0.6801 -0.8802  1.8129
    1PA     C12 9264   3.671   4.643   3.974 -0.2802 -0.5494 -0.2353
    1PA     H2R 9265   3.754   4.574   3.983 -1.2079 -1.5598  0.8657
    1PA     H2S 9266   3.585   4.592   4.019 -0.5523 -2.4024 -2.6809
    1PC     C11 9267   3.654   4.657   3.824 -0.8121  0.0082 -0.6863
    1PC     O12 9268   3.708   4.747   3.762 -0.5456  0.1740  0.1277
    1PC     O11 9269   3.579   4.557   3.772 -0.4039 -0.1829  1.1626
    1PC      C1 9270   3.574   4.552   3.623 -0.1792 -0.1060  0.5301
    1PC      HR 9271   3.488   4.497   3.586  0.6918  0.2221 -2.1996
    1PC      HS 9272   3.560   4.653   3.584  0.8489 -0.2379 -0.2151
    1PC      C2 9273   3.708   4.491   3.567  0.6070 -0.1592  0.6054
    1PC      HX 9274   3.785   4.569   3.564 -2.0891  2.6372 -1.2233
    1PC      C3 9275   3.697   4.450   3.420 -0.3780 -0.6193  0.5047
    1PC      HA 9276   3.614   4.379   3.415 -0.0865 -1.0728  1.8221
    1PC      HB 9277   3.690   4.532   3.348  2.1038 -1.1754 -0.4986
    1PC     O31 9278   3.819   4.373   3.380  0.0621  0.5821  0.0667
    1PC     P31 9279   3.958   4.432   3.333  0.2933 -0.3633  0.1227
    1PC     O32 9280   4.020   4.504   3.467  0.1650 -0.6056 -0.2947
    1PC     C31 9281   4.136   4.450   3.533  0.4958 -0.7824 -0.1059
    1PC     H1A 9282   4.121   4.458   3.641  1.2226  1.3197 -0.1107
    1PC     H1B 9283   4.154   4.346   3.504  1.7621 -0.5502 -0.2373
    1PC     C32 9284   4.271   4.526   3.500  0.7622  0.1636 -0.8937
    1PC     H2A 9285   4.338   4.484   3.575 -1.5383 -1.8731  0.1629
    1PC     H2B 9286   4.305   4.498   3.400  0.3778  1.5691 -1.4413
    1PC     N31 9287   4.275   4.677   3.499 -0.3512  0.3522  0.1102
    1PC     C33 9288   4.414   4.724   3.493  0.0354 -0.4712  0.6640
    1PC     H3A 9289   4.420   4.832   3.506 -0.4594 -0.4327  0.6011
    1PC     H3B 9290   4.468   4.674   3.574  0.8607 -1.2973 -0.3717
    1PC     H3C 9291   4.450   4.697   3.394  0.4269  2.6450 -0.1670
    1PC     C34 9292   4.206   4.730   3.377 -0.4953  0.0371 -0.2409
    1PC     H4A 9293   4.254   4.687   3.289  0.9214  0.1271  0.4509
    1PC     H4B 9294   4.106   4.689   3.391 -0.1307  0.0886  3.5537
    1PC     H4C 9295   4.209   4.839   3.383  0.8243  0.0054 -0.0177
    1PC     C35 9296   4.205   4.726   3.619 -0.5604 -0.0964 -0.7334
    1PC     H5A 9297   4.163   4.825   3.600 -2.5138  0.0600  3.3231
    1PC     H5B 9298   4.280   4.748   3.695 -0.0705  0.7399 -1.4449
    1PC     H5C 9299   4.125   4.658   3.650  0.3943 -1.9976 -2.2189
    1PC     O33 9300   4.041   4.321   3.298 -0.2007  0.2626  0.1360
    1PC     O34 9301   3.938   4.532   3.221  0.0860 -0.2430 -0.8807
    1PC     O21 9302   3.751   4.375   3.638 -0.1041  0.2020 -0.1794
    1PC     C21 9303   3.852   4.388   3.721  0.4360  0.4756  0.2758
    1PC     O22 9304   3.906   4.493   3.746 -0.0484 -0.5637  0.0805
    1OL     C12 9305   3.886   4.257   3.777  0.1807  0.3042 -0.0191
    1OL     H2R 9306   3.911   4.196   3.690 -0.6992  0.9776 -0.7621
    1OL     H2S 9307   3.797   4.215   3.825  0.0204  1.1821  0.4796
    1OL     C13 9308   4.002   4.264   3.878  0.1247 -0.5117  0.4573
    1OL     H3R 9309   3.990   4.341   3.954  2.6989 -1.2359  1.6801
    1OL     H3S 9310   4.084   4.302   3.817 -1.2607  0.6339 -0.7921
    1OL     C14 9311   4.032   4.134   3.951  0.2714  0.0964 -0.3452
    1OL     H4R 9312   4.043   4.060   3.872 -2.0676  1.5255 -2.1526
    1OL     H4S 9313   3.947   4.102   4.011 -0.5821  1.1212 -0.9430
    1OL     C15 9314   4.160   4.120   4.031  0.5595 -0.3022 -0.2628
    1OL     H5R 9315   4.242   4.099   3.962 -0.1190  1.2453 -1.6066
    1OL     H5S 9316   4.149   4.030   4.092 -1.3150 -0.6046 -0.9902
    1OL     C16 9317   4.183   4.246   4.117  0.1336 -0.2021 -0.3098
    1OL     H6R 9318   4.094   4.273   4.174  1.4945  0.9431  1.3972
    1OL     H6S 9319   4.206   4.326   4.047  1.6587 -0.1084  0.2512
    1OL     C17 9320   4.302   4.247   4.209  0.5878  0.1723 -0.5665
    1OL     H7R 9321   4.385   4.222   4.143  1.1769 -0.8691  0.5473
    1OL     H7S 9322   4.294   4.165   4.280 -1.0383 -0.7389 -1.7204
    1OL     C18 9323   4.334   4.380   4.280  0.4003  0.8690  0.7396
    1OL     H8R 9324   4.244   4.411   4.334 -0.1652  2.1311 -0.8371
    1OL     H8S 9325   4.345   4.449   4.196 -3.2291  0.1440 -0.5086
    1OL     C19 9326   4.461   4.378   4.366 -0.5685  0.5854 -0.4827
    1OL     H9R 9327   4.545   4.405   4.302 -0.6983 -0.1284 -0.9671
    1OL    C110 9328   4.483   4.357   4.496 -0.3900 -0.3352  1.0573
    1OL    H10R 9329   4.582   4.370   4.538 -0.3315  1.5324  0.4069
    1OL    C111 9330   4.368   4.323   4.592 -0.3954 -0.3023 -0.2874
    1OL    H11R 9331   4.379   4.220   4.628  2.1118  0.2639  0.8182
    1OL    H11S 9332   4.275   4.335   4.536  0.8563  0.2234 -2.3444
    1OL    C112 9333   4.371   4.404   4.721 -0.4830 -0.3981 -0.0493
    1OL    H12R 9334   4.335   4.503   4.694  0.0280 -0.7568 -2.1495
    1OL    H12S 9335   4.478   4.408   4.742  0.1515 -1.5174 -2.7550
    1OL    C113 9336   4.305   4.333   4.842  0.7256  0.4972 -0.5541
    1OL    H13R 9337   4.290   4.404   4.925  1.7777 -1.3182  1.2888
    1OL    H13S 9338   4.368   4.253   4.881  1.0208 -0.6185 -3.1298
    1OL    C114 9339   4.174   4.264   4.802  0.3147  0.1310  0.5750
    1OL    H14R 9340   4.163   4.170   4.856 -3.0754  0.4252  0.6167
    1OL    H14S 9341   4.174   4.236   4.696  1.2576 -0.1310  0.6314
    1OL    C115 9342   4.040   4.336   4.840  0.0995 -0.1019  0.2193
    1OL    H15R 9343   4.056   4.383   4.937  3.0708 -0.2541 -0.0891
    1OL    H15S 9344   3.948   4.279   4.831 -2.1051  3.3850 -1.3952
    1OL    C116 9345   4.013   4.461   4.747 -0.0127  0.5410  0.0715
    1OL    H16R 9346   4.103   4.522   4.754 -0.6770  1.3667  2.9821
    1OL    H16S 9347   3.943   4.528   4.798 -3.2835 -1.1014 -1.9051
    1OL    C117 9348   3.963   4.433   4.605  0.5221  0.1531  1.1206
    1OL    H17R 9349   3.866   4.382   4.601  1.7732 -2.3121 -1.6109
    1OL    H17S 9350   4.033   4.361   4.562 -0.4921 -0.7165  0.8671
    1OL    C118 9351   3.977   4.559   4.510 -0.6462 -0.4732  0.0655
    1OL    H18R 9352   3.958   4.533   4.405 -0.6003  0.4186 -0.1706
    1OL    H18S 9353   4.081   4.593   4.519 -0.6430 -0.0864 -1.2153
    1OL    H18T 9354   3.907   4.640   4.533 -0.9235  0.2473 -2.9056
    1PA    C116 9355   0.353   2.680   4.089  0.3756  0.8060  0.3709
    1PA    H16R 9356   0.279   2.670   4.169  0.3092  1.2957  0.3744
    1PA    H16S 9357   0.365   2.787   4.071  1.5968  0.7584  0.8210
    1PA    H16T 9358   0.447   2.634   4.122 -0.8350 -0.9962  1.5113
    1PA    C115 9359   0.303   2.625   3.955 -0.4610 -0.1055 -0.3525
    1PA    H15R 9360   0.224   2.698   3.940  1.1130  2.0319  1.2563
    1PA    H15S 9361   0.385   2.627   3.883 -0.0667  0.1286  0.1059
    1PA    C114 9362   0.239   2.491   3.964  0.1213  0.4727  0.3468
    1PA    H14R 9363   0.316   2.420   3.995  0.0031 -0.4758 -1.4020
    1PA    H14S 9364   0.158   2.504   4.036  0.7772  0.5023  1.0916
    1PA    C113 9365   0.187   2.428   3.832 -0.7174 -0.1902 -0.1607
    1PA    H13R 9366   0.100   2.480   3.790 -1.4054 -0.5980  0.7295
    1PA    H13S 9367   0.267   2.422   3.758 -0.7155 -1.4422 -0.0688
    1PA    C112 9368   0.143   2.288   3.869  0.3673 -0.1480 -0.2733
    1PA    H12R 9369   0.149   2.218   3.785 -0.5603 -0.6192  0.0382
    1PA    H12S 9370   0.213   2.247   3.942  0.9347  1.3076  0.0337
    1PA    C111 9371  -0.003   2.283   3.911 -0.4523 -0.1613 -0.0176
    1PA    H11R 9372  -0.018   2.340   4.004 -1.3097 -0.2569 -0.0897
    1PA    H11S 9373  -0.066   2.324   3.832  0.5291  0.5187 -0.4625
    1PA    C110 9374  -0.040   2.137   3.946  0.1681 -0.0874 -0.0598
    1PA    H10R 9375  -0.002   2.065   3.873 -2.0979 -1.5928  0.1485
    1PA    H10S 9376   0.010   2.121   4.041  1.6227  1.2894 -0.5491
    1PA     C19 9377  -0.196   2.123   3.957  0.4013  0.2941 -0.1108
    1PA     H9R 9378  -0.230   2.182   4.043  0.3659  0.1772 -0.0441
    1PA     H9S 9379  -0.252   2.157   3.870 -0.5128 -0.4613  0.1631
    1PA     C18 9380  -0.216   1.973   3.998 -0.0687 -0.6926  0.1856
    1PA     H8R 9381  -0.193   1.910   3.912  1.5093  0.2907 -0.1550
    1PA     H8S 9382  -0.148   1.967   4.083  0.7107  0.5465 -0.3302
    1PA     C17 9383  -0.355   1.953   4.052  0.2890 -0.1697 -0.3643
    1PA     H7R 9384  -0.344   1.850   4.088 -0.1597 -0.6344 -1.4971
    1PA     H7S 9385  -0.381   2.022   4.132 -3.0166 -1.2570 -0.3321
    1PA     C16 9386  -0.482   1.954   3.961 -0.2147 -0.2737  0.0663
    1PA     H6R 9387  -0.574   1.936   4.016  0.0890 -0.5652  0.4813
    1PA     H6S 9388  -0.489   2.059   3.931  1.2204  0.3862  1.8725
    1PA     C15 9389  -0.475   1.865   3.839  0.2283 -0.2705 -0.2749
    1PA     H5R 9390  -0.564   1.879   3.777  0.4906  0.8668 -0.4328
    1PA     H5S 9391  -0.390   1.888   3.774 -0.1865 -2.1285 -1.5334
    1PA     C14 9392  -0.473   1.715   3.856 -0.4084  0.1653  0.1240
    1PA     H4R 9393  -0.386   1.682   3.913  0.4677  0.3916 -1.0612
    1PA     H4S 9394  -0.561   1.698   3.919 -0.1451 -0.9313  0.2201
    1PA     C13 9395  -0.487   1.620   3.730  0.3001  0.4657 -0.3341
    1PA     H3R 9396  -0.585   1.641   3.686  0.2233  3.4497  1.0435
    1PA     H3S 9397  -0.417   1.636   3.648 -1.2660 -1.0514 -2.0940
    1PA     C12 9398  -0.492   1.466   3.764  0.7333 -0.7084  0.2917
    1PA     H2R 9399  -0.402   1.439   3.820  1.4191  0.7165 -0.0718
    1PA     H2S 9400  -0.576   1.454   3.832 -0.2549 -3.7226 -1.2513
    1PC     C11 9401  -0.517   1.378   3.640 -0.4002  0.2023 -0.3624
    1PC     O12 9402  -0.450   1.381   3.536  0.3159  0.2754 -0.3408
    1PC     O11 9403  -0.634   1.311   3.656 -0.2213 -0.7102  0.1198
    1PC      C1 9404  -0.681   1.233   3.545  0.6342  0.0105  0.0590
    1PC      HR 9405  -0.783   1.195   3.558 -0.8791  2.5845 -2.7008
    1PC      HS 9406  -0.675   1.295   3.455  1.5242  2.4008  1.6566
    1PC      C2 9407  -0.595   1.107   3.531 -0.0934 -0.3575  0.2337
    1PC      HX 9408  -0.502   1.147   3.490  1.9984 -3.4385  1.5721
    1PC      C3 9409  -0.646   0.998   3.436 -0.3970  0.4806 -0.5662
    1PC      HA 9410  -0.575   0.915   3.439  0.2384  1.0338  1.0456
    1PC      HB 9411  -0.739   0.962   3.479  0.3955 -0.6124  0.3179
    1PC     O31 9412  -0.688   1.051   3.309  0.2419 -0.6431 -0.9236
    1PC     P31 9413  -0.590   1.048   3.180 -0.0592  0.6396  0.1068
    1PC     O32 9414  -0.485   1.158   3.227 -0.6253 -0.1888 -0.2367
    1PC     C31 9415  -0.506   1.293   3.210  0.3053 -0.5667  0.4769
    1PC     H1A 9416  -0.608   1.317   3.241  0.7550  1.9456  0.2773
    1PC     H1B 9417  -0.431   1.351   3.265  0.1742  0.6139 -0.5491
    1PC     C32 9418  -0.485   1.342   3.068 -0.4012 -0.1335  0.3364
    1PC     H2A 9419  -0.560   1.288   3.011 -1.7617  1.5584  0.4382
    1PC     H2B 9420  -0.510   1.448   3.071  3.4296  0.9990 -2.1288
    1PC     N31 9421  -0.353   1.327   3.002  0.3884  0.2336  0.2172
    1PC     C33 9422  -0.305   1.187   2.976 -0.0053  0.0767  0.5053
    1PC     H3A 9423  -0.379   1.137   2.913  0.6401 -0.5852  0.2592
    1PC     H3B 9424  -0.205   1.201   2.935  0.2745 -1.1198  0.7442
    1PC     H3C 9425  -0.304   1.134   3.071  1.8579  0.0763  0.5129
    1PC     C34 9426  -0.358   1.386   2.864  0.1616 -0.6430 -0.4324
    1PC     H4A 9427  -0.272   1.355   2.805  0.0334 -0.9757 -0.4435
    1PC     H4B 9428  -0.449   1.358   2.810 -0.1726 -0.6691  0.1314
    1PC     H4C 9429  -0.347   1.495   2.866 -3.4126 -0.1231 -0.8502
    1PC     C35 9430  -0.254   1.408   3.083  0.2975  0.7393  0.4972
    1PC     H5A 9431  -0.297   1.507   3.101 -0.4666  0.0421  2.9328
    1PC     H5B 9432  -0.173   1.431   3.015 -2.7343  2.7246 -2.8088
    1PC     H5C 9433  -0.215   1.358   3.171  2.7533 -1.1232 -1.5105
    1PC     O33 9434  -0.522   0.918   3.174 -0.1787 -0.2089  0.0117
    1PC     O34 9435  -0.669   1.092   3.059 -0.2755 -0.0955  0.0017
    1PC     O21 9436  -0.581   1.055   3.665  0.5764 -0.1520  1.0613
    1PC     C21 9437  -0.460   1.007   3.704 -0.2238 -0.2296  0.4194
    1PC     O22 9438  -0.359   1.016   3.626  0.3081 -0.4350 -0.2883
    1OL     C12 9439  -0.448   0.991   3.853 -0.2773 -0.1951  0.6863
    1OL     H2R 9440  -0.384   0.908   3.886  0.2101  0.4620  1.4483
    1OL     H2S 9441  -0.548   0.966   3.889  0.8695 -0.2702  4.2941
    1OL     C13 9442  -0.398   1.122   3.919  0.3452 -0.1691  0.2744
    1OL     H3R 9443  -0.424   1.208   3.856 -0.7682  1.2892  2.5726
    1OL     H3S 9444  -0.289   1.111   3.922  0.3663  0.1907  1.8824
    1OL     C14 9445  -0.445   1.147   4.059  0.3084 -0.4476 -0.3661
    1OL     H4R 9446  -0.393   1.080   4.128 -1.9944 -0.1014  1.8465
    1OL     H4S 9447  -0.553   1.136   4.074  0.7300 -4.5359  1.0118
    1OL     C15 9448  -0.406   1.287   4.106 -0.2549 -0.1528 -0.1417
    1OL     H5R 9449  -0.464   1.363   4.054 -1.2121 -0.8071 -0.0566
    1OL     H5S 9450  -0.298   1.307   4.103  0.5305 -2.7690  3.4558
    1OL     C16 9451  -0.447   1.300   4.251  0.6335 -0.8824  0.1637
    1OL     H6R 9452  -0.395   1.223   4.309 -0.2179 -2.0009 -0.5170
    1OL     H6S 9453  -0.556   1.290   4.261 -0.0483  3.5514 -0.9654
    1OL     C17 9454  -0.404   1.434   4.313  0.4947  0.2288 -0.5417
    1OL     H7R 9455  -0.296   1.451   4.317  0.3845  1.8028 -2.6658
    1OL     H7S 9456  -0.442   1.439   4.416 -0.4510  0.7516 -0.9030
    1OL     C18 9457  -0.468   1.558   4.258 -0.3339 -0.3366 -0.6439
    1OL     H8R 9458  -0.576   1.558   4.275 -0.0118  2.1044  2.3055
    1OL     H8S 9459  -0.448   1.565   4.151 -2.0434  0.6829 -0.9461
    1OL     C19 9460  -0.394   1.681   4.326  0.4123  0.0647 -0.7541
    1OL     H9R 9461  -0.292   1.659   4.355  1.1424  1.8686 -1.7682
    1OL    C110 9462  -0.457   1.797   4.355  0.1082  0.0495 -0.1185
    1OL    H10R 9463  -0.395   1.868   4.409 -1.3079  0.8283  0.5184
    1OL    C111 9464  -0.599   1.813   4.321 -0.1667 -0.2643  1.5011
    1OL    H11R 9465  -0.659   1.726   4.349 -0.5775 -0.2670  0.6369
    1OL    H11S 9466  -0.604   1.825   4.213 -1.2627 -0.2902  1.5438
    1OL    C112 9467  -0.653   1.947   4.371 -0.2493 -1.0546 -0.4483
    1OL    H12R 9468  -0.587   2.021   4.324 -0.1265 -1.6840 -1.2795
    1OL    H12S 9469  -0.647   1.939   4.479  0.6332  0.4065 -0.3571
    1OL    C113 9470  -0.801   1.978   4.342  0.6216 -0.3203  0.7049
    1OL    H13R 9471  -0.868   1.947   4.423  0.0009  0.6578  0.5883
    1OL    H13S 9472  -0.833   1.928   4.250  2.1820  0.6219 -0.3880
    1OL    C114 9473  -0.823   2.128   4.323 -0.0612 -0.1848 -0.6227
    1OL    H14R 9474  -0.805   2.184   4.415 -1.2050  1.1087 -1.1604
    1OL    H14S 9475  -0.928   2.140   4.294 -0.3502 -0.1165  0.4349
    1OL    C115 9476  -0.741   2.200   4.208 -0.3531 -0.3574 -0.0318
    1OL    H15R 9477  -0.635   2.173   4.210 -0.1355  0.4984  0.2142
    1OL    H15S 9478  -0.749   2.308   4.218  0.0627 -0.1622 -1.5609
    1OL    C116 9479  -0.784   2.154   4.063 -0.6701 -0.1388  0.0132
    1OL    H16R 9480  -0.819   2.051   4.056 -0.4555 -0.1147 -2.0830
    1OL    H16S 9481  -0.700   2.154   3.993  0.3141 -1.1929  1.1414
    1OL    C117 9482  -0.903   2.229   3.993  0.0746  0.4613  0.3039
    1OL    H17R 9483  -1.002   2.228   4.040 -1.0909 -0.1033 -2.0014
    1OL    H17S 9484  -0.926   2.178   3.899  0.3455  4.3269 -2.0620
    1OL    C118 9485  -0.860   2.372   3.958  0.1222  0.3138 -0.0958
    1OL    H18R 9486  -0.867   2.438   4.045  1.7002 -0.7143  0.8788
    1OL    H18S 9487  -0.937   2.405   3.889 -0.2482 -2.9697 -1.4402
    1OL    H18T 9488  -0.759   2.377   3.916  0.2469  0.1310  0.1710
    1PA    C116 9489   0.013   1.575   4.678 -0.3980 -0.3331  0.0588
    1PA    H16R 9490   0.014   1.672   4.727 -0.8729  0.0618 -0.6982
    1PA    H16S 9491   0.051   1.594   4.577 -1.2019 -1.0531 -0.3859
    1PA    H16T 9492   0.081   1.497   4.713 -2.3079 -1.8208  0.6223
    1PA    C115 9493  -0.125   1.518   4.669  0.7445  0.0947  0.0825
    1PA    H15R 9494  -0.142   1.474   4.768  2.7721 -0.0289  0.4080
    1PA    H15S 9495  -0.196   1.601   4.664  0.2074 -0.3304  0.4843
    1PA    C114 9496  -0.159   1.422   4.555 -0.3041  0.5412  0.7538
    1PA    H14R 9497  -0.267   1.404   4.561 -0.2766  0.7394  2.5492
    1PA    H14S 9498  -0.144   1.473   4.460 -2.9827 -2.1541 -1.3009
    1PA    C113 9499  -0.081   1.297   4.551 -0.0316  0.4191 -0.0189
    1PA    H13R 9500   0.026   1.313   4.537  0.5562 -2.8148 -0.1050
    1PA    H13S 9501  -0.089   1.248   4.649  1.4702 -0.3945 -0.2663
    1PA    C112 9502  -0.135   1.211   4.433 -0.4184  1.0538 -0.0338
    1PA    H12R 9503  -0.241   1.191   4.449  0.0063 -1.9690 -0.3330
    1PA    H12S 9504  -0.113   1.258   4.337 -0.8695 -0.7374 -1.0610
    1PA    C111 9505  -0.054   1.081   4.421 -0.6112 -0.7849 -0.4354
    1PA    H11R 9506   0.052   1.105   4.419 -1.0636  1.6254  1.1068
    1PA    H11S 9507  -0.068   1.025   4.514  1.5790 -0.6766  0.0146
    1PA    C110 9508  -0.096   0.990   4.300 -0.5400  0.1147 -0.0234
    1PA    H10R 9509  -0.086   1.046   4.207  0.6341  0.8390  0.5157
    1PA    H10S 9510  -0.023   0.909   4.306  1.5060  1.9767  2.4430
    1PA     C19 9511  -0.242   0.938   4.314  0.1815  0.9313 -0.0742
    1PA     H9R 9512  -0.241   0.879   4.405  0.9527  0.7960 -0.1601
    1PA     H9S 9513  -0.309   1.024   4.326 -1.4363 -0.1865 -0.6483
    1PA     C18 9514  -0.279   0.843   4.201  0.0636 -0.1082  0.1467
    1PA     H8R 9515  -0.279   0.900   4.107  0.0819  0.1969  0.3321
    1PA     H8S 9516  -0.212   0.757   4.205 -0.5572 -0.5940  0.1802
    1PA     C17 9517  -0.414   0.789   4.223  0.5557  0.2030  0.3336
    1PA     H7R 9518  -0.424   0.747   4.323 -1.3208 -0.2169  0.0088
    1PA     H7S 9519  -0.489   0.867   4.215 -1.4794 -1.0096  4.6985
    1PA     C16 9520  -0.434   0.673   4.120  0.0350 -0.1954  0.2184
    1PA     H6R 9521  -0.412   0.710   4.020  0.5646 -0.0924  0.3740
    1PA     H6S 9522  -0.368   0.588   4.140 -1.1576 -1.6323 -1.6188
    1PA     C15 9523  -0.582   0.635   4.119  0.3034  0.1051  0.1364
    1PA     H5R 9524  -0.606   0.586   4.214  0.8988 -0.3055  0.0794
    1PA     H5S 9525  -0.640   0.726   4.105  1.4023  0.7600 -0.2876
    1PA     C14 9526  -0.621   0.528   4.020  0.8763  0.4112 -0.4562
    1PA     H4R 9527  -0.574   0.432   4.044  0.1057  0.2717  0.5622
    1PA     H4S 9528  -0.724   0.493   4.025  1.1254 -0.2965 -0.0391
    1PA     C13 9529  -0.601   0.564   3.874 -0.2220  0.1181 -0.1153
    1PA     H3R 9530  -0.503   0.597   3.838  0.1775 -0.6060  0.2939
    1PA     H3S 9531  -0.620   0.478   3.810 -1.2660  0.0044  0.3258
    1PA     C12 9532  -0.692   0.680   3.831  0.2983  0.0915  0.0824
    1PA     H2R 9533  -0.787   0.675   3.885  0.9167  0.0483  1.2000
    1PA     H2S 9534  -0.651   0.776   3.862  1.9741 -0.2956 -0.8211
    1PC     C11 9535  -0.711   0.685   3.687 -0.2566  0.9363  0.5815
    1PC     O12 9536  -0.638   0.747   3.614 -0.2644 -0.1640 -0.2699
    1PC     O11 9537  -0.820   0.611   3.650  0.5862 -0.2367  0.2188
    1PC      C1 9538  -0.826   0.598   3.506  0.3788 -0.2666  0.0616
    1PC      HR 9539  -0.763   0.668   3.450  1.3958 -1.6976 -0.6633
    1PC      HS 9540  -0.800   0.496   3.476 -1.6326 -0.3305 -1.7607
    1PC      C2 9541  -0.972   0.617   3.461  0.5969 -0.0683  0.3028
    1PC      HX 9542  -0.999   0.556   3.374 -3.6035 -0.2519  1.5249
    1PC      C3 9543  -0.984   0.768   3.433  0.5428 -0.4724 -0.8082
    1PC      HA 9544  -0.966   0.817   3.528 -1.2295 -1.5408  0.1304
    1PC      HB 9545  -0.923   0.807   3.351  1.4712  1.1013  0.5804
    1PC     O31 9546  -1.127   0.794   3.399  0.2510  0.1764  0.3467
    1PC     P31 9547  -1.177   0.797   3.246 -0.2412 -0.0658 -0.0446
    1PC     O32 9548  -1.172   0.947   3.215  0.0156  0.0193  0.0673
    1PC     C31 9549  -1.046   1.012   3.175 -0.0468  0.8732 -0.0888
    1PC     H1A 9550  -0.974   1.011   3.257 -1.1795 -0.5447  0.9468
    1PC     H1B 9551  -1.000   0.972   3.084 -3.4420 -0.0230 -1.5462
    1PC     C32 9552  -1.086   1.159   3.136 -0.2154 -0.6440 -0.2806
    1PC     H2A 9553  -1.151   1.149   3.048  1.4672 -2.7504 -1.3853
    1PC     H2B 9554  -1.130   1.206   3.224  1.6604  1.5915 -0.4375
    1PC     N31 9555  -0.985   1.259   3.107 -0.3571  0.2765  0.5093
    1PC     C33 9556  -1.061   1.385   3.113 -0.6959 -0.4907 -0.4326
    1PC     H3A 9557  -1.136   1.381   3.034 -0.7454  0.6993 -0.4732
    1PC     H3B 9558  -1.116   1.378   3.207  0.0223  0.8167  0.1118
    1PC     H3C 9559  -1.002   1.477   3.112 -1.5433  0.0815  0.3008
    1PC     C34 9560  -0.871   1.277   3.199  0.2678  0.4123  0.7496
    1PC     H4A 9561  -0.914   1.285   3.299  0.8596  0.5398  1.0026
    1PC     H4B 9562  -0.799   1.196   3.188  0.0846  0.1943  1.1511
    1PC     H4C 9563  -0.832   1.376   3.172 -0.9821  0.8004  0.2899
    1PC     C35 9564  -0.938   1.246   2.972 -0.4776  0.5435  0.2917
    1PC     H5A 9565  -0.887   1.333   2.931  1.1051 -1.6442 -2.8784
    1PC     H5B 9566  -1.020   1.240   2.899  0.4083  4.6992 -1.3257
    1PC     H5C 9567  -0.871   1.160   2.974  0.1273  0.9566 -1.0523
    1PC     O33 9568  -1.074   0.729   3.161 -0.3533  0.3452 -0.2172
    1PC     O34 9569  -1.322   0.764   3.226 -0.2834 -0.1585  0.4187
    1PC     O21 9570  -1.064   0.589   3.565  0.3865 -0.0453 -0.5652
    1PC     C21 9571  -1.080   0.462   3.600 -0.1194  1.0322  0.1210
    1PC     O22 9572  -1.053   0.366   3.525 -0.0810  1.1459 -0.1404
    1OL     C12 9573  -1.140   0.451   3.739 -0.3818  0.4992  0.9050
    1OL     H2R 9574  -1.247   0.472   3.736 -0.1051  2.0048  0.5127
    1OL     H2S 9575  -1.112   0.541   3.795  0.5568 -0.3886  1.9072
    1OL     C13 9576  -1.098   0.326   3.817 -0.1408 -0.5708 -0.1093
    1OL     H3R 9577  -0.990   0.324   3.807 -0.1765 -3.2477 -0.9127
    1OL     H3S 9578  -1.132   0.238   3.761  1.3048 -0.9443 -0.4284
    1OL     C14 9579  -1.146   0.327   3.968  0.1726  0.2153 -0.3834
    1OL     H4R 9580  -1.253   0.328   3.991  0.5278  2.4620  1.6282
    1OL     H4S 9581  -1.107   0.421   4.009 -1.6280  0.3001  1.2877
    1OL     C15 9582  -1.079   0.220   4.056  0.1144  0.0722  0.3956
    1OL     H5R 9583  -1.112   0.119   4.031  1.0577 -0.5862  1.6253
    1OL     H5S 9584  -1.116   0.239   4.157 -0.4531 -0.8330  0.3739
    1OL     C16 9585  -0.924   0.215   4.054  0.6240  0.8070  0.1533
    1OL     H6R 9586  -0.889   0.316   4.078  0.3234  0.8125  0.5812
    1OL     H6S 9587  -0.895   0.185   3.953 -0.7485  0.8246 -0.2698
    1OL     C17 9588  -0.883   0.113   4.159 -0.1896 -0.0714  0.9883
    1OL     H7R 9589  -0.949   0.026   4.151 -0.1173 -0.0005 -0.7617
    1OL     H7S 9590  -0.898   0.152   4.260 -2.0245 -1.0341  1.1347
    1OL     C18 9591  -0.737   0.058   4.135  0.0985 -0.5293  0.1997
    1OL     H8R 9592  -0.738   0.007   4.038 -2.1524  0.4389 -0.3429
    1OL     H8S 9593  -0.714  -0.015   4.213  0.0191 -1.3410 -0.5221
    1OL     C19 9594  -0.639   0.174   4.119  0.2389  0.3180 -1.2464
    1OL     H9R 9595  -0.610   0.201   4.017  0.2475  2.1388 -0.8091
    1OL    C110 9596  -0.579   0.232   4.220  0.2738 -0.1109 -0.8093
    1OL    H10R 9597  -0.506   0.302   4.181 -0.8486 -0.0992 -3.0428
    1OL    C111 9598  -0.599   0.208   4.364  0.2848  0.8516  0.1060
    1OL    H11R 9599  -0.510   0.179   4.420  0.3732 -0.3294 -0.6155
    1OL    H11S 9600  -0.678   0.133   4.368 -0.6510  1.7692 -0.7697
    1OL    C112 9601  -0.646   0.342   4.426 -0.6845 -0.3237 -0.1627
    1OL    H12R 9602  -0.562   0.407   4.402 -1.3616  0.3522 -0.7571
    1OL    H12S 9603  -0.654   0.331   4.535  0.3459 -0.7774 -0.1313
    1OL    C113 9604  -0.781   0.398   4.376 -0.0749 -0.6612 -0.2784
    1OL    H13R 9605  -0.865   0.335   4.405  0.0479 -0.3733  0.7459
    1OL    H13S 9606  -0.785   0.421   4.269 -0.4720 -3.0835 -0.8446
    1OL    C114 9607  -0.820   0.522   4.449  0.3109 -0.2328 -0.0351
    1OL    H14R 9608  -0.741   0.594   4.427 -0.5263  0.6844 -0.1249
    1OL    H14S 9609  -0.840   0.506   4.556 -0.6129  2.2296  0.2285
    1OL    C115 9610  -0.945   0.587   4.388  0.0315 -0.5219 -0.4535
    1OL    H15R 9611  -0.985   0.665   4.453 -0.0970  0.4576 -1.6698
    1OL    H15S 9612  -1.028   0.516   4.385 -0.6526  0.2495 -0.1496
    1OL    C116 9613  -0.934   0.648   4.252  0.6943 -0.4572 -0.1854
    1OL    H16R 9614  -0.894   0.578   4.178  0.6537 -3.2262  2.2633
    1OL    H16S 9615  -0.870   0.736   4.266  0.4965 -0.0659 -1.5293
    1OL    C117 9616  -1.072   0.697   4.193  0.1411 -0.5735  0.5851
    1OL    H17R 9617  -1.137   0.610   4.194 -1.4310  0.5550 -0.0264
    1OL    H17S 9618  -1.059   0.736   4.091  1.6843 -3.4126 -0.4263
    1OL    C118 9619  -1.139   0.801   4.272  0.1442 -0.6435  0.3557
    1OL    H18R 9620  -1.088   0.894   4.298  1.7237 -1.5121  0.4837
    1OL    H18S 9621  -1.169   0.751   4.365 -1.3614 -1.0803 -0.3369
    1OL    H18T 9622  -1.234   0.834   4.231  0.7294 -0.2831 -0.7245
    1PA    C116 9623   1.447   3.175   4.426 -0.1077  0.1839 -0.1866
    1PA    H16R 9624   1.522   3.153   4.350 -0.0597  0.3741 -0.1946
    1PA    H16S 9625   1.489   3.204   4.523 -0.8870  1.2142 -0.1405
    1PA    H16T 9626   1.394   3.262   4.388  2.1493  0.9214 -1.8981
    1PA    C115 9627   1.350   3.064   4.456  0.5657  0.1666 -0.2660
    1PA    H15R 9628   1.304   3.033   4.362  0.4376  2.3240 -0.9795
    1PA    H15S 9629   1.405   2.981   4.503  0.4717  0.7722  0.9574
    1PA    C114 9630   1.245   3.111   4.559  0.3477 -0.0029 -0.3015
    1PA    H14R 9631   1.186   3.021   4.577 -0.5464  0.2378 -1.8524
    1PA    H14S 9632   1.282   3.151   4.653 -3.1347 -0.0880  1.2231
    1PA    C113 9633   1.141   3.213   4.508 -0.2242 -0.1791 -0.1867
    1PA    H13R 9634   1.189   3.310   4.495 -0.8796  0.2696  0.6254
    1PA    H13S 9635   1.113   3.179   4.408 -0.5960  2.3591 -1.0178
    1PA    C112 9636   1.020   3.218   4.607 -0.1506  0.2042  0.7745
    1PA    H12R 9637   0.971   3.120   4.613 -1.5328  0.8179 -0.1013
    1PA    H12S 9638   1.074   3.233   4.701 -0.7930 -3.1447  1.8212
    1PA    C111 9639   0.922   3.333   4.570  0.6393  0.2309  0.0102
    1PA    H11R 9640   0.848   3.348   4.649 -0.8017  0.9284 -1.4080
    1PA    H11S 9641   0.987   3.419   4.556 -1.0137  1.6254  0.5827
    1PA    C110 9642   0.837   3.306   4.446  0.1930  0.3826 -0.0311
    1PA    H10R 9643   0.907   3.288   4.364  3.2999  2.5661  1.9339
    1PA    H10S 9644   0.779   3.214   4.459  0.5217 -0.3897 -3.2225
    1PA     C19 9645   0.752   3.429   4.404 -0.2005 -0.1246  0.0283
    1PA     H9R 9646   0.685   3.396   4.324  1.3738 -1.2962 -0.8643
    1PA     H9S 9647   0.687   3.461   4.485  0.4332  0.0915  0.4583
    1PA     C18 9648   0.832   3.553   4.366  0.2126 -0.5427 -0.0416
    1PA     H8R 9649   0.765   3.633   4.334  2.9661  1.4479 -1.2271
    1PA     H8S 9650   0.866   3.598   4.460 -1.1719  2.0323 -0.6564
    1PA     C17 9651   0.958   3.538   4.279 -0.3186  0.6201 -0.4778
    1PA     H7R 9652   1.007   3.635   4.270 -1.3122  1.1062 -0.7981
    1PA     H7S 9653   1.033   3.466   4.311 -0.2263 -0.3872 -2.7798
    1PA     C16 9654   0.911   3.485   4.133  0.2592 -0.8395 -0.5081
    1PA     H6R 9655   1.003   3.468   4.078 -1.7076 -0.0278 -4.3608
    1PA     H6S 9656   0.859   3.389   4.139  1.5497 -1.5445 -0.3571
    1PA     C15 9657   0.824   3.590   4.052  0.3138  0.3188 -0.0263
    1PA     H5R 9658   0.724   3.580   4.096  0.6277 -1.5465  0.3499
    1PA     H5S 9659   0.863   3.689   4.077  0.0417  0.1911  0.9373
    1PA     C14 9660   0.821   3.566   3.903  0.4363  0.3120  0.4032
    1PA     H4R 9661   0.767   3.640   3.844  0.6358 -1.2357 -1.8069
    1PA     H4S 9662   0.918   3.594   3.862 -0.2272  1.9173 -0.1671
    1PA     C13 9663   0.783   3.425   3.853 -0.1598 -1.0189  0.0606
    1PA     H3R 9664   0.807   3.407   3.748 -0.8728 -0.6018 -0.1823
    1PA     H3S 9665   0.846   3.359   3.913  1.3535 -1.1365 -1.5795
    1PA     C12 9666   0.640   3.385   3.873  0.2512 -0.2596  0.1297
    1PA     H2R 9667   0.613   3.290   3.827 -1.1034  0.0443  0.2592
    1PA     H2S 9668   0.603   3.373   3.975 -1.1639 -3.4760 -0.6125
    1PC     C11 9669   0.538   3.483   3.809 -0.2590 -0.0206  0.8664
    1PC     O12 9670   0.517   3.598   3.846  0.9075  0.4520  0.5672
    1PC     O11 9671   0.470   3.419   3.714  0.0513  0.7671 -0.3257
    1PC      C1 9672   0.368   3.485   3.631 -0.8223 -0.0212 -0.3188
    1PC      HR 9673   0.301   3.410   3.588 -2.1698  0.8580  0.2046
    1PC      HS 9674   0.317   3.560   3.692  2.5661  1.8441  0.4888
    1PC      C2 9675   0.422   3.559   3.500 -0.0812  0.2262 -0.1449
    1PC      HX 9676   0.337   3.602   3.447 -0.5385 -0.5915 -0.0968
    1PC      C3 9677   0.496   3.457   3.406 -0.4046  0.0108  0.4905
    1PC      HA 9678   0.570   3.414   3.473 -1.1872  0.4086  1.6504
    1PC      HB 9679   0.433   3.374   3.373  0.8482 -0.6661 -0.2705
    1PC     O31 9680   0.551   3.533   3.296  0.2069 -0.7493  0.0658
    1PC     P31 9681   0.457   3.571   3.170  0.0741  0.3075 -0.1330
    1PC     O32 9682   0.366   3.687   3.217  0.0411 -0.2629 -0.4267
    1PC     C31 9683   0.400   3.830   3.194  0.3114 -0.1518 -0.1037
    1PC     H1A 9684   0.361   3.884   3.281  1.3732  1.6863 -0.7184
    1PC     H1B 9685   0.508   3.843   3.193  0.1780  1.0665 -1.5812
    1PC     C32 9686   0.333   3.877   3.066  0.0971 -0.1671 -0.1260
    1PC     H2A 9687   0.339   3.801   2.987  2.6306 -1.9781  1.6760
    1PC     H2B 9688   0.225   3.890   3.080  0.1620  0.0683  0.1490
    1PC     N31 9689   0.371   4.017   3.015 -0.1102 -0.1909 -0.3635
    1PC     C33 9690   0.283   4.066   2.905 -0.4154  0.0686 -0.8872
    1PC     H3A 9691   0.296   4.003   2.817  2.0019 -0.1349 -0.4523
    1PC     H3B 9692   0.177   4.066   2.930 -0.8664  0.3081 -2.6541
    1PC     H3C 9693   0.316   4.167   2.880 -1.4112  0.3368 -1.1665
    1PC     C34 9694   0.359   4.116   3.124  0.8647  0.2933 -0.0243
    1PC     H4A 9695   0.374   4.215   3.081  0.3966  1.3200  2.0220
    1PC     H4B 9696   0.257   4.104   3.162  0.3120 -3.5108 -2.2451
    1PC     H4C 9697   0.432   4.097   3.203 -0.0934  0.1888  0.8637
    1PC     C35 9698   0.513   4.029   2.975  0.2694  0.8011 -0.2910
    1PC     H5A 9699   0.526   3.970   2.884 -0.5474 -1.7892  1.1674
    1PC     H5B 9700   0.567   3.979   3.055 -0.3902  1.4582  0.6063
    1PC     H5C 9701   0.545   4.133   2.961  2.7885  0.4224  1.9028
    1PC     O33 9702   0.551   3.602   3.058  0.0088 -0.3828 -0.1170
    1PC     O34 9703   0.369   3.455   3.145 -0.0304  0.2761 -0.8354
    1PC     O21 9704   0.521   3.669   3.537 -0.5995 -0.2682  0.2606
    1PC     C21 9705   0.459   3.788   3.557 -0.5382  0.8261  1.1105
    1PC     O22 9706   0.343   3.810   3.533  0.0910  0.1270 -0.4978
    1OL     C12 9707   0.556   3.893   3.600 -0.5712  0.2543  0.2759
    1OL     H2R 9708   0.559   3.956   3.510  0.6553 -1.5034 -0.9695
    1OL     H2S 9709   0.655   3.858   3.628 -0.9164 -1.9038 -1.0115
    1OL     C13 9710   0.513   3.980   3.716  0.0030  0.3029 -0.1986
    1OL     H3R 9711   0.418   4.030   3.694 -0.0007  1.6839  2.5542
    1OL     H3S 9712   0.587   4.058   3.733  0.1468  0.1252 -0.0091
    1OL     C14 9713   0.495   3.905   3.847  1.1681 -1.3642  0.2128
    1OL     H4R 9714   0.584   3.849   3.877  0.3031 -1.6916  2.3212
    1OL     H4S 9715   0.411   3.836   3.841  1.8600 -2.3018  0.9976
    1OL     C15 9716   0.461   4.005   3.955  0.9544  0.1543  0.6438
    1OL     H5R 9717   0.452   3.954   4.051 -1.8528  0.7158  0.7511
    1OL     H5S 9718   0.364   4.049   3.932 -0.5330 -1.3974  3.4299
    1OL     C16 9719   0.563   4.116   3.972 -0.4453  0.3629 -0.1797
    1OL     H6R 9720   0.537   4.177   4.059  0.1716 -0.4862  0.6253
    1OL     H6S 9721   0.568   4.182   3.885 -0.2323 -0.4501 -0.7978
    1OL     C17 9722   0.708   4.073   4.001  0.4068 -0.3724  0.5079
    1OL     H7R 9723   0.768   4.164   4.004 -0.6203  0.7945 -4.4924
    1OL     H7S 9724   0.745   4.025   3.910  0.1331  0.4946 -0.0730
    1OL     C18 9725   0.719   3.984   4.127  0.0413  0.2946 -0.0020
    1OL     H8R 9726   0.663   3.892   4.116 -1.8618  1.4208 -0.1269
    1OL     H8S 9727   0.682   4.040   4.213 -1.8389 -0.8124 -0.0407
    1OL     C19 9728   0.869   3.938   4.136  0.4985 -0.1314 -0.2514
    1OL     H9R 9729   0.912   3.899   4.044 -1.5726 -0.6609 -1.0603
    1OL    C110 9730   0.961   3.949   4.235 -0.4158  0.3861 -0.0550
    1OL    H10R 9731   1.061   3.909   4.221 -0.0278  0.4933  2.0659
    1OL    C111 9732   0.941   4.004   4.370  0.5117  0.1592  0.5781
    1OL    H11R 9733   0.853   4.067   4.382  0.0460 -0.4552  0.4054
    1OL    H11S 9734   1.017   4.082   4.380 -0.1596  0.9189 -0.0801
    1OL    C112 9735   0.951   3.911   4.489 -0.7445  0.3571 -0.2613
    1OL    H12R 9736   0.901   3.821   4.451  0.1662  0.0535 -0.7593
    1OL    H12S 9737   0.889   3.943   4.573 -1.8460  1.7580 -1.5637
    1OL    C113 9738   1.096   3.880   4.530 -0.4335 -0.3997  0.8108
    1OL    H13R 9739   1.146   3.966   4.576  1.2782 -2.1477  2.3916
    1OL    H13S 9740   1.139   3.851   4.434 -1.1532 -0.3134  0.4590
    1OL    C114 9741   1.100   3.751   4.619 -0.0655  0.2486  0.2092
    1OL    H14R 9742   1.025   3.675   4.599 -1.2157  1.5587 -0.6758
    1OL    H14S 9743   1.085   3.772   4.725  2.6777 -1.4857  1.0557
    1OL    C115 9744   1.244   3.686   4.614  0.0131 -0.0458 -0.3606
    1OL    H15R 9745   1.323   3.753   4.647 -0.4110  1.3262 -1.9993
    1OL    H15S 9746   1.275   3.653   4.514  1.0912 -2.3234  0.6490
    1OL    C116 9747   1.250   3.559   4.698  0.6460 -0.7308 -0.3195
    1OL    H16R 9748   1.172   3.486   4.673 -0.5976 -0.4869  2.4560
    1OL    H16S 9749   1.230   3.577   4.804 -0.7086 -0.6397 -0.5680
    1OL    C117 9750   1.381   3.485   4.678 -0.0987 -0.4198  0.0010
    1OL    H17R 9751   1.396   3.460   4.573  1.3786 -1.4220  0.4164
    1OL    H17S 9752   1.386   3.390   4.732 -1.2543 -0.5852 -0.1487
    1OL    C118 9753   1.512   3.560   4.730 -0.5432  0.2200  0.3370
    1OL    H18R 9754   1.593   3.509   4.678 -2.7239 -0.1044 -3.1084
    1OL    H18S 9755   1.522   3.559   4.839  0.7917  0.1012  0.2269
    1OL    H18T 9756   1.517   3.663   4.694  0.5812 -0.2341 -0.8832
    1PA    C116 9757   0.565   1.267   4.853  0.4128 -0.8391  0.0494
    1PA    H16R 9758   0.673   1.253   4.844  0.7733  1.5886 -0.1715
    1PA    H16S 9759   0.515   1.202   4.925 -1.7680  1.9174  1.2075
    1PA    H16T 9760   0.544   1.371   4.878  0.1252 -0.7449 -0.5671
    1PA    C115 9761   0.502   1.259   4.709 -0.3842 -0.4156  0.4695
    1PA    H15R 9762   0.398   1.292   4.709 -0.5701 -0.9755  0.4248
    1PA    H15S 9763   0.557   1.308   4.629  0.0195 -1.4023  0.1266
    1PA    C114 9764   0.483   1.110   4.667 -0.1648 -0.1426 -0.0566
    1PA    H14R 9765   0.584   1.078   4.643 -0.1383  0.4335 -0.7631
    1PA    H14S 9766   0.444   1.055   4.753 -0.4351 -1.2157 -0.8534
    1PA    C113 9767   0.386   1.087   4.547  0.4486  0.3966 -0.5078
    1PA    H13R 9768   0.286   1.120   4.575  0.6109 -0.7583  1.6299
    1PA    H13S 9769   0.416   1.148   4.461 -0.1845  0.9303 -0.3618
    1PA    C112 9770   0.380   0.937   4.507  0.3451 -0.0632 -0.2220
    1PA    H12R 9771   0.484   0.903   4.500  1.1760  2.3411 -0.3163
    1PA    H12S 9772   0.344   0.888   4.597  0.8642  3.2677  1.9715
    1PA    C111 9773   0.297   0.914   4.371  0.3457 -0.1055 -0.3891
    1PA    H11R 9774   0.322   0.809   4.355  2.8419  0.3501  0.1223
    1PA    H11S 9775   0.188   0.921   4.379  0.5578  2.2078  1.6694
    1PA    C110 9776   0.343   1.006   4.252  0.1196  0.0375  0.4857
    1PA    H10R 9777   0.301   1.107   4.252 -0.7953 -0.1909 -3.2855
    1PA    H10S 9778   0.450   1.018   4.267  0.3809 -0.4218 -0.8592
    1PA     C19 9779   0.319   0.934   4.112 -0.4597  0.6896  0.0385
    1PA     H9R 9780   0.355   0.831   4.110 -2.1520  0.0819 -0.9029
    1PA     H9S 9781   0.212   0.923   4.096 -0.1637  1.5188 -3.2132
    1PA     C18 9782   0.377   1.011   3.996 -0.5635  0.2154  0.0367
    1PA     H8R 9783   0.484   1.021   4.012 -0.6835 -1.1294  2.0086
    1PA     H8S 9784   0.373   0.958   3.900 -0.9409  0.1427  0.0885
    1PA     C17 9785   0.331   1.155   3.988  0.8754  0.0316 -0.2227
    1PA     H7R 9786   0.222   1.160   3.996  0.8674  1.4473 -0.8875
    1PA     H7S 9787   0.379   1.205   4.073  0.8696 -0.3122 -0.0146
    1PA     C16 9788   0.386   1.230   3.871 -0.4524 -0.8784 -0.0498
    1PA     H6R 9789   0.491   1.205   3.850  0.8693  0.2353  4.1945
    1PA     H6S 9790   0.337   1.204   3.777 -0.2109 -1.2060 -0.0885
    1PA     C15 9791   0.377   1.381   3.889  0.0081 -0.0857 -0.8485
    1PA     H5R 9792   0.277   1.415   3.917 -0.3297 -0.0187 -2.0734
    1PA     H5S 9793   0.448   1.408   3.968 -0.2701  1.5887 -1.1258
    1PA     C14 9794   0.424   1.456   3.767 -0.0785 -0.1298 -0.0512
    1PA     H4R 9795   0.528   1.440   3.739  1.2792  1.1243  3.6169
    1PA     H4S 9796   0.362   1.426   3.683 -1.3766  0.0421  0.8124
    1PA     C13 9797   0.406   1.607   3.788 -0.2356 -0.7053 -0.0770
    1PA     H3R 9798   0.302   1.637   3.803  0.3034  1.5142 -0.4328
    1PA     H3S 9799   0.461   1.639   3.877  0.4191 -0.1978 -0.6590
    1PA     C12 9800   0.451   1.699   3.672  0.0210  0.5063  0.3600
    1PA     H2R 9801   0.403   1.670   3.578 -1.0596  2.0117  0.4258
    1PA     H2S 9802   0.435   1.805   3.692 -0.6109  0.5267 -0.2047
    1PC     C11 9803   0.602   1.688   3.651  0.2140  0.0681  1.0390
    1PC     O12 9804   0.683   1.716   3.739  0.2170 -0.3250 -0.4324
    1PC     O11 9805   0.631   1.646   3.528  0.0271 -0.4840  0.0986
    1PC      C1 9806   0.778   1.618   3.511 -1.0554  0.5320 -0.3461
    1PC      HR 9807   0.801   1.637   3.406  1.9548  1.3585  0.3612
    1PC      HS 9808   0.845   1.667   3.582 -2.2944  0.5736  0.8411
    1PC      C2 9809   0.809   1.461   3.522 -0.0973  0.0041 -0.2220
    1PC      HX 9810   0.912   1.449   3.486  0.1188 -0.8106  0.6365
    1PC      C3 9811   0.706   1.375   3.440  0.0004 -0.5312 -0.3989
    1PC      HA 9812   0.734   1.269   3.437 -0.2804 -0.5818 -1.7251
    1PC      HB 9813   0.607   1.368   3.487  0.4653 -1.0637  0.5397
    1PC     O31 9814   0.690   1.434   3.311  0.0027 -0.4202 -0.2821
    1PC     P31 9815   0.775   1.382   3.183 -0.1196 -0.2518 -0.0885
    1PC     O32 9816   0.709   1.242   3.160  0.1396  0.0614  0.3118
    1PC     C31 9817   0.602   1.218   3.070  1.0684 -0.0395  0.0628
    1PC     H1A 9818   0.538   1.135   3.100 -1.0917  2.1659  1.9806
    1PC     H1B 9819   0.533   1.303   3.061 -1.3814 -1.7517  1.6412
    1PC     C32 9820   0.659   1.185   2.924 -0.3000 -0.1377  0.0943
    1PC     H2A 9821   0.704   1.280   2.897  2.0254 -0.4410  2.4813
    1PC     H2B 9822   0.733   1.105   2.914  1.5718  1.4104  1.0023
    1PC     N31 9823   0.550   1.159   2.816  0.0537 -0.6125  0.0290
    1PC     C33 9824   0.619   1.172   2.680  0.4901  1.2559 -0.6786
    1PC     H3A 9825   0.698   1.097   2.681 -2.6388 -2.4452 -2.6878
    1PC     H3B 9826   0.553   1.156   2.595 -3.5692  2.2776  1.9778
    1PC     H3C 9827   0.666   1.270   2.669  1.9787  0.8131  1.2898
    1PC     C34 9828   0.489   1.032   2.840 -0.1153  0.6809 -0.1998
    1PC     H4A 9829   0.425   0.996   2.758 -2.0565  1.0596  1.0774
    1PC     H4B 9830   0.569   0.959   2.852 -0.6503 -0.4285 -2.6068
    1PC     H4C 9831   0.429   1.036   2.931  1.1684  3.7694  0.6340
    1PC     C35 9832   0.458   1.272   2.815 -0.0249 -0.4183 -0.5685
    1PC     H5A 9833   0.510   1.365   2.791  0.3621 -0.7891 -1.1965
    1PC     H5B 9834   0.411   1.264   2.913 -0.1240 -0.8709 -0.6516
    1PC     H5C 9835   0.372   1.255   2.751 -0.4116  0.5673 -0.3205
    1PC     O33 9836   0.749   1.470   3.068  0.4911 -0.0228  0.5357
    1PC     O34 9837   0.915   1.363   3.232  0.4569 -0.2753 -0.0296
    1PC     O21 9838   0.805   1.419   3.658  0.0746 -0.2151  0.3189
    1PC     C21 9839   0.908   1.431   3.730 -0.0448  0.2547 -0.9926
    1PC     O22 9840   1.022   1.445   3.697  0.1199 -0.5057  0.0659
    1OL     C12 9841   0.868   1.418   3.878  0.6656 -0.3191  0.3798
    1OL     H2R 9842   0.800   1.333   3.884  0.4756 -0.2008 -0.0766
    1OL     H2S 9843   0.803   1.503   3.900  0.0945  0.5230 -3.8728
    1OL     C13 9844   0.985   1.424   3.976 -0.0190  0.3777 -0.6274
    1OL     H3R 9845   1.044   1.334   3.957 -0.0373 -0.1261  1.4741
    1OL     H3S 9846   0.929   1.412   4.068  1.6216  0.0220  0.3724
    1OL     C14 9847   1.083   1.544   3.975 -0.0804 -0.1784  0.1574
    1OL     H4R 9848   1.031   1.640   3.975  0.7400  0.3255 -2.3070
    1OL     H4S 9849   1.143   1.541   3.884 -1.6490 -3.8799 -0.9063
    1OL     C15 9850   1.183   1.535   4.095 -0.0135  0.3212 -0.6807
    1OL     H5R 9851   1.243   1.445   4.082 -0.3677 -0.3379  1.8328
    1OL     H5S 9852   1.127   1.511   4.185 -0.0405 -1.4382 -1.1322
    1OL     C16 9853   1.289   1.646   4.116  0.7268 -0.0424 -0.2038
    1OL     H6R 9854   1.342   1.668   4.023  0.0268 -0.4980 -0.7185
    1OL     H6S 9855   1.357   1.621   4.198  1.0731  1.9211  0.1573
    1OL     C17 9856   1.223   1.780   4.153 -0.0208 -0.3317  0.1476
    1OL     H7R 9857   1.146   1.799   4.079  1.8660 -0.8835 -2.0836
    1OL     H7S 9858   1.304   1.852   4.142  0.1922 -0.5884  0.0022
    1OL     C18 9859   1.145   1.788   4.279 -0.5063 -0.6737 -0.2757
    1OL     H8R 9860   1.064   1.714   4.277  0.2797 -1.6920  1.7980
    1OL     H8S 9861   1.095   1.884   4.292 -2.8586 -1.7167 -0.9933
    1OL     C19 9862   1.229   1.752   4.401  0.4327  0.4154  0.2236
    1OL     H9R 9863   1.245   1.646   4.420  1.2442  0.3423 -0.7556
    1OL    C110 9864   1.292   1.844   4.468  0.2065  0.0328 -0.0335
    1OL    H10R 9865   1.352   1.809   4.551 -0.5651  0.0690  0.5449
    1OL    C111 9866   1.302   1.996   4.449  0.4639  0.6799 -0.3700
    1OL    H11R 9867   1.229   2.017   4.370 -2.3502 -4.4840  0.3875
    1OL    H11S 9868   1.404   2.008   4.412  1.2618  1.5278  1.9413
    1OL    C112 9869   1.275   2.075   4.580  0.2467 -0.1004  0.3518
    1OL    H12R 9870   1.283   2.180   4.551 -1.0654 -0.2424 -0.6243
    1OL    H12S 9871   1.343   2.072   4.665 -0.6115  1.2929  1.1299
    1OL    C113 9872   1.131   2.058   4.634  0.9273 -0.0150 -0.0760
    1OL    H13R 9873   1.110   1.954   4.659 -1.9484  0.3981 -0.4572
    1OL    H13S 9874   1.063   2.107   4.564 -0.2409 -0.8856  0.4306
    1OL    C114 9875   1.108   2.129   4.773  0.1588  0.2304 -0.0804
    1OL    H14R 9876   1.125   2.237   4.776 -1.0352  0.4361  0.0202
    1OL    H14S 9877   1.177   2.072   4.833  0.1979 -1.4519 -1.6351
    1OL    C115 9878   0.963   2.109   4.813  0.4145  0.0958  0.7029
    1OL    H15R 9879   0.949   2.005   4.845  1.2016  0.1878  1.4017
    1OL    H15S 9880   0.900   2.103   4.724 -1.7175 -1.0481  2.1898
    1OL    C116 9881   0.909   2.209   4.910  0.2832 -0.1244 -0.3322
    1OL    H16R 9882   0.983   2.226   4.988 -0.0432  1.7298 -0.3637
    1OL    H16S 9883   0.813   2.178   4.953 -1.1003  2.6137 -1.2080
    1OL    C117 9884   0.889   2.353   4.840 -0.2148  0.0091  0.0868
    1OL    H17R 9885   0.800   2.359   4.777  1.2020  1.3452 -1.9074
    1OL    H17S 9886   0.973   2.362   4.770  2.3157 -0.5722  2.8454
    1OL    C118 9887   0.894   2.465   4.953 -0.0198 -0.5541  0.5863
    1OL    H18R 9888   0.816   2.447   5.028  0.4030  1.4376  1.5736
    1OL    H18S 9889   0.858   2.557   4.907 -0.3453 -1.3825 -0.8679
    1OL    H18T 9890   0.994   2.461   4.998 -1.0836 -3.3197  3.0433
    1PA    C116 9891   0.250   1.941   5.045 -0.6210 -0.3427  0.3393
    1PA    H16R 9892   0.297   2.039   5.051  1.8826 -1.4113 -0.3997
    1PA    H16S 9893   0.328   1.864   5.045 -1.9114 -1.6962  0.5389
    1PA    H16T 9894   0.194   1.933   5.138 -0.1329 -1.5261  0.5623
    1PA    C115 9895   0.162   1.929   4.919 -0.7386  0.3238  0.3467
    1PA    H15R 9896   0.094   1.844   4.930 -0.1483 -0.4037 -1.2986
    1PA    H15S 9897   0.100   2.018   4.904  1.8400  2.2120  0.2485
    1PA    C114 9898   0.252   1.913   4.790  0.4153  0.7243 -0.6119
    1PA    H14R 9899   0.355   1.894   4.820 -0.1149 -1.9117 -0.2014
    1PA    H14S 9900   0.228   1.816   4.747 -0.7803 -0.7887  3.0917
    1PA    C113 9901   0.256   2.030   4.688  0.7166  0.7872  0.0367
    1PA    H13R 9902   0.320   2.002   4.605  0.3761 -1.9893  0.6135
    1PA    H13S 9903   0.153   2.044   4.654  1.0284 -0.7329 -1.6346
    1PA    C112 9904   0.313   2.169   4.735  0.6885  0.0134  0.1238
    1PA    H12R 9905   0.270   2.193   4.833 -1.3078  0.4896 -0.8128
    1PA    H12S 9906   0.421   2.160   4.745  0.5303 -0.8190  1.4694
    1PA    C111 9907   0.282   2.292   4.646  0.1409  0.1689  0.1884
    1PA    H11R 9908   0.177   2.296   4.616  0.4590  2.0018 -0.8561
    1PA    H11S 9909   0.306   2.380   4.706  0.7395  0.7610 -0.8695
    1PA    C110 9910   0.355   2.293   4.514 -0.2200  0.1879  0.7070
    1PA    H10R 9911   0.326   2.204   4.457 -0.7100  1.7850 -1.6788
    1PA    H10S 9912   0.318   2.377   4.455  1.2246  0.2246 -0.2156
    1PA     C19 9913   0.513   2.297   4.525  0.6371  0.1639 -0.0486
    1PA     H9R 9914   0.544   2.392   4.569 -0.4454 -0.5528  2.4334
    1PA     H9S 9915   0.540   2.220   4.597 -1.3857  0.1564  0.7766
    1PA     C18 9916   0.584   2.270   4.389  0.1682 -0.0025 -0.3095
    1PA     H8R 9917   0.569   2.165   4.364 -1.8285  0.2549 -0.4242
    1PA     H8S 9918   0.527   2.339   4.326  0.6347  1.0417  0.3899
    1PA     C17 9919   0.737   2.299   4.398 -0.0076 -0.3210 -0.9519
    1PA     H7R 9920   0.748   2.403   4.432 -2.9756  0.2603 -1.4898
    1PA     H7S 9921   0.778   2.229   4.471 -0.1041  0.3347 -0.2520
    1PA     C16 9922   0.805   2.283   4.262 -0.8518  0.4542  0.4612
    1PA     H6R 9923   0.911   2.296   4.285 -0.9550  0.4439  0.9574
    1PA     H6S 9924   0.795   2.177   4.238 -3.0120  0.7146  0.0020
    1PA     C15 9925   0.754   2.383   4.154  1.1814 -0.3338 -0.8205
    1PA     H5R 9926   0.664   2.341   4.108  1.2640  0.7608 -2.0600
    1PA     H5S 9927   0.741   2.477   4.209  2.2694 -0.4155 -0.4083
    1PA     C14 9928   0.853   2.403   4.041 -0.7407  0.0337  0.0896
    1PA     H4R 9929   0.949   2.438   4.078  0.6777 -1.6197 -1.7893
    1PA     H4S 9930   0.880   2.307   3.996 -0.6013  0.7767 -1.4733
    1PA     C13 9931   0.797   2.497   3.932 -0.1658  0.2337  0.3534
    1PA     H3R 9932   0.808   2.598   3.970 -0.8542 -0.2878  2.0336
    1PA     H3S 9933   0.863   2.496   3.845 -0.1941  0.8648  0.3245
    1PA     C12 9934   0.648   2.506   3.877 -0.3485 -0.5120 -0.3355
    1PA     H2R 9935   0.617   2.415   3.825  2.3120 -1.4566 -0.4004
    1PA     H2S 9936   0.575   2.529   3.955 -0.0898  0.3041 -0.3224
    1PC     C11 9937   0.657   2.621   3.780  0.6944 -0.4595  0.8926
    1PC     O12 9938   0.715   2.620   3.676 -0.9037  0.8331  0.6217
    1PC     O11 9939   0.614   2.737   3.829  1.0989  0.3035  0.1900
    1PC      C1 9940   0.647   2.863   3.765 -0.6982  0.1371  0.0883
    1PC      HR 9941   0.646   2.942   3.840  0.6423  1.5723 -1.3208
    1PC      HS 9942   0.749   2.859   3.727  0.4450  0.3214  2.9230
    1PC      C2 9943   0.540   2.912   3.660 -0.0148  0.2480  0.0835
    1PC      HX 9944   0.504   2.823   3.609 -1.0097 -2.0268  4.2837
    1PC      C3 9945   0.588   3.034   3.582 -0.6582 -0.7330  0.1174
    1PC      HA 9946   0.622   3.118   3.644  0.4991  0.2441 -1.7557
    1PC      HB 9947   0.677   3.001   3.528 -0.1868  0.2100  0.2995
    1PC     O31 9948   0.488   3.092   3.495  0.5200  0.1200 -0.3758
    1PC     P31 9949   0.478   3.067   3.331 -0.2114  0.5407 -0.3744
    1PC     O32 9950   0.565   3.181   3.264  0.0412 -0.7317 -0.0749
    1PC     C31 9951   0.699   3.148   3.194 -0.3435  0.6158 -0.8915
    1PC     H1A 9952   0.759   3.087   3.262 -0.7699 -0.4628 -1.4592
    1PC     H1B 9953   0.675   3.096   3.102  0.8480 -1.7253  0.0455
    1PC     C32 9954   0.769   3.281   3.180 -0.7564 -0.8519  0.2996
    1PC     H2A 9955   0.843   3.285   3.099  0.2803 -1.0174  1.2147
    1PC     H2B 9956   0.691   3.355   3.167  0.8436  1.3434  2.3792
    1PC     N31 9957   0.865   3.329   3.283 -0.9095 -0.3835  0.8813
    1PC     C33 9958   0.997   3.271   3.261 -0.3206  0.3538 -0.4407
    1PC     H3A 9959   1.070   3.303   3.335  1.1286 -1.0051 -1.2222
    1PC     H3B 9960   0.979   3.164   3.266 -0.3637  0.3725 -0.2115
    1PC     H3C 9961   1.035   3.305   3.164  0.1870 -0.9262 -0.7139
    1PC     C34 9962   0.880   3.474   3.269 -0.0927 -0.0056  0.4025
    1PC     H4A 9963   0.919   3.514   3.362  1.5717 -2.1147  0.6628
    1PC     H4B 9964   0.943   3.481   3.180  0.2938 -2.2730  0.4393
    1PC     H4C 9965   0.787   3.521   3.234 -0.0643 -0.4264 -0.2649
    1PC     C35 9966   0.830   3.304   3.418 -0.1796 -0.2236  0.3340
    1PC     H5A 9967   0.739   3.363   3.424 -0.1903 -0.1037 -0.9337
    1PC     H5B 9968   0.909   3.355   3.473 -0.1359 -0.2539  0.2990
    1PC     H5C 9969   0.819   3.199   3.447  3.6129 -0.3099  2.0710
    1PC     O33 9970   0.543   2.933   3.320 -0.5706  0.1711  0.5643
    1PC     O34 9971   0.334   3.073   3.301 -0.5976  0.3181  0.1124
    1PC     O21 9972   0.431   2.959   3.746  0.4975  0.1690  0.7317
    1PC     C21 9973   0.306   2.955   3.693  0.4555  0.4190  1.0470
    1PC     O22 9974   0.275   2.918   3.581  0.5686 -0.5948  0.1118
    1OL     C12 9975   0.199   2.987   3.786 -0.2235 -0.1246 -0.2411
    1OL     H2R 9976   0.175   3.093   3.770 -0.0274 -0.0737 -0.1981
    1OL     H2S 9977   0.229   2.992   3.891 -0.9283  1.6024 -0.0832
    1OL     C13 9978   0.078   2.900   3.772  0.1315 -0.0984 -0.6155
    1OL     H3R 9979   0.099   2.794   3.757  0.1592 -0.2462  0.3847
    1OL     H3S 9980   0.030   2.927   3.678  0.3185  1.0531 -0.3880
    1OL     C14 9981  -0.028   2.923   3.884  0.2363 -0.0039  0.1753
    1OL     H4R 9982   0.013   2.892   3.980 -1.4521 -1.6507  0.4260
    1OL     H4S 9983  -0.111   2.863   3.846 -0.3711 -0.4772  2.1580
    1OL     C15 9984  -0.056   3.080   3.888 -0.4453  0.0594  0.2653
    1OL     H5R 9985  -0.053   3.131   3.791 -0.0122  1.4489  0.9750
    1OL     H5S 9986   0.029   3.121   3.942  0.3935 -2.0052  0.5675
    1OL     C16 9987  -0.191   3.118   3.954  0.0196  1.2137  0.1188
    1OL     H6R 9988  -0.275   3.079   3.896  2.1490 -1.5436 -1.3231
    1OL     H6S 9989  -0.201   3.227   3.955 -0.6390  1.1693  1.3137
    1OL     C17 9990  -0.205   3.082   4.106 -0.0735  0.1328  0.1790
    1OL     H7R 9991  -0.214   2.975   4.124  0.8390  0.0709  0.3135
    1OL     H7S 9992  -0.302   3.119   4.140 -0.9443 -2.1833  0.4006
    1OL     C18 9993  -0.088   3.129   4.192  0.6533 -0.0208  0.2097
    1OL     H8R 9994  -0.073   3.236   4.176  0.6768  0.3035  2.1014
    1OL     H8S 9995   0.009   3.088   4.164  1.5414  0.3425  2.5046
    1OL     C19 9996  -0.122   3.104   4.343  0.0070 -0.7664  1.1462
    1OL     H9R 9997  -0.167   3.188   4.395  2.9056  1.3010  0.5253
    1OL    C110 9998  -0.085   3.005   4.426 -0.5488  0.3681 -0.2842
    1OL    H10R 9999  -0.113   3.009   4.531  1.9798  1.2392  0.4406
    1OL    C11110000   0.004   2.890   4.382 -0.1086  0.1237 -0.0566
    1OL    H11R10001   0.101   2.901   4.431 -0.4473  0.2482  0.5928
    1OL    H11S10002   0.017   2.905   4.274  1.0792 -1.2436 -0.1425
    1OL    C11210003  -0.062   2.756   4.406 -0.3469  0.5523 -0.0612
    1OL    H12R10004  -0.164   2.753   4.368  0.6366  2.1873 -3.1874
    1OL    H12S10005  -0.069   2.735   4.513  0.4957 -0.5517 -0.2089
    1OL    C11310006   0.015   2.637   4.343  0.1054  1.1208  0.0155
    1OL    H13R10007   0.120   2.626   4.369  0.8171  2.1237 -2.1808
    1OL    H13S10008   0.017   2.648   4.234 -0.9725  1.3522  0.0097
    1OL    C11410009  -0.052   2.497   4.354  0.3040 -0.3970  0.1987
    1OL    H14R10010  -0.002   2.443   4.435  0.3084 -0.3663  0.2165
    1OL    H14S10011  -0.037   2.444   4.260 -0.2851  0.4647 -0.3984
    1OL    C11510012  -0.208   2.495   4.374  0.1550 -0.4543 -0.3556
    1OL    H15R10013  -0.261   2.544   4.292  0.2703 -2.9106 -2.0048
    1OL    H15S10014  -0.242   2.562   4.454  2.2229  1.0873 -0.7070
    1OL    C11610015  -0.267   2.356   4.402  0.1946  0.3158 -0.2327
    1OL    H16R10016  -0.193   2.302   4.462  0.2096  1.5043  0.8762
    1OL    H16S10017  -0.278   2.300   4.309 -1.9370 -0.5157  0.4683
    1OL    C11710018  -0.400   2.366   4.484  0.2173 -0.1561 -0.4150
    1OL    H17R10019  -0.473   2.400   4.411 -0.7741  0.6255  0.8897
    1OL    H17S10020  -0.403   2.436   4.568  0.8148 -0.9269  0.2694
    1OL    C11810021  -0.446   2.235   4.539  0.7615  0.1554 -0.1203
    1OL    H18R10022  -0.433   2.161   4.460  1.1594  1.4101 -1.2574
    1OL    H18S10023  -0.547   2.233   4.582  1.5324  0.3018  1.8137
    1OL    H18T10024  -0.380   2.202   4.620 -0.5699 -1.9563  0.1665
    1PA    C11610025   2.404   4.342   4.885  0.0755  0.2078 -0.4758
    1PA    H16R10026   2.432   4.239   4.910  0.9063  0.7355  0.8765
    1PA    H16S10027   2.300   4.366   4.907 -0.1303 -0.2981 -0.8553
    1PA    H16T10028   2.469   4.405   4.944 -1.0442 -0.1695  1.2208
    1PA    C11510029   2.432   4.367   4.737  0.4912  0.4903 -0.2750
    1PA    H15R10030   2.416   4.472   4.713  0.9764  0.4209 -0.9396
    1PA    H15S10031   2.536   4.347   4.708  0.9276 -1.8813  2.4497
    1PA    C11410032   2.328   4.282   4.665  0.2135 -0.3731  0.1209
    1PA    H14R10033   2.352   4.176   4.675  0.4900 -0.6499 -2.7297
    1PA    H14S10034   2.227   4.304   4.701  0.0860  0.1039 -0.5083
    1PA    C11310035   2.340   4.317   4.515 -0.1949 -0.7406 -0.7045
    1PA    H13R10036   2.385   4.416   4.503 -0.4328 -0.3477  1.2982
    1PA    H13S10037   2.420   4.255   4.475 -1.2086 -0.4993 -3.3234
    1PA    C11210038   2.202   4.296   4.440  0.1659 -0.4542 -0.1207
    1PA    H12R10039   2.127   4.355   4.494 -0.7189 -0.3861 -1.3866
    1PA    H12S10040   2.200   4.344   4.342  4.3197  0.5834  0.1064
    1PA    C11110041   2.176   4.143   4.444  0.4353  1.1683  0.0711
    1PA    H11R10042   2.257   4.097   4.386 -1.1558 -0.0666 -1.3014
    1PA    H11S10043   2.182   4.104   4.546 -0.8799  0.4053 -0.1208
    1PA    C11010044   2.041   4.091   4.383 -1.1117  0.2202  0.5030
    1PA    H10R10045   2.050   3.984   4.364  0.2134  0.3440  0.3122
    1PA    H10S10046   1.961   4.094   4.458 -0.1028 -1.1385  1.7037
    1PA     C1910047   2.006   4.150   4.249  0.9633  0.0203  0.5451
    1PA     H9R10048   1.955   4.245   4.263 -0.3162 -0.8442  2.0208
    1PA     H9S10049   2.100   4.168   4.197  2.0972 -1.3541  1.9962
    1PA     C1810050   1.908   4.071   4.160 -0.3887 -1.0104 -0.4764
    1PA     H8R10051   1.954   3.972   4.150 -0.0157 -1.1531  2.0909
    1PA     H8S10052   1.810   4.060   4.206 -1.4785  1.3749 -2.0108
    1PA     C1710053   1.893   4.134   4.017  0.2306  0.5387  0.1145
    1PA     H7R10054   1.844   4.232   4.017  0.0507  0.4861  1.9597
    1PA     H7S10055   1.993   4.148   3.976 -0.0228 -2.5974 -1.9321
    1PA     C1610056   1.822   4.046   3.915 -0.0190 -0.1690  0.0493
    1PA     H6R10057   1.828   4.101   3.821 -2.1228  0.5328  0.2737
    1PA     H6S10058   1.878   3.953   3.902 -1.8902 -1.8768  3.0462
    1PA     C1510059   1.673   4.020   3.936  0.8822  0.7410  0.1128
    1PA     H5R10060   1.664   3.987   4.039  2.7638  1.1591  0.4537
    1PA     H5S10061   1.620   4.115   3.927 -0.5837  0.0058  0.5930
    1PA     C1410062   1.620   3.909   3.840  0.0275  0.7548 -0.4754
    1PA     H4R10063   1.690   3.825   3.836 -2.0012 -1.0939  0.3976
    1PA     H4S10064   1.527   3.870   3.882  0.1742 -0.5316 -1.2643
    1PA     C1310065   1.598   3.953   3.695  0.1955 -0.3247 -0.2495
    1PA     H3R10066   1.693   3.997   3.665 -0.4530  0.2701 -1.4979
    1PA     H3S10067   1.576   3.872   3.625 -1.8109  0.7025 -0.9071
    1PA     C1210068   1.500   4.074   3.659 -0.7294  0.4347  0.0343
    1PA     H2R10069   1.404   4.064   3.711 -0.3413 -0.8205  0.5573
    1PA     H2S10070   1.539   4.170   3.693  1.0595 -0.6985  1.3909
    1PC     C1110071   1.475   4.074   3.510  0.2368 -0.1889  0.3233
    1PC     O1210072   1.537   4.140   3.426  0.0139 -0.8059 -0.0928
    1PC     O1110073   1.372   3.997   3.476 -0.3404 -0.0805 -0.7680
    1PC      C110074   1.343   3.996   3.335  0.5405 -0.1881 -0.8063
    1PC      HR10075   1.339   4.099   3.299 -0.4355 -0.0324 -0.2734
    1PC      HS10076   1.424   3.942   3.283  0.6153  0.5867 -1.5224
    1PC      C210077   1.207   3.923   3.323 -0.0847 -0.1365  0.3754
    1PC      HX10078   1.225   3.816   3.340 -1.6570 -0.8065 -1.7871
    1PC      C310079   1.148   3.926   3.181 -0.4591 -0.9279  0.6072
    1PC      HA10080   1.122   3.828   3.140 -0.0337 -1.0189  0.5479
    1PC      HB10081   1.053   3.979   3.187 -0.2145 -0.4929  0.6758
    1PC     O3110082   1.244   3.980   3.084 -0.4892 -0.2840  0.0816
    1PC     P3110083   1.204   4.035   2.940 -0.0489 -0.1221 -0.0088
    1PC     O3210084   1.202   4.194   2.964 -0.4519 -0.2331  0.0594
    1PC     C3110085   1.093   4.251   3.036  0.0415  0.2682 -0.4189
    1PC     H1A10086   1.073   4.344   2.983 -0.1766 -1.1795 -3.0418
    1PC     H1B10087   1.008   4.183   3.024  1.2264 -1.0297 -1.9179
    1PC     C3210088   1.128   4.291   3.181 -0.0629  0.1142 -0.0347
    1PC     H2A10089   1.159   4.200   3.233 -1.3632 -1.7988 -2.4222
    1PC     H2B10090   1.196   4.376   3.191 -0.8890  0.6637  1.1851
    1PC     N3110091   1.018   4.328   3.272 -0.2123  0.4293  0.0237
    1PC     C3310092   0.960   4.459   3.230  0.0807 -0.0262 -0.3736
    1PC     H3A10093   0.870   4.475   3.289  0.0517  2.2757 -0.9569
    1PC     H3B10094   1.028   4.544   3.236 -1.8707  1.6206 -0.5680
    1PC     H3C10095   0.930   4.453   3.125  0.6913 -0.4231 -0.5339
    1PC     C3410096   0.907   4.213   3.276 -0.2034 -0.5003  0.4285
    1PC     H4A10097   0.963   4.125   3.307  2.0762  0.6728 -0.1726
    1PC     H4B10098   0.823   4.248   3.337 -0.5025  0.9043 -0.7343
    1PC     H4C10099   0.880   4.201   3.171  0.8126 -1.1583  0.2338
    1PC     C3510100   1.072   4.340   3.407 -0.0656 -0.0394 -0.0136
    1PC     H5A10101   1.148   4.262   3.420 -1.1462 -1.3750 -1.3979
    1PC     H5B10102   0.987   4.334   3.475 -0.7459 -0.5070 -0.8772
    1PC     H5C10103   1.119   4.437   3.422  0.0019 -0.3788  2.3501
    1PC     O3310104   1.326   4.005   2.852  0.1864 -0.0802 -0.0659
    1PC     O3410105   1.066   3.993   2.899 -0.2233  0.6257  0.2302
    1PC     O2110106   1.110   3.976   3.414  0.3749  0.1847  0.1755
    1PC     C2110107   1.050   3.898   3.503  0.2199  0.3551 -0.1871
    1PC     O2210108   1.080   3.788   3.536  0.0730 -0.5248 -0.1115
    1OL     C1210109   0.936   3.958   3.579  0.1677 -0.7047  0.2184
    1OL     H2R10110   0.899   3.883   3.649 -1.7428 -1.8985 -1.9639
    1OL     H2S10111   0.855   3.982   3.510  0.8195  0.7056 -0.0990
    1OL     C1310112   0.980   4.080   3.655  0.4482 -0.4698  0.5166
    1OL     H3R10113   0.888   4.115   3.702  0.1724 -2.5325  1.5988
    1OL     H3S10114   1.007   4.158   3.583 -0.6690 -0.4462  0.1036
    1OL     C1410115   1.083   4.057   3.758 -0.4068 -0.2575  0.1914
    1OL     H4R10116   1.172   4.009   3.715 -0.3159 -0.2892  0.4111
    1OL     H4S10117   1.048   3.981   3.828 -0.0445 -2.2021 -1.6213
    1OL     C1510118   1.126   4.190   3.833  0.2322  0.6030 -0.3233
    1OL     H5R10119   1.045   4.227   3.896  1.7965 -0.2513  2.3749
    1OL     H5S10120   1.149   4.257   3.749 -0.7016 -1.4600 -2.3067
    1OL     C1610121   1.243   4.181   3.928  0.2908 -0.6468  1.0913
    1OL     H6R10122   1.272   4.280   3.965  0.8823 -0.0903 -0.7422
    1OL     H6S10123   1.331   4.146   3.873 -1.0415 -0.9914 -0.9012
    1OL     C1710124   1.222   4.083   4.041  0.0270 -0.0726  0.4483
    1OL     H7R10125   1.190   3.988   3.998  1.1278 -0.6861  0.9203
    1OL     H7S10126   1.138   4.105   4.107 -1.5490 -2.1742 -0.7622
    1OL     C1810127   1.342   4.061   4.123  0.1074 -0.0928 -0.2112
    1OL     H8R10128   1.433   4.032   4.069  2.5430  1.1847  2.9326
    1OL     H8S10129   1.309   3.982   4.191  1.8100 -1.1251 -0.5166
    1OL     C1910130   1.378   4.185   4.200 -0.1727 -0.2262  0.6599
    1OL     H9R10131   1.371   4.275   4.139  0.8955  0.1163  1.0241
    1OL    C11010132   1.431   4.199   4.323 -0.0493  0.5904 -0.2759
    1OL    H10R10133   1.458   4.298   4.359 -1.0712  0.6322  0.4150
    1OL    C11110134   1.453   4.093   4.424  0.0429 -0.5792 -0.2485
    1OL    H11R10135   1.560   4.076   4.442  0.3020  0.2145 -0.9724
    1OL    H11S10136   1.410   3.994   4.407  0.4977 -1.0060  0.9387
    1OL    C11210137   1.395   4.140   4.561 -0.2443 -0.1236  0.4098
    1OL    H12R10138   1.287   4.129   4.553 -0.5462  2.7414 -0.7088
    1OL    H12S10139   1.420   4.246   4.564 -1.8996  0.3383 -0.6573
    1OL    C11310140   1.469   4.058   4.677  0.1590  0.4642  0.3424
    1OL    H13R10141   1.575   4.077   4.695  0.3056 -1.0451  1.2800
    1OL    H13S10142   1.461   3.952   4.653  1.3568  0.5177 -0.3331
    1OL    C11410143   1.415   4.093   4.821 -0.8933  0.3759 -0.4221
    1OL    H14R10144   1.476   4.036   4.890 -1.8961  0.4166  0.5225
    1OL    H14S10145   1.311   4.060   4.824 -1.0678  0.9812  0.6623
    1OL    C11510146   1.425   4.239   4.871  0.1548  0.0929 -0.2343
    1OL    H15R10147   1.380   4.315   4.807  0.8565 -0.0479 -0.9110
    1OL    H15S10148   1.530   4.263   4.857 -0.3641  2.4185 -0.5562
    1OL    C11610149   1.374   4.259   5.016 -0.5289 -0.0475  0.3466
    1OL    H16R10150   1.416   4.189   5.089  0.2527  1.8812  1.8089
    1OL    H16S10151   1.270   4.228   5.010 -0.3795 -0.4773 -0.1524
    1OL    C11710152   1.389   4.397   5.075  0.0377 -0.6881  0.3706
    1OL    H17R10153   1.486   4.439   5.050  0.6471 -1.4826  1.3427
    1OL    H17S10154   1.397   4.384   5.183 -0.4113 -1.4747  0.3160
    1OL    C11810155   1.278   4.494   5.035 -0.7090  0.0739  0.0264
    1OL    H18R10156   1.175   4.461   5.054 -0.7935 -0.1977 -0.8243
    1OL    H18S10157   1.288   4.514   4.928 -0.3388 -4.0299 -0.8617
    1OL    H18T10158   1.287   4.590   5.086 -2.1704  0.4907 -0.4359
    1PA    C11610159   4.832   4.456   4.866  0.1918  0.0308  0.3345
    1PA    H16R10160   4.745   4.411   4.914  0.6788  0.6585  1.8976
    1PA    H16S10161   4.798   4.523   4.787 -2.7425  0.1631  1.5702
    1PA    H16T10162   4.884   4.516   4.942 -0.5729 -0.2798  1.1174
    1PA    C11510163   4.932   4.358   4.805 -0.7209  0.6172 -0.6130
    1PA    H15R10164   5.022   4.410   4.773 -1.0389  0.7433 -1.3274
    1PA    H15S10165   4.969   4.290   4.882 -0.9652 -2.0927 -2.7186
    1PA    C11410166   4.871   4.274   4.689  0.2314  0.3003 -0.4707
    1PA    H14R10167   4.781   4.216   4.713  0.5105 -0.6961 -1.6992
    1PA    H14S10168   4.840   4.344   4.611  0.3812  1.5738  0.5912
    1PA    C11310169   4.972   4.172   4.629 -0.3758  0.0650  0.1690
    1PA    H13R10170   4.990   4.103   4.711  0.6924  0.1436  0.0130
    1PA    H13S10171   4.928   4.120   4.543 -2.4519  1.2731  0.4268
    1PA    C11210172   5.105   4.234   4.576 -0.0050 -0.1443 -0.1982
    1PA    H12R10173   5.086   4.308   4.499  1.5922 -0.4979 -0.9790
    1PA    H12S10174   5.161   4.287   4.654 -1.3777  0.0544  0.6852
    1PA    C11110175   5.179   4.112   4.517  0.0623 -0.8795  0.8874
    1PA    H11R10176   5.216   4.050   4.600  1.8276  0.1609  0.9326
    1PA    H11S10177   5.116   4.055   4.449  0.6497 -0.4800 -0.0007
    1PA    C11010178   5.303   4.162   4.439 -0.1128  0.0518  0.9707
    1PA    H10R10179   5.280   4.241   4.366  0.5690  0.4747  1.2039
    1PA    H10S10180   5.367   4.210   4.513  0.1603 -0.1844  0.8887
    1PA     C1910181   5.378   4.042   4.375  0.7812 -0.7276 -0.5001
    1PA     H9R10182   5.484   4.065   4.360  0.7072 -0.3424 -0.4578
    1PA     H9S10183   5.369   3.956   4.442 -0.0906 -0.9631 -0.9020
    1PA     C1810184   5.302   3.998   4.244  0.1035  0.1133 -0.0370
    1PA     H8R10185   5.335   3.898   4.214 -0.8071 -1.1694  2.8159
    1PA     H8S10186   5.197   3.985   4.272 -0.1518  2.2648  0.1539
    1PA     C1710187   5.312   4.099   4.132  0.2117  0.5941 -0.1193
    1PA     H7R10188   5.255   4.184   4.169 -2.0748 -0.3169 -1.3899
    1PA     H7S10189   5.418   4.120   4.118  0.5511  0.0886  1.4312
    1PA     C1610190   5.251   4.053   3.995  0.2966 -0.4651 -0.5056
    1PA     H6R10191   5.145   4.029   4.001  0.3097 -0.1647  2.9963
    1PA     H6S10192   5.244   4.143   3.932  0.0477 -0.2397 -0.1563
    1PA     C1510193   5.333   3.946   3.934  0.4562 -0.3958 -0.0841
    1PA     H5R10194   5.434   3.983   3.917  0.8575 -2.0620 -1.6697
    1PA     H5S10195   5.330   3.867   4.010 -0.0049 -0.3153 -0.0162
    1PA     C1410196   5.273   3.893   3.796 -0.3044 -0.3195 -0.7901
    1PA     H4R10197   5.272   3.974   3.723 -3.4594 -1.3518 -2.0746
    1PA     H4S10198   5.342   3.817   3.760 -0.3967 -0.2217 -1.1717
    1PA     C1310199   5.130   3.825   3.806  0.3763  0.0329  0.0076
    1PA     H3R10200   5.142   3.732   3.862  1.0139 -0.0340 -0.2339
    1PA     H3S10201   5.061   3.900   3.846 -0.7954 -0.3300 -1.2539
    1PA     C1210202   5.078   3.798   3.667 -0.7306 -0.2148 -0.6900
    1PA     H2R10203   5.097   3.884   3.601  0.4644  0.5292  0.5782
    1PA     H2S10204   5.144   3.721   3.626  0.7363  1.6613 -2.0304
    1PC     C1110205   4.937   3.740   3.668  0.0712  0.5264 -0.1248
    1PC     O1210206   4.873   3.729   3.771 -0.1007 -0.0353  0.0214
    1PC     O1110207   4.895   3.696   3.551  0.2616  0.0105 -0.6353
    1PC      C110208   4.746   3.683   3.535 -0.0184 -0.0220  0.1763
    1PC      HR10209   4.729   3.601   3.466 -4.1243  0.0078  0.8479
    1PC      HS10210   4.701   3.658   3.632 -1.0909  3.0938  0.6102
    1PC      C210211   4.687   3.815   3.473 -1.1605 -0.0000 -0.2922
    1PC      HX10212   4.580   3.800   3.461 -1.2560 -0.8141  1.2953
    1PC      C310213   4.743   3.840   3.330  0.2267  0.5793  0.3522
    1PC      HA10214   4.728   3.751   3.269 -2.3796  0.3051  1.2685
    1PC      HB10215   4.688   3.926   3.290 -1.0719  0.8834  2.6538
    1PC     O3110216   4.887   3.864   3.338  0.5333  0.3549  0.2999
    1PC     P3110217   4.970   3.951   3.231 -0.0530  0.0260  0.4483
    1PC     O3210218   4.886   4.083   3.226 -0.8435  0.4573 -0.3894
    1PC     C3110219   4.895   4.173   3.338  0.6818 -0.9135 -0.1636
    1PC     H1A10220   4.858   4.111   3.420  1.3462 -2.5418 -1.0478
    1PC     H1B10221   4.996   4.212   3.350  0.6080 -0.6058 -0.5403
    1PC     C3210222   4.790   4.277   3.317 -0.6685  0.6628 -0.3587
    1PC     H2A10223   4.800   4.331   3.223 -1.3283  0.0954 -0.7669
    1PC     H2B10224   4.692   4.231   3.303 -0.1327  0.1708 -2.9716
    1PC     N3110225   4.782   4.375   3.431  0.5924 -0.1949  0.4758
    1PC     C3310226   4.749   4.304   3.561 -0.5499 -0.4234 -0.0321
    1PC     H3A10227   4.759   4.383   3.636  0.1810  0.6207 -1.1804
    1PC     H3B10228   4.647   4.271   3.542  0.4751 -2.1331 -3.5318
    1PC     H3C10229   4.826   4.230   3.579  0.6083  0.6214 -0.5479
    1PC     C3410230   4.906   4.439   3.448  0.1119 -0.6068 -0.0430
    1PC     H4A10231   4.890   4.506   3.532 -0.7257 -1.2359  0.3174
    1PC     H4B10232   4.985   4.372   3.482 -1.2203 -2.2175  0.0285
    1PC     H4C10233   4.940   4.491   3.358  1.1392  0.9785  1.2036
    1PC     C3510234   4.662   4.457   3.398 -0.0067 -0.4818  0.3214
    1PC     H5A10235   4.648   4.525   3.481  1.6783 -1.2360  1.2675
    1PC     H5B10236   4.592   4.373   3.399 -0.7135  0.1086  0.8188
    1PC     H5C10237   4.660   4.497   3.296  3.0657 -0.5047  0.1649
    1PC     O3310238   5.109   3.980   3.278 -0.3822 -0.1930 -0.0009
    1PC     O3410239   4.961   3.877   3.104  0.4915 -0.3466  0.3385
    1PC     O2110240   4.718   3.927   3.571  0.1050 -0.0701  0.2791
    1PC     C2110241   4.637   3.935   3.681  0.2483  0.0842  0.3375
    1PC     O2210242   4.547   3.855   3.700 -0.1069  0.4878 -0.2558
    1OL     C1210243   4.675   4.048   3.772  0.1973  0.3516  0.0519
    1OL     H2R10244   4.585   4.110   3.768  0.2579  0.3817 -2.6454
    1OL     H2S10245   4.761   4.108   3.743 -0.1980  1.2755  0.7335
    1OL     C1310246   4.698   3.990   3.910  0.0131 -0.6012  0.7334
    1OL     H3R10247   4.776   3.914   3.905  0.0019 -0.5345 -1.2178
    1OL     H3S10248   4.604   3.944   3.940 -0.5649  0.0610 -0.0305
    1OL     C1410249   4.750   4.094   4.011 -0.4428 -0.1159 -0.2160
    1OL     H4R10250   4.693   4.186   3.998 -1.9828 -1.2217 -1.6985
    1OL     H4S10251   4.857   4.109   3.994 -0.3226 -0.7337 -0.0152
    1OL     C1510252   4.724   4.049   4.152 -0.4149 -0.4583 -0.2276
    1OL     H5R10253   4.615   4.045   4.159 -0.4950 -0.1274 -1.2532
    1OL     H5S10254   4.767   4.132   4.209 -0.4516 -0.9518  0.5451
    1OL     C1610255   4.779   3.909   4.191  0.2616 -0.2085  0.8299
    1OL     H6R10256   4.744   3.835   4.118  0.4082  1.7008 -1.2911
    1OL     H6S10257   4.743   3.876   4.289  1.2277  1.2433  1.7251
    1OL     C1710258   4.926   3.886   4.190 -0.2541 -0.2091 -0.4227
    1OL     H7R10259   4.972   3.958   4.259 -1.1264  0.6446 -0.6978
    1OL     H7S10260   4.962   3.923   4.093  0.3081 -0.8669 -0.4746
    1OL     C1810261   4.960   3.749   4.228 -0.7755  0.6608  0.3310
    1OL     H8R10262   4.904   3.678   4.167 -0.0463  0.3162  0.0478
    1OL     H8S10263   4.942   3.725   4.333 -0.4875  1.8951  0.6759
    1OL     C1910264   5.100   3.714   4.187 -0.1014  0.5153 -0.4813
    1OL     H9R10265   5.109   3.730   4.080 -0.1028  3.0542 -0.1541
    1OL    C11010266   5.189   3.651   4.260 -0.1615  0.1972 -1.1605
    1OL    H10R10267   5.271   3.603   4.207  0.3913  1.0891 -1.1355
    1OL    C11110268   5.168   3.608   4.403  0.1047 -0.4387 -0.0905
    1OL    H11R10269   5.220   3.514   4.422 -0.0084 -0.4997 -0.0844
    1OL    H11S10270   5.064   3.579   4.420 -0.8104  2.9326  0.7245
    1OL    C11210271   5.205   3.707   4.514 -0.2674 -0.6887  0.4783
    1OL    H12R10272   5.151   3.800   4.496 -0.2898 -0.7224  0.3702
    1OL    H12S10273   5.311   3.726   4.533 -0.6192  1.7751  0.3215
    1OL    C11310274   5.150   3.661   4.647  0.0545  0.8565 -0.5552
    1OL    H13R10275   5.216   3.588   4.694  1.1517  1.8330 -0.5390
    1OL    H13S10276   5.049   3.620   4.650  0.4887 -0.1910  0.6135
    1OL    C11410277   5.146   3.780   4.743  0.1007 -0.3556  0.1794
    1OL    H14R10278   5.085   3.857   4.696  0.8599 -0.4116 -0.9160
    1OL    H14S10279   5.247   3.822   4.743 -0.1065  0.1607 -0.5995
    1OL    C11510280   5.086   3.752   4.881 -0.6308 -0.0575 -0.3202
    1OL    H15R10281   4.980   3.728   4.885 -0.8301  0.8939  0.6499
    1OL    H15S10282   5.104   3.848   4.931 -1.4312 -0.8757  1.6561
    1OL    C11610283   5.167   3.642   4.968  0.2180 -0.1302 -0.5727
    1OL    H16R10284   5.267   3.684   4.981  0.0844 -0.3463  1.4442
    1OL    H16S10285   5.171   3.543   4.922  0.5809 -0.1041 -0.6001
    1OL    C11710286   5.110   3.611   5.108 -0.5406  0.3761  0.7294
    1OL    H17R10287   5.001   3.607   5.095 -0.4933  2.5105 -0.9094
    1OL    H17S10288   5.133   3.689   5.180  3.1679 -1.2673  1.5350
    1OL    C11810289   5.159   3.482   5.174  0.1617  0.3869 -0.4211
    1OL    H18R10290   5.268   3.479   5.182  0.1808 -0.1822 -0.7813
    1OL    H18S10291   5.133   3.390   5.121  1.9285 -1.0676  1.1287
    1OL    H18T10292   5.119   3.471   5.275  1.2146  4.5697  0.6398
    1PA    C11610293   2.682   3.674   4.171 -0.2425  0.0807 -0.2698
    1PA    H16R10294   2.660   3.598   4.096 -0.1475  0.6167 -0.8521
    1PA    H16S10295   2.645   3.633   4.266  0.6317 -2.2341 -0.8537
    1PA    H16T10296   2.790   3.689   4.178 -0.0989 -1.0753  0.2877
    1PA    C11510297   2.607   3.806   4.144  0.9157 -0.2679  0.6208
    1PA    H15R10298   2.643   3.856   4.054 -0.9965  2.5267  1.2677
    1PA    H15S10299   2.501   3.789   4.123  0.2997  2.3279  1.2814
    1PA    C11410300   2.605   3.909   4.252 -0.1641  0.1946 -0.2755
    1PA    H14R10301   2.569   3.868   4.347  1.3885 -0.9814 -0.1716
    1PA    H14S10302   2.701   3.954   4.278 -0.8286 -0.1934  3.3956
    1PA    C11310303   2.501   4.018   4.212  0.0910  0.7897 -0.2548
    1PA    H13R10304   2.399   3.978   4.212 -0.5991  2.4798 -0.4610
    1PA    H13S10305   2.510   4.089   4.295 -1.2014 -1.0116  1.5256
    1PA    C11210306   2.531   4.086   4.082  0.4748 -0.3790  0.1480
    1PA    H12R10307   2.635   4.118   4.073  0.1769  0.3014 -1.2035
    1PA    H12S10308   2.516   4.019   3.998  0.9790 -0.1291 -0.1466
    1PA    C11110309   2.448   4.208   4.051 -0.0011  0.6536 -0.3977
    1PA    H11R10310   2.452   4.230   3.944  2.2066 -1.1390 -0.7390
    1PA    H11S10311   2.345   4.185   4.080  0.4953 -0.7423  0.2990
    1PA    C11010312   2.490   4.330   4.133 -0.2962 -0.0566 -0.7399
    1PA    H10R10313   2.420   4.413   4.139  0.2919  0.3450  1.6947
    1PA    H10S10314   2.493   4.299   4.238 -0.6853  1.2320 -0.3385
    1PA     C1910315   2.628   4.382   4.079 -0.1380 -0.6353 -0.4150
    1PA     H9R10316   2.702   4.304   4.099  0.6847  0.7383  2.5641
    1PA     H9S10317   2.611   4.396   3.972 -2.8982  1.4278  0.1776
    1PA     C1810318   2.680   4.518   4.144  0.7973  0.5513 -0.0537
    1PA     H8R10319   2.608   4.601   4.147  0.5825  0.4110 -0.9617
    1PA     H8S10320   2.708   4.504   4.248  2.2101  1.5634 -0.2752
    1PA     C1710321   2.801   4.571   4.069 -0.4215  0.0686 -0.6335
    1PA     H7R10322   2.855   4.638   4.136 -1.2440 -0.0033  0.1286
    1PA     H7S10323   2.875   4.493   4.047  0.6047  1.0348 -0.7027
    1PA     C1610324   2.783   4.658   3.949  0.4927 -1.2657  0.8011
    1PA     H6R10325   2.739   4.594   3.872  1.1448 -0.6717 -0.0826
    1PA     H6S10326   2.707   4.730   3.979  0.9357 -0.7088  0.5911
    1PA     C1510327   2.910   4.718   3.879  0.2059 -0.4723 -0.5998
    1PA     H5R10328   2.973   4.767   3.953 -2.3633  0.9522  0.7889
    1PA     H5S10329   2.969   4.638   3.834 -0.2695 -1.0337 -0.2406
    1PA     C1410330   2.879   4.828   3.770 -0.1092  0.9723  0.6206
    1PA     H4R10331   2.814   4.909   3.804  0.2289  1.6262 -0.2702
    1PA     H4S10332   2.974   4.874   3.744  0.7599 -1.3082 -0.5066
    1PA     C1310333   2.808   4.775   3.644  0.0895  0.0107 -0.1939
    1PA     H3R10334   2.841   4.673   3.627 -1.8645 -1.2867  2.9523
    1PA     H3S10335   2.705   4.756   3.677  0.5270 -0.5731  0.8698
    1PA     C1210336   2.813   4.866   3.519  0.3861  0.0704  0.3428
    1PA     H2R10337   2.772   4.963   3.548 -0.3930 -0.4739  1.0944
    1PA     H2S10338   2.918   4.879   3.490  1.2327 -3.8667  1.0088
    1PC     C1110339   2.744   4.815   3.393  0.6194 -0.2662 -0.6560
    1PC     O1210340   2.793   4.807   3.287 -0.0440 -0.0114  0.1267
    1PC     O1110341   2.625   4.754   3.416 -0.5330 -0.9042  0.1034
    1PC      C110342   2.550   4.690   3.307  0.4178 -0.1028  0.9255
    1PC      HR10343   2.455   4.741   3.292  0.4949 -0.4837 -1.1804
    1PC      HS10344   2.590   4.716   3.208 -1.8405  1.1959  0.2973
    1PC      C210345   2.532   4.538   3.337  0.1059 -0.1024  0.4570
    1PC      HX10346   2.631   4.495   3.353  1.3075  2.2220 -0.2370
    1PC      C310347   2.466   4.453   3.226 -0.0015  0.0547 -0.1103
    1PC      HA10348   2.545   4.436   3.153  0.9568  2.2488  0.3202
    1PC      HB10349   2.444   4.359   3.277  0.8536  0.7859  1.7467
    1PC     O3110350   2.353   4.530   3.174  0.7255  0.0017 -0.4567
    1PC     P3110351   2.345   4.578   3.029 -0.1069  0.0950 -0.2286
    1PC     O3210352   2.332   4.444   2.942 -0.5958  0.1437  0.1798
    1PC     C3110353   2.197   4.381   2.931  0.0019  0.2445 -0.4937
    1PC     H1A10354   2.167   4.354   3.032 -0.1261  2.3117  0.0736
    1PC     H1B10355   2.130   4.459   2.894  0.9411  1.5813  0.5377
    1PC     C3210356   2.211   4.251   2.842 -0.9635  0.4004 -0.0767
    1PC     H2A10357   2.260   4.169   2.893  0.1383 -1.3387 -3.5960
    1PC     H2B10358   2.113   4.204   2.833  0.3719 -2.9684  1.3819
    1PC     N3110359   2.257   4.260   2.698 -0.6734 -0.4849  0.1138
    1PC     C3310360   2.180   4.373   2.643 -0.6856  0.2107  0.0146
    1PC     H3A10361   2.207   4.367   2.537  1.9995  0.4349  0.6063
    1PC     H3B10362   2.077   4.365   2.676 -0.6921  3.9896  1.4125
    1PC     H3C10363   2.217   4.472   2.672  1.7282 -0.1950 -1.3929
    1PC     C3410364   2.407   4.285   2.696 -0.2372 -0.4927  0.7422
    1PC     H4A10365   2.447   4.202   2.754 -0.5887  0.2874  2.1719
    1PC     H4B10366   2.439   4.303   2.594 -1.3516  2.2096  0.7639
    1PC     H4C10367   2.432   4.373   2.757  0.5827 -1.1441  1.3685
    1PC     C3510368   2.223   4.139   2.618 -0.1240  0.4735  0.2097
    1PC     H5A10369   2.260   4.141   2.516 -3.1716 -1.9889 -1.1216
    1PC     H5B10370   2.115   4.133   2.603 -0.5517  0.4665  2.8832
    1PC     H5C10371   2.259   4.060   2.684 -0.0445  1.5291  1.4465
    1PC     O3310372   2.215   4.649   3.026  0.0583  0.1977  0.1583
    1PC     O3410373   2.466   4.654   2.992  0.3572  0.4953  0.0518
    1PC     O2110374   2.456   4.527   3.462  0.0802  0.4062 -0.8600
    1PC     C2110375   2.530   4.517   3.577 -0.4047  0.5429  0.3186
    1PC     O2210376   2.650   4.503   3.581 -0.1234 -0.1967  0.1484
    1OL     C1210377   2.432   4.519   3.692 -0.5507 -0.0226 -0.3279
    1OL     H2R10378   2.471   4.431   3.745  2.0573 -0.2554 -2.4093
    1OL     H2S10379   2.330   4.504   3.658 -1.2823  2.4073  0.5772
    1OL     C1310380   2.427   4.646   3.770  0.2754 -0.5907  0.8029
    1OL     H3R10381   2.530   4.673   3.794  0.6680 -1.2753 -0.0734
    1OL     H3S10382   2.369   4.633   3.861 -0.3155  2.2959  0.9471
    1OL     C1410383   2.371   4.757   3.678  0.4262  0.1304 -0.4606
    1OL     H4R10384   2.276   4.726   3.634 -0.1736  0.4813  0.5355
    1OL     H4S10385   2.437   4.758   3.591  0.3254 -3.3348 -0.6987
    1OL     C1510386   2.353   4.897   3.746 -0.0017 -0.2164 -0.7520
    1OL     H5R10387   2.279   4.894   3.826  0.9066  0.6934  0.1482
    1OL     H5S10388   2.323   4.965   3.666  1.7475  1.7187  0.1578
    1OL     C1610389   2.489   4.948   3.788 -0.2601  0.6943 -0.6084
    1OL     H6R10390   2.556   4.970   3.704 -1.4664  1.6785 -1.3611
    1OL     H6S10391   2.542   4.876   3.850  0.3253  2.0858  0.5789
    1OL     C1710392   2.471   5.075   3.872 -1.0381  0.5754 -0.5628
    1OL     H7R10393   2.418   5.150   3.814 -0.0354  0.8619 -1.1161
    1OL     H7S10394   2.571   5.115   3.886 -1.1152  1.1051 -1.4831
    1OL     C1810395   2.409   5.054   4.010  0.4954  0.2610  0.1789
    1OL     H8R10396   2.447   4.976   4.076  0.4152  1.2986  1.4897
    1OL     H8S10397   2.304   5.029   3.994  0.7177 -1.0247  0.5675
    1OL     C1910398   2.412   5.177   4.099  0.2232 -0.3192  0.0527
    1OL     H9R10399   2.334   5.252   4.098  1.3479  0.8964 -1.9794
    1OL    C11010400   2.512   5.207   4.183 -0.9615 -0.7099 -0.1208
    1OL    H10R10401   2.503   5.297   4.243  0.5367  0.3902 -1.4622
    1OL    C11110402   2.641   5.122   4.204  0.0735  0.1114  0.1240
    1OL    H11R10403   2.718   5.200   4.210 -0.0198  0.8021 -4.1431
    1OL    H11S10404   2.681   5.068   4.117  3.8034  0.6763  1.2829
    1OL    C11210405   2.662   5.047   4.335 -0.7249 -1.1067  0.7460
    1OL    H12R10406   2.647   5.111   4.422 -1.5508 -0.9216  0.4742
    1OL    H12S10407   2.768   5.020   4.342  0.5666  3.3600  1.0623
    1OL    C11310408   2.566   4.929   4.350 -0.0298  0.5694 -0.4346
    1OL    H13R10409   2.572   4.863   4.263 -0.5304  0.6280 -0.5186
    1OL    H13S10410   2.463   4.962   4.361  0.3767  1.5772  0.4478
    1OL    C11410411   2.608   4.844   4.469 -0.0478 -0.4260  0.1415
    1OL    H14R10412   2.716   4.837   4.456 -0.0203  0.2061 -0.0033
    1OL    H14S10413   2.561   4.747   4.458 -3.0619  0.8028  1.0394
    1OL    C11510414   2.584   4.897   4.614 -0.2851  0.8315  0.6361
    1OL    H15R10415   2.482   4.916   4.649  0.5885  3.2305  2.0582
    1OL    H15S10416   2.631   4.995   4.621  0.7133  0.4700 -0.6129
    1OL    C11610417   2.650   4.777   4.693 -0.6023  0.0159  0.5600
    1OL    H16R10418   2.751   4.751   4.659 -0.5538  1.0686 -0.1275
    1OL    H16S10419   2.586   4.690   4.677  0.3279 -0.4234 -0.9858
    1OL    C11710420   2.665   4.801   4.840 -0.1442  0.3596  0.9670
    1OL    H17R10421   2.697   4.712   4.895  0.2780 -0.4283 -0.4846
    1OL    H17S10422   2.568   4.834   4.877  0.4507 -0.2947  3.2283
    1OL    C11810423   2.756   4.921   4.869 -0.3078  0.4625  0.1136
    1OL    H18R10424   2.725   5.021   4.839  1.1396  0.9430  0.1418
    1OL    H18S10425   2.852   4.896   4.824  0.1887  1.5075  0.5507
    1OL    H18T10426   2.782   4.934   4.975  2.3484 -0.6315 -0.3128
    1PA    C11610427   4.290   0.634   5.065  0.2205  0.5905 -0.3947
    1PA    H16R10428   4.225   0.639   5.153  1.2058  0.9768  0.3410
    1PA    H16S10429   4.360   0.716   5.043  1.2789  0.5990  2.4531
    1PA    H16T10430   4.353   0.545   5.075 -1.2067 -0.4870 -0.6918
    1PA    C11510431   4.199   0.600   4.942  0.4655 -0.2262 -0.0439
    1PA    H15R10432   4.119   0.532   4.969  0.6806 -0.4967 -0.0828
    1PA    H15S10433   4.159   0.700   4.923 -1.0089 -0.6425  0.7259
    1PA    C11410434   4.279   0.546   4.822  0.3247 -0.4380  0.0090
    1PA    H14R10435   4.205   0.539   4.742 -0.8291  0.5112  0.9515
    1PA    H14S10436   4.344   0.624   4.780 -0.2689 -0.6788 -1.4305
    1PA    C11310437   4.359   0.411   4.833  0.0214 -0.1662 -1.4749
    1PA    H13R10438   4.417   0.382   4.745  2.2032  0.4748 -0.3026
    1PA    H13S10439   4.432   0.437   4.910 -2.8686  0.6895  1.1995
    1PA    C11210440   4.259   0.302   4.896 -0.2794 -0.0005 -0.7709
    1PA    H12R10441   4.323   0.214   4.904 -1.4599 -0.7671  0.6218
    1PA    H12S10442   4.235   0.323   5.000  1.5754  1.3957 -0.5612
    1PA    C11110443   4.131   0.268   4.815 -0.4600  0.4148  0.2414
    1PA    H11R10444   4.102   0.168   4.848  2.2122 -0.5363 -0.0593
    1PA    H11S10445   4.044   0.333   4.832  0.5919  1.4612  2.0012
    1PA    C11010446   4.162   0.256   4.665  0.2708 -0.3808  0.1472
    1PA    H10R10447   4.203   0.348   4.623  1.2029 -1.2610 -0.9346
    1PA    H10S10448   4.238   0.178   4.655  0.7277  0.2042 -1.1683
    1PA     C1910449   4.037   0.217   4.586 -0.5466  0.4067  0.5742
    1PA     H9R10450   3.989   0.135   4.640 -0.2754 -0.7964 -0.9103
    1PA     H9S10451   3.972   0.304   4.587  0.7602  1.4126  0.3906
    1PA     C1810452   4.067   0.170   4.441 -0.4560  0.2475 -0.2069
    1PA     H8R10453   4.084   0.257   4.378  0.8363  0.3080  0.2029
    1PA     H8S10454   4.163   0.120   4.452  0.2775  1.7239  0.2829
    1PA     C1710455   3.943   0.089   4.400 -0.1712  0.0373 -0.5425
    1PA     H7R10456   3.921   0.001   4.461 -2.5552  1.6182  1.0118
    1PA     H7S10457   3.853   0.150   4.396  1.0169  1.8110 -1.5919
    1PA     C1610458   3.962   0.034   4.259 -0.2666  0.5624  0.7916
    1PA     H6R10459   3.986   0.112   4.187 -1.7059  0.0263 -0.3238
    1PA     H6S10460   4.041  -0.042   4.260 -0.1612  0.6713  0.8271
    1PA     C1510461   3.834  -0.036   4.204 -0.3870 -0.6202 -0.1217
    1PA     H5R10462   3.789  -0.101   4.279  1.8217 -0.6624  1.2657
    1PA     H5S10463   3.760   0.043   4.196 -0.2587 -0.5282 -0.4492
    1PA     C1410464   3.864  -0.113   4.075  0.4001 -0.4364  0.5906
    1PA     H4R10465   3.937  -0.052   4.021  0.0452  0.2223  0.8480
    1PA     H4S10466   3.915  -0.207   4.101  3.6466  1.1871  0.6248
    1PA     C1310467   3.746  -0.136   3.974 -0.1949  0.4616  0.0993
    1PA     H3R10468   3.672  -0.198   4.027 -1.6247  0.7032 -1.5303
    1PA     H3S10469   3.693  -0.043   3.955 -0.3975  0.1583 -0.8497
    1PA     C1210470   3.785  -0.193   3.841  0.7340  0.1522 -0.1160
    1PA     H2R10471   3.848  -0.126   3.783  0.9134  2.4711  2.5526
    1PA     H2S10472   3.846  -0.282   3.861  1.4724 -0.1713 -3.3287
    1PC     C1110473   3.664  -0.242   3.767  0.5085  0.4185  0.0126
    1PC     O1210474   3.545  -0.222   3.799 -0.4538 -0.3137 -0.0816
    1PC     O1110475   3.695  -0.294   3.642 -0.8867 -0.0911 -0.0356
    1PC      C110476   3.589  -0.307   3.547 -0.3833  0.6271 -0.4293
    1PC      HR10477   3.598  -0.399   3.488  1.1801 -0.1265  0.9217
    1PC      HS10478   3.491  -0.312   3.596 -0.5681 -0.3197 -0.8649
    1PC      C210479   3.593  -0.173   3.463  0.2678  0.1639  0.3173
    1PC      HX10480   3.521  -0.178   3.381 -0.0400 -0.2262  0.6081
    1PC      C310481   3.734  -0.157   3.391  0.5462 -0.1628 -0.4697
    1PC      HA10482   3.798  -0.114   3.468 -3.0843  1.2834  2.0337
    1PC      HB10483   3.765  -0.258   3.365  0.6943 -0.0366 -0.7920
    1PC     O3110484   3.725  -0.070   3.274 -0.5251  0.2466 -0.1042
    1PC     P3110485   3.838  -0.064   3.162 -0.0833  0.6390 -0.0302
    1PC     O3210486   3.967  -0.002   3.227  0.5487 -0.3118 -0.1476
    1PC     C3110487   3.972   0.139   3.256  0.5359  0.2454  0.1699
    1PC     H1A10488   3.880   0.178   3.301  0.1364  1.1786 -1.3566
    1PC     H1B10489   4.047   0.155   3.334  2.1856 -2.6151 -0.6808
    1PC     C3210490   4.009   0.218   3.132  0.2396  0.1743  0.3048
    1PC     H2A10491   4.109   0.181   3.109  1.2018  1.9014  1.5357
    1PC     H2B10492   3.933   0.190   3.059  0.3106  0.0344  0.2841
    1PC     N3110493   4.018   0.365   3.141  0.1358  0.0603  0.0206
    1PC     C3310494   3.887   0.432   3.186 -0.3574  0.4683  0.2885
    1PC     H3A10495   3.911   0.534   3.214  0.7459  0.3160 -0.0553
    1PC     H3B10496   3.823   0.427   3.098 -0.4390  0.8683  0.3271
    1PC     H3C10497   3.863   0.378   3.277 -0.0370  0.6483  0.4793
    1PC     C3410498   4.136   0.399   3.218 -0.0578 -0.8503 -0.1006
    1PC     H4A10499   4.212   0.329   3.184 -1.3368 -2.0102 -0.6740
    1PC     H4B10500   4.155   0.505   3.204  1.4475 -0.9183  1.1862
    1PC     H4C10501   4.117   0.388   3.325 -0.8760 -0.0165 -0.1524
    1PC     C3510502   4.047   0.421   3.002  0.4119  0.3077 -0.0851
    1PC     H5A10503   3.956   0.408   2.943  1.0581 -1.0628 -0.8107
    1PC     H5B10504   4.119   0.356   2.953 -1.1987 -1.6126 -0.0148
    1PC     H5C10505   4.078   0.525   3.011  1.0675  0.1072  0.0369
    1PC     O3310506   3.876  -0.205   3.126 -0.1428  0.1746 -0.1034
    1PC     O3410507   3.792   0.020   3.048  0.1498 -0.5540 -0.7261
    1PC     O2110508   3.585  -0.051   3.541  0.0240  0.4890  0.0935
    1PC     C2110509   3.456  -0.016   3.569  0.6136  0.1383  1.1015
    1PC     O2210510   3.353  -0.074   3.519  0.2516  0.6043 -0.1752
    1OL     C1210511   3.444   0.101   3.656 -0.4953  0.1620  0.2594
    1OL     H2R10512   3.340   0.113   3.688 -0.2474  2.4856  0.3199
    1OL     H2S10513   3.472   0.192   3.603  0.3661 -0.1600  0.1514
    1OL     C1310514   3.526   0.099   3.783  0.1605  1.0537 -1.0518
    1OL     H3R10515   3.630   0.107   3.749 -0.3782 -0.5449 -3.2773
    1OL     H3S10516   3.519   0.002   3.832  0.9199  1.0943 -0.8410
    1OL     C1410517   3.503   0.213   3.880  0.1809  0.0209  0.2081
    1OL     H4R10518   3.396   0.208   3.899  0.1091 -0.4664 -0.3031
    1OL     H4S10519   3.522   0.305   3.824 -0.4339 -0.1219 -0.2491
    1OL     C1510520   3.589   0.218   4.015  0.3818  0.0386  0.4421
    1OL     H5R10521   3.692   0.240   3.985  0.5510 -0.0646  0.9358
    1OL     H5S10522   3.588   0.120   4.064  0.8897  0.2716  0.9323
    1OL     C1610523   3.528   0.323   4.112  0.2104 -1.2737  0.7198
    1OL     H6R10524   3.425   0.304   4.145 -0.0403 -0.7034  0.2929
    1OL     H6S10525   3.515   0.418   4.059 -0.5015 -0.9803  1.3888
    1OL     C1710526   3.622   0.329   4.233 -0.2444 -0.2073  0.1203
    1OL     H7R10527   3.656   0.230   4.261 -3.9132 -2.5918 -2.7882
    1OL     H7S10528   3.579   0.371   4.324 -0.8045 -0.4661 -0.0188
    1OL     C1810529   3.744   0.414   4.199 -0.0476  0.2779  0.4214
    1OL     H8R10530   3.709   0.516   4.182 -0.2121  0.1937  0.2465
    1OL     H8S10531   3.792   0.380   4.107  0.6005  1.9243  0.1112
    1OL     C1910532   3.864   0.414   4.301  1.0767  0.3368  0.4340
    1OL     H9R10533   3.933   0.331   4.290 -2.1604 -2.1995 -3.4189
    1OL    C11010534   3.878   0.502   4.403 -0.3947  1.0506 -0.6362
    1OL    H10R10535   3.971   0.493   4.460  0.3074  1.5341 -1.6731
    1OL    C11110536   3.797   0.622   4.436 -0.4949 -0.1666 -0.0295
    1OL    H11R10537   3.739   0.654   4.350 -1.4000 -0.3930  0.4816
    1OL    H11S10538   3.854   0.707   4.473 -1.4055 -0.2167  1.5987
    1OL    C11210539   3.689   0.598   4.545  0.1748 -0.4369  0.0866
    1OL    H12R10540   3.611   0.537   4.498 -0.6527  0.0802  0.7522
    1OL    H12S10541   3.639   0.695   4.555 -0.3141 -0.6894  0.1375
    1OL    C11310542   3.754   0.536   4.670 -0.2515  0.4340 -0.8355
    1OL    H13R10543   3.794   0.439   4.639 -2.1249 -0.3447 -0.9515
    1OL    H13S10544   3.676   0.516   4.744  0.0870  0.4237 -0.4817
    1OL    C11410545   3.866   0.616   4.736 -0.1638  0.4109  0.3360
    1OL    H14R10546   3.942   0.627   4.658 -0.7398  0.3836 -0.2409
    1OL    H14S10547   3.921   0.553   4.806  0.8391  0.3208 -0.4904
    1OL    C11510548   3.830   0.750   4.797 -1.0434  0.4737  0.1939
    1OL    H15R10549   3.804   0.824   4.720 -0.7748 -0.3789 -0.7331
    1OL    H15S10550   3.922   0.788   4.843  1.1516 -1.5069 -2.2510
    1OL    C11610551   3.713   0.739   4.890  0.0189 -0.1682 -0.8095
    1OL    H16R10552   3.735   0.662   4.964  0.5491 -1.9954 -2.7908
    1OL    H16S10553   3.625   0.709   4.834 -0.0024 -0.8515 -0.4215
    1OL    C11710554   3.661   0.868   4.961 -0.3935 -0.2591 -0.1332
    1OL    H17R10555   3.607   0.930   4.890  0.0928 -0.7956 -1.0049
    1OL    H17S10556   3.746   0.925   4.999 -2.0418  2.6939 -0.6579
    1OL    C11810557   3.575   0.828   5.085  0.3017 -0.4061 -0.1977
    1OL    H18R10558   3.631   0.753   5.141  2.6217  0.9669 -0.5580
    1OL    H18S10559   3.479   0.788   5.053 -0.0704 -0.6317  1.1495
    1OL    H18T10560   3.547   0.914   5.146 -0.7039 -0.8006 -0.0833
    1PA    C11610561   4.461   2.496   4.703  0.7348 -0.0397 -0.1403
    1PA    H16R10562   4.556   2.545   4.720  1.0672  0.0031 -1.9315
    1PA    H16S10563   4.453   2.396   4.747  1.8915 -0.3742 -0.6506
    1PA    H16T10564   4.379   2.558   4.741 -0.8652 -1.1432 -1.5933
    1PA    C11510565   4.441   2.486   4.555  0.3621  0.6204  0.4858
    1PA    H15R10566   4.538   2.454   4.518  0.0066 -0.6647  0.6195
    1PA    H15S10567   4.361   2.418   4.524  0.6141  0.1711  0.8011
    1PA    C11410568   4.420   2.623   4.485  0.3444 -0.9239  0.5058
    1PA    H14R10569   4.320   2.660   4.510  0.3876  0.1676 -0.8094
    1PA    H14S10570   4.499   2.695   4.505 -0.0451 -0.0104 -1.0949
    1PA    C11310571   4.408   2.609   4.332 -0.2521 -0.0435 -0.5025
    1PA    H13R10572   4.503   2.576   4.290  0.7120  0.3890  1.2237
    1PA    H13S10573   4.350   2.521   4.306 -0.1931 -0.1623 -0.2409
    1PA    C11210574   4.347   2.723   4.247  0.2939 -0.8078  0.0592
    1PA    H12R10575   4.248   2.749   4.285  2.2116  3.7779  2.8810
    1PA    H12S10576   4.405   2.815   4.264 -0.0304 -0.4175 -0.8718
    1PA    C11110577   4.333   2.688   4.095  0.3179  0.1425  0.2299
    1PA    H11R10578   4.433   2.652   4.072  0.4130  2.0021 -2.6235
    1PA    H11S10579   4.265   2.603   4.088  0.6900 -0.2005  0.6768
    1PA    C11010580   4.291   2.814   4.017  0.4489 -0.2357  0.0352
    1PA    H10R10581   4.191   2.843   4.051  1.0081 -0.1540  1.6906
    1PA    H10S10582   4.359   2.898   4.030 -0.4535  0.5333 -0.1237
    1PA     C1910583   4.268   2.784   3.866 -0.2404 -0.5671 -0.9940
    1PA     H9R10584   4.194   2.703   3.865 -2.1562  1.0677  0.4659
    1PA     H9S10585   4.219   2.866   3.814  1.6909  1.1568 -0.2275
    1PA     C1810586   4.395   2.754   3.789  0.0465 -0.0272  0.0102
    1PA     H8R10587   4.437   2.657   3.818  1.1255  0.3803 -0.1198
    1PA     H8S10588   4.365   2.741   3.685 -1.7220  1.7529  0.2490
    1PA     C1710589   4.512   2.847   3.810  0.5073 -0.3213 -0.5674
    1PA     H7R10590   4.482   2.951   3.798 -3.6043 -0.9891  1.8628
    1PA     H7S10591   4.549   2.827   3.911 -1.6191 -1.1665  0.1052
    1PA     C1610592   4.612   2.819   3.704 -0.2235 -0.2969  0.9098
    1PA     H6R10593   4.650   2.717   3.702  0.0819 -0.2487 -2.4580
    1PA     H6S10594   4.571   2.829   3.603  1.5660 -1.4949  0.0001
    1PA     C1510595   4.735   2.912   3.715 -0.0200  0.0847 -0.3042
    1PA     H5R10596   4.703   3.011   3.682 -1.4734 -0.6782 -1.3133
    1PA     H5S10597   4.771   2.927   3.817  0.4729 -3.1558  0.1162
    1PA     C1410598   4.850   2.868   3.622  0.0651 -0.0962 -0.0691
    1PA     H4R10599   4.870   2.762   3.642 -0.9787 -0.4059 -0.5586
    1PA     H4S10600   4.809   2.881   3.521 -0.2918  2.8652  0.3597
    1PA     C1310601   4.975   2.952   3.630 -0.0178 -0.9507 -0.3473
    1PA     H3R10602   4.947   3.057   3.632  1.0203 -0.6655  0.3938
    1PA     H3S10603   5.020   2.938   3.728 -2.2800  0.8399  1.0518
    1PA     C1210604   5.075   2.929   3.523  0.0438 -0.0115  0.1502
    1PA     H2R10605   5.038   2.970   3.429  1.7862 -0.3647 -0.7251
    1PA     H2S10606   5.163   2.985   3.555 -1.8584  2.1551  1.9392
    1PC     C1110607   5.116   2.783   3.503  0.0493 -0.3644  0.2449
    1PC     O1210608   5.183   2.726   3.586 -0.4188 -0.4612  0.8128
    1PC     O1110609   5.060   2.724   3.393  0.4450  0.1692  0.2787
    1PC      C110610   5.083   2.582   3.370  0.7963  0.2637 -0.1748
    1PC      HR10611   5.081   2.559   3.264  2.1547  1.4257 -0.4798
    1PC      HS10612   5.180   2.554   3.411  0.8887 -0.1502 -0.6732
    1PC      C210613   4.964   2.495   3.422 -0.4725  0.1084  0.0783
    1PC      HX10614   4.989   2.390   3.404  1.5139  0.4643  0.4643
    1PC      C310615   4.835   2.531   3.344  0.0567  0.1628 -0.2591
    1PC      HA10616   4.748   2.496   3.401  0.4044 -0.0492  0.1452
    1PC      HB10617   4.835   2.640   3.339  0.9309  0.4096  3.0441
    1PC     O3110618   4.830   2.468   3.216 -0.3498 -0.4367 -0.0356
    1PC     P3110619   4.760   2.536   3.089  0.3200  0.0193  0.4053
    1PC     O3210620   4.883   2.616   3.024 -0.6428  0.3725  0.3603
    1PC     C3110621   4.997   2.543   2.973 -0.4200 -0.9858  0.1930
    1PC     H1A10622   5.059   2.510   3.057  1.2868  0.9343 -0.2232
    1PC     H1B10623   4.967   2.458   2.910  0.1242 -0.3418 -0.9836
    1PC     C3210624   5.089   2.641   2.887 -0.5568 -1.0674  0.2156
    1PC     H2A10625   5.112   2.729   2.947 -0.6186  0.2307 -1.5901
    1PC     H2B10626   5.179   2.583   2.864  0.5006  0.3836  0.5578
    1PC     N3110627   5.041   2.695   2.755  0.4790  0.5853  0.1484
    1PC     C3310628   4.950   2.807   2.781 -0.1154 -0.1745 -0.3210
    1PC     H3A10629   4.996   2.870   2.858 -1.3699 -0.1636  0.4415
    1PC     H3B10630   4.935   2.861   2.687  1.0234  0.2281 -0.2910
    1PC     H3C10631   4.851   2.767   2.804  0.3571 -2.3632 -1.8638
    1PC     C3410632   5.164   2.740   2.678  0.6660  0.2656  0.4921
    1PC     H4A10633   5.231   2.656   2.691  0.6771  0.1118 -0.5168
    1PC     H4B10634   5.136   2.747   2.573  0.7028 -1.2455  0.3703
    1PC     H4C10635   5.209   2.830   2.721  0.2490 -0.1740  1.9138
    1PC     C3510636   4.970   2.594   2.669  0.6333 -0.2740 -0.1978
    1PC     H5A10637   4.869   2.591   2.711  0.0012  1.7891 -1.4363
    1PC     H5B10638   5.015   2.494   2.667  0.7965 -0.2289  0.6732
    1PC     H5C10639   4.976   2.634   2.568  0.8311 -0.4825 -0.2721
    1PC     O3310640   4.716   2.424   3.002 -0.1981 -0.6394  0.0067
    1PC     O3410641   4.656   2.637   3.131  0.4387  0.2852  0.2068
    1PC     O2110642   4.929   2.523   3.559 -0.1364  0.8085 -0.4612
    1PC     C2110643   4.984   2.454   3.663 -0.8533  0.2776 -0.6713
    1PC     O2210644   5.030   2.341   3.651  0.0172  0.1465  0.6464
    1OL     C1210645   4.990   2.525   3.795 -0.0814 -0.4353  0.2184
    1OL     H2R10646   5.030   2.626   3.784  1.4308 -0.7818  1.9041
    1OL     H2S10647   5.074   2.479   3.848  2.3644  2.0504 -1.2261
    1OL     C1310648   4.866   2.503   3.874  0.3129 -0.2187 -1.0462
    1OL     H3R10649   4.859   2.398   3.903 -0.0890  0.3458  1.0308
    1OL     H3S10650   4.770   2.536   3.832 -1.3550 -2.5020  0.7211
    1OL     C1410651   4.873   2.587   4.004  0.1897  0.4660  0.6342
    1OL     H4R10652   4.924   2.683   3.996 -0.7610  0.9042 -0.3305
    1OL     H4S10653   4.934   2.537   4.080  0.5527  1.4506  1.0025
    1OL     C1510654   4.729   2.614   4.070  0.1914 -0.6117  0.1343
    1OL     H5R10655   4.684   2.522   4.107 -0.6043 -0.1729  0.2732
    1OL     H5S10656   4.661   2.663   4.000 -0.1506 -2.9329 -1.2522
    1OL     C1610657   4.754   2.693   4.195 -0.5514 -0.8207 -0.0506
    1OL     H6R10658   4.842   2.653   4.246  0.4348  0.1436 -0.9391
    1OL     H6S10659   4.669   2.658   4.254 -1.4519 -0.4886 -1.1206
    1OL     C1710660   4.736   2.843   4.184 -0.3612 -0.6611 -0.4182
    1OL     H7R10661   4.637   2.874   4.150 -0.1502  1.8189  0.9917
    1OL     H7S10662   4.809   2.888   4.115  0.5177  0.0379  0.9206
    1OL     C1810663   4.759   2.917   4.323  0.3801  0.9552  0.0033
    1OL     H8R10664   4.766   3.024   4.301  2.3647  0.6628 -1.0209
    1OL     H8S10665   4.859   2.895   4.360  0.8888 -0.5741 -2.0700
    1OL     C1910666   4.641   2.899   4.420  0.0571 -0.3139  0.0856
    1OL     H9R10667   4.548   2.855   4.384 -0.7759  1.1077  0.4263
    1OL    C11010668   4.656   2.903   4.556  0.6773 -0.6376 -0.4065
    1OL    H10R10669   4.573   2.874   4.620  0.0644 -1.6718 -1.6419
    1OL    C11110670   4.786   2.951   4.634  0.5181  0.8165  0.1423
    1OL    H11R10671   4.761   3.053   4.666  0.2946  0.9032 -0.2914
    1OL    H11S10672   4.871   2.958   4.567  1.2441 -0.3604  0.9103
    1OL    C11210673   4.825   2.882   4.768  0.0838 -0.1702  0.2191
    1OL    H12R10674   4.729   2.871   4.819  0.3862  0.9134  1.0718
    1OL    H12S10675   4.891   2.954   4.816  0.0671  0.3323 -0.4912
    1OL    C11310676   4.886   2.743   4.745  0.9071  0.0973  0.0949
    1OL    H13R10677   4.982   2.760   4.696 -0.5271  0.4432 -2.8522
    1OL    H13S10678   4.821   2.685   4.679 -0.2830 -1.0721  2.2023
    1OL    C11410679   4.914   2.668   4.878  0.0654 -0.1063 -0.1553
    1OL    H14R10680   4.829   2.633   4.936  0.8585 -1.5926  0.1525
    1OL    H14S10681   4.975   2.735   4.938 -2.4748  0.5496  1.8437
    1OL    C11510682   4.987   2.534   4.866  0.3755  0.1250 -0.2640
    1OL    H15R10683   4.917   2.465   4.817  0.7472 -1.5232  1.4097
    1OL    H15S10684   5.001   2.497   4.967 -0.1989 -0.6041 -0.4373
    1OL    C11610685   5.127   2.529   4.793  0.6170 -0.1325  0.1811
    1OL    H16R10686   5.203   2.574   4.857 -0.4369  0.9970  0.6579
    1OL    H16S10687   5.127   2.597   4.708 -0.5513  0.8225  0.9238
    1OL    C11710688   5.171   2.389   4.749  0.4655 -0.0671 -0.0697
    1OL    H17R10689   5.263   2.399   4.690  0.9848 -1.1157  0.5335
    1OL    H17S10690   5.087   2.356   4.688 -0.2496 -0.1426  0.9320
    1OL    C11810691   5.208   2.296   4.866 -0.2070  0.1553 -0.0959
    1OL    H18R10692   5.140   2.311   4.950 -2.9840  1.5008 -2.3846
    1OL    H18S10693   5.309   2.320   4.899 -0.7329  1.5027  0.6117
    1OL    H18T10694   5.211   2.194   4.825  1.5499  0.2232 -0.2152
    1PA    C11610695   1.704   1.404   4.306 -0.1735  0.1239  0.1506
    1PA    H16R10696   1.667   1.489   4.363  1.2895  1.5525 -0.9356
    1PA    H16S10697   1.724   1.431   4.202  1.8053 -1.1008  0.1682
    1PA    H16T10698   1.808   1.393   4.338  0.0581 -0.2802 -0.7078
    1PA    C11510699   1.629   1.271   4.312  0.7386  0.2624  0.1651
    1PA    H15R10700   1.670   1.191   4.249 -1.6620  0.2832 -1.5701
    1PA    H15S10701   1.633   1.230   4.413 -1.5181  0.5787  0.4275
    1PA    C11410702   1.479   1.286   4.271  0.4672 -0.1054 -0.2872
    1PA    H14R10703   1.439   1.379   4.311  0.1050  0.3253 -1.5827
    1PA    H14S10704   1.469   1.285   4.162 -0.9567 -0.0788 -0.1745
    1PA    C11310705   1.396   1.156   4.320  0.1155 -0.4551  0.3224
    1PA    H13R10706   1.455   1.064   4.320 -0.5683 -0.9033 -0.1709
    1PA    H13S10707   1.377   1.167   4.427  2.0414  1.5103  0.5273
    1PA    C11210708   1.264   1.131   4.253  0.6787  0.9770  0.1821
    1PA    H12R10709   1.207   1.059   4.312 -0.4006  1.1793 -0.5906
    1PA    H12S10710   1.213   1.226   4.268 -1.3300 -0.2069  1.2771
    1PA    C11110711   1.275   1.097   4.102 -0.3484 -0.0418  0.1523
    1PA    H11R10712   1.328   1.185   4.064  1.8449  0.0792  3.1316
    1PA    H11S10713   1.325   1.004   4.077 -2.7902 -1.2157 -0.7073
    1PA    C11010714   1.137   1.078   4.027 -0.3652 -0.4167  1.1446
    1PA    H10R10715   1.097   0.985   4.069 -0.0004 -0.2753  1.8241
    1PA    H10S10716   1.070   1.159   4.054  0.9415  1.0479  0.1524
    1PA     C1910717   1.159   1.076   3.872 -0.2711 -0.0984 -0.1219
    1PA     H9R10718   1.202   1.169   3.835 -5.1846  2.2927 -0.6425
    1PA     H9S10719   1.236   1.003   3.845 -0.1779  0.2155 -0.7396
    1PA     C1810720   1.018   1.055   3.803 -1.1961 -0.6733  0.4081
    1PA     H8R10721   0.985   1.155   3.776  2.8344  0.7252 -0.0619
    1PA     H8S10722   1.055   1.006   3.713  2.6165  2.4137  0.0254
    1PA     C1710723   0.907   0.970   3.862 -0.4976 -0.8754 -0.3113
    1PA     H7R10724   0.958   0.877   3.888  2.7805  0.1524 -2.4450
    1PA     H7S10725   0.867   1.014   3.953 -0.2462 -2.3900  0.5742
    1PA     C1610726   0.801   0.929   3.764 -0.6033 -0.0647 -0.0021
    1PA     H6R10727   0.841   0.898   3.667 -0.8188  0.0287 -0.1209
    1PA     H6S10728   0.755   0.837   3.800 -0.6944 -0.8767 -2.0594
    1PA     C1510729   0.690   1.039   3.734 -0.8055 -0.6773  0.2568
    1PA     H5R10730   0.608   1.033   3.806  0.2104 -0.9306  1.4239
    1PA     H5S10731   0.738   1.137   3.741 -1.5858 -0.2853  0.2067
    1PA     C1410732   0.638   1.025   3.591  0.2147 -0.3001 -0.4260
    1PA     H4R10733   0.716   1.069   3.528 -0.0388  0.7801 -0.0173
    1PA     H4S10734   0.621   0.919   3.571 -1.3049 -0.5312  1.7424
    1PA     C1310735   0.502   1.099   3.569 -0.0037  0.0742 -0.6025
    1PA     H3R10736   0.427   1.041   3.623  0.1113  0.9908  0.5707
    1PA     H3S10737   0.505   1.202   3.603  1.4975  0.5933 -2.1570
    1PA     C1210738   0.462   1.094   3.417  0.5500 -0.6590  0.2666
    1PA     H2R10739   0.539   1.141   3.356 -0.1240  0.8316  0.5058
    1PA     H2S10740   0.448   0.998   3.369 -1.8099  0.5056 -1.5647
    1PC     C1110741   0.339   1.173   3.387  0.1553 -0.0875 -0.0198
    1PC     O1210742   0.236   1.168   3.449  0.5512 -0.3680 -0.3358
    1PC     O1110743   0.361   1.258   3.281  0.2835 -0.5013 -0.1688
    1PC      C110744   0.241   1.326   3.225 -0.3912  0.2666 -0.0496
    1PC      HR10745   0.269   1.344   3.121  1.7004 -1.5063  0.1435
    1PC      HS10746   0.157   1.257   3.230 -0.0377 -0.0965  1.1946
    1PC      C210747   0.209   1.464   3.282 -0.3347 -0.4425 -0.7236
    1PC      HX10748   0.125   1.500   3.222  0.0986 -0.4797 -1.3602
    1PC      C310749   0.336   1.551   3.260  0.3513 -0.4270  0.0724
    1PC      HA10750   0.413   1.514   3.329  0.9262  1.2054  0.3663
    1PC      HB10751   0.380   1.550   3.160  3.0658 -0.2830  1.1764
    1PC     O3110752   0.309   1.685   3.312 -0.3619 -0.2893  0.2646
    1PC     P3110753   0.268   1.798   3.207  0.4288  0.0029  0.1371
    1PC     O3210754   0.124   1.835   3.264  0.2597  0.2630 -0.2961
    1PC     C3110755   0.091   1.934   3.359  0.6843 -0.1307 -0.7852
    1PC     H1A10756   0.028   1.883   3.431  1.2864 -1.2967 -1.0599
    1PC     H1B10757   0.172   1.984   3.413 -0.0456  0.5426 -0.2980
    1PC     C3210758   0.017   2.044   3.278  0.3572 -0.8295 -0.0654
    1PC     H2A10759   0.018   2.133   3.342  1.0401  2.5121 -4.3141
    1PC     H2B10760   0.083   2.065   3.194  0.9500 -0.7543  0.4141
    1PC     N3110761  -0.119   2.017   3.219 -0.2596  0.3582  1.1017
    1PC     C3310762  -0.132   1.900   3.128 -0.2688  0.2116  0.7822
    1PC     H3A10763  -0.050   1.913   3.058 -0.6618  1.2090  0.4982
    1PC     H3B10764  -0.123   1.807   3.185  0.3862 -0.6670 -0.6803
    1PC     H3C10765  -0.226   1.909   3.072 -1.1927 -2.8538  1.6361
    1PC     C3410766  -0.222   2.003   3.333  0.1556  0.8995  0.7629
    1PC     H4A10767  -0.189   1.934   3.410 -2.4335  0.0532  1.2044
    1PC     H4B10768  -0.229   2.098   3.387  0.0582  2.3610 -1.6332
    1PC     H4C10769  -0.316   1.964   3.296  0.6325  0.2840  0.1718
    1PC     C3510770  -0.146   2.136   3.133  0.2319  0.2981  0.5482
    1PC     H5A10771  -0.081   2.120   3.046  2.3353 -1.9731  2.3801
    1PC     H5B10772  -0.118   2.231   3.179 -2.2535  1.8649 -0.9394
    1PC     H5C10773  -0.251   2.131   3.103  0.6050  0.5415 -0.9076
    1PC     O3310774   0.364   1.908   3.216  0.2395  0.7993  0.0537
    1PC     O3410775   0.243   1.737   3.074  0.0455 -1.1121 -0.7564
    1PC     O2110776   0.181   1.465   3.421  0.5320  0.6217 -0.2371
    1PC     C2110777   0.053   1.434   3.450  0.3983  0.5004 -0.3686
    1PC     O2210778  -0.040   1.425   3.374  0.3207  0.3733 -0.7492
    1OL     C1210779   0.044   1.415   3.601  0.2557 -0.0470  0.0119
    1OL     H2R10780   0.124   1.479   3.637  2.7121 -1.2383 -2.8975
    1OL     H2S10781   0.067   1.312   3.629 -0.3880  0.2283  1.6645
    1OL     C1310782  -0.094   1.464   3.655 -0.4908 -0.1507  0.5454
    1OL     H3R10783  -0.175   1.393   3.634 -0.4434  0.4545 -2.0405
    1OL     H3S10784  -0.129   1.546   3.592  1.3709 -0.9336 -1.6886
    1OL     C1410785  -0.085   1.503   3.803 -0.1449 -0.0846 -0.1456
    1OL     H4R10786  -0.169   1.558   3.845 -0.0402  1.0540 -1.3616
    1OL     H4S10787  -0.007   1.579   3.806 -0.2186  0.0083 -0.4917
    1OL     C1510788  -0.053   1.374   3.887 -0.4088  0.1282  0.5253
    1OL     H5R10789   0.042   1.340   3.844 -1.2259  0.9901 -2.1595
    1OL     H5S10790  -0.125   1.294   3.869 -1.4934  1.1485  0.2687
    1OL     C1610791  -0.028   1.400   4.036  0.5557 -0.8121  0.0839
    1OL     H6R10792   0.039   1.320   4.067  0.6421 -1.1884 -1.0467
    1OL     H6S10793  -0.124   1.399   4.087 -0.4287  2.6949 -1.3575
    1OL     C1710794   0.041   1.531   4.064  0.2448 -0.4027  0.0917
    1OL     H7R10795  -0.038   1.605   4.049  1.7393  1.6171  1.5870
    1OL     H7S10796   0.124   1.545   3.993 -1.2364  2.1583 -1.2825
    1OL     C1810797   0.095   1.551   4.207  0.1732 -0.4996  0.5872
    1OL     H8R10798   0.016   1.554   4.282  0.3062 -0.9653  0.7498
    1OL     H8S10799   0.152   1.644   4.209 -1.0029  0.2996 -0.6843
    1OL     C1910800   0.191   1.448   4.254 -0.1903  0.4226  0.0646
    1OL     H9R10801   0.156   1.345   4.260  2.4975 -0.5175  1.1536
    1OL    C11010802   0.314   1.464   4.306 -0.1524 -0.6966  0.4160
    1OL    H10R10803   0.376   1.380   4.336 -1.7081 -2.0380 -0.0193
    1OL    C11110804   0.393   1.590   4.317 -0.2889  0.4041 -0.2083
    1OL    H11R10805   0.335   1.683   4.307  0.3142  1.2176  3.0035
    1OL    H11S10806   0.469   1.584   4.239 -1.3240 -1.2229 -1.1625
    1OL    C11210807   0.445   1.599   4.461 -0.2897  0.9077 -0.7762
    1OL    H12R10808   0.499   1.507   4.484 -0.2439  0.9390 -0.7587
    1OL    H12S10809   0.356   1.599   4.524 -0.5179  0.3584 -1.0952
    1OL    C11310810   0.534   1.722   4.491  0.2929 -0.6597 -0.3210
    1OL    H13R10811   0.568   1.717   4.595  0.4327  1.3288 -0.2229
    1OL    H13S10812   0.469   1.810   4.488  0.1484 -0.4187  3.6901
    1OL    C11410813   0.654   1.738   4.388  0.5463 -0.1409 -0.4385
    1OL    H14R10814   0.700   1.834   4.412  2.9824 -1.7061  1.6422
    1OL    H14S10815   0.611   1.745   4.288  1.2157 -1.9570 -0.9052
    1OL    C11510816   0.756   1.623   4.378 -0.3857  0.0436 -0.3053
    1OL    H15R10817   0.833   1.638   4.302 -0.2874  0.7395 -0.0779
    1OL    H15S10818   0.710   1.529   4.349 -0.1249 -0.3574  0.5551
    1OL    C11610819   0.828   1.604   4.512  0.1669 -0.1427 -0.7846
    1OL    H16R10820   0.752   1.564   4.579  0.9330 -1.1727 -0.5088
    1OL    H16S10821   0.865   1.699   4.551 -1.1594 -0.1552  0.5749
    1OL    C11710822   0.922   1.479   4.509  0.9054  0.4090 -0.8242
    1OL    H17R10823   1.026   1.506   4.486  2.1996 -0.3152  3.3962
    1OL    H17S10824   0.876   1.413   4.435 -1.5953  0.7795  0.3215
    1OL    C11810825   0.940   1.422   4.649 -0.4611  0.1795  0.2749
    1OL    H18R10826   1.009   1.337   4.647 -0.4591  0.0967  2.0834
    1OL    H18S10827   0.848   1.385   4.694 -0.6912  0.7668  0.2963
    1OL    H18T10828   1.005   1.487   4.709  1.2439  1.2480 -2.5175
    1PA    C11610829   0.131   5.005   4.703  0.0839  0.4520 -0.1377
    1PA    H16R10830   0.095   5.025   4.602 -0.5942 -1.7258 -0.3806
    1PA    H16S10831   0.101   4.906   4.737 -0.2596  0.3377 -0.7512
    1PA    H16T10832   0.240   4.998   4.707  0.0078 -0.1008  2.2510
    1PA    C11510833   0.095   5.116   4.809 -0.3379 -0.2007  0.5020
    1PA    H15R10834   0.089   5.060   4.903 -0.7121 -2.1179 -0.6186
    1PA    H15S10835   0.171   5.195   4.799  1.3036 -1.7694  0.1451
    1PA    C11410836  -0.043   5.189   4.801 -0.5033 -0.0176 -0.1753
    1PA    H14R10837  -0.123   5.118   4.778 -0.3913 -0.5938  1.1232
    1PA    H14S10838  -0.055   5.242   4.895 -0.6945  0.4304 -0.4479
    1PA    C11310839  -0.048   5.286   4.682  0.2254 -0.2750  0.3334
    1PA    H13R10840   0.034   5.358   4.692 -0.8865  1.3616 -1.6824
    1PA    H13S10841  -0.021   5.243   4.585  0.0735  2.8966 -1.2272
    1PA    C11210842  -0.172   5.371   4.684  0.0311  0.1322  0.2870
    1PA    H12R10843  -0.253   5.298   4.674  1.5885 -1.5494 -0.5708
    1PA    H12S10844  -0.176   5.434   4.774  2.2759 -1.3589  1.5046
    1PA    C11110845  -0.166   5.466   4.567 -0.0613 -0.0416  0.3994
    1PA    H11R10846  -0.242   5.543   4.579 -1.5235 -1.2269 -0.8049
    1PA    H11S10847  -0.070   5.517   4.561 -1.3729  2.6847  1.1639
    1PA    C11010848  -0.202   5.393   4.436  0.9024 -0.6179 -0.0960
    1PA    H10R10849  -0.140   5.308   4.406 -0.8984 -2.2701  0.6153
    1PA    H10S10850  -0.302   5.351   4.446  1.6215 -2.6675 -0.8678
    1PA     C1910851  -0.193   5.492   4.320 -0.1626 -0.0422  0.6730
    1PA     H9R10852  -0.275   5.564   4.327  0.2600  0.5608 -0.3698
    1PA     H9S10853  -0.101   5.550   4.333  0.6799 -1.3606  0.8251
    1PA     C1810854  -0.185   5.414   4.188 -0.0721 -0.2756 -0.3260
    1PA     H8R10855  -0.092   5.358   4.176  1.2764  1.1862  2.3330
    1PA     H8S10856  -0.276   5.354   4.181 -0.2906 -0.2940  1.9999
    1PA     C1710857  -0.177   5.513   4.067  0.3260 -0.2887  0.4354
    1PA     H7R10858  -0.264   5.579   4.075  0.6565  0.3507 -0.9710
    1PA     H7S10859  -0.092   5.581   4.077  0.9690 -0.6753 -1.8472
    1PA     C1610860  -0.172   5.446   3.928 -0.2991  0.8660  0.1276
    1PA     H6R10861  -0.076   5.394   3.925 -0.4942  0.5422 -0.6053
    1PA     H6S10862  -0.246   5.366   3.940  1.1785 -0.3650  1.6337
    1PA     C1510863  -0.201   5.526   3.802  0.4949  0.4032  0.1274
    1PA     H5R10864  -0.152   5.624   3.802  1.0005  0.1791 -1.5459
    1PA     H5S10865  -0.175   5.472   3.711  2.6194 -2.3276  2.2038
    1PA     C1410866  -0.349   5.570   3.787  0.1541 -0.0080 -0.5195
    1PA     H4R10867  -0.381   5.626   3.875  3.6736 -1.0779  1.6180
    1PA     H4S10868  -0.348   5.639   3.702 -1.6942  0.4259 -0.2387
    1PA     C1310869  -0.440   5.447   3.754  0.1024  0.5094  0.0784
    1PA     H3R10870  -0.387   5.391   3.676 -1.1693 -0.0292 -0.4187
    1PA     H3S10871  -0.439   5.388   3.845 -1.9241 -1.2047 -0.9239
    1PA     C1210872  -0.582   5.486   3.707  0.6915 -0.5066 -0.0284
    1PA     H2R10873  -0.637   5.393   3.694 -1.5239  0.3364  2.4841
    1PA     H2S10874  -0.622   5.552   3.784  0.1416  0.0494 -0.7759
    1PC     C1110875  -0.578   5.560   3.575  0.3548  0.1388  0.6268
    1PC     O1210876  -0.585   5.684   3.564 -0.9343  0.7862  0.4732
    1PC     O1110877  -0.548   5.470   3.473 -1.0182  0.0358 -0.3020
    1PC      C110878  -0.525   5.518   3.345  0.3486 -0.1606  0.3185
    1PC      HR10879  -0.566   5.450   3.269  1.0571 -3.6633  2.8545
    1PC      HS10880  -0.577   5.614   3.333  0.2907 -0.1466  0.6894
    1PC      C210881  -0.377   5.525   3.299  0.2071 -0.2370 -0.2062
    1PC      HX10882  -0.361   5.555   3.195  1.6108  0.0067  0.0568
    1PC      C310883  -0.300   5.391   3.317  0.4749 -0.0137  0.5103
    1PC      HA10884  -0.296   5.381   3.426 -1.5208  0.5305  0.6753
    1PC      HB10885  -0.355   5.307   3.273  2.4423 -0.4272 -1.2979
    1PC     O3110886  -0.162   5.385   3.276  0.4765 -0.4487  0.2013
    1PC     P3110887  -0.129   5.405   3.111 -0.2854 -0.2765 -0.0158
    1PC     O3210888  -0.116   5.563   3.095  0.2151 -0.4180 -0.5168
    1PC     C3110889   0.009   5.632   3.122  0.0143  0.2342  0.3675
    1PC     H1A10890  -0.012   5.679   3.219 -2.7618  0.8060 -0.4053
    1PC     H1B10891   0.089   5.559   3.135  2.1846  2.3502 -0.5372
    1PC     C3210892   0.034   5.733   3.011 -0.1504 -0.4769 -0.1679
    1PC     H2A10893   0.121   5.792   3.040  0.4896 -2.1326  1.4548
    1PC     H2B10894   0.063   5.685   2.917 -1.1249  2.8010 -2.3265
    1PC     N3110895  -0.073   5.832   2.970  0.6038  0.2283  0.2033
    1PC     C3310896   0.008   5.927   2.878  0.6312  0.0942  0.4403
    1PC     H3A10897   0.098   5.964   2.927 -0.3655  2.1593  0.7874
    1PC     H3B10898   0.036   5.861   2.795 -2.0250  0.2908 -0.7248
    1PC     H3C10899  -0.058   6.008   2.847  1.9330  0.8428 -0.4796
    1PC     C3410900  -0.188   5.765   2.900  0.6322 -0.5907  0.6791
    1PC     H4A10901  -0.169   5.683   2.830  2.2288 -0.5116  0.9692
    1PC     H4B10902  -0.253   5.733   2.982  0.3264  1.3840  1.2617
    1PC     H4C10903  -0.237   5.850   2.855  0.2316 -0.5444  1.1925
    1PC     C3510904  -0.126   5.903   3.084 -0.2967  0.3564 -0.9927
    1PC     H5A10905  -0.186   5.992   3.059 -0.2120  0.4491 -0.8662
    1PC     H5B10906  -0.047   5.926   3.155  0.7235 -3.5538 -0.6696
    1PC     H5C10907  -0.187   5.826   3.132 -0.3250  1.3080  0.5740
    1PC     O3310908  -0.007   5.338   3.082  0.2233 -0.6038 -0.1791
    1PC     O3410909  -0.249   5.353   3.042 -0.4809  0.0647  0.2484
    1PC     O2110910  -0.304   5.635   3.380 -0.2923  0.3072 -0.1696
    1PC     C2110911  -0.319   5.761   3.335  0.5970 -0.1997 -0.5176
    1PC     O2210912  -0.386   5.791   3.240 -0.0963 -0.4021  0.1528
    1OL     C1210913  -0.244   5.868   3.416 -0.2391 -0.3305  0.3897
    1OL     H2R10914  -0.217   5.953   3.354 -1.6921  0.8445  1.2844
    1OL     H2S10915  -0.159   5.814   3.457 -0.8497 -2.3565 -0.8625
    1OL     C1310916  -0.334   5.940   3.517 -0.3090  0.0249  1.2593
    1OL     H3R10917  -0.415   5.876   3.553 -0.5767 -1.5244 -1.7254
    1OL     H3S10918  -0.377   6.016   3.451 -0.1155 -1.3345 -0.5261
    1OL     C1410919  -0.268   5.995   3.641  0.9081  0.0403  0.1448
    1OL     H4R10920  -0.345   6.036   3.707 -0.8008 -0.0083 -1.7140
    1OL     H4S10921  -0.198   6.073   3.610 -2.3440  2.1778 -2.4731
    1OL     C1510922  -0.191   5.889   3.714 -0.0145  0.1026 -0.5713
    1OL     H5R10923  -0.118   5.829   3.658  3.2648  2.3287  0.9814
    1OL     H5S10924  -0.263   5.825   3.765  1.4298 -0.1154  1.2980
    1OL     C1610925  -0.120   5.966   3.827 -0.6195 -0.4132  0.2840
    1OL     H6R10926  -0.191   6.017   3.893 -1.0321 -0.8485  0.1843
    1OL     H6S10927  -0.058   6.041   3.778  0.4615 -2.4279 -1.6523
    1OL     C1710928  -0.035   5.863   3.911 -0.4462  0.0949 -0.3892
    1OL     H7R10929   0.025   5.802   3.842 -3.2258 -2.7942 -0.5120
    1OL     H7S10930  -0.100   5.788   3.957 -0.5589 -0.1680 -0.9618
    1OL     C1810931   0.065   5.920   4.011 -0.0868 -0.3193 -0.1725
    1OL     H8R10932   0.006   5.989   4.072 -1.3255 -0.3067 -1.3317
    1OL     H8S10933   0.125   5.989   3.952 -2.0463  1.4134 -0.2556
    1OL     C1910934   0.138   5.810   4.094  0.0252  0.0407  1.0341
    1OL     H9R10935   0.203   5.752   4.029  0.6254  1.4337  0.3418
    1OL    C11010936   0.142   5.787   4.226  0.3562  0.0653  0.4365
    1OL    H10R10937   0.187   5.694   4.261 -2.3011 -1.3582  0.3055
    1OL    C11110938   0.069   5.866   4.331 -0.4321 -0.2668 -0.0039
    1OL    H11R10939  -0.023   5.811   4.349 -0.4800  0.8342  4.1982
    1OL    H11S10940   0.054   5.968   4.296  1.4118  0.3129  0.7390
    1OL    C11210941   0.132   5.858   4.466 -0.3546  0.1124 -0.6133
    1OL    H12R10942   0.224   5.912   4.443 -0.1925  0.4960  0.8333
    1OL    H12S10943   0.150   5.756   4.499 -1.8717 -0.1617 -0.5585
    1OL    C11310944   0.056   5.940   4.575  0.3248 -0.0807 -0.0254
    1OL    H13R10945   0.044   6.043   4.542  0.3528 -0.3658 -0.9765
    1OL    H13S10946   0.107   5.940   4.671  0.6347  4.0102 -0.0331
    1OL    C11410947  -0.083   5.894   4.615 -0.2304 -0.1627 -0.4236
    1OL    H14R10948  -0.075   5.786   4.633  0.8906  0.1532  1.2363
    1OL    H14S10949  -0.161   5.910   4.541  1.7124  0.7462 -2.3874
    1OL    C11510950  -0.128   5.962   4.750  0.3508 -0.5011 -0.9378
    1OL    H15R10951  -0.065   5.938   4.836 -2.0399  0.7818  1.3483
    1OL    H15S10952  -0.228   5.922   4.769  0.1431 -0.4974 -1.9487
    1OL    C11610953  -0.144   6.114   4.748 -0.1850  0.1515  0.2120
    1OL    H16R10954  -0.201   6.142   4.659  0.4725  0.3004 -0.1706
    1OL    H16S10955  -0.047   6.162   4.730 -0.5529  0.6285 -0.5780
    1OL    C11710956  -0.212   6.173   4.870 -0.1883 -0.6809 -0.5130
    1OL    H17R10957  -0.172   6.133   4.964  0.3214  1.9910  0.5060
    1OL    H17S10958  -0.316   6.140   4.876 -0.9230  1.6619  1.0157
    1OL    C11810959  -0.230   6.327   4.872 -0.6552 -0.7518 -0.7085
    1OL    H18R10960  -0.142   6.382   4.838  1.2527 -3.0640  0.1798
    1OL    H18S10961  -0.245   6.369   4.971 -1.4509 -2.5093 -0.0599
    1OL    H18T10962  -0.319   6.351   4.814 -2.6006 -0.9360  2.0346
    1PA    C11610963   2.292   5.159   4.716 -0.7755 -0.0291 -0.6845
    1PA    H16R10964   2.386   5.107   4.699 -1.2160 -1.5574  1.2206
    1PA    H16S10965   2.211   5.086   4.707 -2.2932  1.6404 -1.1690
    1PA    H16T10966   2.288   5.194   4.820 -2.0592  2.5285 -1.4996
    1PA    C11510967   2.265   5.278   4.620 -0.2390  0.1954  0.1914
    1PA    H15R10968   2.167   5.322   4.640 -0.0925  0.5085  0.2246
    1PA    H15S10969   2.330   5.365   4.623 -1.8588  1.5203 -0.9645
    1PA    C11410970   2.261   5.232   4.470 -0.2680 -0.5684  0.1108
    1PA    H14R10971   2.228   5.314   4.407  0.1348 -2.1169 -2.2446
    1PA    H14S10972   2.360   5.204   4.432  0.8142  1.5144  1.2191
    1PA    C11310973   2.160   5.122   4.442 -0.6589  0.6592  0.1280
    1PA    H13R10974   2.168   5.098   4.336 -0.3602 -2.1134  0.7031
    1PA    H13S10975   2.195   5.035   4.497  0.3113  0.9812  0.0409
    1PA    C11210976   2.012   5.163   4.460 -0.3841  0.6240 -0.6703
    1PA    H12R10977   1.986   5.170   4.566  0.0925 -2.1126 -0.3029
    1PA    H12S10978   1.997   5.261   4.413 -1.5192  0.1975 -1.2525
    1PA    C11110979   1.920   5.062   4.379 -0.5095  0.6539  0.1838
    1PA    H11R10980   1.943   5.069   4.272 -0.1724 -1.5574  0.0641
    1PA    H11S10981   1.940   4.963   4.422  1.8909  1.9413  2.3341
    1PA    C11010982   1.772   5.099   4.391  0.0697 -0.9894  0.1110
    1PA    H10R10983   1.756   5.109   4.499  1.4627 -1.9000  0.4313
    1PA    H10S10984   1.746   5.198   4.353  1.5640 -1.0670 -1.2032
    1PA     C1910985   1.677   4.992   4.338 -0.8388 -0.8409  0.1269
    1PA     H9R10986   1.715   4.900   4.382  0.7322 -0.4173 -0.2716
    1PA     H9S10987   1.574   5.005   4.372 -0.5506 -2.4004  1.6936
    1PA     C1810988   1.681   4.974   4.185  0.3670  0.2089  0.4925
    1PA     H8R10989   1.780   4.936   4.160  0.3789  0.8078 -0.3930
    1PA     H8S10990   1.607   4.900   4.153  0.3242  0.0894  0.8662
    1PA     C1710991   1.666   5.105   4.118  0.0597  0.3749  0.0780
    1PA     H7R10992   1.584   5.162   4.163  1.2699  1.4062  1.0952
    1PA     H7S10993   1.761   5.159   4.129 -1.0815  2.0511  2.7466
    1PA     C1610994   1.637   5.094   3.971 -0.3068 -0.6003 -0.0445
    1PA     H6R10995   1.534   5.076   3.941 -0.2238 -1.0497 -0.0697
    1PA     H6S10996   1.659   5.192   3.929 -1.1465 -0.3192  0.1573
    1PA     C1510997   1.741   5.005   3.895 -0.8790 -0.4125  0.4896
    1PA     H5R10998   1.723   4.900   3.919 -1.5936  0.1509  2.6750
    1PA     H5S10999   1.715   5.008   3.789  0.6737 -1.6655  0.0523
    1PA     C1411000   1.894   5.039   3.916  0.2631  0.4765 -0.1572
    1PA     H4R11001   1.903   5.137   3.964 -0.2086  0.1422  0.6406
    1PA     H4S11002   1.942   4.961   3.976 -2.0526 -0.1426  1.0239
    1PA     C1311003   1.963   5.046   3.781  0.0449  0.2754 -0.1914
    1PA     H3R11004   1.908   5.104   3.706  1.4700  2.0242  0.0630
    1PA     H3S11005   2.047   5.104   3.818 -2.4002  5.0038 -1.1985
    1PA     C1211006   1.993   4.898   3.736 -0.4246  0.1854  0.1084
    1PA     H2R11007   2.092   4.870   3.774 -0.5056 -0.2318  0.0230
    1PA     H2S11008   1.922   4.823   3.773  0.5608 -0.3640  0.9501
    1PC     C1111009   1.998   4.890   3.588 -0.3113  0.1587  0.8209
    1PC     O1211010   2.078   4.955   3.521 -0.1771 -0.3537 -0.3859
    1PC     O1111011   1.889   4.818   3.539  0.2020 -0.3255  0.3264
    1PC      C111012   1.888   4.785   3.396  0.6778  0.2316 -0.7151
    1PC      HR11013   1.988   4.787   3.351  1.5816 -2.0864  0.9843
    1PC      HS11014   1.839   4.688   3.385  1.3611 -0.1437 -0.4773
    1PC      C211015   1.800   4.874   3.309  1.1816 -0.3134 -0.1349
    1PC      HX11016   1.793   4.831   3.209  3.2085  0.1101 -0.4834
    1PC      C311017   1.872   5.010   3.292 -0.0621 -0.4593 -0.0930
    1PC      HA11018   1.864   5.053   3.392  0.2184 -0.1867 -0.1872
    1PC      HB11019   1.973   4.997   3.253 -0.5508 -1.5525 -1.0823
    1PC     O3111020   1.785   5.077   3.197  0.0023  0.3934  0.0081
    1PC     P3111021   1.820   5.080   3.043 -0.3815 -0.1214 -0.4485
    1PC     O3211022   1.885   5.228   3.026  0.0656 -0.2301 -0.3468
    1PC     C3111023   1.816   5.348   2.988  0.4577  0.4447  0.4650
    1PC     H1A11024   1.724   5.358   3.046 -1.3308  3.7866 -2.5974
    1PC     H1B11025   1.873   5.438   3.011 -2.7325  2.9573 -0.6947
    1PC     C3211026   1.772   5.336   2.838  0.7083  0.5698 -0.6918
    1PC     H2A11027   1.709   5.249   2.824 -0.5904  1.4041 -0.1923
    1PC     H2B11028   1.701   5.418   2.824  0.0519  0.5953  2.1834
    1PC     N3111029   1.878   5.342   2.735 -0.0536 -0.0240 -0.5105
    1PC     C3311030   1.936   5.207   2.717  0.6304  0.0512 -0.3213
    1PC     H3A11031   2.005   5.215   2.633  0.6802  2.7426 -0.1006
    1PC     H3B11032   1.987   5.181   2.810  2.6215  2.0234 -0.7661
    1PC     H3C11033   1.848   5.146   2.696 -0.8556  1.0746  2.4037
    1PC     C3411034   1.817   5.378   2.610  0.7780 -0.5352  0.7770
    1PC     H4A11035   1.888   5.382   2.527  0.7768 -1.9288  0.6869
    1PC     H4B11036   1.737   5.317   2.568  0.7130  2.2088 -3.9131
    1PC     H4C11037   1.788   5.480   2.638  0.2291 -0.4671 -0.0068
    1PC     C3511038   1.981   5.438   2.774 -0.6049 -0.4047 -0.4061
    1PC     H5A11039   2.011   5.416   2.876 -0.8605  0.3368 -0.1670
    1PC     H5B11040   1.944   5.539   2.758 -0.0996  0.0986  1.3864
    1PC     H5C11041   2.071   5.421   2.715  0.1010 -1.4725  0.9269
    1PC     O3311042   1.932   4.980   3.024  0.2468  0.0474  0.7165
    1PC     O3411043   1.698   5.081   2.962  0.1393 -0.3340 -0.6127
    1PC     O2111044   1.672   4.908   3.374  0.6976  0.1094  0.1611
    1PC     C2111045   1.579   4.805   3.378 -0.2472 -0.2857 -0.2546
    1PC     O2211046   1.599   4.689   3.337  0.0382  0.2945  0.6336
    1OL     C1211047   1.461   4.854   3.449 -0.6429  0.8884  0.0941
    1OL     H2R11048   1.427   4.939   3.389  1.5508  1.7970  0.0420
    1OL     H2S11049   1.502   4.890   3.543  0.5500  2.4260 -0.9639
    1OL     C1311050   1.361   4.742   3.474 -0.1532 -0.3701  0.0654
    1OL     H3R11051   1.423   4.668   3.525  0.1856 -0.6970 -0.8031
    1OL     H3S11052   1.322   4.707   3.378 -2.3166 -1.5954  1.3051
    1OL     C1411053   1.244   4.787   3.569  0.4110  0.3342 -0.0055
    1OL     H4R11054   1.183   4.856   3.510  0.3825  1.5340  1.3649
    1OL     H4S11055   1.271   4.851   3.653  0.9400  0.3105 -0.1521
    1OL     C1511056   1.151   4.682   3.628  0.6288 -0.0346 -0.4887
    1OL     H5R11057   1.114   4.617   3.549  0.9596  0.5489 -1.1302
    1OL     H5S11058   1.069   4.736   3.676  0.9610 -2.0028  2.5834
    1OL     C1611059   1.220   4.582   3.731 -0.0006 -0.0677 -0.4002
    1OL     H6R11060   1.296   4.519   3.685 -2.3274 -3.4435  0.0571
    1OL     H6S11061   1.143   4.514   3.768  1.3841 -0.3225  2.2754
    1OL     C1711062   1.275   4.663   3.853  0.4809 -0.1951 -0.0956
    1OL     H7R11063   1.187   4.718   3.889  1.5515  1.3195  0.3202
    1OL     H7S11064   1.346   4.738   3.819 -0.8855  1.8474  1.3207
    1OL     C1811065   1.328   4.581   3.972  0.5631 -0.1144  0.2029
    1OL     H8R11066   1.247   4.520   4.012  1.3710 -1.7862 -0.6347
    1OL     H8S11067   1.363   4.649   4.050 -1.0454  1.5500 -0.4414
    1OL     C1911068   1.450   4.497   3.931  0.3929 -0.7629  0.1859
    1OL     H9R11069   1.431   4.431   3.847 -0.4899  0.3007 -0.4743
    1OL    C11011070   1.576   4.502   3.975  0.1157 -0.3743 -0.1179
    1OL    H10R11071   1.651   4.439   3.928  0.6656  0.8583 -0.9584
    1OL    C11111072   1.634   4.594   4.088  0.5843  0.4059  0.4127
    1OL    H11R11073   1.582   4.690   4.097  0.3264  0.2673  0.3875
    1OL    H11S11074   1.739   4.614   4.065  0.4613 -0.7897 -1.3361
    1OL    C11211075   1.623   4.518   4.226 -1.0968 -1.2312  1.2618
    1OL    H12R11076   1.667   4.419   4.215 -3.7195 -2.7656  3.2768
    1OL    H12S11077   1.516   4.507   4.246 -1.4293  0.8180  0.8642
    1OL    C11311078   1.696   4.584   4.347 -0.4573 -0.4090 -0.6809
    1OL    H13R11079   1.662   4.685   4.374  1.2595 -0.5524  2.4703
    1OL    H13S11080   1.801   4.601   4.325 -0.4692  1.0858  0.2212
    1OL    C11411081   1.686   4.494   4.473  0.2673  0.0218 -0.3189
    1OL    H14R11082   1.735   4.400   4.446  0.2847  0.5902 -2.4035
    1OL    H14S11083   1.584   4.469   4.500  0.7382 -0.6932  0.9135
    1OL    C11511084   1.748   4.556   4.599 -0.3726 -0.1897 -0.1285
    1OL    H15R11085   1.702   4.653   4.618  0.5834  0.0679  0.9982
    1OL    H15S11086   1.853   4.584   4.590 -0.5176  0.3264 -0.2245
    1OL    C11611087   1.741   4.480   4.735 -0.0419  0.4176  0.0179
    1OL    H16R11088   1.638   4.485   4.771 -0.5946 -1.4487 -1.1617
    1OL    H16S11089   1.800   4.532   4.811  0.6679 -3.0556  2.1010
    1OL    C11711090   1.779   4.327   4.738  0.2041 -0.4310 -0.2775
    1OL    H17R11091   1.717   4.268   4.670  1.5552 -2.8090  0.4432
    1OL    H17S11092   1.739   4.290   4.832 -1.4155  3.1337  0.5953
    1OL    C11811093   1.924   4.304   4.720 -0.0752  0.2403 -0.1398
    1OL    H18R11094   1.947   4.343   4.620  0.0112 -1.2501 -0.7327
    1OL    H18S11095   1.954   4.199   4.730  1.4585  0.6407 -0.2701
    1OL    H18T11096   1.991   4.357   4.788  0.4735 -0.1809 -0.3347
    1PA    C11611097   0.756   3.826   5.297 -0.5609  0.4547  0.3581
    1PA    H16R11098   0.709   3.746   5.355 -1.3893  0.3551 -0.4376
    1PA    H16S11099   0.774   3.915   5.358  3.3949  0.6801 -0.8483
    1PA    H16T11100   0.853   3.788   5.263 -0.3181 -0.1961  1.6945
    1PA    C11511101   0.675   3.879   5.174  0.1995 -0.2869 -0.2318
    1PA    H15R11102   0.575   3.910   5.206  0.9647  1.9945  0.1668
    1PA    H15S11103   0.725   3.967   5.132  0.4991 -0.7486 -0.8566
    1PA    C11411104   0.667   3.767   5.062 -0.5466  0.2017 -0.5329
    1PA    H14R11105   0.766   3.730   5.033 -0.8251  0.5084 -1.9000
    1PA    H14S11106   0.620   3.683   5.113  2.1234  0.1579  2.1124
    1PA    C11311107   0.592   3.796   4.930  0.5976 -0.1346 -0.3693
    1PA    H13R11108   0.485   3.797   4.952  0.4217  3.0169 -0.9737
    1PA    H13S11109   0.622   3.888   4.880  0.5478 -1.3273 -2.7552
    1PA    C11211110   0.606   3.686   4.815  0.1901 -0.7895  0.9085
    1PA    H12R11111   0.703   3.692   4.764 -0.5848 -0.4352 -0.5591
    1PA    H12S11112   0.613   3.583   4.850  2.0492 -0.7851  0.6722
    1PA    C11111113   0.499   3.689   4.707  0.4528 -0.1157  0.5519
    1PA    H11R11114   0.519   3.608   4.636 -2.5101 -0.0470 -0.5170
    1PA    H11S11115   0.397   3.676   4.743  0.4620  2.6106  1.7860
    1PA    C11011116   0.503   3.823   4.625  0.7166  0.0835 -0.3102
    1PA    H10R11117   0.502   3.903   4.700  0.8345 -0.0274 -0.1908
    1PA    H10S11118   0.593   3.825   4.562  1.4295  2.0274  0.6741
    1PA     C1911119   0.385   3.848   4.533  0.1759 -0.6409 -0.1590
    1PA     H9R11120   0.294   3.848   4.593 -0.4603  3.3550 -0.8811
    1PA     H9S11121   0.395   3.944   4.482  1.2306 -0.3982  0.4833
    1PA     C1811122   0.343   3.740   4.433  0.2758 -0.7271 -0.8630
    1PA     H8R11123   0.316   3.650   4.488  0.0150  0.7423  1.5637
    1PA     H8S11124   0.260   3.775   4.372 -0.4682 -2.2724 -0.7683
    1PA     C1711125   0.450   3.711   4.326  0.1711  0.7539 -0.7020
    1PA     H7R11126   0.464   3.805   4.274 -0.5133  0.2216 -1.8777
    1PA     H7S11127   0.551   3.692   4.365 -1.2452 -1.6988  2.2562
    1PA     C1611128   0.404   3.599   4.233 -0.2411 -0.4891 -0.3482
    1PA     H6R11129   0.489   3.570   4.171  0.0032  0.7947 -0.6544
    1PA     H6S11130   0.364   3.513   4.287 -1.2127 -1.0519 -1.8803
    1PA     C1511131   0.293   3.651   4.130 -0.0062  0.3161  0.0733
    1PA     H5R11132   0.202   3.678   4.184  0.8197  1.4242  0.9559
    1PA     H5S11133   0.328   3.736   4.072  1.1172  0.0562  0.3472
    1PA     C1411134   0.241   3.539   4.031 -0.4087 -0.0441  0.0323
    1PA     H4R11135   0.330   3.501   3.978  0.3987 -0.3242  1.5382
    1PA     H4S11136   0.188   3.463   4.089 -3.5275  2.5447  0.8679
    1PA     C1311137   0.159   3.574   3.908 -0.3347 -0.2379 -0.4190
    1PA     H3R11138   0.073   3.640   3.914  0.1508  0.5206 -1.5244
    1PA     H3S11139   0.218   3.635   3.839 -0.1860 -0.0065 -0.0910
    1PA     C1211140   0.098   3.448   3.843 -0.0230 -0.1697 -0.3796
    1PA     H2R11141   0.181   3.380   3.826 -0.5917 -0.8414 -0.5294
    1PA     H2S11142   0.036   3.401   3.921  1.4855 -1.3066  0.1839
    1PC     C1111143   0.023   3.480   3.724 -0.1320  0.6147 -0.0195
    1PC     O1211144   0.065   3.550   3.640  0.1394 -0.0826 -0.0585
    1PC     O1111145  -0.086   3.404   3.722 -0.2672 -0.4289 -0.2283
    1PC      C111146  -0.178   3.407   3.609 -0.5104 -0.4301  0.8234
    1PC      HR11147  -0.200   3.514   3.600  1.1762 -0.0890  0.5147
    1PC      HS11148  -0.132   3.368   3.517 -1.3552 -0.4807  0.4063
    1PC      C211149  -0.313   3.344   3.638 -0.0450 -0.1805 -0.1152
    1PC      HX11150  -0.294   3.246   3.683 -0.3462  1.7460  4.8570
    1PC      C311151  -0.400   3.342   3.510 -0.1832 -0.6098 -0.0121
    1PC      HA11152  -0.488   3.283   3.537 -0.1222 -0.3166  0.8696
    1PC      HB11153  -0.432   3.442   3.480 -2.2527 -0.9714  0.8273
    1PC     O3111154  -0.330   3.271   3.409 -0.6880 -0.1910  0.1980
    1PC     P3111155  -0.323   3.321   3.259 -0.1685  0.0079  0.1298
    1PC     O3211156  -0.211   3.436   3.253  0.2701 -0.4532  0.5762
    1PC     C3111157  -0.247   3.576   3.267 -0.2939  0.1487 -0.2301
    1PC     H1A11158  -0.264   3.620   3.169 -1.5515 -1.3964 -0.7552
    1PC     H1B11159  -0.336   3.588   3.330 -0.3192  0.5428 -0.3377
    1PC     C3211160  -0.132   3.643   3.346 -0.6639 -0.4151 -0.0038
    1PC     H2A11161  -0.169   3.741   3.376 -2.0335 -1.2569  1.1540
    1PC     H2B11162  -0.106   3.586   3.435  1.2669 -0.2096 -0.3795
    1PC     N3111163   0.002   3.673   3.275 -0.4880  0.1963 -0.0556
    1PC     C3311164   0.071   3.773   3.362 -0.4904 -0.3360  0.5460
    1PC     H3A11165  -0.007   3.849   3.365 -1.4197 -1.2412 -0.1037
    1PC     H3B11166   0.090   3.742   3.465  0.8016 -1.3786  0.0129
    1PC     H3C11167   0.166   3.809   3.322 -0.7479 -1.6237 -1.3259
    1PC     C3411168   0.085   3.555   3.261  0.1012  0.4168 -0.8205
    1PC     H4A11169   0.169   3.602   3.209  0.5078  1.8596  1.0643
    1PC     H4B11170   0.120   3.513   3.355  0.2260 -2.5779 -2.0755
    1PC     H4C11171   0.030   3.481   3.203  0.3473  0.2852 -0.8892
    1PC     C3511172  -0.029   3.725   3.136  0.3192 -0.1984  0.3415
    1PC     H5A11173  -0.118   3.788   3.140  1.6102  1.6832  0.8251
    1PC     H5B11174  -0.032   3.639   3.069 -0.1163 -0.8628  1.2029
    1PC     H5C11175   0.056   3.786   3.103  0.4733 -1.6734 -2.2446
    1PC     O3311176  -0.270   3.213   3.175 -0.3775 -0.1448 -0.0183
    1PC     O3411177  -0.448   3.387   3.223 -0.2844 -0.1582 -0.0693
    1PC     O2111178  -0.381   3.420   3.742 -0.3480 -0.2127  0.2384
    1PC     C2111179  -0.466   3.356   3.826 -0.3966  0.7750 -0.4545
    1PC     O2211180  -0.490   3.236   3.829 -0.1943 -0.1562 -0.0937
    1OL     C1211181  -0.540   3.455   3.913  0.2689 -0.1207  0.8639
    1OL     H2R11182  -0.580   3.526   3.840  1.7115  2.8606  2.7893
    1OL     H2S11183  -0.468   3.513   3.970 -0.9159  2.9847 -0.5475
    1OL     C1311184  -0.651   3.405   4.009  0.5404 -1.0859  0.7137
    1OL     H3R11185  -0.723   3.353   3.944 -0.4685  0.5696  0.4449
    1OL     H3S11186  -0.694   3.486   4.067  1.3417 -2.1171  2.8583
    1OL     C1411187  -0.602   3.309   4.117 -0.1132  0.8534  0.3904
    1OL     H4R11188  -0.563   3.219   4.071 -1.2622  0.0669  0.8941
    1OL     H4S11189  -0.683   3.264   4.175 -2.7582  2.6607 -1.6266
    1OL     C1511190  -0.496   3.361   4.221 -0.1619 -0.1390 -0.0305
    1OL     H5R11191  -0.542   3.456   4.249  1.3629  0.3678  0.9004
    1OL     H5S11192  -0.401   3.384   4.172 -0.2814 -1.2752 -0.8226
    1OL     C1611193  -0.482   3.282   4.352 -0.1124 -0.1403 -0.1299
    1OL     H6R11194  -0.428   3.189   4.334 -1.0737 -0.8355  0.4641
    1OL     H6S11195  -0.584   3.258   4.384 -0.5588 -0.1853 -1.5025
    1OL     C1711196  -0.413   3.365   4.459 -0.3095  0.6946  0.3437
    1OL     H7R11197  -0.441   3.470   4.446 -0.5711  0.5099 -0.6801
    1OL     H7S11198  -0.305   3.364   4.442 -0.2807  0.9188  0.5082
    1OL     C1811199  -0.439   3.296   4.597  0.4608 -0.3302  0.5295
    1OL     H8R11200  -0.410   3.192   4.584  0.6042 -0.2951  0.5663
    1OL     H8S11201  -0.545   3.309   4.621  0.0973  1.7248 -1.8105
    1OL     C1911202  -0.370   3.370   4.704 -0.3803  0.0348  0.7349
    1OL     H9R11203  -0.422   3.455   4.746  1.2029  1.0088  0.8032
    1OL    C11011204  -0.262   3.330   4.764 -0.0515 -0.9568 -0.0573
    1OL    H10R11205  -0.223   3.387   4.848  1.3258 -1.3089 -0.4264
    1OL    C11111206  -0.168   3.215   4.719  0.1616 -0.6451  0.0474
    1OL    H11R11207  -0.086   3.257   4.661  0.7181 -0.6329  0.8185
    1OL    H11S11208  -0.210   3.146   4.645 -0.3676  1.7157 -1.9973
    1OL    C11211209  -0.125   3.137   4.853 -0.0034 -0.0415 -0.3730
    1OL    H12R11210  -0.196   3.056   4.873 -1.4767  1.2657 -0.1413
    1OL    H12S11211  -0.117   3.212   4.931  3.4239  2.7233 -3.0418
    1OL    C11311212   0.025   3.086   4.831 -0.5170 -0.4885 -0.1814
    1OL    H13R11213   0.048   3.042   4.734 -0.1239 -1.7886  0.4871
    1OL    H13S11214   0.046   3.017   4.913  0.4849 -1.1161 -0.9404
    1OL    C11411215   0.127   3.204   4.838 -0.5865 -0.0661  0.1806
    1OL    H14R11216   0.117   3.238   4.941  3.8691 -0.1385  0.8305
    1OL    H14S11217   0.096   3.280   4.765 -0.4654 -2.6790 -2.8204
    1OL    C11511218   0.280   3.180   4.831 -1.2264  0.2091  0.0029
    1OL    H15R11219   0.299   3.155   4.726 -1.2097 -0.9871  0.2781
    1OL    H15S11220   0.308   3.090   4.886  0.3906 -0.1549 -1.3472
    1OL    C11611221   0.358   3.305   4.872  0.8457  0.1558  0.2686
    1OL    H16R11222   0.320   3.329   4.972 -0.3176 -1.7710  0.3328
    1OL    H16S11223   0.329   3.387   4.807 -0.4819 -0.8053 -0.3859
    1OL    C11711224   0.508   3.288   4.872 -0.0910  0.3857  0.4648
    1OL    H17R11225   0.541   3.193   4.915  1.1206 -0.1981 -1.6188
    1OL    H17S11226   0.541   3.375   4.930 -2.0431  0.7325  1.1379
    1OL    C11811227   0.565   3.285   4.727 -0.5328  0.1252 -0.1571
    1OL    H18R11228   0.673   3.266   4.724 -0.3970  0.8942 -0.1270
    1OL    H18S11229   0.547   3.380   4.677 -0.4595  0.2452  0.0452
    1OL    H18T11230   0.522   3.204   4.667  0.6322 -1.3304  0.8934
    1PA    C11611231   0.702   4.174   4.718 -0.6394 -0.1001  0.4147
    1PA    H16R11232   0.639   4.262   4.710  0.5431  0.9869  2.2613
    1PA    H16S11233   0.647   4.097   4.772 -1.1153 -0.3753 -0.4420
    1PA    H16T11234   0.723   4.124   4.623 -1.9370 -0.9018  0.5308
    1PA    C11511235   0.827   4.217   4.787 -0.2108 -0.3782  0.1113
    1PA    H15R11236   0.792   4.240   4.888 -2.9918 -0.3606 -0.7648
    1PA    H15S11237   0.894   4.130   4.794 -0.6353 -0.7816 -0.6288
    1PA    C11411238   0.895   4.340   4.711  0.0869 -0.0362  0.6249
    1PA    H14R11239   0.891   4.309   4.607  0.2307  1.0607  0.2862
    1PA    H14S11240   0.841   4.434   4.725 -1.7107 -1.3744  3.6043
    1PA    C11311241   1.040   4.382   4.746 -0.8704  0.3552  0.7640
    1PA    H13R11242   1.050   4.398   4.854  1.9564  0.7581  0.5376
    1PA    H13S11243   1.110   4.301   4.724  0.6850  2.0878 -1.0808
    1PA    C11211244   1.096   4.509   4.680 -0.2135  0.5102  0.6859
    1PA    H12R11245   1.048   4.594   4.729 -0.9138 -0.0892  1.0691
    1PA    H12S11246   1.204   4.514   4.696  0.0245 -1.1033 -0.3132
    1PA    C11111247   1.078   4.516   4.530  0.4022 -0.4544 -0.4279
    1PA    H11R11248   0.971   4.512   4.509 -0.0637  5.5898 -1.1848
    1PA    H11S11249   1.089   4.624   4.513 -0.4746 -0.4915 -1.3365
    1PA    C11011250   1.160   4.426   4.440 -0.1955  0.4061  0.0575
    1PA    H10R11251   1.266   4.437   4.464 -0.4703  0.5153  1.3014
    1PA    H10S11252   1.147   4.319   4.458 -0.4247  0.6908  1.7632
    1PA     C1911253   1.150   4.448   4.286  0.8328  0.0766 -0.5632
    1PA     H9R11254   1.224   4.527   4.274  3.0383 -1.8149 -0.1722
    1PA     H9S11255   1.196   4.363   4.235  0.3835 -0.8179  0.5004
    1PA     C1811256   1.016   4.485   4.213 -0.8201 -0.2160  0.5615
    1PA     H8R11257   0.978   4.586   4.228  1.1079  0.5142  0.7252
    1PA     H8S11258   1.041   4.478   4.107 -1.0437 -0.2742  0.5126
    1PA     C1711259   0.896   4.385   4.244 -1.2793 -0.8097  0.5426
    1PA     H7R11260   0.913   4.290   4.193 -0.8147  1.2314 -3.4497
    1PA     H7S11261   0.891   4.377   4.353  1.0972 -0.3259  0.7352
    1PA     C1611262   0.772   4.448   4.187  0.6332 -0.2825 -0.0724
    1PA     H6R11263   0.683   4.399   4.227  0.1914  0.9556  0.5007
    1PA     H6S11264   0.774   4.549   4.228  2.1123 -0.1697 -0.3757
    1PA     C1511265   0.759   4.454   4.033 -0.0462  0.5348  0.6741
    1PA     H5R11266   0.857   4.480   3.992  0.0378 -2.3058 -1.3053
    1PA     H5S11267   0.721   4.357   3.997  0.0338  0.1626  1.5779
    1PA     C1411268   0.662   4.558   3.986  0.4948 -0.2101  0.1235
    1PA     H4R11269   0.567   4.554   4.041 -1.5392 -0.5503 -3.1439
    1PA     H4S11270   0.711   4.654   4.005  1.0637 -0.3533 -0.5623
    1PA     C1311271   0.631   4.560   3.830 -0.2716  0.8633 -0.4311
    1PA     H3R11272   0.727   4.586   3.783  0.8936 -1.6360  0.3732
    1PA     H3S11273   0.594   4.465   3.791 -1.7032  1.0982  0.3023
    1PA     C1211274   0.522   4.658   3.785 -0.4883 -0.2710 -0.8568
    1PA     H2R11275   0.430   4.605   3.813 -0.8941  2.2417  3.4768
    1PA     H2S11276   0.521   4.759   3.827 -1.9156 -0.5042 -0.2356
    1PC     C1111277   0.513   4.669   3.638 -0.4008 -0.2128 -0.7906
    1PC     O1211278   0.611   4.696   3.573 -0.2696 -0.0067 -0.1274
    1PC     O1111279   0.385   4.657   3.592 -0.0724  0.2103  0.4572
    1PC      C111280   0.369   4.598   3.465 -0.2576 -0.2406 -0.1629
    1PC      HR11281   0.276   4.629   3.417 -1.0903 -2.2031  0.0926
    1PC      HS11282   0.451   4.638   3.404 -1.0312  0.4882 -0.7427
    1PC      C211283   0.385   4.447   3.480  0.3648 -0.3981  1.0340
    1PC      HX11284   0.490   4.429   3.507  0.3119 -2.2555  0.2026
    1PC      C311285   0.355   4.375   3.351 -0.1417 -0.0197 -0.5816
    1PC      HA11286   0.391   4.274   3.371  2.5891  0.8010 -0.9194
    1PC      HB11287   0.250   4.387   3.327 -1.2252 -1.1719  2.9722
    1PC     O3111288   0.420   4.416   3.230  0.3198  0.4358 -0.2483
    1PC     P3111289   0.575   4.395   3.211 -0.0200  0.2191 -0.2009
    1PC     O3211290   0.630   4.548   3.238  0.0317  0.7398  0.1305
    1PC     C3111291   0.653   4.635   3.125 -0.6014 -0.6224  0.1863
    1PC     H1A11292   0.726   4.716   3.130 -1.9531  0.9061 -2.3524
    1PC     H1B11293   0.674   4.573   3.037  0.6939 -0.1540  0.1434
    1PC     C3211294   0.522   4.704   3.106 -0.0362 -0.0485 -0.0420
    1PC     H2A11295   0.446   4.640   3.059  0.8810 -0.7977 -0.5565
    1PC     H2B11296   0.482   4.747   3.197  0.7943  1.5854 -0.4125
    1PC     N3111297   0.522   4.831   3.013  0.0546  0.6669  0.4406
    1PC     C3311298   0.395   4.850   2.944  0.1307 -0.2409 -0.1100
    1PC     H3A11299   0.396   4.948   2.895 -2.2569 -0.1356 -0.0774
    1PC     H3B11300   0.386   4.777   2.863 -0.6722 -0.2205 -0.0530
    1PC     H3C11301   0.322   4.833   3.023 -0.0192 -3.2808 -0.8051
    1PC     C3411302   0.544   4.940   3.103  0.2680  0.0173  0.2451
    1PC     H4A11303   0.523   5.030   3.045 -0.2902 -0.7561 -0.7834
    1PC     H4B11304   0.479   4.935   3.191 -0.3062  1.3560 -0.0752
    1PC     H4C11305   0.646   4.942   3.143 -0.5084  0.9683  2.3352
    1PC     C3511306   0.628   4.824   2.909 -0.1805  0.9471  0.4902
    1PC     H5A11307   0.727   4.817   2.954 -0.0680 -0.1017  0.0990
    1PC     H5B11308   0.622   4.909   2.841  0.3063  0.3869 -0.2682
    1PC     H5C11309   0.605   4.729   2.860 -2.3026 -0.2571  3.5083
    1PC     O3311310   0.632   4.314   3.316  0.3647  0.2639  0.6499
    1PC     O3411311   0.587   4.342   3.076 -0.0743 -0.0323 -0.1611
    1PC     O2111312   0.289   4.396   3.568  0.3735  0.2054  0.3308
    1PC     C2111313   0.329   4.328   3.677  0.6482  0.8453  0.5551
    1PC     O2211314   0.439   4.291   3.702 -0.0741 -0.2891 -0.1841
    1OL     C1211315   0.208   4.302   3.773  0.7392  0.3273 -0.6922
    1OL     H2R11316   0.227   4.218   3.840 -0.3382 -0.6589 -1.5805
    1OL     H2S11317   0.128   4.267   3.708 -0.0918 -0.0910  0.5116
    1OL     C1311318   0.162   4.424   3.848  0.4961  0.3850 -0.1036
    1OL     H3R11319   0.060   4.408   3.883  0.5475  0.8712  0.2868
    1OL     H3S11320   0.159   4.508   3.778 -1.5220  0.4689  0.0327
    1OL     C1411321   0.252   4.466   3.969  1.1287  0.2444  0.1933
    1OL     H4R11322   0.352   4.496   3.936  0.7334 -0.3517 -1.6461
    1OL     H4S11323   0.262   4.373   4.024 -1.2005 -0.6692 -0.7942
    1OL     C1511324   0.187   4.574   4.060 -0.3929 -0.4050  0.7998
    1OL     H5R11325   0.263   4.608   4.131 -1.2520  0.6212  1.2616
    1OL     H5S11326   0.098   4.528   4.103  0.3534 -2.7274 -0.0209
    1OL     C1611327   0.153   4.701   3.986  0.1457 -0.3317 -0.3046
    1OL     H6R11328   0.076   4.685   3.910  0.6574  0.7535 -1.0868
    1OL     H6S11329   0.231   4.740   3.920  0.6074 -0.5670  0.0989
    1OL     C1711330   0.131   4.815   4.089  0.3176 -0.0114  0.0125
    1OL     H7R11331   0.049   4.779   4.151  2.5511 -1.6560  2.2175
    1OL     H7S11332   0.097   4.896   4.023  1.6306  0.2503 -0.3674
    1OL     C1811333   0.235   4.861   4.187  0.5959  0.3666 -0.1741
    1OL     H8R11334   0.229   4.803   4.279 -0.2178 -0.2208 -0.5915
    1OL     H8S11335   0.212   4.965   4.214  0.8631  0.7476 -1.3520
    1OL     C1911336   0.373   4.871   4.129 -0.9374  0.3640 -0.4618
    1OL     H9R11337   0.378   4.892   4.023  2.0189  0.2543 -0.4233
    1OL    C11011338   0.486   4.846   4.193 -0.1061  0.0367  0.2170
    1OL    H10R11339   0.581   4.839   4.141 -0.0585  0.4420  0.2479
    1OL    C11111340   0.499   4.815   4.340  0.1902  0.3504 -0.3238
    1OL    H11R11341   0.532   4.712   4.351  1.7854  1.0470  2.3717
    1OL    H11S11342   0.398   4.819   4.381  0.7973 -1.2819  1.4643
    1OL    C11211343   0.593   4.915   4.409  0.4144  0.0103 -0.1789
    1OL    H12R11344   0.561   5.015   4.380  1.1201  0.6426  1.1402
    1OL    H12S11345   0.692   4.900   4.366 -0.3867  1.3190 -2.6986
    1OL    C11311346   0.605   4.913   4.560 -0.1295 -0.7856 -0.0323
    1OL    H13R11347   0.516   4.904   4.623 -0.4888 -0.5263 -0.4976
    1OL    H13S11348   0.644   5.014   4.577 -1.0484 -0.7070  1.9004
    1OL    C11411349   0.710   4.818   4.612 -0.5132  0.5445 -0.0102
    1OL    H14R11350   0.795   4.807   4.543  0.0793 -2.3332  1.0731
    1OL    H14S11351   0.661   4.721   4.608 -0.6269  0.6393 -3.0297
    1OL    C11511352   0.767   4.850   4.754 -0.1362 -0.9191  0.6795
    1OL    H15R11353   0.823   4.942   4.743  0.3330 -1.1671  0.9693
    1OL    H15S11354   0.846   4.780   4.782  0.8950 -1.1485 -2.3837
    1OL    C11611355   0.654   4.864   4.858  0.1799  0.2845 -0.3530
    1OL    H16R11356   0.583   4.936   4.816 -0.2064 -0.2377 -0.6064
    1OL    H16S11357   0.702   4.910   4.945  1.7131  0.9742 -1.5291
    1OL    C11711358   0.585   4.738   4.909 -0.5271 -0.4454 -0.3508
    1OL    H17R11359   0.653   4.661   4.946 -0.4899 -1.8905 -3.1561
    1OL    H17S11360   0.542   4.680   4.827 -1.4106  0.9118 -0.8777
    1OL    C11811361   0.469   4.753   5.003 -0.0175 -0.1987  0.2684
    1OL    H18R11362   0.481   4.812   5.093 -1.4268  1.7631 -0.7642
    1OL    H18S11363   0.426   4.656   5.029 -0.4767 -0.5056 -1.4751
    1OL    H18T11364   0.385   4.801   4.954 -0.9297 -0.7735  1.2238
    1PA    C11611365   4.698   0.311   5.246  0.1448 -0.2730 -0.0875
    1PA    H16R11366   4.616   0.358   5.192  0.9232 -0.4694 -1.5028
    1PA    H16S11367   4.787   0.363   5.210 -0.4593 -0.2736 -1.6459
    1PA    H16T11368   4.672   0.328   5.351  0.1073  0.1412 -0.1639
    1PA    C11511369   4.705   0.158   5.198  0.3855 -0.3443 -0.1522
    1PA    H15R11370   4.794   0.113   5.244  1.4987 -2.0126 -3.6320
    1PA    H15S11371   4.624   0.104   5.247 -0.5755  2.1042  1.1555
    1PA    C11411372   4.696   0.138   5.049 -0.3143  0.0922 -0.5635
    1PA    H14R11373   4.596   0.162   5.014 -0.1148 -1.2219 -2.1502
    1PA    H14S11374   4.775   0.206   5.015  1.6148 -2.4310 -1.4280
    1PA    C11311375   4.730  -0.010   5.006 -0.3894  0.2912  0.1660
    1PA    H13R11376   4.834  -0.036   5.023 -0.3544  1.2952  1.7108
    1PA    H13S11377   4.665  -0.068   5.072  0.1162  0.5679  0.9237
    1PA    C11211378   4.702  -0.033   4.857 -1.0244  1.1774  0.5319
    1PA    H12R11379   4.602   0.000   4.828 -1.9244 -1.5064  0.3198
    1PA    H12S11380   4.779   0.015   4.795 -2.7895 -0.1354 -2.9194
    1PA    C11111381   4.717  -0.186   4.824  0.2445  0.3634 -0.4499
    1PA    H11R11382   4.815  -0.229   4.847  0.4269 -1.6313 -4.1222
    1PA    H11S11383   4.638  -0.237   4.879 -0.6457  2.3553  0.2191
    1PA    C11011384   4.699  -0.229   4.678 -0.0167 -1.0057  0.0723
    1PA    H10R11385   4.691  -0.338   4.676  0.5258 -1.0467  0.1334
    1PA    H10S11386   4.608  -0.189   4.632  2.0776  2.0243 -1.7726
    1PA     C1911387   4.816  -0.183   4.597 -0.0292 -0.1008  0.4097
    1PA     H9R11388   4.822  -0.074   4.604 -1.8551 -0.0552  5.1886
    1PA     H9S11389   4.912  -0.217   4.637  0.0046  0.2523  0.6330
    1PA     C1811390   4.815  -0.240   4.451  0.1338 -0.0359 -1.0261
    1PA     H8R11391   4.787  -0.345   4.457 -1.2237  0.3656  0.8961
    1PA     H8S11392   4.738  -0.184   4.398  0.9672  2.6385  0.3915
    1PA     C1711393   4.956  -0.233   4.379  0.2545  0.8811  0.3350
    1PA     H7R11394   4.976  -0.128   4.360 -1.7857  1.0268 -1.4984
    1PA     H7S11395   5.038  -0.266   4.443  1.2518  3.7655  0.6771
    1PA     C1611396   4.953  -0.309   4.240  0.7022 -0.2283 -0.8800
    1PA     H6R11397   4.939  -0.416   4.251 -2.0729  0.0863 -0.6466
    1PA     H6S11398   4.881  -0.261   4.173 -0.7255 -0.3009  0.5635
    1PA     C1511399   5.089  -0.289   4.174  0.3060 -0.5988 -0.6487
    1PA     H5R11400   5.111  -0.182   4.170 -0.4584 -0.2095  2.4331
    1PA     H5S11401   5.167  -0.334   4.237  0.7524  2.5013  1.2810
    1PA     C1411402   5.101  -0.339   4.035  0.4446 -0.3932  0.2776
    1PA     H4R11403   5.196  -0.292   4.010  0.9824 -1.2318  0.7059
    1PA     H4S11404   5.113  -0.448   4.040 -2.8423 -0.8675  0.5813
    1PA     C1311405   5.002  -0.286   3.930  0.5420  0.5409  0.7746
    1PA     H3R11406   4.897  -0.309   3.949 -0.2962  2.1866 -1.4000
    1PA     H3S11407   5.009  -0.178   3.943  0.9218  0.6175  0.0070
    1PA     C1211408   5.044  -0.326   3.781  0.2881  0.1592 -0.4644
    1PA     H2R11409   5.151  -0.314   3.762 -0.2681  2.3100 -2.7266
    1PA     H2S11410   5.017  -0.428   3.751 -2.3698  0.8950 -0.7816
    1PC     C1111411   4.981  -0.235   3.682  0.0794  0.8209  0.0807
    1PC     O1211412   5.049  -0.148   3.630 -0.0290  0.1314  0.3253
    1PC     O1111413   4.854  -0.269   3.651  0.5692 -0.2186  0.7681
    1PC      C111414   4.796  -0.204   3.533  0.2659 -0.4883  1.1852
    1PC      HR11415   4.816  -0.097   3.548 -0.5765 -0.0387 -0.6512
    1PC      HS11416   4.851  -0.236   3.444 -0.8588  1.4791 -0.2971
    1PC      C211417   4.644  -0.220   3.515 -0.2619  0.7199 -0.1289
    1PC      HX11418   4.625  -0.326   3.498  1.4371  0.7604 -2.8015
    1PC      C311419   4.584  -0.133   3.402 -0.6302  0.0532  0.3541
    1PC      HA11420   4.483  -0.173   3.387  0.0309 -0.3845 -4.5300
    1PC      HB11421   4.583  -0.033   3.446 -2.6594 -0.6995  2.2229
    1PC     O3111422   4.649  -0.129   3.272  0.0920  0.4559 -0.0197
    1PC     P3111423   4.645  -0.260   3.177 -0.1226  0.0913 -0.0278
    1PC     O3211424   4.500  -0.252   3.110 -0.0596  0.3049 -0.4607
    1PC     C3111425   4.473  -0.157   3.005 -0.4822 -0.0559 -0.1324
    1PC     H1A11426   4.519  -0.061   3.029 -0.1253 -0.1612 -0.3961
    1PC     H1B11427   4.517  -0.179   2.907  0.1783  2.4805 -0.4866
    1PC     C3211428   4.322  -0.141   2.985  0.2248 -0.1491  0.3038
    1PC     H2A11429   4.277  -0.087   3.068 -0.7800  1.3769 -1.1569
    1PC     H2B11430   4.305  -0.086   2.892 -0.2899  0.8297  0.9559
    1PC     N3111431   4.243  -0.272   2.974 -0.3426  0.2073 -0.0682
    1PC     C3311432   4.100  -0.240   2.925  0.4622 -0.1143  0.4280
    1PC     H3A11433   4.046  -0.332   2.904 -0.8067  0.5466  0.6835
    1PC     H3B11434   4.053  -0.189   3.010 -2.2779 -1.6382 -0.0703
    1PC     H3C11435   4.099  -0.166   2.844 -0.4922  2.3065  2.5117
    1PC     C3411436   4.310  -0.369   2.885 -0.2464 -0.6394  0.8132
    1PC     H4A11437   4.411  -0.395   2.917 -0.2529  1.0748  2.4225
    1PC     H4B11438   4.249  -0.459   2.884 -0.5262 -0.4638  1.4224
    1PC     H4C11439   4.311  -0.318   2.789  0.9115 -1.2641  0.4805
    1PC     C3511440   4.237  -0.355   3.097  0.1541  0.9372  0.2975
    1PC     H5A11441   4.153  -0.422   3.081 -0.3817  1.1283  2.1274
    1PC     H5B11442   4.231  -0.291   3.185  0.2938  3.0387 -1.1399
    1PC     H5C11443   4.336  -0.400   3.100  1.5390  3.7033 -0.1198
    1PC     O3311444   4.741  -0.244   3.066  0.4336  0.1568 -0.0013
    1PC     O3411445   4.650  -0.384   3.252 -0.2298  0.0560 -0.1280
    1PC     O2111446   4.572  -0.180   3.639 -0.1762 -0.0391 -0.3187
    1PC     C2111447   4.563  -0.265   3.744 -0.1673  0.0639  0.2324
    1PC     O2211448   4.588  -0.386   3.740  0.5929 -0.3463 -0.3352
    1OL     C1211449   4.518  -0.200   3.870 -0.3524  0.0197 -0.3902
    1OL     H2R11450   4.585  -0.114   3.875 -0.7785  0.3126  0.6590
    1OL     H2S11451   4.523  -0.260   3.962 -2.5023 -0.7191 -0.7077
    1OL     C1311452   4.373  -0.144   3.860 -0.1818 -0.1746  0.6209
    1OL     H3R11453   4.353  -0.078   3.776 -1.6125  0.3247  1.3143
    1OL     H3S11454   4.363  -0.079   3.947  3.0186  1.3004  0.0444
    1OL     C1411455   4.270  -0.255   3.870 -0.6638  0.6169  0.2480
    1OL     H4R11456   4.285  -0.332   3.794  1.6319  1.2509 -0.0073
    1OL     H4S11457   4.168  -0.218   3.854 -0.6497  1.0175  1.0024
    1OL     C1511458   4.257  -0.326   4.010  0.0168 -0.7935  0.1502
    1OL     H5R11459   4.345  -0.389   4.026  1.4402  1.0060 -0.1839
    1OL     H5S11460   4.170  -0.391   4.015 -0.5585  0.0334  1.8046
    1OL     C1611461   4.260  -0.231   4.130 -0.1063  0.0056  0.0338
    1OL     H6R11462   4.185  -0.152   4.122  0.3064  0.4403  0.4317
    1OL     H6S11463   4.357  -0.181   4.129 -0.1992  0.1802 -1.0405
    1OL     C1711464   4.246  -0.299   4.268  0.0149  0.0954 -0.4823
    1OL     H7R11465   4.146  -0.343   4.269  0.5284 -1.1168 -0.7739
    1OL     H7S11466   4.251  -0.220   4.343  0.3262  0.5438 -0.9728
    1OL     C1811467   4.343  -0.413   4.304 -0.1637 -0.0461 -0.2660
    1OL     H8R11468   4.326  -0.490   4.229 -0.4134 -0.3852  0.1349
    1OL     H8S11469   4.316  -0.438   4.407  0.0145  1.4472  0.1709
    1OL     C1911470   4.490  -0.379   4.298  0.3683 -0.0353 -0.0867
    1OL     H9R11471   4.517  -0.290   4.242 -1.1189  0.0846 -0.6754
    1OL    C11011472   4.580  -0.454   4.354  0.3139  0.4064  0.1197
    1OL    H10R11473   4.685  -0.431   4.338  0.5955 -1.5154 -1.1497
    1OL    C11111474   4.553  -0.589   4.422  0.0325  0.0979 -0.3640
    1OL    H11R11475   4.621  -0.660   4.376  0.3439 -0.3088  0.6976
    1OL    H11S11476   4.460  -0.639   4.394  0.4191 -0.0541 -1.4301
    1OL    C11211477   4.587  -0.591   4.571  0.6758  0.0728 -0.7778
    1OL    H12R11478   4.679  -0.541   4.603 -0.7443  1.6835  1.0077
    1OL    H12S11479   4.603  -0.694   4.605 -0.7965  0.1992  0.3625
    1OL    C11311480   4.467  -0.533   4.664  0.0892  0.2031 -0.1746
    1OL    H13R11481   4.381  -0.599   4.649  1.3464 -1.0701 -2.3379
    1OL    H13S11482   4.434  -0.438   4.622 -3.0274 -1.3730 -1.6001
    1OL    C11411483   4.500  -0.520   4.811 -0.1766 -0.0733 -0.1199
    1OL    H14R11484   4.571  -0.442   4.839 -0.7269  0.8347 -1.1574
    1OL    H14S11485   4.555  -0.611   4.834 -0.0934 -0.0048 -0.0433
    1OL    C11511486   4.371  -0.501   4.895 -0.8783  0.8703  0.2313
    1OL    H15R11487   4.310  -0.592   4.888 -0.4711  0.6397 -0.3364
    1OL    H15S11488   4.324  -0.412   4.852 -0.5825  1.1426  0.4662
    1OL    C11611489   4.403  -0.482   5.040  0.3022  0.2513  0.0131
    1OL    H16R11490   4.301  -0.466   5.077  0.6084 -0.0504  1.0103
    1OL    H16S11491   4.471  -0.399   5.057  1.1642 -0.7522  1.6984
    1OL    C11711492   4.455  -0.605   5.116  0.1101  0.4606  0.3510
    1OL    H17R11493   4.557  -0.623   5.082 -0.0338  1.5031 -0.7058
    1OL    H17S11494   4.403  -0.693   5.078  1.9330 -0.9421  0.9909
    1OL    C11811495   4.438  -0.585   5.267  0.2299  0.3074 -0.1790
    1OL    H18R11496   4.463  -0.487   5.308  1.4239  0.2470 -0.7190
    1OL    H18S11497   4.507  -0.645   5.326 -1.0609 -2.4570 -1.3129
    1OL    H18T11498   4.333  -0.601   5.293 -0.2689 -0.9871 -2.6511
    1PA    C11611499   0.983   5.187   4.619 -0.3666  0.3672  0.0418
    1PA    H16R11500   1.016   5.264   4.689  1.2909  0.0372 -0.3328
    1PA    H16S11501   1.059   5.176   4.541 -1.0679  0.0999 -0.6156
    1PA    H16T11502   0.955   5.097   4.674  1.0893  0.1781  0.5216
    1PA    C11511503   0.863   5.247   4.550  0.1841  0.0429  0.1996
    1PA    H15R11504   0.826   5.166   4.486  5.4263 -1.6423 -1.1860
    1PA    H15S11505   0.792   5.279   4.627  1.4000 -0.1745  1.4479
    1PA    C11411506   0.895   5.366   4.461  0.1529  0.5620 -0.2809
    1PA    H14R11507   0.926   5.452   4.521  0.4427 -0.3175  0.8847
    1PA    H14S11508   0.975   5.330   4.396  0.2548 -0.6735  0.4853
    1PA    C11311509   0.763   5.412   4.382  0.0107  0.5882  0.4139
    1PA    H13R11510   0.673   5.439   4.437 -0.7971  1.5333 -1.2780
    1PA    H13S11511   0.783   5.511   4.340 -0.6382 -0.1511 -1.7983
    1PA    C11211512   0.725   5.310   4.266  0.0030 -0.2234 -0.1707
    1PA    H12R11513   0.821   5.289   4.217 -0.0928 -1.3938  0.1219
    1PA    H12S11514   0.680   5.224   4.316 -0.4126 -0.6760 -1.3046
    1PA    C11111515   0.626   5.362   4.158  0.1031 -0.0397  0.5597
    1PA    H11R11516   0.578   5.275   4.111  1.1193  0.5356 -1.6554
    1PA    H11S11517   0.554   5.426   4.210  1.1635  1.7234 -0.0683
    1PA    C11011518   0.697   5.444   4.045  0.3365  0.5576 -0.0725
    1PA    H10R11519   0.731   5.541   4.083  1.6940  0.2310 -0.3772
    1PA    H10S11520   0.790   5.392   4.023  0.6743  1.2166 -0.2316
    1PA     C1911521   0.609   5.470   3.933 -0.1241 -0.0592 -0.3201
    1PA     H9R11522   0.559   5.377   3.904  0.8133 -0.8093  0.4196
    1PA     H9S11523   0.526   5.534   3.965 -0.4610 -0.1930 -0.9105
    1PA     C1811524   0.684   5.539   3.814 -0.0481  0.6763  0.2079
    1PA     H8R11525   0.726   5.628   3.860  0.7741  0.4882 -0.1671
    1PA     H8S11526   0.773   5.483   3.784  0.5684  1.5647  0.3332
    1PA     C1711527   0.608   5.564   3.689  0.5587  0.4479 -0.0925
    1PA     H7R11528   0.522   5.618   3.731  0.2895 -1.2916  1.7425
    1PA     H7S11529   0.652   5.639   3.623  1.7469  1.0957  1.3657
    1PA     C1611530   0.553   5.444   3.615 -0.7501  0.4538  0.0163
    1PA     H6R11531   0.631   5.410   3.547 -1.8533 -1.9439 -0.1215
    1PA     H6S11532   0.558   5.356   3.679 -0.4369  1.0596  0.8507
    1PA     C1511533   0.414   5.442   3.540  0.0324 -0.3629  0.1574
    1PA     H5R11534   0.425   5.519   3.463  1.0431 -0.2238  0.4227
    1PA     H5S11535   0.395   5.343   3.498  0.3652 -0.2895 -0.1647
    1PA     C1411536   0.305   5.480   3.643 -0.4184 -0.3540 -0.5372
    1PA     H4R11537   0.318   5.414   3.730 -0.7682  1.0850  0.6422
    1PA     H4S11538   0.310   5.581   3.684  1.7910 -0.3370 -0.7152
    1PA     C1311539   0.164   5.449   3.590 -0.3248  0.3557  0.4623
    1PA     H3R11540   0.161   5.342   3.567  2.8639  0.1000  0.7838
    1PA     H3S11541   0.095   5.458   3.675 -1.5066 -0.9865 -0.3180
    1PA     C1211542   0.122   5.538   3.472  0.2815 -0.1553  0.0872
    1PA     H2R11543   0.194   5.525   3.391  0.1633  3.1661 -0.6938
    1PA     H2S11544   0.025   5.505   3.435 -0.3008  0.8703  0.6526
    1PC     C1111545   0.111   5.687   3.521 -1.0499  0.2599  1.2257
    1PC     O1211546   0.125   5.722   3.636  0.6923  0.4399  0.0046
    1PC     O1111547   0.094   5.774   3.417 -0.5667 -0.0883 -0.1989
    1PC      C111548   0.116   5.912   3.445 -0.1733  0.0345 -0.0998
    1PC      HR11549   0.077   5.963   3.357  0.7874  0.7495 -0.1215
    1PC      HS11550   0.056   5.942   3.532 -2.8394 -1.7573 -1.1597
    1PC      C211551   0.266   5.955   3.446 -1.5497 -0.2426 -0.4268
    1PC      HX11552   0.262   6.064   3.445  1.5541  0.0220  1.8900
    1PC      C311553   0.347   5.906   3.326 -0.3530  0.4394 -0.6312
    1PC      HA11554   0.310   5.950   3.233 -1.4846  0.2371 -0.2910
    1PC      HB11555   0.450   5.941   3.335 -0.7454  2.0591 -1.8432
    1PC     O3111556   0.345   5.752   3.307 -0.1977 -0.3010 -0.0267
    1PC     P3111557   0.405   5.682   3.173  0.1591 -0.1723  0.1524
    1PC     O3211558   0.558   5.661   3.197  0.0992 -0.1019 -0.1973
    1PC     C3111559   0.647   5.767   3.234 -0.0282  0.6428 -0.8603
    1PC     H1A11560   0.628   5.857   3.174  0.4799  0.8033 -0.7870
    1PC     H1B11561   0.636   5.786   3.341 -3.8442  1.8841 -1.3172
    1PC     C3211562   0.786   5.722   3.185 -0.2612  0.0492  0.2136
    1PC     H2A11563   0.865   5.782   3.232 -0.0571 -2.7892  3.9706
    1PC     H2B11564   0.799   5.620   3.220 -2.2982 -0.4482 -0.3750
    1PC     N3111565   0.806   5.712   3.038  0.0981 -0.3433  0.6890
    1PC     C3311566   0.953   5.713   3.022  0.4795  0.1182  0.5622
    1PC     H3A11567   0.974   5.701   2.915  1.8873 -0.4617  0.8804
    1PC     H3B11568   0.986   5.812   3.053  1.3750 -0.1700  0.5785
    1PC     H3C11569   0.993   5.628   3.078  0.3645 -0.5851 -0.3962
    1PC     C3411570   0.757   5.583   2.981  0.5385 -0.0963  0.1202
    1PC     H4A11571   0.805   5.507   3.043  0.1228 -0.4328  0.0346
    1PC     H4B11572   0.650   5.569   2.995  0.9329 -3.6935  0.5082
    1PC     H4C11573   0.777   5.579   2.874 -1.3828  0.5934 -0.3066
    1PC     C3511574   0.738   5.825   2.958 -0.0580 -0.7007 -0.5669
    1PC     H5A11575   0.749   5.913   3.022 -0.4360 -1.1728  0.1585
    1PC     H5B11576   0.633   5.798   2.956 -0.8640  1.7404  2.0090
    1PC     H5C11577   0.773   5.836   2.855  3.1801  2.8761  0.6382
    1PC     O3311578   0.345   5.546   3.155 -0.0526 -0.4697 -0.0595
    1PC     O3411579   0.382   5.778   3.063  0.1028 -0.4122 -0.3191
    1PC     O2111580   0.338   5.912   3.568 -0.2828 -0.8531 -0.2090
    1PC     C2111581   0.313   5.987   3.680 -0.2268  0.3464 -0.5730
    1PC     O2211582   0.261   6.101   3.684  0.1697 -0.0259  0.3024
    1OL     C1211583   0.372   5.911   3.803 -0.1295 -0.1034 -0.2369
    1OL     H2R11584   0.366   5.804   3.785  0.8088 -0.2753  0.4063
    1OL     H2S11585   0.311   5.924   3.892  0.1352 -1.5499  0.1792
    1OL     C1311586   0.514   5.972   3.842 -0.1093  0.1922  0.3143
    1OL     H3R11587   0.489   6.069   3.886 -1.7209 -0.4776  0.9516
    1OL     H3S11588   0.569   5.994   3.751 -0.0186  3.0392  0.9763
    1OL     C1411589   0.597   5.889   3.940  0.1529  0.0725  0.2584
    1OL     H4R11590   0.695   5.935   3.956 -0.0864  0.1263  1.6986
    1OL     H4S11591   0.596   5.783   3.911  0.6882  0.3480 -0.7858
    1OL     C1511592   0.538   5.902   4.078  0.0763 -0.6862 -0.0458
    1OL     H5R11593   0.430   5.889   4.084 -0.3265  1.2820 -1.8049
    1OL     H5S11594   0.554   6.002   4.120  1.4374  0.1817 -2.4532
    1OL     C1611595   0.593   5.785   4.166 -0.0018 -0.5203 -0.3356
    1OL     H6R11596   0.699   5.810   4.172 -0.1624  0.3892 -1.1146
    1OL     H6S11597   0.580   5.691   4.112 -0.4178 -1.1415  0.8125
    1OL     C1711598   0.533   5.768   4.300 -0.1868 -0.2269 -0.2155
    1OL     H7R11599   0.554   5.664   4.326 -1.8672 -0.5642 -0.0972
    1OL     H7S11600   0.427   5.791   4.292  0.0877  1.7734  1.1081
    1OL     C1811601   0.591   5.857   4.407 -0.9582  0.3941  0.4932
    1OL     H8R11602   0.574   5.963   4.392  0.2847  0.6437  0.6935
    1OL     H8S11603   0.697   5.834   4.422 -0.8340  0.0036 -0.8237
    1OL     C1911604   0.511   5.821   4.534 -0.2320 -0.0218  0.3677
    1OL     H9R11605   0.405   5.845   4.522  0.3363  2.2891 -0.6010
    1OL    C11011606   0.557   5.750   4.635  0.5195  0.7261  0.4085
    1OL    H10R11607   0.486   5.723   4.714  0.1616 -1.5542 -0.6020
    1OL    C11111608   0.699   5.689   4.643  0.4814 -0.3125 -0.0191
    1OL    H11R11609   0.735   5.670   4.542  0.4694  1.4219 -0.3893
    1OL    H11S11610   0.697   5.601   4.707 -2.3851 -0.5953 -0.3885
    1OL    C11211611   0.790   5.802   4.709  0.2408  0.3910  0.6981
    1OL    H12R11612   0.747   5.824   4.807 -1.8378  0.3769 -0.1720
    1OL    H12S11613   0.776   5.895   4.653 -1.2230 -1.3101 -1.9705
    1OL    C11311614   0.946   5.762   4.712 -0.1299  0.0140 -0.6643
    1OL    H13R11615   0.947   5.660   4.750 -1.8572  0.1599 -0.1260
    1OL    H13S11616   0.989   5.827   4.789 -0.5404  1.8841 -1.9484
    1OL    C11411617   1.020   5.785   4.578  0.6759  0.3131 -0.7991
    1OL    H14R11618   0.975   5.722   4.501 -0.8174  0.5990 -0.1859
    1OL    H14S11619   1.125   5.757   4.579  0.0823 -2.4753 -2.7996
    1OL    C11511620   1.017   5.933   4.535  0.2434 -0.1604 -0.5068
    1OL    H15R11621   0.915   5.971   4.532 -0.0445 -0.8667 -0.0547
    1OL    H15S11622   1.050   5.929   4.431 -0.0891 -0.2429 -0.6087
    1OL    C11611623   1.107   6.027   4.610 -0.6739  0.1586  0.1423
    1OL    H16R11624   1.209   6.019   4.571 -0.9444 -2.8325 -0.1497
    1OL    H16S11625   1.127   5.986   4.710  2.4111 -1.2596 -0.9211
    1OL    C11711626   1.053   6.173   4.622  0.4471 -0.5322 -0.5232
    1OL    H17R11627   0.964   6.186   4.684  1.6101  0.8588  0.9519
    1OL    H17S11628   1.027   6.193   4.518 -0.2867 -2.1082 -0.6675
    1OL    C11811629   1.165   6.275   4.660  0.3627 -0.5201  0.3443
    1OL    H18R11630   1.240   6.279   4.580 -1.3540  1.0687 -1.2887
    1OL    H18S11631   1.216   6.239   4.749 -0.4235 -0.5717  0.7811
    1OL    H18T11632   1.126   6.376   4.679  0.3778 -0.7848  1.8775
    1PA    C11611633   1.515   4.885   4.913 -0.0987  0.8977 -0.0236
    1PA    H16R11634   1.564   4.956   4.979  0.2496  1.0368 -0.4241
    1PA    H16S11635   1.587   4.868   4.833 -2.7783 -3.6310 -1.8665
    1PA    H16T11636   1.518   4.793   4.972  0.6023  0.6824 -0.3844
    1PA    C11511637   1.383   4.931   4.853  0.0693 -0.0031  0.0030
    1PA    H15R11638   1.306   4.929   4.930  0.7524  1.9024  0.7839
    1PA    H15S11639   1.383   5.037   4.826  0.7180  0.0520  0.2003
    1PA    C11411640   1.331   4.843   4.740 -1.0282  0.9370 -0.1837
    1PA    H14R11641   1.330   4.734   4.754  0.4744  0.6555 -1.8208
    1PA    H14S11642   1.228   4.878   4.732 -1.3282  0.0473 -0.3772
    1PA    C11311643   1.404   4.869   4.600  0.8882 -0.3427  0.6133
    1PA    H13R11644   1.427   4.976   4.598  0.7034 -0.2399  2.5959
    1PA    H13S11645   1.494   4.807   4.589  1.0356 -0.0466  0.1253
    1PA    C11211646   1.307   4.835   4.482  0.1366  0.3450 -0.1885
    1PA    H12R11647   1.369   4.848   4.393  0.8775  1.4762  0.4604
    1PA    H12S11648   1.277   4.732   4.498 -1.9056  0.6076 -1.9469
    1PA    C11111649   1.178   4.923   4.466  0.4890  0.2833  0.0082
    1PA    H11R11650   1.103   4.897   4.541 -0.0585 -1.9208 -1.2086
    1PA    H11S11651   1.203   5.029   4.472 -1.0923  0.7168 -0.4809
    1PA    C11011652   1.131   4.911   4.322  0.1280 -0.0838 -0.6798
    1PA    H10R11653   1.199   4.962   4.253 -2.9123  2.0790 -2.2911
    1PA    H10S11654   1.131   4.802   4.307  0.3826 -0.2568  0.4749
    1PA     C1911655   0.999   4.961   4.293 -0.0216  0.2627 -0.1153
    1PA     H9R11656   0.942   4.892   4.356  0.8905  1.5550  2.2261
    1PA     H9S11657   0.989   5.064   4.327  0.9486 -0.1202  1.4047
    1PA     C1811658   0.978   4.936   4.134  0.1459 -0.3396 -0.0916
    1PA     H8R11659   1.057   4.988   4.079 -1.3044  0.3385 -1.6311
    1PA     H8S11660   0.991   4.829   4.122  1.9924 -0.2736  0.8443
    1PA     C1711661   0.841   4.991   4.099  0.2153  0.0651  0.2931
    1PA     H7R11662   0.767   4.956   4.171  1.7024  1.6937  2.7575
    1PA     H7S11663   0.851   5.099   4.113 -1.5534  0.2498  0.4393
    1PA     C1611664   0.791   4.963   3.958 -0.0967  0.3041 -0.4728
    1PA     H6R11665   0.883   4.967   3.900  0.5757 -0.7810  0.4845
    1PA     H6S11666   0.768   4.856   3.964  0.9104  0.1625  1.7800
    1PA     C1511667   0.676   5.056   3.914  1.0705 -0.4763 -0.3537
    1PA     H5R11668   0.579   5.015   3.945  1.4656 -1.0219  0.1812
    1PA     H5S11669   0.680   5.150   3.968  0.5423 -0.0571 -1.0339
    1PA     C1411670   0.669   5.061   3.761  0.2794 -0.2456  0.1261
    1PA     H4R11671   0.659   4.961   3.719  0.6053 -0.1959 -0.0696
    1PA     H4S11672   0.574   5.106   3.731 -0.9247 -2.7062 -0.0580
    1PA     C1311673   0.776   5.142   3.689 -0.3315 -0.5477 -0.1787
    1PA     H3R11674   0.755   5.249   3.695  2.3420  0.2084 -2.2968
    1PA     H3S11675   0.867   5.136   3.751  0.3808 -0.2967 -1.1758
    1PA     C1211676   0.807   5.096   3.543 -0.4538  0.0318  0.1471
    1PA     H2R11677   0.843   4.993   3.552  3.3859  1.2927  1.2944
    1PA     H2S11678   0.713   5.103   3.488 -1.1952 -0.0329  1.3641
    1PC     C1111679   0.917   5.178   3.486  0.3540 -0.4139 -0.5080
    1PC     O1211680   0.956   5.276   3.544 -0.5898 -0.2214 -0.4593
    1PC     O1111681   0.949   5.140   3.358  0.3233 -0.5580  0.2047
    1PC      C111682   1.042   5.227   3.284  0.4079 -0.4516  0.2506
    1PC      HR11683   1.005   5.233   3.181  2.1701 -1.0917 -0.4518
    1PC      HS11684   1.047   5.328   3.324 -1.1012  0.1907 -1.0595
    1PC      C211685   1.183   5.155   3.272  0.4586  0.8622 -0.3844
    1PC      HX11686   1.244   5.228   3.219  1.6159 -0.4195 -0.8740
    1PC      C311687   1.165   5.023   3.195  0.2028  0.2760 -0.4118
    1PC      HA11688   1.267   4.984   3.185  0.5436  1.3230 -1.2633
    1PC      HB11689   1.095   4.964   3.254  0.0065 -1.0069 -1.8442
    1PC     O3111690   1.113   5.038   3.055 -0.0354  0.5765 -0.4041
    1PC     P3111691   1.200   5.096   2.936  0.1754 -0.0080 -0.3948
    1PC     O3211692   1.250   4.965   2.862  0.2263  0.0542  0.0045
    1PC     C3111693   1.170   4.889   2.767  0.1157  0.4131 -0.3128
    1PC     H1A11694   1.205   4.786   2.763  0.4584  0.4815  0.6381
    1PC     H1B11695   1.068   4.907   2.801  0.5435  0.3533  1.0695
    1PC     C3211696   1.204   4.952   2.638  0.1179 -0.3865 -0.2640
    1PC     H2A11697   1.214   5.061   2.643  0.5435 -0.2913 -2.3428
    1PC     H2B11698   1.300   4.908   2.612  1.1912  1.9517 -0.4718
    1PC     N3111699   1.108   4.935   2.517  0.6920  0.7158  0.0003
    1PC     C3311700   1.101   4.786   2.488  0.7915  0.0466  0.4308
    1PC     H3A11701   1.089   4.738   2.585 -2.1777  0.0706  0.1671
    1PC     H3B11702   1.020   4.760   2.420  1.0000  0.9428 -0.1924
    1PC     H3C11703   1.192   4.751   2.440  0.5074 -2.2078  1.4222
    1PC     C3411704   0.975   4.996   2.553 -0.1737 -0.5789  0.2157
    1PC     H4A11705   0.898   4.998   2.475 -2.3672 -0.7432  2.2728
    1PC     H4B11706   0.934   4.947   2.641 -0.7964  0.7462  0.6864
    1PC     H4C11707   0.989   5.096   2.594  1.0069 -1.1455  1.2587
    1PC     C3511708   1.150   5.000   2.390  1.2000  0.1031 -0.0309
    1PC     H5A11709   1.222   4.934   2.341 -0.5272 -0.4489 -1.9568
    1PC     H5B11710   1.173   5.104   2.416 -0.5017  0.2837  0.8728
    1PC     H5C11711   1.066   5.011   2.322 -0.7556  0.0163  2.2399
    1PC     O3311712   1.113   5.173   2.845  0.2181 -0.3507  0.0989
    1PC     O3411713   1.320   5.165   2.992  0.2853 -0.0511  0.5204
    1PC     O2111714   1.232   5.130   3.407  0.5394  0.0420 -0.2776
    1PC     C2111715   1.271   5.235   3.477 -0.4489  0.2066 -0.3117
    1PC     O2211716   1.273   5.351   3.440  0.2703  0.7902  0.3512
    1OL     C1211717   1.329   5.180   3.610 -0.1697  0.3348 -0.5219
    1OL     H2R11718   1.426   5.223   3.636 -0.9545  0.3071  3.0429
    1OL     H2S11719   1.354   5.074   3.602  1.5017  0.5607  1.0585
    1OL     C1311720   1.228   5.187   3.725 -0.3426 -0.0724 -0.1904
    1OL     H3R11721   1.253   5.111   3.799  1.2549  0.5464 -0.0478
    1OL     H3S11722   1.131   5.153   3.689 -1.2375  2.3339 -0.2066
    1OL     C1411723   1.202   5.322   3.787  0.0607  0.2544  0.5957
    1OL     H4R11724   1.167   5.384   3.705 -1.6103 -0.3943  0.7765
    1OL     H4S11725   1.295   5.355   3.834 -0.5943  1.2976  1.1892
    1OL     C1511726   1.095   5.314   3.889 -0.0644  0.6190  0.7637
    1OL     H5R11727   1.100   5.228   3.956 -0.1417  0.8599  1.0848
    1OL     H5S11728   0.997   5.315   3.841  0.2721  0.2468  0.0599
    1OL     C1611729   1.091   5.448   3.973 -0.1472 -0.2682 -0.1035
    1OL     H6R11730   0.993   5.454   4.021 -0.0827  0.9130 -0.0842
    1OL     H6S11731   1.093   5.535   3.907 -1.4239  0.7686  1.1751
    1OL     C1711732   1.204   5.473   4.078 -0.6399  0.8257 -0.0092
    1OL     H7R11733   1.300   5.450   4.031 -2.2900 -2.8800 -2.0027
    1OL     H7S11734   1.201   5.393   4.152 -0.2556  0.1762 -0.6838
    1OL     C1811735   1.213   5.616   4.142  0.4765  0.3209  0.4954
    1OL     H8R11736   1.231   5.693   4.067  1.9675  0.1308  0.6316
    1OL     H8S11737   1.296   5.608   4.213 -0.8272  0.2538  2.0832
    1OL     C1911738   1.082   5.647   4.216  0.0462  0.0446  0.1964
    1OL     H9R11739   1.070   5.594   4.311  0.3742 -0.2081  0.0953
    1OL    C11011740   0.989   5.743   4.193  0.1632  0.2085  0.1267
    1OL    H10R11741   0.914   5.762   4.269  0.5409  0.5482  0.4158
    1OL    C11111742   0.991   5.842   4.078 -0.0161 -0.0938 -0.2524
    1OL    H11R11743   0.892   5.849   4.033 -0.0441  0.1805 -0.1540
    1OL    H11S11744   1.063   5.824   3.997 -0.0310 -0.5462 -0.1657
    1OL    C11211745   0.992   5.986   4.131 -0.1361 -0.5782  0.1573
    1OL    H12R11746   1.016   6.057   4.052  1.6678  2.0650  2.8643
    1OL    H12S11747   1.085   5.997   4.186  0.8994  1.6045 -1.9033
    1OL    C11311748   0.861   6.036   4.206  0.8495 -0.5672 -0.1677
    1OL    H13R11749   0.827   5.974   4.289 -0.9220  0.1657 -0.2793
    1OL    H13S11750   0.782   6.046   4.131  1.6148 -2.1710 -1.2252
    1OL    C11411751   0.882   6.179   4.258  0.2342  0.1797 -0.2298
    1OL    H14R11752   0.939   6.233   4.182  0.6920  0.1220  0.0663
    1OL    H14S11753   0.955   6.167   4.339 -1.2312  1.1365  1.2837
    1OL    C11511754   0.758   6.257   4.302  0.2509 -0.0091 -0.1788
    1OL    H15R11755   0.702   6.197   4.374  1.1412 -0.4559  0.1667
    1OL    H15S11756   0.692   6.261   4.215  0.3587  0.6107 -0.2338
    1OL    C11611757   0.785   6.395   4.364 -0.4386 -0.4987 -0.3941
    1OL    H16R11758   0.874   6.394   4.427 -0.4369  0.5679 -0.3714
    1OL    H16S11759   0.692   6.427   4.411 -0.4238 -0.1536 -0.5993
    1OL    C11711760   0.799   6.493   4.246 -0.3719 -0.2188  0.0085
    1OL    H17R11761   0.871   6.465   4.169 -0.4150 -0.4742  0.0600
    1OL    H17S11762   0.837   6.590   4.280  1.5316 -1.1568  0.7634
    1OL    C11811763   0.665   6.526   4.184 -0.4196 -0.4195  0.3555
    1OL    H18R11764   0.686   6.606   4.113 -1.2800 -0.9219 -0.4747
    1OL    H18S11765   0.596   6.553   4.264  0.7887  1.3924  0.8742
    1OL    H18T11766   0.634   6.437   4.130 -1.9052  1.1758 -1.5509
    1PA    C11611767   0.285   5.151   5.370 -0.1925 -0.2535  0.2330
    1PA    H16R11768   0.183   5.164   5.334  0.0359  2.3091  0.3319
    1PA    H16S11769   0.318   5.235   5.432  1.7901 -2.1691  1.9679
    1PA    H16T11770   0.285   5.065   5.438 -0.8093 -1.8998 -1.7433
    1PA    C11511771   0.370   5.131   5.244 -0.5104  1.0086 -0.3611
    1PA    H15R11772   0.472   5.108   5.276 -1.8119 -2.1753  2.0799
    1PA    H15S11773   0.355   5.033   5.200 -0.2083  0.4017  0.8236
    1PA    C11411774   0.342   5.235   5.140 -0.7237  0.2517  0.5057
    1PA    H14R11775   0.236   5.250   5.116 -0.0486  2.6635 -1.4080
    1PA    H14S11776   0.378   5.326   5.189 -1.1388 -0.1370  1.5684
    1PA    C11311777   0.419   5.217   5.004  0.2804 -0.7669 -0.4717
    1PA    H13R11778   0.523   5.190   5.023  0.6763  0.6462 -0.4725
    1PA    H13S11779   0.384   5.126   4.955  1.3675 -1.8592  0.7022
    1PA    C11211780   0.401   5.328   4.903 -0.7184  0.5981  0.6005
    1PA    H12R11781   0.301   5.369   4.916 -1.1234 -0.5340  1.1229
    1PA    H12S11782   0.471   5.404   4.940 -0.4820 -0.2463  1.9720
    1PA    C11111783   0.436   5.284   4.759  0.2484  0.7545 -0.3921
    1PA    H11R11784   0.533   5.235   4.761  0.4888  1.2302 -0.1202
    1PA    H11S11785   0.369   5.205   4.725 -0.9853  2.1591 -1.3674
    1PA    C11011786   0.437   5.393   4.643  0.4038 -0.2932  0.1614
    1PA    H10R11787   0.485   5.488   4.665 -0.2748  0.4740 -1.5031
    1PA    H10S11788   0.496   5.351   4.560  0.9018 -0.7782  0.7420
    1PA     C1911789   0.291   5.426   4.614 -0.3818  0.3238  0.8603
    1PA     H9R11790   0.226   5.344   4.644  0.0885  0.4961  2.4040
    1PA     H9S11791   0.267   5.502   4.688 -0.2418 -1.2819  2.6340
    1PA     C1811792   0.274   5.477   4.469 -0.1881 -0.0437  0.0817
    1PA     H8R11793   0.168   5.499   4.457 -0.7467 -1.7745  1.2929
    1PA     H8S11794   0.337   5.562   4.445  1.1511 -1.9242 -4.0230
    1PA     C1711795   0.297   5.364   4.365 -0.6592  0.6686 -0.4299
    1PA     H7R11796   0.403   5.343   4.348 -0.2674  0.6826  1.6429
    1PA     H7S11797   0.255   5.271   4.404 -0.6939  0.5008 -0.8674
    1PA     C1611798   0.220   5.386   4.237 -0.1680 -0.1493 -0.0962
    1PA     H6R11799   0.118   5.422   4.247 -0.1973  0.1855 -1.3625
    1PA     H6S11800   0.271   5.466   4.182 -0.3809 -0.8419 -1.3507
    1PA     C1511801   0.223   5.260   4.149 -0.2438  0.3560  0.2510
    1PA     H5R11802   0.322   5.214   4.153  0.1880  0.9524 -2.1269
    1PA     H5S11803   0.155   5.183   4.187  1.6317 -1.2077  0.6446
    1PA     C1411804   0.194   5.276   3.997  0.4806  0.2450  0.4401
    1PA     H4R11805   0.087   5.273   3.976  0.4602  1.4382  0.3596
    1PA     H4S11806   0.226   5.373   3.961 -1.9493  1.3589  1.0941
    1PA     C1311807   0.255   5.158   3.915 -0.4624 -0.4128  0.8436
    1PA     H3R11808   0.356   5.192   3.893 -1.2601  0.8704 -1.1303
    1PA     H3S11809   0.257   5.068   3.977 -1.0387 -0.5817  0.6203
    1PA     C1211810   0.187   5.126   3.781 -0.1743 -0.8292  0.6869
    1PA     H2R11811   0.078   5.134   3.783 -0.3244 -1.0742 -2.2585
    1PA     H2S11812   0.212   5.203   3.708 -0.4193 -2.1418 -0.8290
    1PC     C1111813   0.222   4.987   3.733 -0.3151 -0.6703 -0.5592
    1PC     O1211814   0.334   4.953   3.703 -0.0655  0.0527  0.0604
    1PC     O1111815   0.111   4.908   3.718 -0.1298 -0.2030  0.5758
    1PC      C111816   0.133   4.782   3.649  0.1749 -0.7604 -0.7187
    1PC      HR11817   0.195   4.804   3.562 -2.9322  0.7181 -2.7589
    1PC      HS11818   0.175   4.701   3.709  0.4793 -0.4238 -0.4723
    1PC      C211819  -0.003   4.727   3.597 -0.2596 -0.0025  0.2447
    1PC      HX11820   0.014   4.636   3.539  0.2450 -0.2238  0.7357
    1PC      C311821  -0.062   4.822   3.496 -0.1345 -0.5933 -0.5898
    1PC      HA11822  -0.095   4.914   3.545  0.7967 -0.7526  0.3946
    1PC      HB11823   0.011   4.848   3.419  2.5301 -2.5765  1.0476
    1PC     O3111824  -0.181   4.763   3.443  0.0669 -0.0756  0.2997
    1PC     P3111825  -0.190   4.716   3.289 -0.6094  0.0764 -0.0943
    1PC     O3211826  -0.140   4.860   3.223 -0.0299 -0.7911 -0.2526
    1PC     C3111827  -0.231   4.975   3.219 -0.1247 -0.0592  0.5420
    1PC     H1A11828  -0.331   4.938   3.241 -0.5706 -0.1595 -1.4388
    1PC     H1B11829  -0.202   5.045   3.298 -0.5987  0.1833  0.4989
    1PC     C3211830  -0.225   5.048   3.083  0.3267  0.3272  0.0623
    1PC     H2A11831  -0.308   5.119   3.085  0.7267  0.8659 -1.1164
    1PC     H2B11832  -0.130   5.103   3.079 -1.3557  3.4718 -0.3254
    1PC     N3111833  -0.237   4.959   2.960  0.4522 -0.2178  0.2264
    1PC     C3311834  -0.104   4.913   2.918  0.9428 -0.1302 -0.1405
    1PC     H3A11835  -0.120   4.834   2.845 -0.0306 -0.6876  0.6448
    1PC     H3B11836  -0.043   4.993   2.876  0.4491  0.5395  0.3865
    1PC     H3C11837  -0.049   4.874   3.003 -0.0975  0.2653  0.7323
    1PC     C3411838  -0.329   4.837   2.977 -0.0888 -0.2540 -0.1025
    1PC     H4A11839  -0.422   4.866   3.025 -0.7076 -0.8556 -0.9252
    1PC     H4B11840  -0.350   4.794   2.880 -0.0969  0.1702 -0.2890
    1PC     H4C11841  -0.275   4.762   3.037 -0.1956  0.5900  1.0853
    1PC     C3511842  -0.292   5.042   2.849 -0.8995  1.1460  0.1142
    1PC     H5A11843  -0.390   5.070   2.888 -1.8601 -1.2382 -0.4158
    1PC     H5B11844  -0.300   4.976   2.763 -0.5204  0.3715  0.6612
    1PC     H5C11845  -0.229   5.126   2.820  0.8226  0.3676  1.3921
    1PC     O3311846  -0.079   4.621   3.268  0.4666  0.8064 -0.5205
    1PC     O3411847  -0.331   4.693   3.253  0.5310 -0.6319  0.6140
    1PC     O2111848  -0.092   4.706   3.713 -0.0883  0.4146  0.0251
    1PC     C2111849  -0.140   4.581   3.726  0.3899 -0.5582 -0.1203
    1PC     O2211850  -0.130   4.484   3.653  0.0001  0.1380  0.6341
    1OL     C1211851  -0.227   4.568   3.852 -0.1219  0.3908  0.2414
    1OL     H2R11852  -0.263   4.668   3.877 -1.1251  0.2474 -0.5452
    1OL     H2S11853  -0.159   4.533   3.929  1.2228 -0.2635 -1.1772
    1OL     C1311854  -0.347   4.472   3.826  0.6262  0.2940  0.1403
    1OL     H3R11855  -0.314   4.369   3.814 -1.3922 -0.4044  0.2011
    1OL     H3S11856  -0.403   4.489   3.734 -0.2972 -1.9468  0.2240
    1OL     C1411857  -0.445   4.477   3.947  0.4171  0.0824  0.0994
    1OL     H4R11858  -0.516   4.398   3.921  1.2003  0.4050 -3.5839
    1OL     H4S11859  -0.502   4.569   3.950  0.6539  0.2611 -0.5797
    1OL     C1511860  -0.385   4.445   4.087 -0.4588 -0.2314  0.2282
    1OL     H5R11861  -0.322   4.533   4.104 -0.5799 -0.0840 -0.0764
    1OL     H5S11862  -0.327   4.353   4.093 -1.1982 -0.6841  0.7023
    1OL     C1611863  -0.488   4.437   4.211 -1.1576  0.0333  0.4593
    1OL     H6R11864  -0.538   4.340   4.212  0.8773 -1.0850 -0.0729
    1OL     H6S11865  -0.557   4.521   4.201 -2.1438 -0.9203 -1.1904
    1OL     C1711866  -0.432   4.437   4.358 -0.5609  0.5075 -0.0996
    1OL     H7R11867  -0.365   4.352   4.370 -1.3224 -0.0929 -0.0075
    1OL     H7S11868  -0.516   4.438   4.428  0.8255  2.3827  1.6614
    1OL     C1811869  -0.360   4.563   4.396 -0.0068 -0.2382 -0.2969
    1OL     H8R11870  -0.423   4.644   4.358 -2.8276 -1.3318  1.7200
    1OL     H8S11871  -0.257   4.572   4.359  0.4384  0.2497  1.0072
    1OL     C1911872  -0.353   4.589   4.545  0.1163 -0.3665  0.1105
    1OL     H9R11873  -0.445   4.559   4.596 -0.4480  0.9589 -0.0835
    1OL    C11011874  -0.251   4.640   4.611  0.1670 -1.1568 -0.2005
    1OL    H10R11875  -0.270   4.652   4.718 -1.4668 -2.0686 -0.3552
    1OL    C11111876  -0.117   4.693   4.548 -0.0441  0.2821 -0.2611
    1OL    H11R11877  -0.076   4.777   4.603 -0.9201 -0.1571  1.1244
    1OL    H11S11878  -0.124   4.712   4.440 -0.4413 -0.8779 -0.4615
    1OL    C11211879  -0.019   4.570   4.552  0.2303 -0.5474  0.8874
    1OL    H12R11880  -0.057   4.488   4.491  2.2939 -0.0970 -1.1701
    1OL    H12S11881  -0.013   4.543   4.657 -0.1536  0.0032  1.0549
    1OL    C11311882   0.118   4.613   4.489 -0.0132 -0.6712  0.2381
    1OL    H13R11883   0.162   4.695   4.545 -0.4852  0.6243 -1.2038
    1OL    H13S11884   0.101   4.640   4.384  0.4540  1.1395  0.5974
    1OL    C11411885   0.210   4.487   4.501 -0.1562 -0.1411  0.1127
    1OL    H14R11886   0.166   4.405   4.444 -1.5593 -1.6100  3.0868
    1OL    H14S11887   0.216   4.476   4.610 -1.0593  1.7502  0.4049
    1OL    C11511888   0.351   4.519   4.456 -0.0032  0.2967  0.1166
    1OL    H15R11889   0.409   4.588   4.517  0.2037 -0.0887  0.3666
    1OL    H15S11890   0.358   4.551   4.352  2.4248 -2.0510 -0.5843
    1OL    C11611891   0.444   4.392   4.455 -0.3910  0.2266 -0.2988
    1OL    H16R11892   0.431   4.336   4.548  1.3320 -0.9251 -0.7146
    1OL    H16S11893   0.548   4.425   4.451 -0.5748  0.7363 -1.2677
    1OL    C11711894   0.407   4.293   4.341 -0.2683  0.2322  0.5095
    1OL    H17R11895   0.402   4.330   4.238 -0.4948 -2.1153 -0.3699
    1OL    H17S11896   0.309   4.249   4.363  0.6660 -1.5159  1.3300
    1OL    C11811897   0.501   4.177   4.352 -0.1135 -0.1951  0.0623
    1OL    H18R11898   0.600   4.200   4.312 -0.2841 -2.3189 -1.7611
    1OL    H18S11899   0.462   4.092   4.296  1.0647 -0.4199 -0.4446
    1OL    H18T11900   0.501   4.144   4.456  0.6348 -1.4188 -0.3102
    7Na+    Na+11901   2.508   0.532   0.513 -0.4535  0.3026  0.0686
    8Na+    Na+11902   1.292   5.029   9.420 -0.2328  0.2620  0.2126
    9Na+    Na+11903   0.960   1.828   7.168 -0.3098 -0.4240  0.6740
   10Na+    Na+11904   3.781   1.304   8.475  0.0498 -0.1127  0.2777
   11Na+    Na+11905   3.835   3.604   2.462 -0.3468  0.2219 -0.7609
   12Na+    Na+11906   4.383   3.384   9.261  0.5579 -0.2189 -0.2223
   13Na+    Na+11907   0.731   3.674   0.325  0.1936  0.4027 -0.1596
   14Na+    Na+11908   1.731   0.919   1.474  0.2999 -0.0903 -0.0590
   15Na+    Na+11909   0.740   0.727   9.871 -0.8009 -0.0228  0.1954
   16Na+    Na+11910   2.472   2.705   9.211  0.5124 -0.1566 -0.1968
   17Na+    Na+11911   2.857   4.901   3.082  0.0543  0.3026 -0.0542
   18Na+    Na+11912   3.143   1.875   0.941  0.2457  0.0342 -0.2231
   19Na+    Na+11913   0.742   1.747   9.902  1.0330 -0.3267  0.3777
   20Na+    Na+11914   1.976   4.450   9.393  0.0146 -0.0292 -0.0512
   21Cl-    Cl-11915   3.252   1.657   1.698 -0.3477  0.1551 -0.2298
   22Cl-    Cl-11916   2.556   2.170   0.945  0.3318  0.4170 -0.2899
   23Cl-    Cl-11917   5.170   2.644   8.534 -0.5926 -0.2402  0.2516
   24Cl-    Cl-11918   0.593   1.740   0.298 -0.1198  0.1853  0.4343
   25Cl-    Cl-11919   3.695   0.978   9.226  0.2295  0.1818  0.0785
   26Cl-    Cl-11920   1.918   2.220   1.800  0.0897  0.2210 -0.2029
   27Cl-    Cl-11921   0.212   2.003   2.132  0.0209 -0.0716  0.4558
   28Cl-    Cl-11922   2.318   2.306   9.153  0.1614 -0.1396 -0.0958
   29Cl-    Cl-11923   3.421   1.680   8.540 -0.2293 -0.0176 -0.1030
   30Cl-    Cl-11924   3.618   4.315   9.753  0.0501 -0.3449 -0.3343
   31Cl-    Cl-11925   1.555   3.058   0.805  0.0706 -0.4126  0.1311
   32Cl-    Cl-11926   1.574   1.491   0.591 -0.0948 -0.4401 -0.1325
   33Cl-    Cl-11927   3.789   0.688   7.955  0.0222  0.3049  0.0844
   34Cl-    Cl-11928   5.021   4.286   2.440  0.4740 -0.0922 -0.0318
   35Cl-    Cl-11929   3.375   0.237   2.332 -0.1777 -0.2626 -0.3212
   36Cl-    Cl-11930   2.840   4.064   1.659 -0.2098 -0.1938  0.0833
   37Cl-    Cl-11931   3.934   3.408   1.939  0.1998 -0.6820 -0.0054
   38TP3      O11932   1.093   4.269   2.568  0.6597  0.0419  0.5013
   38TP3     H111933   1.117   4.262   2.476 -2.3505  2.7574 -0.6964
   38TP3     H211934   1.161   4.324   2.607  1.1028  0.2374 -0.5265
   39TP3      O11935   0.915   1.356   8.390  0.0389  0.0440  0.3186
   39TP3     H111936   0.848   1.340   8.456 -0.9831  2.8367  0.0989
   39TP3     H211937   0.990   1.388   8.440  0.0610 -0.0089  0.3189
   40TP3      O11938   4.439   3.980   0.324  0.1604 -0.2769  0.2701
   40TP3     H111939   4.351   4.006   0.296  0.3462  0.0785  0.0036
   40TP3     H211940   4.426   3.897   0.369 -0.0756 -1.2647 -1.5213
   41TP3      O11941   4.283   4.360   9.097 -0.1189 -0.0152 -0.0588
   41TP3     H111942   4.344   4.434   9.092  0.4278 -0.2177  2.4050
   41TP3     H211943   4.241   4.369   9.183 -0.8458 -1.9493 -0.1569
   42TP3      O11944   3.008   5.212   3.029 -0.3361 -0.1226 -0.4286
   42TP3     H111945   2.919   5.237   3.005 -0.7772 -1.5175 -0.3445
   42TP3     H211946   2.998   5.129   3.076  0.7662  1.0572  2.0509
   43TP3      O11947   5.106   2.021   9.631  0.0671 -0.0342  0.8223
   43TP3     H111948   5.047   1.954   9.597 -0.8338  0.4544  1.3778
   43TP3     H211949   5.112   2.002   9.725  0.8526 -0.1179  0.7619
   44TP3      O11950   0.277   3.044   8.065 -0.5465 -0.1061 -0.4984
   44TP3     H111951   0.293   2.952   8.045  0.1496 -0.3976  1.2006
   44TP3     H211952   0.356   3.073   8.111 -1.1767  1.0505 -0.0855
   45TP3      O11953   1.051   4.940   9.911  0.5099 -0.0882 -0.2843
   45TP3     H111954   1.024   5.031   9.896  0.1795  0.0717  1.1053
   45TP3     H211955   1.080   4.939  10.002  2.3340 -0.9651 -0.8321
   46TP3      O11956   2.555   0.152   8.827 -0.2270 -0.0285  0.3473
   46TP3     H111957   2.626   0.205   8.790 -0.6261  0.9454  0.9529
   46TP3     H211958   2.578   0.062   8.803  0.5400  0.3910 -0.5710
   47TP3      O11959   2.568   2.681  10.039  0.2771 -0.6121  0.0827
   47TP3     H111960   2.633   2.729   9.987 -1.2116  0.6410 -0.7232
   47TP3     H211961   2.521   2.627   9.975 -1.4927  0.8492  0.0347
   48TP3      O11962   3.064   1.679   8.164 -0.8638 -0.1385  0.2668
   48TP3     H111963   3.055   1.661   8.258  1.3703 -2.5323  0.1580
   48TP3     H211964   3.006   1.616   8.122 -0.6788 -0.1561  0.0329
   49TP3      O11965   4.402   1.876   1.668  0.0839 -0.3647 -0.8349
   49TP3     H111966   4.433   1.786   1.655  1.3205 -0.4308  1.8331
   49TP3     H211967   4.472   1.930   1.633  0.3894 -0.4754 -0.4054
   50TP3      O11968   0.723   2.896   9.567  0.1831 -0.0418 -0.1589
   50TP3     H111969   0.681   2.821   9.610 -2.3696  1.3892  0.0709
   50TP3     H211970   0.681   2.899   9.481  1.6631  0.0297 -0.8974
   51TP3      O11971   4.420   2.698   8.237  0.0593  0.6763 -0.5045
   51TP3     H111972   4.494   2.756   8.254 -1.0559  1.7250  1.0623
   51TP3     H211973   4.456   2.610   8.244  1.0422  1.1544  0.8937
   52TP3      O11974   0.474   5.080   8.024  0.2137  0.2212 -0.4189
   52TP3     H111975   0.503   5.118   7.941 -1.7425  0.2561 -1.1409
   52TP3     H211976   0.414   5.145   8.060 -0.2772 -0.5534  0.1818
   53TP3      O11977   0.866   5.035   9.626  0.4495  0.3436  0.5921
   53TP3     H111978   0.808   5.028   9.702  1.8922  0.6950  1.7758
   53TP3     H211979   0.856   5.125   9.596 -0.4960  0.0647  0.0336
   54TP3      O11980   2.646   3.272   8.669  0.1602  0.3238  0.1624
   54TP3     H111981   2.653   3.290   8.762 -0.1199  0.7917  0.0944
   54TP3     H211982   2.735   3.283   8.636  0.2248  0.3391  0.3420
   55TP3      O11983   2.688   2.380   2.337  0.3603 -0.5223 -0.0468
   55TP3     H111984   2.740   2.454   2.369  0.6931 -0.1385 -1.4014
   55TP3     H211985   2.719   2.366   2.248 -1.5805 -0.5374 -0.7798
   56TP3      O11986   1.678   3.026   2.467 -0.0347  0.1107  0.5868
   56TP3     H111987   1.584   3.042   2.470  0.0400  0.6254  0.3803
   56TP3     H211988   1.709   3.051   2.554 -0.1146 -0.2252  0.7108
   57TP3      O11989   2.786   1.406   9.437  0.1803  0.1747 -0.3122
   57TP3     H111990   2.876   1.420   9.468 -0.3713  0.8610  1.0709
   57TP3     H211991   2.770   1.478   9.376  0.1521  0.8109  0.4312
   58TP3      O11992   1.480   2.048   8.472  0.3101 -0.4588 -0.2079
   58TP3     H111993   1.537   2.124   8.487  1.2783 -1.0083 -0.9669
   58TP3     H211994   1.469   2.045   8.377 -0.5622 -0.6810 -0.1078
   59TP3      O11995   4.850   1.397   9.817 -1.0500  0.4115  0.0130
   59TP3     H111996   4.848   1.397   9.721 -0.5671 -0.5639 -0.0146
   59TP3     H211997   4.797   1.321   9.842  0.3262 -0.4456  0.4394
   60TP3      O11998   0.527   2.720   6.511 -0.2232  0.0818  0.3932
   60TP3     H111999   0.448   2.691   6.466 -0.3350  1.5348 -0.4268
   60TP3     H212000   0.494   2.763   6.590 -0.1911 -0.1176  0.5157
   61TP3      O12001   3.230   1.308   7.296  0.2671  0.2613  0.1830
   61TP3     H112002   3.194   1.275   7.213  1.4989  0.0790 -0.3011
   61TP3     H212003   3.156   1.349   7.339 -0.3672  0.5108 -1.0865
   62TP3      O12004   1.124   2.411   2.436 -0.1212  0.0491  0.2399
   62TP3     H112005   1.047   2.442   2.485 -0.3073 -0.2815  0.1642
   62TP3     H212006   1.181   2.373   2.503 -0.9803 -1.6268  0.0644
   63TP3      O12007   2.891   1.678   7.850 -0.1785  0.6222  0.0759
   63TP3     H112008   2.831   1.718   7.914 -0.6083  0.3470 -0.1527
   63TP3     H212009   2.863   1.587   7.846  1.0515  0.1872  0.8915
   64TP3      O12010   1.673   3.584   2.429  0.9436  0.0028 -0.0856
   64TP3     H112011   1.727   3.543   2.361  1.4119  1.3526 -0.5701
   64TP3     H212012   1.736   3.630   2.484  0.4980 -0.4947  0.8567
   65TP3      O12013   1.427   3.743   9.307  0.1151 -0.6399 -0.5470
   65TP3     H112014   1.459   3.765   9.220  0.5588  1.4946  0.1039
   65TP3     H212015   1.506   3.728   9.358 -0.1049 -0.7432 -0.2354
   66TP3      O12016   0.401   3.673   6.805  0.0986  0.1061 -0.1611
   66TP3     H112017   0.418   3.730   6.731  0.8204  0.7342  0.4812
   66TP3     H212018   0.397   3.731   6.881 -0.6947 -0.5166  0.2975
   67TP3      O12019   0.445   1.274   8.836  0.0911 -0.3640  0.0551
   67TP3     H112020   0.378   1.337   8.859  1.6350  1.4338 -0.1411
   67TP3     H212021   0.475   1.239   8.920  0.6174  0.7047  0.3305
   68TP3      O12022   0.297   1.903   7.022  0.8178 -0.1044 -0.4419
   68TP3     H112023   0.294   1.996   7.043 -2.2214 -0.2508  0.2750
   68TP3     H212024   0.365   1.896   6.955  0.8927  2.6939 -0.7836
   69TP3      O12025   3.621   4.640   7.918 -0.7540 -0.7116 -0.2712
   69TP3     H112026   3.645   4.655   7.826  1.0825  0.1396  0.2917
   69TP3     H212027   3.580   4.553   7.918  1.4887 -1.8781 -1.5595
   70TP3      O12028   1.570   2.021   9.408 -0.4413  0.1793  0.2311
   70TP3     H112029   1.583   2.110   9.376 -3.8212  0.0812 -1.9247
   70TP3     H212030   1.598   1.965   9.335 -1.3912 -0.3615  0.2590
   71TP3      O12031   4.913   3.204   9.560 -0.6911 -0.3013 -0.0672
   71TP3     H112032   4.957   3.206   9.645 -0.7501 -0.9548 -0.0185
   71TP3     H212033   4.896   3.111   9.544 -2.1601 -0.0615 -0.0278
   72TP3      O12034   2.100   5.036   1.767 -0.6647  0.4427  0.0711
   72TP3     H112035   2.021   5.087   1.786 -0.1926  0.6202  1.7616
   72TP3     H212036   2.130   5.007   1.853  0.3964 -0.7129 -0.6618
   73TP3      O12037   0.397   0.195   2.895 -0.4048  0.1758 -0.1208
   73TP3     H112038   0.402   0.231   2.984  1.4001 -0.2205 -0.0238
   73TP3     H212039   0.321   0.137   2.897 -1.7743  1.9257  0.4798
   74TP3      O12040   1.519   3.308   8.892  0.6758 -0.1330  0.6653
   74TP3     H112041   1.520   3.311   8.987  2.0756 -0.1845  0.6681
   74TP3     H212042   1.437   3.263   8.870 -2.1405  4.0046  1.6498
   75TP3      O12043   0.815   2.717   0.958  0.3997  0.4120 -0.4152
   75TP3     H112044   0.896   2.731   0.909  1.4121  1.3652  1.3902
   75TP3     H212045   0.807   2.622   0.965  1.1007  0.2989 -1.0505
   76TP3      O12046   4.187   3.865   1.296  0.5183  0.0813 -0.1198
   76TP3     H112047   4.275   3.835   1.277  0.1681 -0.2649 -1.2268
   76TP3     H212048   4.142   3.788   1.331 -0.0211 -0.3877 -1.7955
   77TP3      O12049   1.743   1.330   6.992  0.7192 -0.2974 -0.8264
   77TP3     H112050   1.655   1.364   6.981  1.0745  0.7305 -0.6021
   77TP3     H212051   1.735   1.263   7.059 -0.0534 -0.9388 -1.5307
   78TP3      O12052   1.372   1.441   8.292  0.3972  0.4125 -0.1551
   78TP3     H112053   1.448   1.500   8.291  0.4672  0.3320 -1.2993
   78TP3     H212054   1.330   1.455   8.207  0.9125 -1.7824 -0.8350
   79TP3      O12055   2.651   2.722   6.928  0.2147 -0.7210  0.3291
   79TP3     H112056   2.579   2.712   6.990 -1.4973 -0.4030 -1.4790
   79TP3     H212057   2.643   2.646   6.870 -0.9097  1.0348 -1.9687
   80TP3      O12058   1.435   5.030   7.836  0.2511 -0.4751 -0.1501
   80TP3     H112059   1.349   4.995   7.814 -0.3437 -2.8411  4.6051
   80TP3     H212060   1.420   5.081   7.916  3.2404 -1.3147  1.0711
   81TP3      O12061   4.834   0.191   1.354 -0.0851  0.2977  0.2095
   81TP3     H112062   4.848   0.273   1.306  0.1652 -0.1375 -0.4862
   81TP3     H212063   4.852   0.122   1.289  0.2169 -0.3137  0.9202
   82TP3      O12064   1.816   4.437   9.831  0.0935 -0.0743 -0.0760
   82TP3     H112065   1.826   4.355   9.782 -0.9628 -0.0656 -0.3314
   82TP3     H212066   1.838   4.413   9.921 -1.5430 -1.0116  0.1269
   83TP3      O12067   3.505   3.651   9.705 -0.3023  0.2531  0.2433
   83TP3     H112068   3.588   3.623   9.742 -0.2910 -1.3613 -0.9007
   83TP3     H212069   3.497   3.602   9.623 -2.4048  0.3012  0.3507
   84TP3      O12070   4.041   4.967   9.565 -0.3967  0.0405 -0.1765
   84TP3     H112071   4.039   5.004   9.653  0.8686 -0.8976  0.2895
   84TP3     H212072   3.983   5.023   9.513 -0.5769  1.0523  1.0776
   85TP3      O12073   1.979   0.617   9.098  0.3809  0.6505  0.3924
   85TP3     H112074   2.068   0.649   9.107  0.1736  1.2952  0.2210
   85TP3     H212075   1.988   0.524   9.078  1.0441  0.9488 -0.7587
   86TP3      O12076   4.540   2.565   2.078  0.3064 -0.3507  0.8117
   86TP3     H112077   4.572   2.496   2.020  1.3810 -0.1614  1.1632
   86TP3     H212078   4.558   2.646   2.031 -1.4862 -0.2906  0.1361
   87TP3      O12079   0.730   1.099   8.420 -0.1213 -0.5506  0.1177
   87TP3     H112080   0.807   1.065   8.466  0.5120 -0.3136 -0.7560
   87TP3     H212081   0.752   1.093   8.327 -0.3497  1.3712 -0.0965
   88TP3      O12082   2.159   3.664   9.523 -0.4023  0.3254 -0.5818
   88TP3     H112083   2.193   3.750   9.549  0.5572  0.1543 -1.2354
   88TP3     H212084   2.159   3.666   9.428 -2.1971  0.2865 -0.6164
   89TP3      O12085   4.514   1.811   8.069 -0.1363 -0.4341  0.1118
   89TP3     H112086   4.549   1.723   8.087 -1.1244 -0.9077 -0.2011
   89TP3     H212087   4.506   1.814   7.974  0.1928  0.1193  0.1017
   90TP3      O12088   2.225   1.712   7.959 -0.3870 -0.2251  0.1902
   90TP3     H112089   2.318   1.701   7.977 -0.2893  0.2183 -0.0259
   90TP3     H212090   2.203   1.642   7.898  0.0983  0.4416 -0.7723
   91TP3      O12091   5.110   4.709   8.353 -0.0801 -0.0603  0.4059
   91TP3     H112092   5.166   4.666   8.418  0.6890  1.4025  0.7726
   91TP3     H212093   5.150   4.688   8.269 -0.1696 -0.6912  0.5209
   92TP3      O12094   3.471   2.164   7.655  0.0077  0.5311 -0.0507
   92TP3     H112095   3.447   2.081   7.614  2.6437  0.9651 -2.7704
   92TP3     H212096   3.542   2.142   7.715 -1.1784  0.5032  1.4193
   93TP3      O12097   4.806   3.885   0.568  0.2137  0.2468 -0.5958
   93TP3     H112098   4.822   3.854   0.656 -0.4819 -1.4298 -1.0289
   93TP3     H212099   4.734   3.948   0.578  1.3138  1.4283  0.2236
   94TP3      O12100   3.152   1.455   8.670 -0.1579  0.7268 -0.0934
   94TP3     H112101   3.243   1.454   8.699 -0.6046  2.8594  1.7567
   94TP3     H212102   3.102   1.472   8.750 -2.2261 -0.5806 -1.0200
   95TP3      O12103   2.049   1.609   0.868  0.2494  0.1753 -0.0689
   95TP3     H112104   2.000   1.670   0.813 -0.5019  0.6306  1.0538
   95TP3     H212105   2.139   1.640   0.864  0.4775 -0.6142 -2.0829
   96TP3      O12106   0.659   0.357   8.371  0.0799 -0.2109  0.0065
   96TP3     H112107   0.713   0.293   8.418 -0.4411 -0.3554  0.4230
   96TP3     H212108   0.629   0.310   8.293 -0.3072 -0.4839  0.3146
   97TP3      O12109   3.746   3.721   8.260  0.4298 -0.1731 -0.2357
   97TP3     H112110   3.780   3.776   8.329 -0.7425 -0.2077  0.3900
   97TP3     H212111   3.755   3.773   8.180  0.3342  0.4760  0.1797
   98TP3      O12112   3.582   2.006   0.777 -0.4641 -0.2009  0.1373
   98TP3     H112113   3.576   1.964   0.691  0.5125 -0.6879  0.2841
   98TP3     H212114   3.668   2.049   0.777 -0.3878 -0.3246  0.9131
   99TP3      O12115   3.002   4.491   1.508 -0.6465 -0.3736 -0.5514
   99TP3     H112116   3.036   4.416   1.459  0.7661 -1.2971  1.6969
   99TP3     H212117   3.034   4.478   1.597 -2.3024  1.7241  0.4407
  100TP3      O12118   3.337   1.019   0.398 -0.1109  0.5753 -0.3669
  100TP3     H112119   3.335   1.024   0.494  0.6193  1.0065 -0.3635
  100TP3     H212120   3.384   1.098   0.372 -0.1027  0.3407 -1.0738
  101TP3      O12121   1.427   1.216   9.431 -0.0517  0.2008 -0.1857
  101TP3     H112122   1.442   1.255   9.345  0.5461 -1.0335 -0.6462
  101TP3     H212123   1.341   1.249   9.457 -0.4070  0.2763 -1.4228
  102TP3      O12124   5.173   3.161   1.689 -0.3228 -0.0114 -0.1710
  102TP3     H112125   5.212   3.087   1.735  0.6496  1.6531  1.8699
  102TP3     H212126   5.146   3.221   1.759 -1.1653  1.5078 -1.7294
  103TP3      O12127   0.291   0.271   6.836 -0.2864  0.0711 -0.4335
  103TP3     H112128   0.300   0.360   6.872  1.0302 -1.2846  2.9673
  103TP3     H212129   0.197   0.254   6.842 -0.4605  0.9571 -0.3850
  104TP3      O12130   3.401   4.062   8.488 -0.0484 -0.1698  0.7189
  104TP3     H112131   3.393   4.118   8.411  0.3849 -1.3553 -0.2328
  104TP3     H212132   3.313   4.057   8.524 -0.4216 -0.2249 -0.1826
  105TP3      O12133   0.523   4.346   7.152 -0.1820 -0.4568  0.1798
  105TP3     H112134   0.546   4.337   7.245 -0.0789 -0.0197  0.1969
  105TP3     H212135   0.561   4.430   7.125 -1.2726  0.0253  0.0621
  106TP3      O12136   1.447   0.474   8.383  0.3498  0.1717 -0.5172
  106TP3     H112137   1.448   0.383   8.354  0.5477 -0.6360  1.8171
  106TP3     H212138   1.531   0.510   8.355  1.0825 -0.9546  0.1606
  107TP3      O12139   2.985   1.911   8.422 -0.0634 -0.4045  0.1651
  107TP3     H112140   2.985   1.816   8.411  1.1130 -0.5111  0.8661
  107TP3     H212141   2.954   1.925   8.511 -1.4802 -0.0335 -0.3576
  108TP3      O12142   2.426   3.444   7.578  0.0261 -0.4548 -0.2061
  108TP3     H112143   2.378   3.449   7.495  0.3704  2.3050 -0.3301
  108TP3     H212144   2.516   3.466   7.554 -0.0811  1.4645  1.0129
  109TP3      O12145   4.854   4.615   8.219 -0.4039  0.6031 -0.3514
  109TP3     H112146   4.896   4.698   8.198  0.3365  0.2728 -0.2088
  109TP3     H212147   4.868   4.561   8.141  2.3259 -0.6176  0.8447
  110TP3      O12148   1.391   0.503   2.094 -0.2705 -0.0780 -0.3176
  110TP3     H112149   1.299   0.504   2.121 -0.7628 -2.7493 -1.6335
  110TP3     H212150   1.440   0.515   2.175 -1.7319  1.1568  0.4403
  111TP3      O12151   3.256   2.455   8.361 -0.3339 -0.0937  0.2151
  111TP3     H112152   3.311   2.445   8.284 -0.6348 -2.0797  0.2135
  111TP3     H212153   3.167   2.456   8.327 -0.4245  0.1082  0.4552
  112TP3      O12154   1.249   3.143   7.551 -0.1517 -0.3838 -0.0183
  112TP3     H112155   1.281   3.212   7.493 -1.2938  1.1380  1.0686
  112TP3     H212156   1.155   3.140   7.535 -0.2890 -0.8334  0.8157
  113TP3      O12157   2.252   3.997   1.966 -0.2236  0.3828  0.3494
  113TP3     H112158   2.299   3.976   1.886 -0.5405 -0.2166  0.3175
  113TP3     H212159   2.203   3.917   1.987 -1.3556  1.0409  0.2929
  114TP3      O12160   1.813   1.599   9.264 -0.0357  0.1333 -0.4119
  114TP3     H112161   1.818   1.684   9.220  0.2850  0.9515  1.1530
  114TP3     H212162   1.899   1.588   9.305 -0.3575 -0.5757  0.0962
  115TP3      O12163   1.739   3.508   9.778  0.5433 -0.1032 -0.3651
  115TP3     H112164   1.827   3.471   9.778  0.8989  0.5939 -2.2456
  115TP3     H212165   1.733   3.556   9.860  0.8435 -2.4395  1.1177
  116TP3      O12166   1.884   0.912   7.678  0.5790  0.2513 -0.0292
  116TP3     H112167   1.810   0.889   7.622  1.5436 -0.9640 -0.8703
  116TP3     H212168   1.932   0.979   7.629  0.3809  0.5899  0.2351
  117TP3      O12169   3.804   4.499   9.561 -0.3304  0.3149  0.0521
  117TP3     H112170   3.814   4.462   9.474  2.3551 -0.2825  0.5384
  117TP3     H212171   3.763   4.429   9.612  1.4439 -0.7514  0.0956
  118TP3      O12172   0.359   0.472   1.483 -0.1354  1.0287 -0.1673
  118TP3     H112173   0.299   0.444   1.414 -2.8863  2.3056  1.5098
  118TP3     H212174   0.425   0.525   1.438 -1.2594  1.0070 -1.9375
  119TP3      O12175   1.323   1.472   7.775 -0.1201 -0.5117 -0.2089
  119TP3     H112176   1.233   1.471   7.808  0.3546 -0.4052  1.1832
  119TP3     H212177   1.321   1.528   7.698 -1.3375 -0.9257 -0.4972
  120TP3      O12178   2.201   1.123   6.297 -0.4328 -0.0356 -0.1379
  120TP3     H112179   2.197   1.193   6.232  1.4255  0.9600  0.7398
  120TP3     H212180   2.133   1.146   6.361  0.4758  1.2866  0.3977
  121TP3      O12181   1.453   5.278   2.384 -0.4288  0.6804 -0.1897
  121TP3     H112182   1.387   5.329   2.337 -0.0019  0.8764 -0.5849
  121TP3     H212183   1.459   5.320   2.470 -0.6984  0.7606 -0.2072
  122TP3      O12184   0.533   1.217   9.080  0.8093 -0.1619  0.4160
  122TP3     H112185   0.548   1.306   9.113  0.1917 -0.2537  0.9621
  122TP3     H212186   0.587   1.162   9.137  2.6336 -0.0069 -1.0392
  123TP3      O12187   2.961   5.004   1.797  0.1362  0.0728  0.3178
  123TP3     H112188   3.006   5.083   1.767  1.3244 -0.9593 -0.7815
  123TP3     H212189   3.031   4.939   1.807 -0.6886 -0.5876  2.1489
  124TP3      O12190   3.807   1.576   8.071 -0.2771 -0.0309 -0.3969
  124TP3     H112191   3.815   1.547   7.980 -0.3389  1.1546 -0.7955
  124TP3     H212192   3.822   1.670   8.068 -2.0292  0.3245  0.5714
  125TP3      O12193   3.665   0.728   6.449 -0.7994  0.5349 -0.2867
  125TP3     H112194   3.590   0.726   6.509 -2.2133  0.7959 -1.9778
  125TP3     H212195   3.728   0.784   6.494 -1.4320  0.0129  1.3592
  126TP3      O12196   1.728   0.705   9.026  0.3848 -0.1359 -0.2161
  126TP3     H112197   1.811   0.668   9.059  0.1422 -0.4093  0.0904
  126TP3     H212198   1.665   0.634   9.036 -0.2605  0.6046  1.0791
  127TP3      O12199   2.420   5.156   7.022  0.2740 -0.0794  0.4048
  127TP3     H112200   2.401   5.125   7.110  2.3177  2.5307  1.9215
  127TP3     H212201   2.400   5.250   7.025  5.6159  1.4275  0.0835
  128TP3      O12202   2.462   1.761   7.312 -0.2060 -0.0913  0.1095
  128TP3     H112203   2.489   1.748   7.222 -0.2531  0.9508 -0.0660
  128TP3     H212204   2.422   1.848   7.313  1.7183  0.8527  1.5554
  129TP3      O12205   0.707   1.047   7.025  0.1935 -0.1654  0.2326
  129TP3     H112206   0.644   0.986   7.064 -1.1411  0.7764 -0.3792
  129TP3     H212207   0.691   1.040   6.930 -2.9562  3.9926  0.1727
  130TP3      O12208   0.619   1.390   1.725 -0.0591  0.1719 -0.1830
  130TP3     H112209   0.690   1.337   1.762 -0.6810  0.9696  2.3882
  130TP3     H212210   0.663   1.467   1.690  0.5856 -0.7311 -1.4333
  131TP3      O12211   1.706   4.418   7.955  0.0320  0.1308 -0.1643
  131TP3     H112212   1.622   4.441   7.996 -0.0434  0.1407 -0.3254
  131TP3     H212213   1.686   4.342   7.901  0.3959 -0.6779  0.8070
  132TP3      O12214   4.531   4.800   9.628  0.6887 -0.1574  0.7860
  132TP3     H112215   4.527   4.879   9.575 -1.3107  0.1706  1.3279
  132TP3     H212216   4.442   4.790   9.663  1.5344 -1.2040  2.8088
  133TP3      O12217   0.375   3.464   1.128 -0.0067  0.0312  0.3885
  133TP3     H112218   0.435   3.532   1.159  0.3152 -0.6173  1.2395
  133TP3     H212219   0.379   3.397   1.196  1.0506 -1.6576 -1.2611
  134TP3      O12220   0.576   2.455   1.029  0.7380  0.1771  0.5832
  134TP3     H112221   0.666   2.482   1.014  0.0715  2.2223 -0.1126
  134TP3     H212222   0.562   2.472   1.123  0.5002  1.8871  0.2726
  135TP3      O12223   3.359   3.018   1.609 -0.2619 -0.3897  0.2664
  135TP3     H112224   3.293   3.039   1.675 -0.1433  2.3031 -0.3269
  135TP3     H212225   3.442   3.042   1.650  0.1855 -2.0286  0.3541
  136TP3      O12226   0.613   5.265   9.297  0.5157 -0.2836 -0.2004
  136TP3     H112227   0.574   5.333   9.352  0.8202 -0.7211  0.5688
  136TP3     H212228   0.679   5.224   9.352 -1.6920 -3.2704  0.5202
  137TP3      O12229   1.765   3.024   8.734 -0.1661  0.2400 -0.0524
  137TP3     H112230   1.764   3.094   8.668 -1.2244  0.0396 -0.2606
  137TP3     H212231   1.854   2.988   8.728 -0.8229 -1.2631 -2.9746
  138TP3      O12232   4.856   2.822   0.085  0.1067  0.3391 -0.6071
  138TP3     H112233   4.850   2.773   0.167 -3.0225  0.1555 -0.8095
  138TP3     H212234   4.902   2.903   0.108 -1.5412  0.7408  1.6291
  139TP3      O12235   2.082   2.126   9.529  0.3169  0.0286  0.0738
  139TP3     H112236   2.049   2.182   9.459 -1.0464 -2.1958 -1.1734
  139TP3     H212237   2.028   2.047   9.525  0.9721 -0.6953  2.8923
  140TP3      O12238   0.473   2.822   6.771 -0.0898  0.2500 -0.4031
  140TP3     H112239   0.539   2.878   6.812  1.7516 -2.4495  0.5568
  140TP3     H212240   0.407   2.809   6.838  0.1602  0.2058 -0.1631
  141TP3      O12241   1.337   2.731   9.457 -0.1673  0.2345  0.9746
  141TP3     H112242   1.316   2.824   9.458  0.9733  0.4932  1.8599
  141TP3     H212243   1.314   2.702   9.368 -3.4212  0.6520  1.5615
  142TP3      O12244   3.075   0.758   0.244  0.1783  0.1228  0.3129
  142TP3     H112245   3.021   0.679   0.254 -0.8771  0.7618 -0.1909
  142TP3     H212246   3.112   0.773   0.331  1.0893 -1.3891  0.2401
  143TP3      O12247   4.452   4.571   8.378 -0.5508  0.2012  0.1552
  143TP3     H112248   4.500   4.642   8.336  0.4660 -0.7549 -0.3524
  143TP3     H212249   4.384   4.548   8.316  0.1941 -0.3983 -0.4602
  144TP3      O12250   1.108   3.816   9.666 -0.5505  0.2088 -0.1043
  144TP3     H112251   1.027   3.859   9.695 -1.2326 -1.8535  1.2149
  144TP3     H212252   1.126   3.750   9.733  1.6209 -0.1623 -0.9660
  145TP3      O12253   0.650   2.965   8.336 -0.5179 -0.8314  0.3777
  145TP3     H112254   0.568   2.930   8.370 -1.2298 -0.0559 -0.4656
  145TP3     H212255   0.685   3.018   8.408 -2.5177  1.6317 -0.3155
  146TP3      O12256   4.258   4.300   0.223 -0.1980  0.3249  0.5459
  146TP3     H112257   4.213   4.217   0.207  0.2352  0.2321 -0.2554
  146TP3     H212258   4.241   4.320   0.315 -2.9740  0.9416 -0.0249
  147TP3      O12259   4.794   3.744   7.013 -0.5136 -0.8147  0.3211
  147TP3     H112260   4.742   3.681   6.964 -3.3025  0.7050  1.1387
  147TP3     H212261   4.787   3.716   7.104 -0.9276  0.0609  0.5722
  148TP3      O12262   0.343   0.429   7.065  0.7430 -0.3074  0.0875
  148TP3     H112263   0.272   0.406   7.126 -0.9228  1.3917 -1.0907
  148TP3     H212264   0.380   0.510   7.100 -0.7375  1.1184 -1.4164
  149TP3      O12265   2.688   2.978   8.173  0.1593  0.0155  0.5655
  149TP3     H112266   2.609   2.983   8.119 -0.6137 -1.0654  1.5306
  149TP3     H212267   2.672   3.040   8.244  0.0954 -0.3079  0.8399
  150TP3      O12268   3.748   2.548   9.903 -0.2104  0.1002 -0.2298
  150TP3     H112269   3.679   2.548   9.970 -1.0728  0.5738 -1.0852
  150TP3     H212270   3.700   2.539   9.821  0.8080 -0.1174 -0.8068
  151TP3      O12271   2.943   3.271   7.534 -0.2392 -1.2452  0.1723
  151TP3     H112272   3.005   3.340   7.556 -0.5263 -0.6021 -0.9815
  151TP3     H212273   2.987   3.190   7.560 -1.0021 -0.5781  4.1936
  152TP3      O12274   4.850   2.939   9.940  0.7833 -0.3898  0.2469
  152TP3     H112275   4.938   2.944   9.902  0.7840  0.4738  0.3456
  152TP3     H212276   4.863   2.904  10.028  0.9999 -0.4952  0.1732
  153TP3      O12277   0.253   4.894   8.484  0.0459  0.0028  0.3675
  153TP3     H112278   0.210   4.948   8.550 -0.6000 -2.5771  2.2432
  153TP3     H212279   0.190   4.888   8.413 -0.0855  1.2256  0.3674
  154TP3      O12280   1.476   5.219   1.084 -0.2311 -0.3789 -0.3210
  154TP3     H112281   1.483   5.262   1.169  1.6375 -0.0084 -0.6155
  154TP3     H212282   1.383   5.197   1.075 -0.9059  1.8269  0.7009
  155TP3      O12283   0.921   0.807   6.787 -0.0110 -0.0179  0.3079
  155TP3     H112284   0.954   0.732   6.835  0.7128  0.5858  0.7847
  155TP3     H212285   0.994   0.834   6.731 -0.8019 -0.6465 -1.0807
  156TP3      O12286   2.421   0.739   8.089 -0.2533 -0.4873  0.4226
  156TP3     H112287   2.501   0.717   8.042 -0.2413  0.4883 -0.0492
  156TP3     H212288   2.393   0.657   8.130 -1.1185 -1.8371 -2.5560
  157TP3      O12289   0.808   5.062   9.348 -0.4467 -0.0168 -0.1931
  157TP3     H112290   0.873   5.035   9.413 -0.4924 -0.1289 -0.1931
  157TP3     H212291   0.725   5.025   9.380 -0.7216  1.0437  0.3903
  158TP3      O12292   1.527   3.320   8.219  0.3332  0.0083  0.5490
  158TP3     H112293   1.607   3.372   8.226 -0.6123  1.7992 -0.9292
  158TP3     H212294   1.499   3.307   8.309  0.0224  3.1748  1.0427
  159TP3      O12295   4.440   1.709   8.711  0.0699 -0.4089 -0.1038
  159TP3     H112296   4.529   1.743   8.704 -0.3412  0.5891 -0.7327
  159TP3     H212297   4.445   1.620   8.676  0.9506 -0.6167  0.5217
  160TP3      O12298   0.938   1.963   6.970 -0.3038 -0.6468 -0.2664
  160TP3     H112299   0.953   2.040   6.916 -2.8699  0.7005  0.7816
  160TP3     H212300   0.887   1.904   6.915  1.0805 -1.3686 -0.8330
  161TP3      O12301   3.054   3.064   9.994  0.0828  0.0063 -0.4105
  161TP3     H112302   3.121   3.083  10.060 -0.5136  0.2384  0.1325
  161TP3     H212303   2.993   3.005  10.037 -0.2503  0.0643 -0.7950
  162TP3      O12304   0.500   1.371   1.465  0.2441  0.3682  0.5600
  162TP3     H112305   0.557   1.296   1.447 -1.7996 -1.2618  0.4683
  162TP3     H212306   0.513   1.388   1.558  1.4603  0.5689  0.3749
  163TP3      O12307   2.918   2.767   9.416 -0.2848  0.3021  0.0890
  163TP3     H112308   2.958   2.853   9.434 -0.6367  0.8302 -1.4829
  163TP3     H212309   2.945   2.747   9.326 -1.3432 -0.5847 -0.0437
  164TP3      O12310   1.436   1.150   8.103 -0.9890  0.0519 -0.0686
  164TP3     H112311   1.381   1.143   8.181  1.2127 -1.9114  1.4636
  164TP3     H212312   1.507   1.208   8.128 -1.0837  0.6788 -1.1928
  165TP3      O12313   5.057   0.056   1.498 -0.4829  0.0863  0.3598
  165TP3     H112314   5.017  -0.001   1.432 -1.5361  0.4224  0.6890
  165TP3     H212315   5.031   0.018   1.582  1.7054 -0.9530  0.6637
  166TP3      O12316   1.536   2.633   7.790  0.1372  0.6391  0.2101
  166TP3     H112317   1.445   2.613   7.813 -0.1053  1.4711  0.0158
  166TP3     H212318   1.529   2.687   7.711  0.8099  0.5412  0.0833
  167TP3      O12319   1.801   1.088   7.887 -0.4222  0.5169 -0.5209
  167TP3     H112320   1.829   1.014   7.833  0.0863  0.2328  0.1113
  167TP3     H212321   1.730   1.129   7.837  0.4496  0.6499 -1.7062
  168TP3      O12322   3.488   4.877   8.622 -0.1495 -0.0980  0.5187
  168TP3     H112323   3.455   4.908   8.707  1.1596 -0.2069  1.0758
  168TP3     H212324   3.455   4.788   8.614 -2.1453  0.6317 -0.1270
  169TP3      O12325   3.220   1.937   8.628  0.2953  0.0651 -0.4427
  169TP3     H112326   3.281   1.951   8.556  1.0421 -0.4181  0.0783
  169TP3     H212327   3.241   1.850   8.661  0.8009  0.7351  1.1151
  170TP3      O12328   1.849   5.167   1.152  0.5646 -0.1798 -0.2366
  170TP3     H112329   1.791   5.096   1.179  0.8762  0.3840  2.1016
  170TP3     H212330   1.827   5.239   1.210  2.9658  0.3497  0.1159
  171TP3      O12331   1.689   2.589   8.867  0.1666  0.2010 -0.2339
  171TP3     H112332   1.655   2.506   8.834 -2.4863  1.0048  0.2569
  171TP3     H212333   1.649   2.600   8.953  0.3995  2.0094 -0.3021
  172TP3      O12334   0.733   1.665   0.024 -0.4578 -0.3067 -0.2284
  172TP3     H112335   0.735   1.571   0.011 -1.5642 -0.1558 -1.8057
  172TP3     H212336   0.695   1.677   0.111  1.2827 -1.3067  0.7168
  173TP3      O12337   1.228   2.063   2.615 -0.0872  0.1100  0.4647
  173TP3     H112338   1.224   2.152   2.649  1.5575 -0.5726  2.7102
  173TP3     H212339   1.284   2.070   2.537 -0.2967  1.1000  0.3972
  174TP3      O12340   0.516   5.112   8.633  0.2726 -0.4767  0.1416
  174TP3     H112341   0.583   5.136   8.569  0.4212 -0.2731  0.3709
  174TP3     H212342   0.565   5.084   8.710  0.0941 -0.7647  0.1525
  175TP3      O12343   0.510   1.494   0.479  0.5346 -0.0701  0.1397
  175TP3     H112344   0.525   1.560   0.411  1.1773  1.1810  1.4570
  175TP3     H212345   0.421   1.463   0.463  0.9142 -0.3680 -1.7144
  176TP3      O12346   2.510   1.301   0.500  0.2653 -0.0794  1.3602
  176TP3     H112347   2.436   1.315   0.559 -0.8686  1.2788 -0.2968
  176TP3     H212348   2.566   1.238   0.546 -2.1071 -1.4921  2.4940
  177TP3      O12349   1.908   3.570   8.893  0.4722 -0.0575 -0.5449
  177TP3     H112350   1.979   3.610   8.843 -0.6940  3.6386  0.5085
  177TP3     H212351   1.879   3.638   8.954 -3.3234 -1.7202 -0.1966
  178TP3      O12352   0.284   0.745   7.715  0.5307 -0.5900  0.2393
  178TP3     H112353   0.220   0.816   7.709 -0.3460 -1.4685 -1.2769
  178TP3     H212354   0.236   0.667   7.689  2.1635 -1.3018 -0.7672
  179TP3      O12355   3.473   5.098   8.081  0.2678  0.0545  0.1054
  179TP3     H112356   3.551   5.076   8.131  1.3990  1.7987 -0.7892
  179TP3     H212357   3.490   5.186   8.048 -2.1979  0.5808  0.0885
  180TP3      O12358   4.133   0.929   0.899 -0.2841  0.5175  0.2254
  180TP3     H112359   4.155   0.881   0.980 -0.4518  0.7827  0.4274
  180TP3     H212360   4.203   0.904   0.838 -0.8977 -0.7538  0.0133
  181TP3      O12361   0.191   0.408   1.272  0.0295 -0.1545 -0.3583
  181TP3     H112362   0.096   0.409   1.280  0.0603  0.8198 -0.0919
  181TP3     H212363   0.210   0.459   1.193  0.3585  0.2181 -0.0473
  182TP3      O12364   0.522   3.911   1.712 -0.0847 -0.0584 -0.2248
  182TP3     H112365   0.609   3.918   1.750  0.5460 -0.9607 -1.4284
  182TP3     H212366   0.475   3.851   1.769  0.4234 -0.3897 -0.1533
  183TP3      O12367   1.435   1.375   0.861 -0.1734 -0.0461 -0.2383
  183TP3     H112368   1.472   1.424   0.787  0.1406 -1.6074 -1.1718
  183TP3     H212369   1.433   1.438   0.933  2.1677  0.7651 -0.7885
  184TP3      O12370   1.657   5.194   0.580  0.1812 -0.4106  0.3179
  184TP3     H112371   1.629   5.209   0.670 -1.5323 -0.3597 -0.1948
  184TP3     H212372   1.584   5.148   0.539 -0.1357  1.6442 -1.6747
  185TP3      O12373   0.381   1.759   7.859 -0.1346 -0.8631  0.1517
  185TP3     H112374   0.374   1.810   7.939 -0.3432 -0.8069  0.0989
  185TP3     H212375   0.406   1.671   7.888 -0.1664 -0.8309  0.2757
  186TP3      O12376   5.170   0.457   8.948 -0.0157 -0.0715 -0.0167
  186TP3     H112377   5.265   0.457   8.961 -0.0326  0.5832  0.1611
  186TP3     H212378   5.158   0.429   8.858  0.2607 -1.7815  0.4489
  187TP3      O12379   0.095   1.059   1.836  0.0568 -0.2453 -0.3686
  187TP3     H112380   0.134   1.003   1.768  0.2798  0.1494 -0.5714
  187TP3     H212381   0.096   1.147   1.797  0.8099  0.1028  0.4044
  188TP3      O12382   3.881   4.820   0.552  0.0026  0.2161 -0.1477
  188TP3     H112383   3.833   4.880   0.496  0.1298 -0.6912 -1.2699
  188TP3     H212384   3.835   4.737   0.544  0.5314 -0.1443  0.4171
  189TP3      O12385   2.531   1.409   8.902  0.4931 -0.0114  0.4378
  189TP3     H112386   2.601   1.357   8.863  0.8967  0.2536  0.7992
  189TP3     H212387   2.450   1.367   8.872  0.7985 -1.8330  1.9508
  190TP3      O12388   5.199   3.930   7.613  0.3596  0.5098  0.1434
  190TP3     H112389   5.265   3.997   7.636 -0.0969  1.0779 -0.1820
  190TP3     H212390   5.248   3.866   7.561  0.9946  0.1483  1.1502
  191TP3      O12391   0.805   1.042   2.003 -0.3117  0.1014 -0.0135
  191TP3     H112392   0.817   0.950   1.981 -0.2040  0.3330 -0.9859
  191TP3     H212393   0.724   1.044   2.054  0.2534 -0.6538  0.9461
  192TP3      O12394   2.462   2.486   2.084 -0.8232  0.6152 -0.3062
  192TP3     H112395   2.452   2.575   2.115 -2.3670  1.1359 -2.0938
  192TP3     H212396   2.540   2.453   2.129 -0.7974  2.5002  1.1404
  193TP3      O12397   2.199   5.213   3.481 -0.3340 -0.8427  0.5399
  193TP3     H112398   2.172   5.121   3.473 -0.1385 -0.8636  0.0790
  193TP3     H212399   2.214   5.225   3.574 -2.7320 -0.5992  0.9543
  194TP3      O12400   4.931   4.187   0.127 -0.1957 -0.3440  0.1976
  194TP3     H112401   4.899   4.260   0.072  1.3992 -0.1704 -0.5596
  194TP3     H212402   4.859   4.171   0.188 -0.5208  2.0325  0.5568
  195TP3      O12403   2.497   0.066   0.256 -0.4442 -0.0109  0.3410
  195TP3     H112404   2.452   0.094   0.177  0.3061 -1.0046 -0.4580
  195TP3     H212405   2.428   0.029   0.311 -0.5903 -1.9857 -1.0740
  196TP3      O12406   2.199   2.939   8.281  0.9682  0.1558  0.3757
  196TP3     H112407   2.220   2.866   8.339  0.7886  1.0785  1.6371
  196TP3     H212408   2.233   2.911   8.195  2.0527 -0.8626  1.0968
  197TP3      O12409   2.355   2.596   1.855  0.0950 -0.8973 -0.3691
  197TP3     H112410   2.408   2.568   1.930 -2.0844  0.6015  1.9157
  197TP3     H212411   2.292   2.524   1.842 -2.2309  0.4787  2.1694
  198TP3      O12412   5.161   4.731   8.907 -0.1524  0.3312 -0.5766
  198TP3     H112413   5.253   4.739   8.881  0.0316  0.5465  0.1013
  198TP3     H212414   5.118   4.689   8.833 -0.1608  3.0455 -2.2342
  199TP3      O12415   0.642   3.587   6.718  0.7343  0.2941 -0.3345
  199TP3     H112416   0.684   3.669   6.691  0.2312  0.4924 -0.5283
  199TP3     H212417   0.551   3.612   6.736  0.3097 -0.4146 -1.4273
  200TP3      O12418   1.261   5.271   9.440 -0.2358 -0.2001 -0.5208
  200TP3     H112419   1.326   5.341   9.445 -0.2575 -0.2443  0.4573
  200TP3     H212420   1.192   5.307   9.384  0.3417  0.0682 -1.0825
  201TP3      O12421   1.125   1.769   0.628 -0.8616  0.0090 -0.4891
  201TP3     H112422   1.197   1.739   0.572  0.4660  2.3256 -0.1642
  201TP3     H212423   1.143   1.730   0.713 -0.0911  0.3828 -0.4685
  202TP3      O12424   2.666   0.784   6.704  0.1476  0.2441  0.2495
  202TP3     H112425   2.650   0.845   6.631  0.9356  1.7218  1.2521
  202TP3     H212426   2.759   0.762   6.696  0.2799  0.5526  0.8817
  203TP3      O12427   3.595   3.565   2.430  0.1746  0.4667 -0.1079
  203TP3     H112428   3.526   3.525   2.378  1.6124 -0.5405 -1.3122
  203TP3     H212429   3.548   3.612   2.500 -1.6314 -2.2282  0.6302
  204TP3      O12430   0.977   3.423   7.490  0.1598  0.3489 -0.8373
  204TP3     H112431   1.024   3.453   7.413 -1.0058  1.1739 -1.2533
  204TP3     H212432   0.899   3.478   7.494 -0.2615 -0.2886  0.4158
  205TP3      O12433   5.227   4.196   9.428  0.2018  0.3384  0.2930
  205TP3     H112434   5.320   4.191   9.407  0.2871  1.4319  0.3315
  205TP3     H212435   5.222   4.265   9.494 -0.6331  0.2734  0.3018
  206TP3      O12436   1.905   2.151   0.658 -0.0133  0.6046  0.0201
  206TP3     H112437   1.823   2.115   0.692  0.7388 -0.2073  1.0568
  206TP3     H212438   1.900   2.244   0.678  0.5773  0.1076  2.8672
  207TP3      O12439   2.590   3.513   0.272  0.3986 -0.1065  0.9143
  207TP3     H112440   2.497   3.532   0.264  0.3433 -0.0831  1.5144
  207TP3     H212441   2.617   3.484   0.185  0.5381  2.8823 -0.1463
  208TP3      O12442   2.904   3.835   9.204 -0.4987  0.0322 -0.1381
  208TP3     H112443   2.886   3.918   9.159 -0.8472 -0.8397 -1.6698
  208TP3     H212444   2.996   3.842   9.230 -0.9377  1.5141  1.1765
  209TP3      O12445   0.995   5.112   1.600  0.8509 -0.8455  0.0863
  209TP3     H112446   1.033   5.092   1.686 -0.4307 -1.3168  0.5669
  209TP3     H212447   0.911   5.067   1.600  1.0047 -1.1951 -1.5939
  210TP3      O12448   4.069   2.907   7.690  0.3340  0.6035 -0.2271
  210TP3     H112449   3.990   2.959   7.674  1.3997  3.5685  2.8709
  210TP3     H212450   4.134   2.943   7.629  0.2561  0.7588 -0.2201
  211TP3      O12451   4.123   4.459   0.041 -0.2272  0.2279  0.1270
  211TP3     H112452   4.196   4.425   0.093 -0.0503  0.4218  0.0084
  211TP3     H212453   4.065   4.499   0.106 -0.3624 -0.1599  0.2498
  212TP3      O12454   2.601   3.536   8.501 -0.2040  0.5118 -0.1991
  212TP3     H112455   2.637   3.540   8.412 -1.6745 -0.0056 -0.8443
  212TP3     H212456   2.650   3.466   8.544 -1.2779 -1.0791 -1.4810
  213TP3      O12457   4.317   0.980   7.050  0.0225 -0.4577 -0.7164
  213TP3     H112458   4.332   1.067   7.089  1.3535 -1.2409  0.6382
  213TP3     H212459   4.404   0.946   7.032 -0.3663 -2.1836  0.3740
  214TP3      O12460   4.796   4.440   9.677  0.0805  0.2062  0.4114
  214TP3     H112461   4.731   4.452   9.746 -0.7266 -2.0590  0.1325
  214TP3     H212462   4.757   4.375   9.618  0.5031  2.4143 -2.5349
  215TP3      O12463   1.249   0.861   8.501  0.2606 -0.2133 -0.0141
  215TP3     H112464   1.302   0.900   8.570  0.4668 -0.0809 -0.2446
  215TP3     H212465   1.209   0.936   8.457 -1.7446 -0.3693  1.4152
  216TP3      O12466   0.059   0.052   0.290 -0.4772  0.1365  0.1164
  216TP3     H112467  -0.008   0.064   0.357 -0.3794 -0.8379  0.4066
  216TP3     H212468   0.140   0.082   0.331 -0.8187  2.0629 -0.5015
  217TP3      O12469   2.766   1.464   2.491 -0.4068  0.2406 -0.5632
  217TP3     H112470   2.729   1.377   2.478 -0.6646  0.0663  1.0769
  217TP3     H212471   2.698   1.524   2.462 -0.8615 -0.0980 -0.2064
  218TP3      O12472   1.275   3.906   0.598 -0.0589 -0.4965 -0.5322
  218TP3     H112473   1.293   3.920   0.691 -0.6885 -0.0527 -0.4663
  218TP3     H212474   1.220   3.828   0.596 -1.4402  0.4414 -0.3688
  219TP3      O12475   0.899   2.524   2.560 -0.5611  0.5403  0.1243
  219TP3     H112476   0.888   2.587   2.489 -0.5323  0.9557  0.4808
  219TP3     H212477   0.922   2.578   2.636 -0.2123  0.0665  0.3594
  220TP3      O12478   1.183   1.445   8.082 -0.2332 -0.4739  0.5222
  220TP3     H112479   1.113   1.393   8.124 -0.4653 -0.3342  0.3127
  220TP3     H212480   1.139   1.489   8.009 -0.0617  0.0996  0.7578
  221TP3      O12481   4.053   3.407   7.169  0.0046 -0.0679 -0.0906
  221TP3     H112482   4.124   3.396   7.232 -0.2299  0.7701  0.3314
  221TP3     H212483   4.095   3.390   7.084  0.5296 -0.3148  0.2082
  222TP3      O12484   1.590   0.858   0.424 -0.1467 -0.0127 -0.4383
  222TP3     H112485   1.645   0.787   0.456 -0.1135 -0.8332 -2.1921
  222TP3     H212486   1.652   0.923   0.390 -0.1983 -0.5168 -1.5541
  223TP3      O12487   1.845   0.450   6.810  0.1074 -0.5729  0.3622
  223TP3     H112488   1.915   0.407   6.859  1.4747 -1.0308 -1.8649
  223TP3     H212489   1.859   0.543   6.826  0.2636 -0.7151  1.1310
  224TP3      O12490   2.022   3.374   8.726  0.1493 -0.3022  0.6494
  224TP3     H112491   1.978   3.446   8.769  0.8688 -0.1407  1.1361
  224TP3     H212492   2.018   3.302   8.789 -0.9019 -0.8264  0.0175
  225TP3      O12493   3.925   1.884   7.309  0.5276  0.3476  0.7089
  225TP3     H112494   3.906   1.922   7.395  0.5601 -1.2612  1.4555
  225TP3     H212495   3.939   1.960   7.252 -0.1458  1.4523  1.9648
  226TP3      O12496   1.595   0.478   6.902  0.6732 -1.0172 -0.6973
  226TP3     H112497   1.551   0.393   6.902  0.8276 -1.1237 -2.2570
  226TP3     H212498   1.683   0.459   6.870  1.3947 -0.5595  0.8996
  227TP3      O12499   0.305   2.648   6.367 -0.3007  0.0795 -0.1672
  227TP3     H112500   0.220   2.654   6.410  0.1131  1.5736  0.5022
  227TP3     H212501   0.333   2.558   6.381 -1.6537 -0.3610 -0.1901
  228TP3      O12502   2.114   1.285   6.555 -0.0489  0.0366  0.1963
  228TP3     H112503   2.045   1.283   6.622 -0.3654  0.2955 -0.1120
  228TP3     H212504   2.194   1.263   6.602 -0.3830 -0.5442  0.5084
  229TP3      O12505   2.642   0.316   7.868 -0.4480 -0.2976  0.3257
  229TP3     H112506   2.588   0.242   7.839  0.5451 -1.1558  0.6113
  229TP3     H212507   2.721   0.276   7.904  0.9205  0.9364 -1.1344
  230TP3      O12508   1.212   0.889   0.478  0.1326 -0.1648 -0.3565
  230TP3     H112509   1.229   0.901   0.572 -0.1366  0.9767 -0.4470
  230TP3     H212510   1.152   0.814   0.475 -0.2280  0.0744  0.4262
  231TP3      O12511   3.543   1.636   9.121  0.2843 -0.9461  0.1376
  231TP3     H112512   3.584   1.585   9.051 -0.0687 -1.9404  0.6406
  231TP3     H212513   3.483   1.575   9.164 -0.3481 -0.0308  0.5942
  232TP3      O12514   1.771   4.153   8.776  0.7526  0.0663 -0.3451
  232TP3     H112515   1.803   4.134   8.687  0.6871  0.7789 -0.5244
  232TP3     H212516   1.683   4.187   8.762  0.5407 -0.3266  0.0347
  233TP3      O12517   2.967   0.553   7.524  0.2741  0.1352  0.5051
  233TP3     H112518   2.924   0.496   7.461  0.6068 -0.6240  0.9480
  233TP3     H212519   2.961   0.641   7.486  0.6803 -0.3389 -0.6967
  234TP3      O12520   4.089   2.651   0.068  0.9083  0.2789  0.2677
  234TP3     H112521   4.093   2.612  -0.019  0.8796 -0.5977  0.6375
  234TP3     H212522   4.089   2.575   0.127  1.5599  0.8695  1.0478
  235TP3      O12523   4.288   1.780   7.789  0.2524 -0.5910  0.3263
  235TP3     H112524   4.379   1.758   7.772  0.2623  0.4691 -1.2245
  235TP3     H212525   4.259   1.716   7.854  1.6715 -1.8687 -0.2531
  236TP3      O12526   4.160   0.175   0.672  0.1752 -0.5113  0.1391
  236TP3     H112527   4.227   0.107   0.670  0.8025  0.0935  0.1546
  236TP3     H212528   4.184   0.234   0.600  1.4209  1.3248  1.9389
  237TP3      O12529   1.814   1.559   8.624  0.3571  0.2941  0.0939
  237TP3     H112530   1.792   1.559   8.718  0.8415  0.6853  0.2136
  237TP3     H212531   1.792   1.648   8.596 -0.9541 -0.1863 -0.4509
  238TP3      O12532   1.897   4.369   8.201 -0.0607  0.3096 -0.2813
  238TP3     H112533   1.964   4.320   8.249 -0.2917 -0.4026 -0.6746
  238TP3     H212534   1.929   4.372   8.111 -0.1751  0.6668 -0.3143
  239TP3      O12535   2.811   3.496   1.201 -0.2868  0.6983  0.0209
  239TP3     H112536   2.741   3.431   1.195  0.5493 -0.2710  0.4792
  239TP3     H212537   2.771   3.570   1.248 -1.0570  0.2600  0.0749
  240TP3      O12538   3.307   3.592   7.449  0.3995 -0.7217 -0.6509
  240TP3     H112539   3.318   3.571   7.356  4.2465  0.0674 -0.5475
  240TP3     H212540   3.318   3.687   7.454  1.8049 -0.9105  0.7039
  241TP3      O12541   2.769   4.200   0.059 -0.0376  0.1507 -0.8103
  241TP3     H112542   2.675   4.210   0.075  0.2807  2.3383 -0.0224
  241TP3     H212543   2.778   4.208  -0.036 -0.4989  1.8913 -0.7388
  242TP3      O12544   1.993   0.825  10.013  0.4391 -0.1942  0.6610
  242TP3     H112545   2.066   0.862   9.964  0.4569 -0.0821  0.7710
  242TP3     H212546   1.962   0.897  10.069 -0.3170  0.0213 -0.0212
  243TP3      O12547   5.080   0.198   8.767  0.3616  0.6562 -0.2148
  243TP3     H112548   5.050   0.124   8.714  2.7971 -0.4310 -0.1671
  243TP3     H212549   5.172   0.180   8.784  1.0433  3.7039 -0.1657
  244TP3      O12550   2.067   2.233   8.561  0.5904 -0.2353 -0.2028
  244TP3     H112551   2.161   2.217   8.558  0.5961 -0.6452  1.3235
  244TP3     H212552   2.055   2.291   8.636 -0.4714 -0.9687  0.2086
  245TP3      O12553   2.616   2.461   7.538  0.2389 -0.4703  0.3835
  245TP3     H112554   2.677   2.410   7.486 -0.0154 -0.2088 -0.1853
  245TP3     H212555   2.604   2.542   7.489 -0.1011 -0.2648  0.7897
  246TP3      O12556   0.873   1.056   0.728 -0.2013  0.3118 -0.3745
  246TP3     H112557   0.963   1.084   0.709 -0.1150  0.1162 -0.2574
  246TP3     H212558   0.849   1.105   0.806 -0.5111  1.0217 -0.9106
  247TP3      O12559   3.629   1.452  10.067  0.4529  0.6317 -0.3995
  247TP3     H112560   3.633   1.502  10.149 -2.5503 -1.5392  1.2629
  247TP3     H212561   3.613   1.362  10.094  0.2288 -0.3471 -3.3899
  248TP3      O12562   5.054   0.812   1.673  0.0980 -0.3017  0.2741
  248TP3     H112563   4.961   0.837   1.669  0.2137  0.0366 -0.6437
  248TP3     H212564   5.061   0.761   1.753 -0.7707  0.1278  0.6468
  249TP3      O12565   4.638   1.044   9.145 -0.7136 -0.8207 -0.0990
  249TP3     H112566   4.572   0.975   9.139 -1.1251 -0.3387 -1.6483
  249TP3     H212567   4.721   0.997   9.158 -1.3529 -1.4157  2.1849
  250TP3      O12568   4.797   1.919   1.718 -0.2478  0.0874  0.3913
  250TP3     H112569   4.827   2.010   1.722  0.7137 -0.2134  0.2199
  250TP3     H212570   4.744   1.908   1.797 -0.9925  0.9999  0.0527
  251TP3      O12571   0.528   3.010   1.467 -0.3912  0.0188  0.3787
  251TP3     H112572   0.614   2.969   1.453 -0.2392 -0.5085  2.5377
  251TP3     H212573   0.467   2.952   1.422  0.2658 -0.1776 -0.2922
  252TP3      O12574   0.557   1.964   1.543 -0.1374 -0.3796  0.2830
  252TP3     H112575   0.575   1.951   1.636 -1.4386  3.2419  1.2403
  252TP3     H212576   0.607   2.042   1.520  1.2453 -1.9594 -2.5242
  253TP3      O12577   0.562   4.148   7.749  0.2446 -0.2081  0.1005
  253TP3     H112578   0.604   4.222   7.705  0.2249 -0.0049  0.4281
  253TP3     H212579   0.488   4.126   7.692 -0.9508  1.2884  0.9973
  254TP3      O12580   3.655   2.400   8.309  0.0258  0.2807  0.2515
  254TP3     H112581   3.720   2.466   8.286  1.3743 -1.8004 -2.5033
  254TP3     H212582   3.571   2.438   8.282  0.3859  1.8668  1.2279
  255TP3      O12583   2.086   2.487   1.751  1.0716 -0.3323  0.0623
  255TP3     H112584   2.064   2.402   1.788 -1.8513  0.9092  1.4922
  255TP3     H212585   2.054   2.483   1.661 -1.7129  0.1014  0.9549
  256TP3      O12586   2.313   2.090   9.386 -0.3906 -0.1712 -0.6759
  256TP3     H112587   2.258   2.105   9.463  1.8308 -2.8364  1.6570
  256TP3     H212588   2.306   2.171   9.336 -1.1731  2.1791  2.8454
  257TP3      O12589   3.528   3.096   7.443 -0.2419  0.0631  0.5907
  257TP3     H112590   3.517   3.102   7.348  2.4220  2.6762  0.2918
  257TP3     H212591   3.476   3.168   7.478  0.0397  0.1044  0.9373
  258TP3      O12592   3.503   0.960   8.826 -0.3344  0.4151  0.0502
  258TP3     H112593   3.489   0.916   8.910 -1.6294  1.4756  0.4264
  258TP3     H212594   3.451   0.911   8.763 -1.6407  1.2584  0.4372
  259TP3      O12595   4.119   0.294   0.430  0.2553  0.3174 -0.5212
  259TP3     H112596   4.051   0.258   0.374 -1.3848  2.5224 -0.1052
  259TP3     H212597   4.175   0.344   0.371 -0.1776  0.8322 -0.5012
  260TP3      O12598   3.728   3.362   8.531 -0.8759  0.0652  0.9176
  260TP3     H112599   3.638   3.346   8.559 -1.2533  0.7738  0.1508
  260TP3     H212600   3.753   3.442   8.577 -0.0125 -1.0400  2.4724
  261TP3      O12601   4.255   4.719  10.091  0.2740 -0.3419  0.1496
  261TP3     H112602   4.220   4.773  10.162 -0.3167  0.5658 -0.8127
  261TP3     H212603   4.187   4.654  10.074  0.0081  0.0313 -0.2193
  262TP3      O12604   2.579   1.954   7.012 -0.3717  0.1152 -0.0734
  262TP3     H112605   2.555   1.863   7.033 -0.0879  0.2807  1.0034
  262TP3     H212606   2.590   1.996   7.097 -0.6167  1.2005 -0.5631
  263TP3      O12607   0.243   3.973   0.852 -0.5197  0.2267  0.0312
  263TP3     H112608   0.176   3.968   0.783 -1.0075 -0.8903  0.5527
  263TP3     H212609   0.326   3.970   0.804 -0.7570 -3.6475 -0.5342
  264TP3      O12610   1.325   3.994   9.908  0.2074  0.6436  0.5050
  264TP3     H112611   1.390   3.952   9.965  0.8826  1.9694  0.7319
  264TP3     H212612   1.245   3.942   9.921  1.4719 -1.7907 -0.6977
  265TP3      O12613   0.932   3.129   6.890 -0.5146  0.0921 -0.0973
  265TP3     H112614   0.877   3.172   6.825 -1.5159  1.4822  1.5634
  265TP3     H212615   0.877   3.061   6.928 -0.4508  0.2315  0.2567
  266TP3      O12616   4.456   0.342   9.011 -0.4418 -0.2932 -0.3422
  266TP3     H112617   4.537   0.293   8.998 -1.0900 -1.7790  1.0186
  266TP3     H212618   4.393   0.278   9.043 -1.4968  1.3040  0.9410
  267TP3      O12619   3.162   3.553   6.456  0.0021  0.0633 -0.8012
  267TP3     H112620   3.121   3.566   6.541  0.8132 -0.5928 -0.3040
  267TP3     H212621   3.089   3.530   6.398 -0.6277  1.0505 -0.4153
  268TP3      O12622   5.111   4.508   1.540  0.4962 -0.3586  1.1184
  268TP3     H112623   5.078   4.552   1.618 -0.5190  2.2120 -0.6253
  268TP3     H212624   5.180   4.565   1.507  0.4393 -1.0141 -0.2207
  269TP3      O12625   5.266   3.111   9.058  0.0622 -0.4937 -0.1247
  269TP3     H112626   5.302   3.102   8.970  0.2860 -2.9213  0.1652
  269TP3     H212627   5.179   3.149   9.045  0.7134  0.7319 -1.2147
  270TP3      O12628   1.030   0.386   8.113  0.2303  0.5017 -0.4807
  270TP3     H112629   1.038   0.336   8.031  1.3517  1.2288 -0.8275
  270TP3     H212630   1.120   0.397   8.143 -0.2209 -1.6080  2.0262
  271TP3      O12631   1.726   4.007   2.433 -0.1243  0.1630 -0.6650
  271TP3     H112632   1.763   4.093   2.410  1.8116  0.0535  1.6898
  271TP3     H212633   1.777   3.945   2.381  2.2393  0.1385  1.4577
  272TP3      O12634   1.088   0.969   8.969 -0.4858  0.4525 -0.3732
  272TP3     H112635   1.093   0.983   8.874 -1.4990 -0.0328 -0.5173
  272TP3     H212636   1.177   0.985   9.000 -0.4234  1.9596 -1.2124
  273TP3      O12637   3.863   3.260   7.467  0.1131 -0.0924 -0.2847
  273TP3     H112638   3.937   3.310   7.501 -0.0991  0.3093 -0.3987
  273TP3     H212639   3.788   3.293   7.515  0.2490 -1.9046  1.2861
  274TP3      O12640   0.259   1.688   7.227 -0.2881 -0.3434 -0.2051
  274TP3     H112641   0.168   1.660   7.213 -0.2611 -0.9694  0.7977
  274TP3     H212642   0.269   1.764   7.169 -1.6131  0.0666  0.0461
  275TP3      O12643   1.554   3.060   1.960  0.0143  0.4220 -0.3033
  275TP3     H112644   1.466   3.032   1.933 -0.0138 -0.1830  0.4150
  275TP3     H212645   1.543   3.091   2.050  0.2758  1.6627 -0.6710
  276TP3      O12646   2.118   2.152   0.459  0.2174 -0.8315  0.3065
  276TP3     H112647   2.180   2.210   0.503 -1.2067  0.8375  0.2362
  276TP3     H212648   2.065   2.115   0.530  0.3033 -1.0475  0.2588
  277TP3      O12649   3.065   4.514   9.203 -0.1488 -0.6214  0.7030
  277TP3     H112650   3.035   4.457   9.274  0.2316 -0.7506  0.7599
  277TP3     H212651   3.092   4.595   9.246  1.1553 -1.1079  0.8389
  278TP3      O12652   0.532   3.342   0.930  0.0286  0.1064  0.2066
  278TP3     H112653   0.471   3.357   1.002  1.0291  0.9642  0.9012
  278TP3     H212654   0.520   3.249   0.909 -1.1567  0.1365  0.6431
  279TP3      O12655   5.052   4.223   8.570 -0.2521 -0.2546 -0.1567
  279TP3     H112656   5.016   4.308   8.543 -2.7697 -0.3682  2.3783
  279TP3     H212657   5.044   4.168   8.492  1.2434  1.6761 -1.7927
  280TP3      O12658   0.332   3.182   9.403  0.3820 -0.1785 -0.0871
  280TP3     H112659   0.334   3.270   9.367 -0.0659 -0.3712 -0.6045
  280TP3     H212660   0.276   3.133   9.343  0.8330 -0.8798  0.0488
  281TP3      O12661   4.628   0.655   9.400 -0.0391  0.5611  0.4430
  281TP3     H112662   4.588   0.634   9.315  1.2735  0.0186 -0.0829
  281TP3     H212663   4.720   0.672   9.379  0.2804  0.5554  1.7514
  282TP3      O12664   4.269   3.379   7.342 -0.1406  0.3683 -0.5855
  282TP3     H112665   4.279   3.408   7.432 -1.3145  2.0688 -0.9557
  282TP3     H212666   4.324   3.301   7.336 -0.8855 -0.4228  1.8585
  283TP3      O12667   0.766   0.097   0.201  0.7630 -0.3724 -0.0111
  283TP3     H112668   0.690   0.123   0.148  1.4587  2.2939  0.1692
  283TP3     H212669   0.749   0.133   0.287  1.7721 -0.6689  0.3271
  284TP3      O12670   1.247   4.553   9.836  0.6303  0.1253  0.0541
  284TP3     H112671   1.331   4.508   9.824  0.0534 -1.1614  0.7047
  284TP3     H212672   1.265   4.617   9.905  1.3121  0.5261 -0.4778
  285TP3      O12673   4.846   0.892   9.157 -0.2995 -0.0722 -0.4757
  285TP3     H112674   4.847   0.805   9.197 -0.4248  0.2116  0.1426
  285TP3     H212675   4.872   0.876   9.066 -0.9562 -0.8419 -0.5421
  286TP3      O12676   3.719   1.203   6.609  0.1311  0.3953  0.4736
  286TP3     H112677   3.624   1.191   6.605  0.1438 -0.7615  2.3090
  286TP3     H212678   3.744   1.224   6.519 -1.7962  0.2960 -0.1417
  287TP3      O12679   2.135   5.080  10.090 -0.7235 -0.5245 -0.0232
  287TP3     H112680   2.153   5.061  10.182 -0.5518 -0.8674 -0.1246
  287TP3     H212681   2.070   5.150  10.092 -1.0915 -0.8738  0.3642
  288TP3      O12682   5.282   4.434   0.273 -0.0160  0.2645  0.0316
  288TP3     H112683   5.251   4.525   0.273  1.2944  0.7365 -0.8825
  288TP3     H212684   5.283   4.409   0.365 -0.3661  1.1776  0.2917
  289TP3      O12685   0.660   0.193   0.455  0.3670  0.1681 -0.0973
  289TP3     H112686   0.675   0.232   0.541  0.3054 -0.5076  0.2279
  289TP3     H212687   0.578   0.232   0.425  1.0752  1.4302 -0.4590
  290TP3      O12688   5.117   2.643   7.389  0.2499 -0.5079 -0.9580
  290TP3     H112689   5.034   2.611   7.355  0.5748  1.0362 -3.4108
  290TP3     H212690   5.137   2.721   7.337  2.5764 -0.0355  0.4733
  291TP3      O12691   0.782   1.817   9.162  0.0807  0.3178 -0.1008
  291TP3     H112692   0.865   1.838   9.205 -0.8656 -0.4140  2.2690
  291TP3     H212693   0.808   1.770   9.082  1.9361  1.2924 -0.1284
  292TP3      O12694   5.220   0.243   0.773  0.7397 -0.3227 -0.1052
  292TP3     H112695   5.128   0.253   0.748  1.0316  2.0008 -0.4692
  292TP3     H212696   5.238   0.319   0.829  1.8658 -1.9411  1.8665
  293TP3      O12697   0.803   0.666   2.376  0.5521  0.0500 -0.1610
  293TP3     H112698   0.755   0.588   2.402  1.8483 -1.6709 -2.5158
  293TP3     H212699   0.788   0.729   2.447 -0.7070 -2.2441  1.7299
  294TP3      O12700   2.511   0.924   8.803  0.5216 -0.3476 -0.9134
  294TP3     H112701   2.492   0.912   8.710  1.0910 -1.1983 -0.9226
  294TP3     H212702   2.602   0.898   8.813  0.0769 -1.6175  0.1281
  295TP3      O12703   3.830   1.890   9.196 -0.2604 -0.3630  0.5328
  295TP3     H112704   3.775   1.833   9.250  1.7891 -0.8457  2.2383
  295TP3     H212705   3.897   1.832   9.160 -0.2252  0.3777 -0.6664
  296TP3      O12706   2.069   0.499   1.147  0.2926 -0.1326 -0.1195
  296TP3     H112707   2.080   0.593   1.163 -0.1440 -0.1829  0.5557
  296TP3     H212708   2.127   0.480   1.074  1.3228  0.4247  0.5233
  297TP3      O12709   1.186   1.891   7.216  0.1975  0.2101  0.1648
  297TP3     H112710   1.156   1.977   7.246 -0.5467 -0.7984  2.5755
  297TP3     H212711   1.281   1.899   7.209  0.0831  1.3823 -0.2570
  298TP3      O12712   4.101   0.721   8.105  0.0094 -0.0579 -0.5099
  298TP3     H112713   4.158   0.797   8.122 -0.8310  0.6696 -0.8810
  298TP3     H212714   4.017   0.759   8.081 -0.4906 -1.1217 -0.4966
  299TP3      O12715   2.804   4.492   7.435 -0.3612 -0.3970 -0.9803
  299TP3     H112716   2.863   4.491   7.360  1.6080 -2.1372  0.4909
  299TP3     H212717   2.805   4.402   7.467 -3.2353 -0.3155 -0.3842
  300TP3      O12718   5.210   2.845   8.084 -0.8168 -0.2137 -1.0600
  300TP3     H112719   5.210   2.938   8.103 -0.9549 -0.5890  0.9389
  300TP3     H212720   5.117   2.819   8.089 -0.7191 -0.5733 -1.0510
  301TP3      O12721   0.013   1.051   0.893 -0.7938 -0.3627  0.5349
  301TP3     H112722   0.019   0.991   0.819 -0.2763 -0.6805  0.8246
  301TP3     H212723   0.012   0.994   0.970  0.9862  0.0270  0.8810
  302TP3      O12724   0.192   5.284   9.403 -0.6761 -0.7356  0.4987
  302TP3     H112725   0.239   5.281   9.486  0.4833 -1.5972 -0.1531
  302TP3     H212726   0.104   5.252   9.423 -1.8098  2.8385  2.1797
  303TP3      O12727   1.055   4.703   8.775  0.0726 -0.3016  0.6487
  303TP3     H112728   1.140   4.657   8.772 -0.4453 -1.2990  0.8350
  303TP3     H212729   0.991   4.633   8.785 -0.9033  0.3230 -0.8929
  304TP3      O12730   1.821   1.438   7.368  0.3996  0.0622  0.2223
  304TP3     H112731   1.806   1.347   7.390  0.4547 -0.2770 -1.0370
  304TP3     H212732   1.865   1.475   7.444  0.3043 -0.9369  0.7761
  305TP3      O12733   2.139   4.312   8.792  0.3261  0.5499 -0.0433
  305TP3     H112734   2.216   4.283   8.842  0.7573  0.3625 -0.7887
  305TP3     H212735   2.087   4.362   8.854 -0.5008 -1.9039  1.3278
  306TP3      O12736   3.542   2.716   9.115  0.0986 -0.5646  0.2863
  306TP3     H112737   3.605   2.688   9.182 -0.5158  0.6114  1.4051
  306TP3     H212738   3.531   2.809   9.131 -1.4788 -0.6314 -0.2675
  307TP3      O12739   0.976   3.162   7.506 -0.4292 -0.4372  0.1337
  307TP3     H112740   0.968   3.257   7.503  1.1485 -0.2907 -0.5848
  307TP3     H212741   0.905   3.131   7.448 -0.2219  0.3625 -0.5781
  308TP3      O12742   2.113   3.873   7.295 -0.8822 -0.1017  0.2584
  308TP3     H112743   2.178   3.819   7.339 -0.0853  0.6230 -0.0060
  308TP3     H212744   2.157   3.906   7.217 -1.2607  1.0895  0.5178
  309TP3      O12745   3.599   3.241   2.604 -0.1083  0.1988 -0.1724
  309TP3     H112746   3.506   3.221   2.617 -0.2166  0.0497 -1.1243
  309TP3     H212747   3.619   3.307   2.671 -0.9633  0.4405 -0.1443
  310TP3      O12748   2.695   1.268   8.722 -0.1704  0.5202  0.0694
  310TP3     H112749   2.652   1.194   8.679  0.1484  0.2285  0.2568
  310TP3     H212750   2.739   1.231   8.798  0.9947  0.7031 -0.4958
  311TP3      O12751   0.392   2.333   1.658 -0.6138  0.1659  0.0912
  311TP3     H112752   0.306   2.290   1.660 -1.6874  2.1889  1.5296
  311TP3     H212753   0.435   2.303   1.739 -0.1361 -0.4598 -0.3824
  312TP3      O12754   1.049   1.857   9.326 -0.0259  0.4519 -0.2078
  312TP3     H112755   1.126   1.891   9.372  0.2377 -0.1902 -0.1604
  312TP3     H212756   0.982   1.925   9.337  0.6521  1.2007 -0.5938
  313TP3      O12757   1.039   0.567   7.587  0.0347  0.0135  0.4353
  313TP3     H112758   1.072   0.502   7.524 -0.7679 -0.3581  0.3800
  313TP3     H212759   1.100   0.562   7.660 -0.4310 -1.3816  0.7677
  314TP3      O12760   1.978   1.407   6.395 -0.0687  0.2231  0.2497
  314TP3     H112761   2.030   1.364   6.463  1.3662  1.5056  0.0195
  314TP3     H212762   1.887   1.391   6.420  0.4257 -1.6505  0.9517
  315TP3      O12763   1.939   2.303   2.118 -0.3874 -0.2586  0.1330
  315TP3     H112764   2.004   2.235   2.099 -0.6088 -0.1404 -1.1424
  315TP3     H212765   1.895   2.318   2.034 -0.2437  1.5682  0.3394
  316TP3      O12766   2.737   0.032   2.924  0.2807  0.1576  0.4266
  316TP3     H112767   2.701  -0.040   2.872  0.0173  0.4653  0.1797
  316TP3     H212768   2.684   0.035   3.003  1.3548 -1.0032  1.2239
  317TP3      O12769   2.651   1.696   9.690 -0.2871 -0.4078  0.0999
  317TP3     H112770   2.617   1.609   9.707  1.3210 -0.9803  0.5775
  317TP3     H212771   2.746   1.685   9.690 -0.0624  1.2276 -0.4702
  318TP3      O12772   3.830   0.809   6.643  0.4550 -0.1159 -0.2184
  318TP3     H112773   3.760   0.769   6.696  0.3498 -1.4422 -1.3033
  318TP3     H212774   3.910   0.765   6.672  1.1899  2.5173  2.1620
  319TP3      O12775   1.760   1.182   7.396 -0.0318  0.9408  0.4489
  319TP3     H112776   1.732   1.170   7.305 -0.6590  2.3617  0.4416
  319TP3     H212777   1.823   1.110   7.411  0.1184  0.7165 -1.1079
  320TP3      O12778   3.193   0.336   6.930  0.0854 -0.3084 -0.2131
  320TP3     H112779   3.269   0.370   6.883 -0.7350  0.2307 -1.1877
  320TP3     H212780   3.174   0.252   6.887  0.4832 -0.7412  0.4321
  321TP3      O12781   0.929   2.037   1.039  0.8046  0.0272 -0.1032
  321TP3     H112782   0.981   2.095   1.094  1.5940 -0.4901 -0.2955
  321TP3     H212783   0.851   2.088   1.018  1.7390  1.2546 -0.7365
  322TP3      O12784   2.060   0.505  10.087 -0.3218  0.0853  0.2444
  322TP3     H112785   1.994   0.438  10.102  0.2494 -0.1768  1.7964
  322TP3     H212786   2.106   0.476  10.008 -1.3482 -0.3045 -0.2179
  323TP3      O12787   0.318   3.738   0.480 -0.0747 -0.0221 -0.3294
  323TP3     H112788   0.236   3.690   0.488  0.4872 -1.0527 -0.5841
  323TP3     H212789   0.316   3.774   0.392 -0.4884  0.4162 -0.1458
  324TP3      O12790   1.910   1.846   7.703 -0.0495 -0.5246 -0.0400
  324TP3     H112791   1.883   1.936   7.722 -0.9906 -0.8446  0.1985
  324TP3     H212792   1.918   1.805   7.789  1.6365 -0.3326 -0.0839
  325TP3      O12793   5.287   1.285   9.240  0.0560  0.6291  0.2403
  325TP3     H112794   5.348   1.223   9.200  1.4429  1.3849  1.1256
  325TP3     H212795   5.274   1.352   9.173 -0.0449  0.3161 -0.0588
  326TP3      O12796   0.843   1.554   0.364  0.3244  1.1849 -0.2212
  326TP3     H112797   0.919   1.592   0.319 -0.0730  1.3018 -0.8155
  326TP3     H212798   0.770   1.609   0.337  0.0825  1.3022  0.6498
  327TP3      O12799   2.364   2.884   0.299  0.4286  0.0630 -0.1060
  327TP3     H112800   2.274   2.916   0.302  0.5232  0.2771  2.0181
  327TP3     H212801   2.374   2.850   0.210 -1.2443  1.4219 -0.8860
  328TP3      O12802   0.032   3.992   0.695  0.0375 -0.0162 -0.3121
  328TP3     H112803  -0.042   3.933   0.703  1.1754 -1.3163  1.1638
  328TP3     H212804   0.035   4.015   0.602  0.1596 -3.1009 -1.1580
  329TP3      O12805   0.289   1.153   9.347  0.0457 -0.4768  0.0380
  329TP3     H112806   0.287   1.094   9.271 -0.3087 -0.6664  0.1914
  329TP3     H212807   0.198   1.154   9.378 -0.2996  1.3563 -0.8874
  330TP3      O12808   2.956   3.213   1.597  0.8299 -0.1677 -0.0881
  330TP3     H112809   2.978   3.128   1.635  0.7398 -0.1865 -0.0780
  330TP3     H212810   3.026   3.231   1.534  0.2960 -0.7345 -0.8570
  331TP3      O12811   0.343   0.125   9.950 -0.0825  0.7869  0.1004
  331TP3     H112812   0.264   0.173   9.925 -0.9988 -0.0278  1.3461
  331TP3     H212813   0.312   0.059  10.011  1.5333  0.2416  0.3571
  332TP3      O12814   4.635   4.748   0.733  0.6198 -0.2294  0.3778
  332TP3     H112815   4.691   4.823   0.753 -0.0671  0.6259 -0.7993
  332TP3     H212816   4.696   4.678   0.710  1.2434  0.3076  0.3674
  333TP3      O12817   0.255   2.816   7.738 -0.2213  0.0395  0.1242
  333TP3     H112818   0.275   2.822   7.832 -0.6494 -0.6352  0.2658
  333TP3     H212819   0.238   2.723   7.723 -0.1514  0.1416 -0.6270
  334TP3      O12820   1.741   0.595   7.559 -0.2616 -0.0398 -0.2862
  334TP3     H112821   1.678   0.629   7.496  0.1611 -1.1588 -1.3609
  334TP3     H212822   1.790   0.672   7.589 -0.4683  0.5159 -1.3320
  335TP3      O12823   0.574   2.672   8.206 -0.2430 -0.5026 -0.5776
  335TP3     H112824   0.661   2.656   8.244 -0.2754  2.3657  0.9575
  335TP3     H212825   0.548   2.587   8.170  1.9262 -2.2087  1.5474
  336TP3      O12826   3.830   0.681   3.009  0.1282 -0.6398  0.0487
  336TP3     H112827   3.882   0.720   3.080  1.9809 -2.0301 -0.4803
  336TP3     H212828   3.753   0.645   3.053  0.3039  0.1877  1.0704
  337TP3      O12829   1.836   3.797   0.186 -0.7665  0.0215 -0.1556
  337TP3     H112830   1.883   3.877   0.209  1.2410 -0.7110 -1.5072
  337TP3     H212831   1.787   3.774   0.266 -0.5414  1.9790  0.5953
  338TP3      O12832   2.772   4.415   2.515  0.2944  0.2993 -0.2417
  338TP3     H112833   2.728   4.496   2.538  0.8439  1.0336 -1.6382
  338TP3     H212834   2.853   4.415   2.566  0.3584  0.7098 -0.3422
  339TP3      O12835   1.746   3.685   1.978  0.5181  0.5295 -0.1429
  339TP3     H112836   1.812   3.616   1.978  1.0017  0.8896  2.4501
  339TP3     H212837   1.662   3.639   1.976  0.8414 -0.1676  1.3104
  340TP3      O12838   2.797   1.670   0.246  0.2574  0.0566  0.0210
  340TP3     H112839   2.768   1.608   0.313  0.6472  0.3671  0.4878
  340TP3     H212840   2.852   1.732   0.294 -0.2103  0.8212 -0.4146
  341TP3      O12841   0.962   1.695   7.363  0.1577  0.1114  0.2196
  341TP3     H112842   0.976   1.602   7.343 -0.8115  0.3494 -1.7200
  341TP3     H212843   0.877   1.697   7.407 -0.4515  0.2126 -0.9470
  342TP3      O12844   2.464   1.263   7.217  0.3645 -0.5113  0.2639
  342TP3     H112845   2.462   1.331   7.150 -0.4284 -1.6860 -0.9722
  342TP3     H212846   2.492   1.184   7.169 -1.2396 -1.6252  1.0628
  343TP3      O12847   0.940   4.245   7.553 -0.2460  0.2340 -0.0194
  343TP3     H112848   1.000   4.173   7.531 -1.0797 -0.5292  0.1178
  343TP3     H212849   0.996   4.320   7.567  0.6560 -0.3946 -0.1796
  344TP3      O12850   0.265   2.588   0.214 -0.5336 -0.0444 -0.5342
  344TP3     H112851   0.287   2.502   0.177 -1.6071 -0.6476  0.1763
  344TP3     H212852   0.170   2.592   0.210 -0.4805  1.2464 -0.8083
  345TP3      O12853   0.305   2.224   2.340 -0.5481 -0.5358  0.1112
  345TP3     H112854   0.266   2.157   2.284  0.1136 -0.5321 -0.3721
  345TP3     H212855   0.234   2.254   2.396 -1.1178 -0.8533 -0.4373
  346TP3      O12856   5.232   1.166   7.557 -0.0287 -0.0155 -0.0053
  346TP3     H112857   5.213   1.079   7.521 -0.2556  0.0030  0.0695
  346TP3     H212858   5.326   1.178   7.542  0.3395 -0.9281  1.3620
  347TP3      O12859   1.931   1.427   6.789 -0.3178  0.9018 -0.1199
  347TP3     H112860   1.875   1.364   6.743 -1.0194  1.7909 -0.5146
  347TP3     H212861   1.871   1.476   6.845  0.2727  0.9985  0.4376
  348TP3      O12862   4.334   0.493   2.424  0.6910 -0.2791  0.2956
  348TP3     H112863   4.269   0.527   2.485 -0.4381  0.5895 -1.3220
  348TP3     H212864   4.306   0.403   2.406  0.2538 -0.0910  0.0339
  349TP3      O12865   1.115   4.480   1.583  0.1916  0.0517 -0.0651
  349TP3     H112866   1.034   4.441   1.616  0.4231 -0.7955 -0.4875
  349TP3     H212867   1.159   4.514   1.661 -0.5448  0.4941  0.1710
  350TP3      O12868   2.313   0.961   0.470 -0.3311 -0.5633 -0.4290
  350TP3     H112869   2.235   0.907   0.458  0.0530 -1.1082 -0.5088
  350TP3     H212870   2.292   1.044   0.427 -1.1856 -0.3977  0.2865
  351TP3      O12871   4.896   2.809   0.759  0.3591 -0.0352 -0.2844
  351TP3     H112872   4.884   2.714   0.764 -0.4349  0.0637 -0.2699
  351TP3     H212873   4.958   2.829   0.830  0.8127 -0.5788 -0.5136
  352TP3      O12874   2.488   3.798   9.467  0.2114  0.1361 -0.0603
  352TP3     H112875   2.538   3.814   9.387 -0.7939  0.0452 -0.7366
  352TP3     H212876   2.549   3.817   9.538  0.9007  0.9741 -0.8446
  353TP3      O12877   2.537   1.180   7.652  0.1194  0.1736  0.4286
  353TP3     H112878   2.458   1.161   7.702  0.0539  0.6042  0.4882
  353TP3     H212879   2.604   1.196   7.718  0.1579  0.2227  0.3772
  354TP3      O12880   2.823   1.973   1.276  0.4962  0.2687  0.0179
  354TP3     H112881   2.752   2.013   1.226  0.5470 -0.5465 -0.7150
  354TP3     H212882   2.781   1.900   1.323  0.6434  0.4374  0.4169
  355TP3      O12883   3.069   0.678   8.559  0.1147 -0.2762 -0.0688
  355TP3     H112884   3.077   0.591   8.519  1.1239 -1.0806  1.7817
  355TP3     H212885   2.974   0.694   8.563 -0.1737 -2.0081  0.9596
  356TP3      O12886   5.042   0.354   9.583  0.2019  0.1410  0.0905
  356TP3     H112887   4.988   0.431   9.600  0.5992  0.6126 -0.7215
  356TP3     H212888   4.994   0.304   9.517 -1.4196 -1.7709  2.5186
  357TP3      O12889   3.505   3.004   9.218  0.1931 -0.4552  0.3361
  357TP3     H112890   3.414   2.974   9.224  0.3180 -1.1433 -0.8809
  357TP3     H212891   3.504   3.092   9.255 -1.0856 -0.2507 -0.1363
  358TP3      O12892   2.826   5.080   9.168  0.3684 -0.2408  0.5963
  358TP3     H112893   2.779   5.121   9.241 -1.3784 -0.6676 -0.2620
  358TP3     H212894   2.817   5.142   9.096 -0.9658 -1.3715 -0.2592
  359TP3      O12895   4.315   4.907   8.535  0.0131  0.0668  0.2140
  359TP3     H112896   4.238   4.878   8.585 -0.1776 -0.1516 -0.2060
  359TP3     H212897   4.299   4.876   8.446 -0.5096  2.0628 -0.4263
  360TP3      O12898   3.419   2.372   9.902 -0.4460  0.9236 -0.5734
  360TP3     H112899   3.333   2.340   9.928 -0.6175  1.4047 -0.5508
  360TP3     H212900   3.413   2.384   9.807 -0.1119  0.0709 -0.7104
  361TP3      O12901   1.860   4.362   0.910  0.8136 -0.0201  0.2389
  361TP3     H112902   1.940   4.376   0.858  0.5484 -2.5745 -1.0249
  361TP3     H212903   1.796   4.420   0.870  1.0139 -0.8700 -1.4410
  362TP3      O12904   0.805   3.459   6.900  0.0685  0.4399 -0.2355
  362TP3     H112905   0.889   3.503   6.908  1.2059 -0.9984 -2.8758
  362TP3     H212906   0.754   3.516   6.842  0.1342  0.1735 -0.5619
  363TP3      O12907   0.694   3.140   9.702 -0.8951 -0.3888 -0.2884
  363TP3     H112908   0.711   3.117   9.793  0.6780  1.3982 -0.0815
  363TP3     H212909   0.722   3.063   9.652 -0.2863 -0.7826  0.6393
  364TP3      O12910   4.629   0.127   8.142  0.2959  0.1622 -0.1617
  364TP3     H112911   4.622   0.206   8.196 -0.9336 -0.1865  0.2270
  364TP3     H212912   4.582   0.149   8.062  1.6431  0.4848 -0.9030
  365TP3      O12913   0.349   1.213   1.139 -0.1854 -0.2286 -0.1952
  365TP3     H112914   0.367   1.297   1.181  0.8029 -0.6693  0.2914
  365TP3     H212915   0.254   1.207   1.137 -0.2697  0.0648  1.4998
  366TP3      O12916   3.568   1.927   1.214 -0.1443 -0.1133  0.7832
  366TP3     H112917   3.502   1.986   1.177 -0.4805 -0.1830  1.2631
  366TP3     H212918   3.577   1.957   1.305  0.8717  0.2379  0.5824
  367TP3      O12919   4.167   1.596   1.846  0.0832 -0.1301  0.4578
  367TP3     H112920   4.186   1.551   1.764  1.5564  1.2775 -0.0301
  367TP3     H212921   4.109   1.668   1.822  1.8929  1.3443  0.2872
  368TP3      O12922   4.214   2.902   1.924 -0.1915 -0.0703  0.1420
  368TP3     H112923   4.208   2.903   2.020  0.8865  1.0770  0.2241
  368TP3     H212924   4.232   2.811   1.902 -1.5362 -0.5558  0.9376
  369TP3      O12925   1.479   5.109   9.296  0.5030 -0.2486 -0.2194
  369TP3     H112926   1.526   5.192   9.301  0.4610 -0.1760 -0.9422
  369TP3     H212927   1.544   5.046   9.266  0.6380 -0.5766  0.7093
  370TP3      O12928   2.061   1.907   7.357  0.0979  0.1714 -0.5858
  370TP3     H112929   2.077   2.001   7.348  1.7360  0.0606  0.6474
  370TP3     H212930   2.113   1.868   7.286 -0.5220  0.1747 -1.0506
  371TP3      O12931   0.747   3.196   8.453  0.2950 -0.4262 -0.1649
  371TP3     H112932   0.787   3.146   8.524  1.6292  0.8468  0.0100
  371TP3     H212933   0.810   3.265   8.433  0.1686 -0.9965 -2.9207
  372TP3      O12934   0.184   2.534   7.184  0.1249 -0.1037  0.3739
  372TP3     H112935   0.168   2.628   7.172  2.3633  0.3830  0.8388
  372TP3     H212936   0.214   2.504   7.098  1.4102  0.0807  0.7414
  373TP3      O12937   2.879   4.046   9.051  0.0068 -0.2474 -0.1652
  373TP3     H112938   2.911   4.059   8.962  1.6770 -0.7591  0.3131
  373TP3     H212939   2.864   4.134   9.084 -0.2620 -0.0400 -0.8307
  374TP3      O12940   3.260   4.329   9.086 -0.5367  0.2497 -0.4935
  374TP3     H112941   3.346   4.366   9.106  0.2944 -2.3671  1.3818
  374TP3     H212942   3.198   4.382   9.137  0.4648 -0.1350  1.1965
  375TP3      O12943   3.075   1.093   9.109  0.4145 -0.2167  0.2289
  375TP3     H112944   3.066   1.000   9.127  0.2942 -0.0862  0.8589
  375TP3     H212945   2.991   1.131   9.133 -0.1640 -0.1780 -1.6638
  376TP3      O12946   0.921   0.572   9.842 -0.0630  0.1371  0.2918
  376TP3     H112947   1.007   0.565   9.885 -0.4927 -1.0827  1.0077
  376TP3     H212948   0.899   0.482   9.819 -0.2808  0.6529 -1.7001
  377TP3      O12949   3.812   4.741   1.481 -0.2575 -0.1060 -0.5697
  377TP3     H112950   3.826   4.735   1.576  1.8172 -0.3397 -0.8464
  377TP3     H212951   3.775   4.656   1.457  2.7526 -1.5841 -0.4412
  378TP3      O12952   0.157   4.667   0.430  0.6051 -0.2862  0.6367
  378TP3     H112953   0.091   4.687   0.496  1.4296  2.0670  0.8417
  378TP3     H212954   0.220   4.611   0.474 -0.1326 -0.7789  1.0772
  379TP3      O12955   1.759   1.212   6.749  0.1526  0.2660 -0.0136
  379TP3     H112956   1.717   1.129   6.772 -1.4115  0.8213 -0.7115
  379TP3     H212957   1.769   1.257   6.834  1.5594 -0.8262  0.4449
  380TP3      O12958   4.380   3.991   0.994 -0.7313 -0.5168  0.6192
  380TP3     H112959   4.285   3.982   1.006 -0.8295 -0.2639  0.0888
  380TP3     H212960   4.390   4.077   0.953 -0.4069 -1.1721 -0.7484
  381TP3      O12961   3.124   1.261   8.475  0.2479 -0.3328  0.1209
  381TP3     H112962   3.132   1.339   8.529  0.9730 -0.9784  0.9778
  381TP3     H212963   3.142   1.291   8.386  0.8166  0.4261  0.4822
  382TP3      O12964   0.035   0.081   8.818 -0.1956  0.4218  0.1894
  382TP3     H112965   0.107   0.049   8.871  0.3731 -0.2754 -0.9634
  382TP3     H212966  -0.026   0.007   8.812  0.5969 -0.1354 -1.5716
  383TP3      O12967   2.315   4.757   9.489  0.6714 -0.1728 -0.2540
  383TP3     H112968   2.395   4.792   9.528  1.7000 -1.3824 -1.1920
  383TP3     H212969   2.298   4.813   9.413 -2.1912  3.1684  2.4846
  384TP3      O12970   1.356   3.253   7.006  0.4055 -0.0293  0.3829
  384TP3     H112971   1.429   3.272   6.947  0.9789  2.3021  1.7045
  384TP3     H212972   1.280   3.292   6.962  0.3010 -0.7703 -0.1028
  385TP3      O12973   3.238   0.986   8.277  0.0556  0.5760  0.7169
  385TP3     H112974   3.175   0.991   8.205  1.0095  1.5418 -0.0790
  385TP3     H212975   3.189   0.945   8.349 -1.0685  0.0748 -0.2989
  386TP3      O12976   0.779   3.928   2.514 -0.1502  0.0582 -0.0867
  386TP3     H112977   0.848   3.895   2.457 -1.2110  0.1279 -1.4832
  386TP3     H212978   0.823   3.952   2.595  1.3253 -0.6022 -0.6613
  387TP3      O12979   0.305   3.699   7.986  0.1114 -0.3455 -0.0635
  387TP3     H112980   0.261   3.633   7.932 -0.3753  0.3400 -0.5376
  387TP3     H212981   0.372   3.651   8.034 -0.2514 -1.1830 -0.3744
  388TP3      O12982   3.637   2.201   2.523  0.6729 -0.2950  0.1160
  388TP3     H112983   3.591   2.157   2.595  0.4691 -0.6192 -0.2120
  388TP3     H212984   3.568   2.223   2.461  0.4447  2.3876  1.2095
  389TP3      O12985   2.126   2.176   8.077 -0.4055  0.0412  0.1711
  389TP3     H112986   2.036   2.208   8.068 -0.4464 -0.1165  0.0200
  389TP3     H212987   2.119   2.092   8.122 -0.2989  0.2297  0.5430
  390TP3      O12988   4.120   4.113   1.998 -1.2487 -0.0562 -0.4537
  390TP3     H112989   4.055   4.137   2.065 -1.6606  0.8708 -1.1590
  390TP3     H212990   4.068   4.092   1.921 -0.7806 -1.2709 -0.4689
  391TP3      O12991   0.930   4.938   7.962  0.1984 -0.4305 -0.4670
  391TP3     H112992   0.850   4.972   8.001  1.3908  2.1476 -0.0632
  391TP3     H212993   0.952   4.861   8.015 -2.2052 -1.5181 -0.9112
  392TP3      O12994   4.423   0.450   0.869  0.4468 -0.1181 -0.6840
  392TP3     H112995   4.457   0.453   0.959 -0.6516  1.1622 -0.2854
  392TP3     H212996   4.328   0.452   0.879  0.3136  0.5232 -1.8897
  393TP3      O12997   3.165   4.162   7.821 -0.3915  0.2579 -0.1878
  393TP3     H112998   3.079   4.122   7.813  0.1583 -1.2721  0.9625
  393TP3     H212999   3.149   4.245   7.865 -1.1738 -0.6292  1.2973
  394TP3      O13000   1.031   4.165   1.297  0.7922 -0.7126  0.3187
  394TP3     H113001   1.085   4.167   1.376  1.6589  0.5393 -0.2740
  394TP3     H213002   1.093   4.179   1.225 -0.1555 -0.4559 -0.4764
  395TP3      O13003   5.118   4.339   6.796 -0.0626  0.8414  0.0806
  395TP3     H113004   5.174   4.308   6.726  0.0075 -0.0813  0.5331
  395TP3     H213005   5.030   4.310   6.772 -0.3399  2.1209 -0.5333
  396TP3      O13006   2.641   0.180   1.970  0.2836  0.0807  0.9818
  396TP3     H113007   2.581   0.208   2.039 -1.0809 -2.4321  0.9483
  396TP3     H213008   2.587   0.180   1.890  0.1821 -2.3062  0.9704
  397TP3      O13009   3.542   3.475   9.522 -0.1338  0.4433 -0.1027
  397TP3     H113010   3.484   3.456   9.449 -0.1442  1.1228 -0.2775
  397TP3     H213011   3.551   3.392   9.568  2.1991 -0.7944 -2.5371
  398TP3      O13012   2.690   0.854   7.709 -0.3643 -0.1058 -0.5865
  398TP3     H113013   2.778   0.891   7.711 -1.0507  1.8167 -2.1856
  398TP3     H213014   2.695   0.784   7.644 -0.3029  0.9860 -1.8028
  399TP3      O13015   1.138   0.916   6.672  0.4103  0.0047  0.6510
  399TP3     H113016   1.164   0.977   6.741 -0.8038 -0.4977  1.5758
  399TP3     H213017   1.202   0.931   6.602  0.4343  2.0019  1.0393
  400TP3      O13018   2.136   4.289   1.980  0.1438 -1.3474  0.4527
  400TP3     H113019   2.181   4.206   1.965 -1.2935 -2.3010  1.1909
  400TP3     H213020   2.135   4.300   2.075 -0.0847 -0.7179  0.3886
  401TP3      O13021   0.388   2.009   0.600  0.6196 -0.3060 -0.6293
  401TP3     H113022   0.324   1.970   0.540  0.7647  2.0435 -2.4718
  401TP3     H213023   0.392   2.101   0.574  1.2674  0.6969  2.5766
  402TP3      O13024   4.926   3.936   7.600  0.1206  0.1150  0.3159
  402TP3     H113025   4.906   3.994   7.674  0.1098 -0.7647  1.0210
  402TP3     H213026   5.021   3.938   7.593  0.1173  0.2623  0.2995
  403TP3      O13027   1.215   1.094   6.859 -0.6397  0.5002 -0.8501
  403TP3     H113028   1.134   1.125   6.899  0.7942  0.1479  2.6654
  403TP3     H213029   1.278   1.165   6.875  0.0314  0.3803 -2.7043
  404TP3      O13030   3.575   3.819   2.679 -0.0165 -0.0167  0.5759
  404TP3     H113031   3.522   3.779   2.748 -0.1239 -1.0771 -0.0981
  404TP3     H213032   3.665   3.808   2.708 -0.0866  0.1628  0.8658
  405TP3      O13033   1.881   0.378   7.675 -0.3610 -0.2063  0.1510
  405TP3     H113034   1.839   0.463   7.658  2.3327  1.0068 -1.0289
  405TP3     H213035   1.921   0.354   7.591  1.9862 -0.8172  1.3653
  406TP3      O13036   1.116   0.287   8.523 -0.6548 -0.2831 -0.2193
  406TP3     H113037   1.091   0.287   8.616  0.7565 -2.4455  0.2496
  406TP3     H213038   1.045   0.241   8.479 -0.2780 -1.3150  0.2026
  407TP3      O13039   1.881   4.639   0.396 -0.1088 -0.2603 -0.1396
  407TP3     H113040   1.857   4.715   0.343 -2.2696  0.2368  1.4031
  407TP3     H213041   1.806   4.626   0.455  1.2940 -2.0101  1.4010
  408TP3      O13042   4.233   1.105   7.478 -0.4185  0.5988 -0.0424
  408TP3     H113043   4.327   1.120   7.483 -0.3883  0.2368  0.5474
  408TP3     H213044   4.207   1.082   7.567 -1.2785  1.9083  0.0616
  409TP3      O13045   4.370   3.376   8.355 -0.2892  0.3692  0.2078
  409TP3     H113046   4.345   3.295   8.400  0.4906  1.0822  2.0190
  409TP3     H213047   4.409   3.346   8.273  0.2840 -1.1251  0.9826
  410TP3      O13048   4.808   1.711   8.929  0.2000 -0.5343 -0.2660
  410TP3     H113049   4.854   1.725   9.011  0.1634  0.5100 -0.4031
  410TP3     H213050   4.718   1.692   8.954  0.2042 -0.2863 -0.0585
  411TP3      O13051   3.788   4.621   9.082 -0.9303  0.1712  0.0288
  411TP3     H113052   3.713   4.648   9.029  0.3729 -0.2710 -2.2031
  411TP3     H213053   3.798   4.690   9.147 -1.9494  1.3477 -1.0055
  412TP3      O13054   2.110   3.154   8.455  0.4739  0.4927 -0.0326
  412TP3     H113055   2.196   3.183   8.484  2.0455 -2.7882 -0.9554
  412TP3     H213056   2.126   3.109   8.372 -1.5940 -2.7905  1.1567
  413TP3      O13057   3.954   3.926   7.346  0.0297 -0.5383  0.0166
  413TP3     H113058   3.963   3.916   7.251  1.7048  0.1048  0.0833
  413TP3     H213059   3.886   3.862   7.370 -0.1185 -1.0115 -1.5391
  414TP3      O13060   2.131   1.456   9.061  0.3795  0.1949  0.3106
  414TP3     H113061   2.217   1.426   9.033  0.5055  1.5144 -0.8290
  414TP3     H213062   2.146   1.499   9.145  0.2563 -2.4202  1.7722
  415TP3      O13063   1.003   3.350   8.939 -0.3355  0.3181 -0.0677
  415TP3     H113064   0.933   3.285   8.933 -0.3558  0.2441  0.7326
  415TP3     H213065   1.005   3.393   8.854 -3.6807  2.7026  0.8714
  416TP3      O13066   5.180   2.469   9.976  0.6515 -0.1669 -0.0420
  416TP3     H113067   5.089   2.439   9.969 -0.2548  1.4766  2.6908
  416TP3     H213068   5.230   2.391   9.999  0.1909 -1.2993 -2.6157
  417TP3      O13069   1.419   0.155   7.746  0.1548 -0.1116  0.4337
  417TP3     H113070   1.370   0.185   7.669  0.0299  2.0947  1.2974
  417TP3     H213071   1.362   0.089   7.785 -0.4741 -0.1706 -0.5320
  418TP3      O13072   4.351   2.731   8.922 -0.2978  0.2227 -0.2592
  418TP3     H113073   4.330   2.707   8.832 -1.5782 -1.5658  0.4406
  418TP3     H213074   4.272   2.707   8.971  0.4200  1.0350  1.3529
  419TP3      O13075   1.643   1.573   2.895 -0.9039  0.2722  0.1529
  419TP3     H113076   1.694   1.620   2.829 -0.3077  0.1751  0.5333
  419TP3     H213077   1.576   1.527   2.845 -0.9085  0.7756 -0.3103
  420TP3      O13078   3.882   2.086   1.525 -0.6453  0.1785 -0.1000
  420TP3     H113079   3.900   2.107   1.616 -3.3225  0.9729  0.3053
  420TP3     H213080   3.853   1.995   1.526  0.6735 -0.2792 -0.4135
  421TP3      O13081   4.497   0.336   0.640  0.2803 -0.8796  0.4502
  421TP3     H113082   4.461   0.373   0.721  1.1622 -1.4220  1.1126
  421TP3     H213083   4.481   0.242   0.648 -1.2611 -0.7705 -0.8702
  422TP3      O13084   2.204   4.792   6.634 -0.2125 -0.6867  0.5580
  422TP3     H113085   2.274   4.856   6.647 -0.6466 -0.1915  0.4725
  422TP3     H213086   2.228   4.718   6.690 -0.3837  0.0840  1.6692
  423TP3      O13087   3.025   4.855   0.218  0.1224  0.2055 -0.0870
  423TP3     H113088   3.063   4.771   0.191  0.8981  0.3493  0.5258
  423TP3     H213089   2.937   4.833   0.249 -0.0122 -0.2484 -0.7470
  424TP3      O13090   2.391   1.258   8.522  0.7013  0.8131 -1.0337
  424TP3     H113091   2.477   1.215   8.518  1.2893  1.8458 -0.1285
  424TP3     H213092   2.398   1.317   8.597 -1.1236  0.2772 -0.4159
  425TP3      O13093   2.397   1.594   1.328  0.1757 -0.1856 -0.0425
  425TP3     H113094   2.379   1.507   1.291 -0.0396 -0.1545 -0.0116
  425TP3     H213095   2.362   1.655   1.263  1.2839 -0.0945 -0.5819
  426TP3      O13096   3.620   0.741   6.808  0.1019  0.7970 -0.6507
  426TP3     H113097   3.561   0.760   6.881  0.9726  2.8071 -0.4226
  426TP3     H213098   3.669   0.664   6.837  0.2939  1.4339  0.8266
  427TP3      O13099   2.764   2.992   9.635 -0.4550 -0.1095 -0.1424
  427TP3     H113100   2.749   2.901   9.608  0.8149 -0.0209 -1.2259
  427TP3     H213101   2.739   2.993   9.727 -3.1774 -0.8795 -0.7710
  428TP3      O13102   3.050   2.853   0.930  0.2911 -0.1423 -0.5353
  428TP3     H113103   2.970   2.828   0.883 -0.3605 -1.1748  1.0444
  428TP3     H213104   3.045   2.948   0.936 -0.1797 -0.0864 -1.5451
  429TP3      O13105   4.278   2.460   7.851 -0.0513 -0.2076  0.0493
  429TP3     H113106   4.300   2.512   7.774 -1.4950 -0.2512 -0.4198
  429TP3     H213107   4.326   2.378   7.838 -0.3553 -0.2540 -0.8644
  430TP3      O13108   1.838   2.630   0.989 -0.3383 -0.4765 -0.1413
  430TP3     H113109   1.785   2.552   1.000 -0.0675 -0.3777  2.4669
  430TP3     H213110   1.778   2.703   1.007 -0.2032 -0.1588 -0.9393
  431TP3      O13111   2.404   2.362   7.028 -0.2832 -0.0445 -0.0994
  431TP3     H113112   2.463   2.337   7.099 -1.2525 -0.7509  0.4917
  431TP3     H213113   2.459   2.406   6.965  1.8681 -4.3809 -1.6555
  432TP3      O13114   5.023   2.214   0.839 -0.2787  0.6237 -0.1195
  432TP3     H113115   5.065   2.213   0.924  0.6706  0.3702 -0.5822
  432TP3     H213116   4.947   2.272   0.850  1.2380  2.6237  0.2216
  433TP3      O13117   4.336   0.754   1.025 -0.1807  0.6043 -0.2419
  433TP3     H113118   4.327   0.670   1.070 -3.2421  0.4898 -0.8340
  433TP3     H213119   4.387   0.733   0.946 -0.0140 -0.4735  0.1303
  434TP3      O13120   4.028   1.878   7.002 -0.1241  0.2910 -0.1006
  434TP3     H113121   3.968   1.811   6.969  1.3509 -1.7588  1.1547
  434TP3     H213122   4.018   1.875   7.097  1.7789  0.0507  0.1249
  435TP3      O13123   4.083   2.100   0.586 -0.1365  0.4060  0.5031
  435TP3     H113124   4.091   2.094   0.490 -1.1460 -0.7387  0.4664
  435TP3     H213125   3.989   2.105   0.601  0.0560  2.1453  1.3880
  436TP3      O13126   3.223   1.794   9.749 -0.6180  0.4859  0.3402
  436TP3     H113127   3.156   1.851   9.710 -1.7917 -1.2554 -0.3079
  436TP3     H213128   3.250   1.737   9.677 -1.0721 -1.2064  1.4700
  437TP3      O13129   5.136   5.153   9.692  0.0399  0.0875  0.0262
  437TP3     H113130   5.079   5.096   9.639 -0.1161 -0.9921  1.3135
  437TP3     H213131   5.220   5.149   9.647 -0.1787 -0.5347 -0.3528
  438TP3      O13132   4.574   1.605   0.916 -0.9116  0.8281 -0.0426
  438TP3     H113133   4.537   1.557   0.990 -1.4491 -0.6740 -1.2338
  438TP3     H213134   4.498   1.623   0.860 -0.3440  0.8092 -0.8280
  439TP3      O13135   0.418   3.289   9.028 -0.0414  0.2202  0.1895
  439TP3     H113136   0.380   3.204   9.003 -1.3313  1.2617 -1.7164
  439TP3     H213137   0.374   3.311   9.110 -4.2620  1.5651 -2.1156
  440TP3      O13138   5.032   5.066   9.934 -0.1655  0.2239  0.1424
  440TP3     H113139   5.061   4.979   9.907  3.5613  0.7659  1.7915
  440TP3     H213140   5.051   5.122   9.859 -2.5026 -0.2515 -0.8933
  441TP3      O13141   1.829   2.345   7.248  0.0227  0.4888  0.2047
  441TP3     H113142   1.859   2.362   7.158  0.2131  0.4029  0.2514
  441TP3     H213143   1.778   2.422   7.272  0.1233  0.5910  0.0880
  442TP3      O13144   2.733   1.448   0.370 -0.4460 -0.4931  0.1537
  442TP3     H113145   2.793   1.399   0.426  0.7574  1.6973  0.8689
  442TP3     H213146   2.646   1.417   0.395  0.2023 -1.3780  1.4027
  443TP3      O13147   0.191   0.705   7.269  0.0500  0.0361  0.5700
  443TP3     H113148   0.119   0.648   7.244 -1.3599  1.6323  0.7956
  443TP3     H213149   0.262   0.682   7.209 -0.0534 -2.6789  1.3860
  444TP3      O13150   4.043   4.886   7.330 -0.1646  0.1668 -0.1604
  444TP3     H113151   4.041   4.829   7.253  0.1419  0.1487 -0.1585
  444TP3     H213152   4.088   4.834   7.397 -0.6183  0.1028  0.1016
  445TP3      O13153   1.435   4.583   8.701  0.4702 -0.2304 -0.0242
  445TP3     H113154   1.368   4.593   8.769  0.7933 -1.5469  0.5188
  445TP3     H213155   1.484   4.665   8.703  0.4731 -0.2496  1.3370
  446TP3      O13156   5.286   4.223   8.322 -0.7620  0.0669  0.0766
  446TP3     H113157   5.367   4.176   8.343  0.0265  1.4931  0.3912
  446TP3     H213158   5.295   4.245   8.229  0.2681  2.0822  0.5926
  447TP3      O13159   2.354   3.755   0.077 -0.0469  0.8115  0.5928
  447TP3     H113160   2.281   3.698   0.052  0.9709 -0.7723  1.0635
  447TP3     H213161   2.407   3.760  -0.003 -0.1309  1.1037  0.5551
  448TP3      O13162   5.053   4.211   1.981 -0.3612 -0.3129  0.1853
  448TP3     H113163   5.004   4.141   1.939 -1.2334  0.0680  0.5312
  448TP3     H213164   5.136   4.216   1.934 -0.0298 -1.9777  0.5429
  449TP3      O13165   3.106   4.305   7.352 -0.4821  0.1299  0.3252
  449TP3     H113166   3.046   4.359   7.301  1.3281  0.7308 -1.3308
  449TP3     H213167   3.184   4.299   7.297  1.0236 -0.5134  2.4040
  450TP3      O13168   2.671   3.120   0.219 -0.2259 -0.4995 -0.6100
  450TP3     H113169   2.766   3.126   0.213  0.3940 -4.3254  1.8695
  450TP3     H213170   2.649   3.163   0.302 -0.7479  0.4660 -1.2224
  451TP3      O13171   1.023   3.264   7.110  0.0813 -0.4470  0.5826
  451TP3     H113172   0.944   3.307   7.141  0.0053  0.2730 -0.5442
  451TP3     H213173   0.993   3.207   7.039  0.4716 -0.7623  0.6669
  452TP3      O13174   2.285   2.382   8.203  0.7274 -0.4812 -0.0711
  452TP3     H113175   2.364   2.328   8.205  0.5235 -0.7783  0.0986
  452TP3     H213176   2.219   2.327   8.161  0.3761 -0.5653  0.5694
  453TP3      O13177   4.542   2.305   6.831  0.2946  1.5783 -0.0274
  453TP3     H113178   4.540   2.367   6.758 -0.0472 -0.5083 -1.8755
  453TP3     H213179   4.629   2.317   6.869  0.7526  2.2290 -1.2174
  454TP3      O13180   4.270   0.569   9.444  0.1663 -0.0511  0.0978
  454TP3     H113181   4.272   0.580   9.349 -0.3172  0.1495  0.1051
  454TP3     H213182   4.329   0.496   9.462 -0.6756 -0.8871 -0.4750
  455TP3      O13183   4.299   3.903   8.130  0.1049 -0.2792  0.5153
  455TP3     H113184   4.253   3.931   8.208  1.1130  2.2599  0.2823
  455TP3     H213185   4.366   3.842   8.162  0.5460  0.7767  1.6656
  456TP3      O13186   0.653   1.973  10.000 -0.1750 -0.0779 -0.2919
  456TP3     H113187   0.563   1.947  10.021  0.4664 -1.7190  0.6114
  456TP3     H213188   0.686   2.012  10.081  0.3080 -0.6354 -0.2106
  457TP3      O13189   1.704   3.871   7.710  0.5671  0.1931 -0.5493
  457TP3     H113190   1.621   3.824   7.698  1.6770 -2.3193  0.7133
  457TP3     H213191   1.752   3.858   7.628  0.1287  0.7605 -0.8986
  458TP3      O13192   4.623   3.102   8.239  0.2655  0.2754 -0.6909
  458TP3     H113193   4.594   3.176   8.187  0.9243  0.4500 -0.8177
  458TP3     H213194   4.699   3.134   8.287 -1.8335  0.9474  2.4408
  459TP3      O13195   0.907   2.437   8.597 -0.1754 -0.3156  0.0866
  459TP3     H113196   0.973   2.470   8.537 -0.4685 -0.9339 -0.5939
  459TP3     H213197   0.851   2.513   8.616 -0.7491 -0.3615 -1.3237
  460TP3      O13198   2.193   4.280   9.827  0.5716  0.3858  0.4842
  460TP3     H113199   2.273   4.239   9.861  1.2266  1.1966 -0.0339
  460TP3     H213200   2.177   4.353   9.887 -0.6506 -0.6497  1.4683
  461TP3      O13201   5.143   2.313   8.208  0.3147  0.2905 -0.7211
  461TP3     H113202   5.202   2.328   8.282 -0.1443  0.6509 -0.4204
  461TP3     H213203   5.120   2.220   8.214 -0.5138  0.5332  0.2030
  462TP3      O13204   4.442   4.060   8.717 -0.1274  0.2230  0.2863
  462TP3     H113205   4.475   4.103   8.638 -1.1193 -0.0837 -0.3100
  462TP3     H213206   4.454   4.126   8.786 -2.6460  1.9728 -0.7957
  463TP3      O13207   2.719   4.640   6.815  0.3750 -0.4160 -0.6590
  463TP3     H113208   2.797   4.640   6.870 -0.4989  1.3656  0.6814
  463TP3     H213209   2.647   4.657   6.876 -0.7211  0.8878 -2.2368
  464TP3      O13210   0.560   3.477   9.348 -0.3629 -0.2693 -0.0253
  464TP3     H113211   0.650   3.473   9.317 -0.3779 -1.1084  0.0168
  464TP3     H213212   0.564   3.447   9.439 -0.7049 -0.4750 -0.0759
  465TP3      O13213   1.572   5.016  10.028 -0.0953  0.8319 -0.1430
  465TP3     H113214   1.647   5.030  10.086  0.7260  1.8439 -1.4010
  465TP3     H213215   1.600   5.051   9.943 -0.2212 -2.8976 -1.9516
  466TP3      O13216   3.760   0.458   1.356  0.0530  0.3488 -0.0507
  466TP3     H113217   3.738   0.409   1.435  0.6026  0.9201  0.4751
  466TP3     H213218   3.698   0.531   1.354 -0.8660 -0.4255 -0.9161
  467TP3      O13219   1.655   4.475   8.311  0.4336  0.5015  0.2259
  467TP3     H113220   1.739   4.429   8.300 -0.3651 -1.3914  1.4802
  467TP3     H213221   1.601   4.444   8.239  1.2464  3.0456 -1.6329
  468TP3      O13222   4.865   5.158   7.130  0.3355 -0.6302 -0.4621
  468TP3     H113223   4.776   5.194   7.133 -0.0968 -1.6397 -0.6032
  468TP3     H213224   4.922   5.235   7.127 -0.4779  0.0476  0.7195
  469TP3      O13225   3.831   4.146   8.211  0.3900  0.3401  0.3233
  469TP3     H113226   3.822   4.241   8.198 -0.1832  0.3094  0.4757
  469TP3     H213227   3.832   4.135   8.306 -2.0057 -0.0001  0.3850
  470TP3      O13228   2.624   2.262   0.176 -0.8248 -0.0707  0.1846
  470TP3     H113229   2.545   2.230   0.132 -2.0245 -1.7233  3.2158
  470TP3     H213230   2.593   2.331   0.234  0.0571 -0.3069  0.9548
  471TP3      O13231   1.087   2.142   7.380 -0.2547  0.3123 -0.9362
  471TP3     H113232   1.088   2.226   7.335  1.7778  1.0372  0.3602
  471TP3     H213233   1.172   2.137   7.424  0.5120 -3.2439 -2.4756
  472TP3      O13234   2.122   0.782   1.215  0.0530  0.2660 -0.0308
  472TP3     H113235   2.162   0.845   1.155  0.0408 -1.1886 -1.6512
  472TP3     H213236   2.160   0.802   1.300  1.7712  1.0172 -0.9245
  473TP3      O13237   3.476   0.721   0.426 -0.4019 -0.2727  0.5149
  473TP3     H113238   3.559   0.729   0.380 -0.1993 -0.2960  0.8715
  473TP3     H213239   3.425   0.797   0.399 -0.0709  0.0108  0.6896
  474TP3      O13240   1.887   1.527   3.028 -0.1493 -0.3292  0.1656
  474TP3     H113241   1.798   1.528   2.991  0.4833 -0.2069 -1.4550
  474TP3     H213242   1.881   1.469   3.104 -1.7876  0.3296  0.5837
  475TP3      O13243   3.357   2.942   1.055  0.1455  0.3249 -0.3370
  475TP3     H113244   3.276   2.922   1.007  0.3478 -2.1544  0.2464
  475TP3     H213245   3.422   2.883   1.019  1.4479  1.4941  0.0098
  476TP3      O13246   3.777   0.394   7.600  0.0178  0.0449 -0.3647
  476TP3     H113247   3.851   0.444   7.634 -0.5876  1.4779 -1.0831
  476TP3     H213248   3.771   0.419   7.508 -2.2483  1.1156  0.0097
  477TP3      O13249   4.152   2.298   0.796  0.1176 -0.1219  0.4347
  477TP3     H113250   4.204   2.248   0.859  0.9017  0.2160  0.0556
  477TP3     H213251   4.154   2.246   0.716 -0.6813 -0.4294  0.5968
  478TP3      O13252   2.548   4.533   0.127 -0.1219 -0.5675 -0.0628
  478TP3     H113253   2.514   4.551   0.215  0.5871  0.0808  0.0832
  478TP3     H213254   2.539   4.617   0.080  1.3081 -0.3627 -0.0071
  479TP3      O13255   3.569   2.008   9.963 -0.6202 -0.0845  0.1960
  479TP3     H113256   3.517   1.933   9.932  1.1222 -0.5688 -1.7933
  479TP3     H213257   3.611   2.042   9.884  1.1971  0.9615  1.5470
  480TP3      O13258   0.069   1.130   8.330 -0.6878 -0.1288 -0.1241
  480TP3     H113259  -0.019   1.119   8.368 -0.8250  0.4588 -0.2632
  480TP3     H213260   0.123   1.160   8.403 -0.5252 -0.7954  0.0371
  481TP3      O13261   5.035   4.090   8.291 -0.2632  0.1053 -0.5680
  481TP3     H113262   5.114   4.133   8.260 -1.7213  2.5708 -1.1323
  481TP3     H213263   4.970   4.109   8.223 -1.6296 -0.8870  0.4112
  482TP3      O13264   0.450   3.951   9.226  0.2266 -0.5234  0.5455
  482TP3     H113265   0.497   3.959   9.309 -0.7863 -2.7016  1.4089
  482TP3     H213266   0.360   3.931   9.252 -0.7607  1.4322 -1.0805
  483TP3      O13267   4.494   4.540   2.302 -0.1830  0.4766 -0.0147
  483TP3     H113268   4.527   4.451   2.305  1.1196  0.9490  2.2609
  483TP3     H213269   4.403   4.533   2.332  0.2097 -0.0106  1.1172
  484TP3      O13270   4.580   0.704   6.844  0.0899  0.0389  0.0396
  484TP3     H113271   4.603   0.771   6.909 -0.1710  0.4075 -0.2413
  484TP3     H213272   4.611   0.740   6.761 -1.1137  0.3672 -0.2891
  485TP3      O13273   1.365   2.452   9.418  0.0199  0.3115  0.2360
  485TP3     H113274   1.317   2.441   9.335 -0.9994 -0.7267  0.9322
  485TP3     H213275   1.330   2.533   9.455 -1.5492 -0.6219  0.9143
  486TP3      O13276   1.288   3.335   3.375 -0.3056  0.2466  0.2883
  486TP3     H113277   1.376   3.306   3.399 -0.3963 -0.8089 -0.5925
  486TP3     H213278   1.287   3.332   3.280 -1.5593 -0.5834  0.3128
  487TP3      O13279   2.727   0.569   0.036  0.0528 -0.4345 -0.2608
  487TP3     H113280   2.652   0.534   0.083  1.3494 -1.9855  0.7604
  487TP3     H213281   2.734   0.515  -0.042 -2.5845  2.6362 -2.9271
  488TP3      O13282   4.372   0.490   7.957  0.0540 -0.8232  0.4651
  488TP3     H113283   4.441   0.454   7.901  0.8277  3.6716 -1.9714
  488TP3     H213284   4.297   0.502   7.899  0.2878  2.3736  0.6207
  489TP3      O13285   3.367   0.501   6.741  0.4116 -0.5127 -0.3310
  489TP3     H113286   3.359   0.596   6.742 -1.1219 -0.6092  1.4461
  489TP3     H213287   3.458   0.484   6.765  0.2362  0.5063  1.1665
  490TP3      O13288   4.398   2.420   7.156 -0.2076  0.1170  0.0344
  490TP3     H113289   4.395   2.476   7.234  1.3600  0.2380  0.0421
  490TP3     H213290   4.478   2.447   7.111  1.3389 -2.9357  0.7022
  491TP3      O13291   0.496   3.651   2.799  0.5281 -0.5467  0.0496
  491TP3     H113292   0.501   3.613   2.886  0.1471 -1.3432 -0.2688
  491TP3     H213293   0.581   3.631   2.760  1.4758  1.5436  0.9112
  492TP3      O13294   2.217   3.046   7.465 -0.9388 -0.4220  0.1475
  492TP3     H113295   2.225   2.953   7.486  1.2269 -0.8234 -1.9952
  492TP3     H213296   2.266   3.091   7.533  1.0978 -1.2179 -0.7031
  493TP3      O13297   0.447   4.370   7.475  0.4114 -0.7032 -0.6274
  493TP3     H113298   0.534   4.366   7.514 -0.6817 -1.5506  1.9823
  493TP3     H213299   0.416   4.279   7.477 -0.9841 -0.2409 -0.3354
  494TP3      O13300   1.986   4.646   8.108 -0.5637  0.0207 -0.0465
  494TP3     H113301   1.915   4.610   8.163  0.0737 -0.3627  0.5409
  494TP3     H213302   2.059   4.585   8.121  0.3598  1.2211  0.5271
  495TP3      O13303   1.338   1.405   2.483 -0.0583  0.3955 -0.2099
  495TP3     H113304   1.268   1.470   2.475  0.9789  1.5958 -0.0151
  495TP3     H213305   1.297   1.329   2.523 -1.1973  1.1694  0.1402
  496TP3      O13306   4.610   1.915   9.157 -0.1374 -0.0275 -0.0891
  496TP3     H113307   4.613   1.819   9.163 -1.7701 -0.1202 -0.3967
  496TP3     H213308   4.697   1.943   9.186 -0.0195 -1.5458  1.1779
  497TP3      O13309   0.848   0.224   7.787  1.0764  0.4827  0.2194
  497TP3     H113310   0.935   0.236   7.826  1.3804 -1.9167  0.4049
  497TP3     H213311   0.861   0.238   7.694  1.3929  1.3186  0.3806
  498TP3      O13312   3.597   0.115   9.426 -0.2639  0.0513  0.8928
  498TP3     H113313   3.578   0.149   9.513  0.5909  1.9072  0.4067
  498TP3     H213314   3.682   0.071   9.435  1.2932  2.7127  0.5139
  499TP3      O13315   3.879   3.263   7.884 -0.3104  0.0582 -0.3035
  499TP3     H113316   3.840   3.312   7.956 -1.2829 -0.5304 -0.4070
  499TP3     H213317   3.832   3.295   7.806 -0.6317 -0.6872 -0.4254
  500TP3      O13318   5.226   2.931   8.551  0.5308 -0.2404 -0.5153
  500TP3     H113319   5.220   2.836   8.552 -0.2771 -0.2116 -1.2917
  500TP3     H213320   5.311   2.949   8.510  1.1306 -0.6195  0.5377
  501TP3      O13321   4.140   2.248   9.341 -0.2011  0.1398 -0.2686
  501TP3     H113322   4.065   2.243   9.281  0.9875  1.0298 -1.9116
  501TP3     H213323   4.216   2.257   9.283  1.0766  0.2750  1.3753
  502TP3      O13324   0.445   4.941   7.364 -0.3462  0.7466 -0.4114
  502TP3     H113325   0.378   4.940   7.296  0.0819 -1.8206 -0.9062
  502TP3     H213326   0.488   4.855   7.357  1.2048  1.2623  1.6407
  503TP3      O13327   4.224   0.642   7.194  0.2962  0.2249  0.0549
  503TP3     H113328   4.142   0.632   7.145  0.4370 -1.6901  0.1248
  503TP3     H213329   4.268   0.557   7.184  0.7817  0.0906  2.6609
  504TP3      O13330   1.356   1.857   8.208  0.6279  0.2432  0.6117
  504TP3     H113331   1.424   1.805   8.250  0.8849  0.1367  0.0782
  504TP3     H213332   1.274   1.811   8.230  1.0147 -1.9936 -1.9739
  505TP3      O13333   0.096   5.129   0.570  0.6269 -0.4110 -0.5491
  505TP3     H113334   0.190   5.108   0.576  0.1259 -2.4409  1.4135
  505TP3     H213335   0.067   5.085   0.491  0.6248 -3.2736  0.9135
  506TP3      O13336   4.577   1.188   2.808 -0.0553 -0.0628 -0.4766
  506TP3     H113337   4.648   1.137   2.769 -0.6389 -0.4673 -1.0296
  506TP3     H213338   4.590   1.178   2.902  0.7802  0.0975 -0.5691
  507TP3      O13339   4.301   0.911   2.558  0.4240 -0.4867  0.4519
  507TP3     H113340   4.384   0.879   2.595  1.4062  0.9332 -0.4149
  507TP3     H213341   4.260   0.958   2.630  1.7376  1.2006  0.1594
  508TP3      O13342   3.498   4.062   9.933 -0.1201  0.3404 -0.8005
  508TP3     H113343   3.492   4.119   9.856 -0.5300 -0.8121 -1.6573
  508TP3     H213344   3.574   4.006   9.915  0.9289  1.2677  0.5134
  509TP3      O13345   5.069   4.509   9.758  0.3235  0.1170 -0.3885
  509TP3     H113346   5.099   4.595   9.727  1.0550  0.3419  0.8521
  509TP3     H213347   4.975   4.508   9.740  0.3311  1.1243 -0.5570
  510TP3      O13348   3.620   0.551   3.135 -0.0356 -0.3193  0.7504
  510TP3     H113349   3.594   0.460   3.119  1.9903 -1.0857  1.4569
  510TP3     H213350   3.608   0.562   3.230  1.1775 -0.3811  0.9246
  511TP3      O13351   0.023   1.507   9.074 -0.0463 -0.4310  0.1093
  511TP3     H113352  -0.047   1.558   9.033 -1.0896 -0.0687  2.2251
  511TP3     H213353   0.070   1.570   9.128  1.4718 -0.8418 -0.6853
  512TP3      O13354   1.565   0.295   7.926 -0.2895  0.3084  0.1288
  512TP3     H113355   1.540   0.248   7.847  1.2065 -1.2834  0.5375
  512TP3     H213356   1.567   0.387   7.900  0.0375 -0.1654 -1.6437
  513TP3      O13357   4.472   2.504   2.577  0.3508  0.2061  0.2663
  513TP3     H113358   4.432   2.417   2.570 -0.3718  0.5052  0.5082
  513TP3     H213359   4.510   2.506   2.664  1.3275 -0.2503 -0.1370
  514TP3      O13360   2.696   0.781   9.995 -0.6121  0.0614  0.3293
  514TP3     H113361   2.711   0.699  10.042  2.4251  0.3443  0.0503
  514TP3     H213362   2.744   0.771   9.913 -0.3715  2.0211  0.1846
  515TP3      O13363   0.555   4.644   7.772 -0.6137  0.4016  0.2698
  515TP3     H113364   0.607   4.725   7.779 -1.7577  1.3013 -0.9539
  515TP3     H213365   0.601   4.581   7.827  2.1073  0.9619 -1.1773
  516TP3      O13366   3.819   0.269   9.784  0.0714  0.5639  0.7011
  516TP3     H113367   3.891   0.228   9.735  0.2968  0.6254  0.9720
  516TP3     H213368   3.842   0.362   9.786 -0.3260  0.6695  0.2761
  517TP3      O13369   2.464   0.127   7.783  0.4935  0.1177 -0.4133
  517TP3     H113370   2.381   0.152   7.823  0.7302 -0.3809  0.4199
  517TP3     H213371   2.445   0.122   7.689 -0.7997 -1.3543 -0.1194
  518TP3      O13372   0.916   4.293   8.076 -1.0521  0.4179 -0.3685
  518TP3     H113373   0.875   4.215   8.113 -0.0877  0.0563 -0.0230
  518TP3     H213374   0.902   4.285   7.982 -0.6946 -0.3426 -0.3688
  519TP3      O13375   2.523   1.787  10.035  0.1854  0.0106 -0.5269
  519TP3     H113376   2.518   1.694  10.013 -0.7616  0.1146 -0.8066
  519TP3     H213377   2.512   1.832   9.952  1.9101  0.3873 -0.5913
  520TP3      O13378   2.092   4.438  10.001 -0.3428  0.5609 -0.4433
  520TP3     H113379   2.109   4.527  10.032  2.2531 -0.4248  1.2912
  520TP3     H213380   2.067   4.390  10.079  1.2247 -0.8721 -0.7779
  521TP3      O13381   0.796   2.770   7.797 -0.1460  0.0795 -0.2180
  521TP3     H113382   0.717   2.745   7.846 -0.1356 -2.5393 -1.3782
  521TP3     H213383   0.807   2.863   7.816 -2.1415 -0.0188  1.8836
  522TP3      O13384   0.412   4.593   2.499 -0.4347 -0.1466 -0.1127
  522TP3     H113385   0.374   4.505   2.511 -0.3338  0.0243  1.6703
  522TP3     H213386   0.344   4.642   2.454 -1.0141 -0.7844  0.0514
  523TP3      O13387   0.340   3.634   7.148 -0.2142  0.0823 -0.4418
  523TP3     H113388   0.393   3.567   7.104  0.2359 -0.2371  0.5717
  523TP3     H213389   0.343   3.709   7.089 -0.4943 -0.6894 -1.4628
  524TP3      O13390   3.735   1.454   7.744  0.7990 -0.6953 -0.1007
  524TP3     H113391   3.725   1.365   7.778  0.5231 -1.5850 -2.3240
  524TP3     H213392   3.756   1.442   7.651  1.5782  1.5614 -0.2826
  525TP3      O13393   1.226   3.665   0.921 -0.1098 -0.3804  0.0324
  525TP3     H113394   1.307   3.666   0.971 -0.1982 -0.5062  0.1803
  525TP3     H213395   1.157   3.662   0.987 -0.2076 -1.8708 -0.0851
  526TP3      O13396   1.506   0.310   2.744  0.3691 -0.0839  0.2715
  526TP3     H113397   1.546   0.352   2.819 -2.7254  1.2100  1.3687
  526TP3     H213398   1.488   0.382   2.683  1.9369 -0.9821 -1.3422
  527TP3      O13399   4.043   4.126   7.019  0.0797  0.1780 -0.0428
  527TP3     H113400   3.969   4.161   6.968 -1.0686 -0.3192  1.2090
  527TP3     H213401   4.011   4.042   7.052  0.6170  0.6425  1.7866
  528TP3      O13402   4.693   4.351   2.387  0.2091 -0.2469 -0.2153
  528TP3     H113403   4.658   4.275   2.434 -0.6747  1.7650  2.6700
  528TP3     H213404   4.785   4.330   2.371  0.0506 -1.8054  0.7309
  529TP3      O13405   0.617   1.584   8.246  0.2332 -1.2487  0.8615
  529TP3     H113406   0.562   1.587   8.324 -1.8264 -0.7746 -0.5440
  529TP3     H213407   0.616   1.492   8.220 -1.9975 -0.9204 -0.5002
  530TP3      O13408   2.948   1.306   9.933 -0.3744 -0.6069  0.2191
  530TP3     H113409   2.895   1.227   9.940 -1.1125 -0.1205  0.2839
  530TP3     H213410   2.918   1.362  10.005  0.9744 -0.7373  0.9230
  531TP3      O13411   2.906   3.090   8.044 -0.5332  0.1453 -0.3433
  531TP3     H113412   2.975   3.100   8.110  0.3638  1.2832 -1.3850
  531TP3     H213413   2.836   3.043   8.088  1.5431 -2.5608  0.3214
  532TP3      O13414   1.027   0.891   9.215  0.4049  0.0157  0.4291
  532TP3     H113415   1.093   0.929   9.273  1.2701 -1.1704  0.2737
  532TP3     H213416   1.036   0.939   9.133 -1.8811  2.7818  1.6432
  533TP3      O13417   3.718   1.161   0.039  0.0191  0.2117  0.0255
  533TP3     H113418   3.756   1.074   0.026  0.6003  0.4806 -0.1506
  533TP3     H213419   3.638   1.161  -0.013  0.8794  0.3374 -1.3559
  534TP3      O13420   4.842   4.313   1.709  0.4573  0.8086  0.0426
  534TP3     H113421   4.785   4.268   1.647 -0.5116  1.8404  0.1560
  534TP3     H213422   4.926   4.268   1.701  0.3620  0.9101 -2.0168
  535TP3      O13423   0.984   5.080   7.226 -0.8981 -0.2444 -0.1487
  535TP3     H113424   0.978   5.166   7.268 -1.6090 -1.2567  1.8947
  535TP3     H213425   1.075   5.074   7.197 -0.5734  0.7821  0.6100
  536TP3      O13426   1.763   3.995   1.844  0.3877 -0.2588  0.2166
  536TP3     H113427   1.778   3.901   1.832 -0.6815 -0.4076 -0.0544
  536TP3     H213428   1.687   4.000   1.902 -0.7224  0.4050 -1.2220
  537TP3      O13429   3.145   0.258  10.011  0.1612 -0.1096  0.1543
  537TP3     H113430   3.144   0.193  10.081 -0.7026 -0.8847 -0.5426
  537TP3     H213431   3.083   0.225   9.947 -1.8141  2.3777  0.6287
  538TP3      O13432   1.102   3.783   1.995  0.2988 -0.2379 -0.8596
  538TP3     H113433   1.065   3.791   1.907  1.3017 -2.6561 -1.5737
  538TP3     H213434   1.071   3.862   2.041  0.6754  1.6888 -3.6689
  539TP3      O13435   0.939   1.019   3.047 -0.0215 -0.3879 -0.6909
  539TP3     H113436   1.012   0.973   3.087 -1.8112 -1.1679  1.9757
  539TP3     H213437   0.915   1.086   3.111 -1.0468  0.4722 -1.9250
  540TP3      O13438   2.061   1.750   0.153  0.2619 -0.6934  0.1172
  540TP3     H113439   2.101   1.680   0.205 -0.2380  0.0065  1.4988
  540TP3     H213440   2.110   1.829   0.177  1.5050 -0.6858 -2.2047
  541TP3      O13441   1.600   3.173   7.175 -0.1170 -0.3188  0.4333
  541TP3     H113442   1.512   3.194   7.142 -0.1393 -0.5640  0.3378
  541TP3     H213443   1.636   3.258   7.200  0.3941  0.0588 -1.4381
  542TP3      O13444   1.016   0.503   0.957 -0.1513 -0.0034 -0.4254
  542TP3     H113445   1.028   0.410   0.976  0.6146  0.3980  1.2349
  542TP3     H213446   0.934   0.507   0.907 -0.7707 -1.4780  0.4161
  543TP3      O13447   1.450   3.945   9.089 -0.2034 -0.2228 -0.5480
  543TP3     H113448   1.391   3.970   9.160  0.5441 -1.6538  0.6468
  543TP3     H213449   1.393   3.916   9.018 -0.9379 -0.6533  0.2092
  544TP3      O13450   2.118   0.400   9.820 -0.0523  0.0775  0.3854
  544TP3     H113451   2.073   0.484   9.826  1.3739  0.8814  0.1477
  544TP3     H213452   2.175   0.409   9.744  0.6663 -0.8322  0.8025
  545TP3      O13453   2.001   0.404   7.429  0.2629  0.4148 -0.1975
  545TP3     H113454   2.042   0.484   7.397 -0.3374  0.2236 -1.5411
  545TP3     H213455   2.024   0.337   7.364 -0.0833 -0.2643  0.3604
  546TP3      O13456   3.757   4.412   0.980 -0.3084 -0.5545  0.1737
  546TP3     H113457   3.685   4.377   0.929 -0.2083 -0.3417 -0.1191
  546TP3     H213458   3.724   4.416   1.070 -0.8890  0.1511 -0.0588
  547TP3      O13459   3.649   0.212   6.926 -0.4787 -0.1273  0.3010
  547TP3     H113460   3.572   0.156   6.914  1.0763 -2.6051  1.1738
  547TP3     H213461   3.694   0.175   7.002  1.1075  1.8408  0.4016
  548TP3      O13462   1.798   1.133   8.717 -0.0659 -0.2307  0.3306
  548TP3     H113463   1.817   1.109   8.627 -0.4032  0.9800 -0.0787
  548TP3     H213464   1.878   1.111   8.765  0.5647  0.2468 -0.4758
  549TP3      O13465   5.191   2.981   2.196  0.0668  0.0243 -0.4558
  549TP3     H113466   5.159   2.969   2.106 -0.7208  0.4118 -0.2344
  549TP3     H213467   5.270   3.034   2.186  0.2818 -0.3771 -0.9594
  550TP3      O13468   3.607   1.586   0.204 -0.0551  0.5027  0.6459
  550TP3     H113469   3.573   1.675   0.191  0.0857  0.6149  1.0300
  550TP3     H213470   3.700   1.599   0.222  0.2358  0.1906 -0.5289
  551TP3      O13471   0.496   3.746   9.448  0.0068  0.0517  0.3016
  551TP3     H113472   0.534   3.663   9.419 -1.0466  0.7467 -3.6536
  551TP3     H213473   0.571   3.804   9.460  0.5857 -0.2172 -1.6474
  552TP3      O13474   2.978   1.699   0.956  0.1668  0.1587 -0.4478
  552TP3     H113475   2.891   1.696   0.916 -1.2510  1.9175  2.1535
  552TP3     H213476   2.985   1.615   1.002 -1.4421  0.9780  1.4972
  553TP3      O13477   0.131   4.757   0.188 -0.3196 -0.2691 -0.4866
  553TP3     H113478   0.166   4.692   0.127  3.5023  0.9672  0.0974
  553TP3     H213479   0.145   4.717   0.274  0.0752  0.4309 -0.2172
  554TP3      O13480   1.896   4.911   9.510  0.1102 -0.1945 -0.5482
  554TP3     H113481   1.919   4.892   9.419 -1.2208  1.8875 -1.3983
  554TP3     H213482   1.821   4.855   9.528  1.4255 -1.8879 -0.0932
  555TP3      O13483   2.868   5.104   8.363  0.2698 -0.2485 -0.0205
  555TP3     H113484   2.958   5.092   8.392  1.4803  3.9977 -1.2447
  555TP3     H213485   2.871   5.089   8.268 -0.4054 -0.4367 -0.0138
  556TP3      O13486   4.426   0.308   6.804  0.2644  0.2912  0.7303
  556TP3     H113487   4.465   0.253   6.872  2.0641  2.4132  1.5486
  556TP3     H213488   4.397   0.247   6.737  0.7434 -1.7206  2.2624
  557TP3      O13489   0.393   0.422   0.727 -0.1315  0.2382  0.5064
  557TP3     H113490   0.400   0.505   0.680  1.7641 -0.0550  0.2099
  557TP3     H213491   0.370   0.358   0.660  3.7160 -0.3971 -0.4218
  558TP3      O13492   4.158   1.742   0.263  0.1309 -0.1478 -0.2757
  558TP3     H113493   4.218   1.801   0.217  0.6843 -0.2728  0.2678
  558TP3     H213494   4.205   1.717   0.342 -0.2758 -0.9730 -0.2805
  559TP3      O13495   2.320   3.718   7.431 -0.7299  0.3160  0.2784
  559TP3     H113496   2.345   3.656   7.362 -2.0404 -1.1061  1.0195
  559TP3     H213497   2.398   3.770   7.446 -0.4263  0.7995 -2.3842
  560TP3      O13498   4.409   3.717   9.769  0.3319 -0.6105  0.1333
  560TP3     H113499   4.501   3.697   9.783  0.9282  1.1009 -0.9894
  560TP3     H213500   4.390   3.787   9.832  0.0621 -0.3509 -0.2330
  561TP3      O13501   0.347   4.394   0.133 -0.7342 -0.1303  0.1225
  561TP3     H113502   0.335   4.303   0.160  0.3223 -0.4799 -0.5328
  561TP3     H213503   0.283   4.408   0.063 -1.3136 -0.1728  0.6364
  562TP3      O13504   3.063   1.111   7.540  0.1042  0.7755 -0.1291
  562TP3     H113505   3.094   1.074   7.457 -2.0477  0.8183 -1.0218
  562TP3     H213506   3.036   1.200   7.517  0.1068  1.0150  0.7819
  563TP3      O13507   3.682   1.891   7.621  0.3652  0.1002  0.2305
  563TP3     H113508   3.588   1.892   7.640 -0.2385 -1.6328 -2.2600
  563TP3     H213509   3.707   1.799   7.629  1.2498  0.1458 -1.5535
  564TP3      O13510   4.391   1.313   8.943 -0.2486 -0.0157  0.0407
  564TP3     H113511   4.476   1.307   8.899 -0.5097  2.1763 -0.9000
  564TP3     H213512   4.393   1.244   9.009  1.9221 -0.5462 -0.5068
  565TP3      O13513   5.248   0.955   8.793  0.5035  0.1381 -0.3959
  565TP3     H113514   5.318   0.891   8.806 -0.2740 -0.7259 -0.3749
  565TP3     H213515   5.292   1.032   8.757  1.3360 -0.7130 -1.2476
  566TP3      O13516   1.388   0.011   1.668 -0.3143  0.0591 -0.5941
  566TP3     H113517   1.302   0.049   1.685 -0.0791 -0.6822  2.9081
  566TP3     H213518   1.370  -0.072   1.624 -1.4226 -0.0911  0.1176
  567TP3      O13519   4.949   0.959   7.924 -0.7773 -0.1891 -0.0373
  567TP3     H113520   4.891   0.955   7.847 -0.6108  2.7741 -0.4259
  567TP3     H213521   5.037   0.965   7.887 -0.4620 -1.2581  0.4935
  568TP3      O13522   2.259   3.671   7.032  0.0099  0.5028  0.4053
  568TP3     H113523   2.316   3.638   7.101  1.0097  0.1896 -0.5591
  568TP3     H213524   2.233   3.758   7.063  0.7358  0.5158  1.0080
  569TP3      O13525   3.461   0.618   1.144  0.2510  0.0341  0.2236
  569TP3     H113526   3.492   0.650   1.228 -0.5919 -1.2406  1.0698
  569TP3     H213527   3.370   0.594   1.160  0.4220 -1.3669 -0.7165
  570TP3      O13528   4.439   0.947   8.380 -0.1830  0.3513  0.9594
  570TP3     H113529   4.390   0.936   8.462 -0.5535 -1.2424  0.5560
  570TP3     H213530   4.490   0.867   8.373 -0.4907  0.2710 -0.5853
  571TP3      O13531   1.689   2.399   0.741 -0.5271 -0.0089 -0.3300
  571TP3     H113532   1.749   2.438   0.805  1.1582 -0.7589 -1.3737
  571TP3     H213533   1.613   2.457   0.741  0.1831  0.9896  1.0407
  572TP3      O13534   3.596   4.653   7.177 -0.6463  0.1564  0.8909
  572TP3     H113535   3.685   4.647   7.211  0.1082  1.6456 -0.7146
  572TP3     H213536   3.572   4.562   7.157  0.9955 -0.1567  0.1947
  573TP3      O13537   2.821   4.121   8.468  0.5609  0.0063  0.4166
  573TP3     H113538   2.802   4.034   8.504  0.8295 -0.3632 -0.2915
  573TP3     H213539   2.745   4.174   8.490 -0.5421 -0.9672 -0.8848
  574TP3      O13540   4.431   4.748   6.904  0.1073 -0.2282  0.7516
  574TP3     H113541   4.389   4.691   6.970 -0.8655 -0.0564  0.3014
  574TP3     H213542   4.388   4.724   6.822  1.6548 -0.7935  0.0615
  575TP3      O13543   4.863   1.218   7.751 -0.1687  0.5209  0.2598
  575TP3     H113544   4.788   1.233   7.693  0.6356  0.3273 -0.8665
  575TP3     H213545   4.831   1.155   7.816 -0.6407 -0.5443 -0.9548
  576TP3      O13546   3.353   1.148   7.030 -0.6022 -0.1423  0.0328
  576TP3     H113547   3.336   1.058   7.056 -2.5978  0.6345  1.7342
  576TP3     H213548   3.272   1.194   7.050  0.2629  2.0016 -1.0516
  577TP3      O13549   1.288   4.165   8.256 -0.0457  0.6015  0.1697
  577TP3     H113550   1.313   4.097   8.318  1.2075  0.6333 -0.2719
  577TP3     H213551   1.245   4.232   8.309  1.5037  0.8860  1.1148
  578TP3      O13552   5.195   0.396   1.189 -0.0243  0.3616 -0.1121
  578TP3     H113553   5.179   0.359   1.275 -2.3890  1.1673 -0.1154
  578TP3     H213554   5.215   0.488   1.206 -0.3817  0.4975 -0.4172
  579TP3      O13555   4.839   2.091   1.417  0.1403  0.5560 -0.1167
  579TP3     H113556   4.823   2.049   1.502  2.1385  0.5880  0.3201
  579TP3     H213557   4.920   2.050   1.385  0.1128  1.4676 -1.4149
  580TP3      O13558   3.383   3.294   7.577 -0.3453  0.0924  0.0559
  580TP3     H113559   3.330   3.371   7.599 -2.7694 -1.0410 -1.3486
  580TP3     H213560   3.381   3.240   7.656  0.5376  0.9751  0.7103
  581TP3      O13561   2.664   4.096   8.859  0.2520  0.6974  0.5343
  581TP3     H113562   2.652   4.024   8.920 -0.3124 -0.1330 -0.5266
  581TP3     H213563   2.581   4.103   8.813  0.8004  1.0250 -0.4391
  582TP3      O13564   1.126   1.523   8.497  0.3618 -0.0554  0.5175
  582TP3     H113565   1.088   1.605   8.528 -1.2323 -0.6032  0.1411
  582TP3     H213566   1.140   1.538   8.403  1.6395  0.3175  0.7410
  583TP3      O13567   0.362   4.959   0.582  0.6585  0.1780  0.2704
  583TP3     H113568   0.400   5.016   0.649 -1.1801 -0.1534  1.6615
  583TP3     H213569   0.437   4.912   0.545  1.7966  0.8618  1.6249
  584TP3      O13570   0.266   0.829   9.742 -0.2460 -0.1148 -0.2732
  584TP3     H113571   0.242   0.852   9.832  0.8837 -0.3312  0.1076
  584TP3     H213572   0.250   0.908   9.691  2.0851  1.1160  0.7183
  585TP3      O13573   1.245   2.576   2.712  0.5757  0.2294  0.5778
  585TP3     H113574   1.167   2.633   2.719  0.1741 -0.2986  0.4551
  585TP3     H213575   1.319   2.637   2.716  0.1557  0.7488  0.6269
  586TP3      O13576   2.441   4.139   0.333 -0.1334 -0.1686  0.8375
  586TP3     H113577   2.412   4.192   0.408 -1.3515 -0.0716  0.3247
  586TP3     H213578   2.364   4.085   0.311  0.3515 -0.5079 -0.0680
  587TP3      O13579   0.225   4.101   1.311 -0.1085  0.3809  0.0608
  587TP3     H113580   0.130   4.099   1.303 -0.1393  0.0720  0.5023
  587TP3     H213581   0.244   4.054   1.392  0.4069  0.6410  0.0951
  588TP3      O13582   2.709   2.537   0.123 -0.6590  0.8369 -0.4535
  588TP3     H113583   2.666   2.523   0.208  1.4586  0.5441  0.6499
  588TP3     H213584   2.638   2.559   0.063 -2.1958  1.3390  1.4590
  589TP3      O13585   1.796   4.072   0.851  0.0606 -0.3883  0.3414
  589TP3     H113586   1.888   4.045   0.847  0.3064  0.2726  1.2707
  589TP3     H213587   1.799   4.165   0.875 -0.8611 -0.4641  0.7841
  590TP3      O13588   0.577   0.995   9.473 -0.2181 -0.0560  0.1856
  590TP3     H113589   0.493   1.036   9.449 -0.4952 -0.5270  0.3534
  590TP3     H213590   0.642   1.046   9.425 -0.5555  0.6400  0.4524
  591TP3      O13591   2.596   0.301   0.399  0.6054 -0.2747 -0.0229
  591TP3     H113592   2.571   0.235   0.335 -0.8173  1.5025 -1.4221
  591TP3     H213593   2.681   0.333   0.368  1.6426 -1.8355  1.0531
  592TP3      O13594   2.086   1.146   7.598 -0.2668 -0.1381 -0.2189
  592TP3     H113595   2.158   1.134   7.659  0.7739 -1.3712 -1.6209
  592TP3     H213596   2.069   1.240   7.599 -0.6344 -0.1579  2.2871
  593TP3      O13597   2.053   0.904   0.835 -0.2848 -0.3384 -0.0960
  593TP3     H113598   2.056   0.811   0.813  0.6285 -0.2775 -0.2825
  593TP3     H213599   2.005   0.944   0.763 -0.8272 -0.6846  0.0683
  594TP3      O13600   3.366   0.009   9.920 -0.0392  0.0478  0.1164
  594TP3     H113601   3.361   0.084   9.979  0.0078 -0.6936  1.0939
  594TP3     H213602   3.459  -0.003   9.904 -0.0850  0.6594 -0.6702
  595TP3      O13603   3.942   5.054   7.609  0.3195 -0.2255  0.7222
  595TP3     H113604   3.957   4.964   7.635 -0.4753 -1.1615 -1.7820
  595TP3     H213605   4.023   5.081   7.566  0.9027  0.6329  2.2690
  596TP3      O13606   4.080   3.036   7.953 -0.4982 -0.2895 -0.0025
  596TP3     H113607   4.070   2.981   7.875  1.1630  0.1155 -0.5390
  596TP3     H213608   4.016   3.107   7.941  0.0720  0.0414 -1.2697
  597TP3      O13609   1.293   3.479   9.009 -0.0720  0.5280 -0.2462
  597TP3     H113610   1.229   3.417   8.972 -1.3308  2.1391 -0.8815
  597TP3     H213611   1.340   3.512   8.932  0.4919  0.4801  0.0756
  598TP3      O13612   4.563   2.432   8.528 -0.0247 -0.1368 -0.1405
  598TP3     H113613   4.590   2.377   8.601 -2.5210  0.0508  1.0343
  598TP3     H213614   4.579   2.379   8.450  1.1686 -0.9799  0.6436
  599TP3      O13615   1.134   4.358   6.307 -0.2043 -0.3355 -0.2324
  599TP3     H113616   1.205   4.354   6.370 -0.6147 -1.0198  0.2013
  599TP3     H213617   1.107   4.450   6.307 -0.9458 -0.5139  1.4606
  600TP3      O13618   0.875   0.632   9.457 -0.1449  0.2908 -0.2739
  600TP3     H113619   0.846   0.649   9.367 -0.7951 -1.7530 -0.5139
  600TP3     H213620   0.954   0.579   9.447  0.6084  1.2629  0.3884
  601TP3      O13621   3.575   3.855   8.529  0.2273  0.3527 -0.3555
  601TP3     H113622   3.514   3.925   8.507 -1.5084 -0.7644  0.6788
  601TP3     H213623   3.660   3.887   8.497 -1.0580  1.3903 -3.0496
  602TP3      O13624   0.566   1.068   2.119  0.5668 -0.1221  0.1278
  602TP3     H113625   0.494   1.120   2.156  1.6009  1.0747  0.5454
  602TP3     H213626   0.601   1.019   2.194  0.1413 -0.7858 -0.0961
  603TP3      O13627   4.435   1.318   6.449  0.4585 -0.2436 -0.3076
  603TP3     H113628   4.366   1.381   6.471 -0.9480 -1.8307 -0.0294
  603TP3     H213629   4.394   1.232   6.459  2.7975 -1.2994  1.0115
  604TP3      O13630   0.926   1.686   6.552  0.1314  1.0359 -0.2047
  604TP3     H113631   0.966   1.628   6.488  1.0817  1.5862 -0.1161
  604TP3     H213632   0.832   1.666   6.546  0.3971 -0.2558 -0.4156
  605TP3      O13633   5.231   3.234   0.782 -0.1515 -0.2932  0.1567
  605TP3     H113634   5.157   3.220   0.842 -1.3125  0.3239 -1.0918
  605TP3     H213635   5.252   3.327   0.791 -0.5357 -0.1247 -0.5964
  606TP3      O13636   2.165   0.255   0.745 -0.8635 -0.3216 -0.3546
  606TP3     H113637   2.203   0.269   0.832 -0.1490 -3.1457 -0.1287
  606TP3     H213638   2.111   0.177   0.755 -1.1023 -0.4681 -2.3748
  607TP3      O13639   4.009   2.684   7.859 -0.0625  0.7829 -0.1809
  607TP3     H113640   4.009   2.717   7.769 -0.2611  0.4868 -0.2904
  607TP3     H213641   4.050   2.754   7.910  0.7534  0.6378 -0.6132
  608TP3      O13642   3.754   1.708   1.998  0.7132 -0.0064  0.1835
  608TP3     H113643   3.821   1.641   2.009 -1.3050 -2.0686  0.7125
  608TP3     H213644   3.698   1.675   1.928  0.0624  1.4869 -0.0297
  609TP3      O13645   2.000   5.266   7.835 -0.7239 -0.0116 -0.1278
  609TP3     H113646   2.029   5.259   7.744 -2.1146 -1.6917 -0.4798
  609TP3     H213647   1.931   5.332   7.833  1.0930  2.0155  0.2532
  610TP3      O13648   2.773   1.217   7.809 -0.3245 -0.3824  0.3051
  610TP3     H113649   2.827   1.174   7.743 -0.0106 -1.1582  1.0550
  610TP3     H213650   2.806   1.185   7.893 -0.8012  0.4847  0.8504
  611TP3      O13651   2.705   3.771   0.504  0.2744 -0.3146  0.3885
  611TP3     H113652   2.611   3.764   0.488  0.5067  0.3278 -1.5208
  611TP3     H213653   2.741   3.691   0.466  0.4424 -1.0494  2.0098
  612TP3      O13654   2.039   3.902   7.821  0.4172 -0.0431  0.5280
  612TP3     H113655   2.000   3.852   7.750  1.0381  0.0756  0.1015
  612TP3     H213656   2.068   3.835   7.884 -1.0548 -0.1116  1.1725
  613TP3      O13657   4.422   4.100  10.055  0.6121 -0.4646  0.3875
  613TP3     H113658   4.356   4.122   9.989  0.3694 -0.6232  0.5774
  613TP3     H213659   4.424   4.177  10.112  0.7562 -0.3657  0.2517
  614TP3      O13660   4.200   0.676   1.977 -0.2958  0.0503 -0.1528
  614TP3     H113661   4.172   0.760   2.014  0.2715  0.1818 -0.0089
  614TP3     H213662   4.172   0.611   2.040 -0.1999  0.1882  0.0328
  615TP3      O13663   1.452   1.584   1.011  0.0216 -0.0540 -0.1111
  615TP3     H113664   1.469   1.632   0.929  0.7367 -2.8322 -1.7070
  615TP3     H213665   1.527   1.603   1.066 -0.2358  1.4720 -0.2161
  616TP3      O13666   3.800   4.841   1.155  0.1527  0.6431  0.5027
  616TP3     H113667   3.777   4.897   1.229  1.5792  1.7497  0.1721
  616TP3     H213668   3.893   4.860   1.139  0.2068 -0.5154 -0.7581
  617TP3      O13669   2.108   4.569   8.499 -0.9182  0.0354  0.8512
  617TP3     H113670   2.075   4.484   8.529 -0.1943  0.3003  2.5019
  617TP3     H213671   2.197   4.549   8.467 -1.0174  0.0553  0.5633
  618TP3      O13672   3.940   2.264   9.155 -0.5452  0.1737  0.3450
  618TP3     H113673   3.961   2.219   9.073  1.2060  0.8782  0.3594
  618TP3     H213674   3.853   2.233   9.177 -0.7369 -0.6594 -1.3599
  619TP3      O13675   4.598   4.010   7.079  0.1266  0.0800 -0.6691
  619TP3     H113676   4.523   4.071   7.080  0.3107  0.3098 -0.7553
  619TP3     H213677   4.567   3.936   7.026  0.2527  0.5577 -1.4279
  620TP3      O13678   0.220   2.079   7.915  0.1960 -0.1879  0.1672
  620TP3     H113679   0.206   2.033   7.998 -1.1177  0.8592  0.5680
  620TP3     H213680   0.234   2.170   7.940  3.3766 -0.3529 -0.5676
  621TP3      O13681   1.018   0.118   9.438 -0.5038  0.6654 -0.2926
  621TP3     H113682   1.080   0.167   9.492  0.2978  0.6737 -1.1871
  621TP3     H213683   1.005   0.173   9.361 -0.1688 -0.1816 -0.9678
  622TP3      O13684   0.789   1.200   7.782 -0.4357  0.4102  0.1410
  622TP3     H113685   0.776   1.240   7.696 -0.2526  0.8640  0.3248
  622TP3     H213686   0.784   1.272   7.844 -2.7317 -0.1808  0.7421
  623TP3      O13687   2.652   5.258   7.575 -0.2721  0.3341 -0.5881
  623TP3     H113688   2.693   5.344   7.563 -0.2472  0.3095 -0.6752
  623TP3     H213689   2.561   5.271   7.549 -0.6710  0.7402  0.8978
  624TP3      O13690   1.311   0.707   9.218  0.3682 -0.1346 -0.9757
  624TP3     H113691   1.283   0.781   9.272  4.4269 -0.3820  1.9369
  624TP3     H213692   1.371   0.744   9.154 -0.4006 -0.5255 -1.9559
  625TP3      O13693   4.510   2.704   0.663  0.3155  0.2885  0.0432
  625TP3     H113694   4.580   2.641   0.645  0.2365  0.5284 -1.1944
  625TP3     H213695   4.536   2.783   0.617  0.0478  0.9387  0.9814
  626TP3      O13696   5.186   0.827   8.521  0.7283 -0.4253 -0.5075
  626TP3     H113697   5.250   0.763   8.490  1.6727  1.0622 -1.7843
  626TP3     H213698   5.205   0.837   8.614  1.3947 -1.0815 -0.5656
  627TP3      O13699   0.478   3.154   1.708  0.0348 -0.0421  0.4269
  627TP3     H113700   0.478   3.246   1.683  0.3648  0.2213  1.3713
  627TP3     H213701   0.482   3.107   1.624 -0.0971  0.7919 -0.0607
  628TP3      O13702   4.454   4.762   7.527  0.2307 -0.1275 -0.0350
  628TP3     H113703   4.511   4.690   7.500 -0.4482 -0.0817 -1.6937
  628TP3     H213704   4.503   4.808   7.595  0.7591 -2.0226  0.9364
  629TP3      O13705   4.627   1.164   8.890 -0.4696 -0.2494  0.4201
  629TP3     H113706   4.712   1.139   8.852 -0.2490  0.7612  0.2215
  629TP3     H213707   4.625   1.119   8.975 -0.7869 -2.1991 -0.5557
  630TP3      O13708   2.413   3.286   9.861  0.1206 -0.2418  0.6037
  630TP3     H113709   2.373   3.205   9.830  0.8684 -0.4161  0.0511
  630TP3     H213710   2.457   3.262   9.942  0.7662 -0.5172  0.1796
  631TP3      O13711   3.134   2.110   7.337  0.1603  0.1569 -0.2594
  631TP3     H113712   3.109   2.023   7.366 -2.7604  0.5111 -1.4252
  631TP3     H213713   3.157   2.156   7.418 -0.4850 -1.0275  0.6316
  632TP3      O13714   0.882   0.807   8.240 -0.0194 -1.1246 -0.4346
  632TP3     H113715   0.898   0.728   8.189 -1.3838 -1.8524  0.2071
  632TP3     H213716   0.902   0.782   8.330 -1.4908 -1.0894 -0.0756
  633TP3      O13717   0.846   2.878   7.003  0.6532 -0.0228 -0.5274
  633TP3     H113718   0.812   2.839   7.084 -1.1740  1.3979 -0.5454
  633TP3     H213719   0.769   2.916   6.961  1.8242  0.6220 -2.1779
  634TP3      O13720   0.096   3.330   9.637  0.4531 -0.3930  0.1602
  634TP3     H113721   0.111   3.253   9.583  2.2331  0.7361 -1.0811
  634TP3     H213722   0.030   3.303   9.701 -0.1125 -2.4423 -1.2005
  635TP3      O13723   4.807   1.561   9.202  0.3672 -0.0036 -0.2222
  635TP3     H113724   4.839   1.472   9.183  0.2099 -0.7391  2.5378
  635TP3     H213725   4.714   1.549   9.218  0.2754  0.7199 -0.2137
  636TP3      O13726   1.765   1.861   9.903  0.1968  0.7764  0.4453
  636TP3     H113727   1.852   1.888   9.934  0.5390 -0.4552  0.6234
  636TP3     H213728   1.764   1.884   9.810  0.6000  1.0814  0.5153
  637TP3      O13729   1.226   2.517   1.583  0.1585 -0.2352  0.1954
  637TP3     H113730   1.211   2.430   1.547  2.3020 -0.9667  0.9238
  637TP3     H213731   1.255   2.569   1.508 -0.5316 -0.2898 -0.1209
  638TP3      O13732   0.157   0.545   7.633  0.4232  0.8311  0.1870
  638TP3     H113733   0.100   0.489   7.686  0.7884  0.8246  0.5735
  638TP3     H213734   0.129   0.529   7.543 -0.9983  1.7056  0.4340
  639TP3      O13735   4.239   2.267   1.252  0.1711  1.0186 -0.1682
  639TP3     H113736   4.159   2.318   1.266 -0.8338 -0.5930  0.2686
  639TP3     H213737   4.286   2.273   1.335  0.6625  2.1871 -0.5116
  640TP3      O13738   2.253   0.262   7.345  0.0631  0.5351 -0.0818
  640TP3     H113739   2.181   0.238   7.286  0.5039 -0.5702 -0.1963
  640TP3     H213740   2.323   0.292   7.287  0.3608 -0.1885 -0.1028
  641TP3      O13741   3.955   3.399   3.381 -0.2590 -0.8927 -0.2095
  641TP3     H113742   4.031   3.398   3.322  0.4629 -1.3993  0.7083
  641TP3     H213743   3.954   3.488   3.416 -0.0822 -0.8873 -0.2155
  642TP3      O13744   3.277   0.831   8.666 -0.0948  0.4085 -0.4202
  642TP3     H113745   3.255   0.918   8.633 -1.0109 -0.1502 -1.3446
  642TP3     H213746   3.199   0.779   8.649  0.4921 -0.6317  0.0016
  643TP3      O13747   1.263   0.952   9.360 -0.2521  0.2394 -0.9026
  643TP3     H113748   1.347   0.997   9.352  0.0252 -0.2577 -0.7861
  643TP3     H213749   1.244   0.955   9.454  0.9668 -2.0383 -0.5271
  644TP3      O13750   4.404   2.892   9.827 -0.2128  0.2492 -0.0290
  644TP3     H113751   4.312   2.919   9.817 -0.7101 -0.3613  2.2328
  644TP3     H213752   4.418   2.829   9.756 -1.8122 -0.2576  0.0608
  645TP3      O13753   0.343   2.305   8.993 -0.0875 -0.3011  0.4985
  645TP3     H113754   0.414   2.272   8.939 -0.9545 -1.8036  0.2344
  645TP3     H213755   0.350   2.255   9.075  1.3012  2.0397  1.9232
  646TP3      O13756   0.718   5.063   7.197 -0.0873 -0.3751  0.4300
  646TP3     H113757   0.701   5.092   7.107  0.5061  0.7040  0.6449
  646TP3     H213758   0.812   5.077   7.209 -0.0346 -1.1590  0.9966
  647TP3      O13759   0.198   2.705   8.585 -0.0327  0.3549 -0.2770
  647TP3     H113760   0.107   2.687   8.561  0.2009 -2.5009  0.5719
  647TP3     H213761   0.249   2.681   8.508  0.0757  1.7822 -0.6871
  648TP3      O13762   1.255   0.653   6.902 -0.5294  0.4753  0.2597
  648TP3     H113763   1.161   0.632   6.903 -0.4501  0.1146  0.1067
  648TP3     H213764   1.292   0.597   6.834  0.2465 -1.3356  2.0643
  649TP3      O13765   3.326   2.653   7.984  0.0300  0.0598  0.2963
  649TP3     H113766   3.244   2.623   7.944 -0.3340  2.0854 -0.5710
  649TP3     H213767   3.389   2.651   7.912  0.8374 -1.6033  0.9862
  650TP3      O13768   2.780   1.778  10.105 -0.1738 -0.0546  0.1830
  650TP3     H113769   2.689   1.777  10.075 -0.0138  1.0441 -0.4188
  650TP3     H213770   2.777   1.739  10.192 -0.6623 -3.4432 -1.1926
  651TP3      O13771   1.839   1.208   9.460 -0.3080  0.4623 -0.0731
  651TP3     H113772   1.911   1.263   9.491 -1.3670  0.6072  2.3866
  651TP3     H213773   1.793   1.262   9.396  0.4429  1.2559  0.0367
  652TP3      O13774   3.855   1.817   8.566  0.0091 -0.6318  0.4656
  652TP3     H113775   3.829   1.899   8.524  2.3159  0.0689  0.2734
  652TP3     H213776   3.875   1.758   8.493  1.4072 -0.2854  0.5273
  653TP3      O13777   3.279   0.146   9.552  0.1176  0.2445 -0.4317
  653TP3     H113778   3.357   0.152   9.498  1.1498  0.6122  1.0411
  653TP3     H213779   3.288   0.218   9.615 -2.8152  2.1552 -1.9488
  654TP3      O13780   2.305   4.725   1.461 -0.2728  0.3011 -0.7305
  654TP3     H113781   2.398   4.718   1.484 -0.3583 -1.7237 -0.8526
  654TP3     H213782   2.285   4.818   1.471  1.7676  0.7848 -0.7100
  655TP3      O13783   4.890   0.336   8.080 -0.3852 -0.3572 -0.3477
  655TP3     H113784   4.936   0.256   8.056  2.0158  0.7982  0.1722
  655TP3     H213785   4.875   0.328   8.174  0.1494 -0.0521 -0.2366
  656TP3      O13786   0.584   3.909   7.024  0.5331  0.0826 -0.1826
  656TP3     H113787   0.603   3.937   6.935 -1.8870 -0.1510 -0.8511
  656TP3     H213788   0.490   3.890   7.024  0.5675 -0.5053  2.2684
  657TP3      O13789   0.344   1.690   1.236  0.8407  0.4907 -0.3231
  657TP3     H113790   0.359   1.666   1.145  1.8958  0.4125 -0.1472
  657TP3     H213791   0.266   1.745   1.234 -0.6618 -1.5221 -0.9534
  658TP3      O13792   4.320   1.657   8.298 -0.3709 -0.2374 -0.3090
  658TP3     H113793   4.402   1.623   8.264 -1.0050 -1.0491 -1.0646
  658TP3     H213794   4.318   1.748   8.271 -0.1598 -0.4721 -1.1249
  659TP3      O13795   3.506   2.648   7.790 -1.0184  0.7333  0.1737
  659TP3     H113796   3.522   2.557   7.768 -1.2780  0.9132 -0.7959
  659TP3     H213797   3.582   2.695   7.755 -1.5755  1.0569 -0.6313
  660TP3      O13798   1.904   2.753   0.434 -0.6130  0.1499  0.5830
  660TP3     H113799   1.890   2.788   0.523 -0.2231  0.6832  0.4442
  660TP3     H213800   1.947   2.669   0.448  1.0088  0.9869  0.8839
  661TP3      O13801   0.419   1.173   7.725  0.3647  0.1927  0.0472
  661TP3     H113802   0.415   1.254   7.674 -1.1140  0.1013 -0.0313
  661TP3     H213803   0.439   1.202   7.814  1.9233  0.4405 -0.3552
  662TP3      O13804   1.807   4.607   7.439 -0.2062 -0.6237 -0.1042
  662TP3     H113805   1.872   4.552   7.394 -0.0803 -0.7663  0.2466
  662TP3     H213806   1.779   4.670   7.373  0.8435 -0.0828 -0.0685
  663TP3      O13807   3.545   3.439   0.812  0.4319  0.2264  0.2106
  663TP3     H113808   3.502   3.363   0.850  3.7222 -1.9622 -0.0093
  663TP3     H213809   3.581   3.486   0.888 -0.9354  1.2040  0.2907
  664TP3      O13810   4.814   3.005   7.983  0.2222 -0.0887 -0.3508
  664TP3     H113811   4.845   2.934   8.039 -2.0169 -0.3039  0.7232
  664TP3     H213812   4.830   3.085   8.034 -1.2730 -0.2326  0.3680
  665TP3      O13813   2.618   2.277   9.508 -0.0444 -0.0727  0.2612
  665TP3     H113814   2.663   2.295   9.426  1.2090 -1.4951  0.5846
  665TP3     H213815   2.610   2.181   9.511  0.2811 -0.0893  1.9595
  666TP3      O13816   4.464   2.804   7.757 -0.6410 -0.6104 -0.0866
  666TP3     H113817   4.398   2.788   7.825 -0.8969  1.2236  0.1358
  666TP3     H213818   4.417   2.854   7.690  0.5897  1.1566  0.2910
  667TP3      O13819   0.857   1.811   1.338  0.2397 -0.2468  0.2663
  667TP3     H113820   0.781   1.848   1.294  0.4506  1.0840  0.9783
  667TP3     H213821   0.922   1.800   1.269 -0.0191  0.1948 -0.0488
  668TP3      O13822   0.216   1.106   7.499 -0.2848 -0.1337  0.6512
  668TP3     H113823   0.241   1.040   7.435 -0.7438  0.4091 -0.1158
  668TP3     H213824   0.284   1.173   7.493 -0.6458  0.2122  0.2664
  669TP3      O13825   3.753   4.152   7.789  0.3752 -0.0317  0.2189
  669TP3     H113826   3.705   4.219   7.741  1.6635  0.8384  0.0833
  669TP3     H213827   3.696   4.128   7.862  0.2266  1.8345  0.7573
  670TP3      O13828   1.790   5.032   0.142 -0.6372 -0.3456  0.0412
  670TP3     H113829   1.724   4.963   0.145  0.3715 -1.2825  2.0262
  670TP3     H213830   1.825   5.037   0.231  1.0202  1.0734 -0.6169
  671TP3      O13831   2.175   5.187   9.845 -0.1930  0.6336 -0.4590
  671TP3     H113832   2.178   5.134   9.925  1.0990  0.7592 -0.3972
  671TP3     H213833   2.161   5.277   9.877 -2.3425  0.3832 -0.5607
  672TP3      O13834   4.342   2.598   0.167 -0.1501  0.2017  0.3424
  672TP3     H113835   4.313   2.558   0.249 -0.9415  2.2177  1.0868
  672TP3     H213836   4.266   2.645   0.134  0.6544  0.8690 -0.6316
  673TP3      O13837   2.059   4.502   1.409  0.2632 -0.2207  0.0959
  673TP3     H113838   2.131   4.551   1.370 -0.3025 -0.8763 -1.8857
  673TP3     H213839   2.019   4.456   1.336 -1.7429 -0.4336  1.2528
  674TP3      O13840   2.937   4.374   8.556  0.0026  0.3729 -0.3315
  674TP3     H113841   3.005   4.307   8.545  1.0783  1.6765 -1.9927
  674TP3     H213842   2.883   4.367   8.477 -0.0778  1.2324 -0.3592
  675TP3      O13843   5.267   0.370   7.813 -0.2603  0.2424  0.1286
  675TP3     H113844   5.243   0.289   7.767  1.6916 -0.8175  0.8452
  675TP3     H213845   5.242   0.353   7.904  1.2374 -0.0749  0.5040
  676TP3      O13846   1.591   5.046   2.497  0.2096  0.5520  0.2389
  676TP3     H113847   1.553   5.099   2.428  0.0202  1.2754  0.8783
  676TP3     H213848   1.571   5.094   2.578 -1.1838 -1.1774  0.9901
  677TP3      O13849   3.516   4.444   0.380  0.4284  0.4292  0.4058
  677TP3     H113850   3.589   4.446   0.442  0.0978  1.7596  0.7691
  677TP3     H213851   3.532   4.365   0.327  1.2997 -0.1309  1.4608
  678TP3      O13852   4.812   1.693   9.961  0.0716  0.2070 -0.3464
  678TP3     H113853   4.801   1.609   9.916 -0.5323 -0.1218  0.3762
  678TP3     H213854   4.786   1.759   9.897 -1.0611 -0.2665 -0.4046
  679TP3      O13855   0.699   4.561   0.171  0.4619  0.1994  0.1734
  679TP3     H113856   0.788   4.587   0.148  0.7370  0.4684  1.4563
  679TP3     H213857   0.643   4.604   0.106  1.1453  1.5474  0.4437
  680TP3      O13858   1.463   4.200   2.758  0.6841 -0.5152  0.1341
  680TP3     H113859   1.412   4.140   2.811  0.9116 -1.5989 -0.8155
  680TP3     H213860   1.540   4.149   2.732 -0.6372 -1.0629 -3.3878
  681TP3      O13861   0.223   3.184   1.830  0.4859  0.3691  0.4850
  681TP3     H113862   0.312   3.164   1.801  0.7717 -0.1757  1.6594
  681TP3     H213863   0.199   3.263   1.782  1.8885  0.9578  0.6853
  682TP3      O13864   2.102   1.464   7.529  0.0384 -0.1505 -0.3526
  682TP3     H113865   2.196   1.481   7.528 -0.0328  0.7772  2.0262
  682TP3     H213866   2.063   1.551   7.539 -1.2044 -0.3577 -2.6377
  683TP3      O13867   2.013   3.489   0.230  0.0665 -0.0458 -0.0253
  683TP3     H113868   1.987   3.475   0.321 -1.6817 -1.2086 -0.6422
  683TP3     H213869   2.000   3.583   0.215  0.7391  0.2282  1.0087
  684TP3      O13870   3.407   3.008   9.726  0.1373  0.1911 -0.1755
  684TP3     H113871   3.447   2.977   9.645 -0.5766 -0.5983 -0.2413
  684TP3     H213872   3.459   2.968   9.795  1.6434  2.0063 -0.1946
  685TP3      O13873   3.467   4.916   9.398  0.0312 -0.6971 -0.5789
  685TP3     H113874   3.436   5.003   9.423  0.4144 -0.7217 -0.0147
  685TP3     H213875   3.523   4.888   9.470  1.9299 -0.3783 -1.8460
  686TP3      O13876   1.157   0.920   2.500 -0.3157 -0.3391 -0.4756
  686TP3     H113877   1.130   0.988   2.438  0.4848 -0.1256 -0.5942
  686TP3     H213878   1.075   0.894   2.543 -0.7998 -0.0885 -1.2116
  687TP3      O13879   2.789   2.221   1.431  0.4785 -0.5335 -0.0865
  687TP3     H113880   2.732   2.166   1.485 -1.2099  2.1000  1.0216
  687TP3     H213881   2.731   2.254   1.362  1.0505  0.8449  0.0573
  688TP3      O13882   3.862   1.491   9.708 -0.4003 -0.3844  0.2186
  688TP3     H113883   3.865   1.585   9.687  0.1803 -0.7110 -1.2305
  688TP3     H213884   3.859   1.447   9.623 -4.9888 -1.6177  0.7826
  689TP3      O13885   0.153   0.364   8.530  0.1364  0.5099  0.2069
  689TP3     H113886   0.105   0.444   8.506 -0.8726 -0.5790 -1.5746
  689TP3     H213887   0.233   0.368   8.479 -1.4147 -1.1544 -2.6132
  690TP3      O13888   0.689   4.533   2.486 -0.1419 -0.0517  0.1688
  690TP3     H113889   0.682   4.614   2.436  1.2118 -0.7926 -1.3254
  690TP3     H213890   0.601   4.519   2.521 -0.9030  1.0379 -1.2005
  691TP3      O13891   0.995   4.401   9.153 -0.0926 -0.3006  0.2692
  691TP3     H113892   1.077   4.374   9.111  0.2554 -1.1135  1.4378
  691TP3     H213893   1.021   4.431   9.240 -0.9563  0.0884  0.4021
  692TP3      O13894   1.034   1.979   8.315  0.6393 -0.9563  0.1626
  692TP3     H113895   1.078   1.961   8.232 -0.0620 -0.9539 -0.2088
  692TP3     H213896   1.100   1.957   8.381  1.7642  0.5188 -0.4104
  693TP3      O13897   5.147   1.255   7.775 -0.0380 -0.0698  0.2377
  693TP3     H113898   5.184   1.205   7.702 -0.7292 -0.7995  0.3699
  693TP3     H213899   5.053   1.260   7.756  0.0072  1.1067  0.2785
  694TP3      O13900   5.287   3.841   8.199 -0.0818 -0.7467 -0.2866
  694TP3     H113901   5.351   3.905   8.230 -0.6869 -0.2556 -0.0048
  694TP3     H213902   5.219   3.895   8.158 -0.3494 -1.2482 -0.5049
  695TP3      O13903   2.658   1.826   8.025  0.1968  0.0063 -0.1899
  695TP3     H113904   2.685   1.877   8.101 -1.8394  0.1720  0.5015
  695TP3     H213905   2.580   1.778   8.054  0.2940 -1.1751 -1.7089
  696TP3      O13906   1.099   3.361   0.507  0.0074  0.2742 -0.3922
  696TP3     H113907   1.127   3.453   0.516 -0.3082  0.2779  0.5929
  696TP3     H213908   1.127   3.337   0.418  4.0214 -0.0103  0.7307
  697TP3      O13909   1.274   5.045   0.763 -0.2843  0.4016  0.3924
  697TP3     H113910   1.272   5.109   0.692 -2.2179  1.5196  1.3734
  697TP3     H213911   1.209   5.076   0.826 -0.7478 -2.1210  1.2877
  698TP3      O13912   1.160   1.098   0.947  0.1093  0.0961 -0.8163
  698TP3     H113913   1.080   1.074   0.994 -0.9102  1.1163 -1.9403
  698TP3     H213914   1.197   1.169   0.998  0.4727 -0.5845 -0.1237
  699TP3      O13915   1.323   3.356   1.553  0.4428 -0.5338 -0.1885
  699TP3     H113916   1.298   3.322   1.467  0.0307 -0.3815 -0.1329
  699TP3     H213917   1.240   3.379   1.594  0.6994  0.3183 -0.1348
  700TP3      O13918   2.350   3.045   7.088 -0.1741  0.3817 -0.1170
  700TP3     H113919   2.442   3.046   7.060 -0.0383 -1.0528  0.1855
  700TP3     H213920   2.313   2.966   7.048 -1.0365  0.4721  0.4695
  701TP3      O13921   4.401   0.461   7.481  0.0902  0.0400 -0.1173
  701TP3     H113922   4.308   0.480   7.480  0.2016  0.6117 -0.1407
  701TP3     H213923   4.408   0.377   7.526 -0.4886 -0.3465 -0.7372
  702TP3      O13924   4.419   3.974   7.576  0.0865 -0.2013 -0.2359
  702TP3     H113925   4.432   3.986   7.482 -2.5676 -1.1096 -0.8285
  702TP3     H213926   4.402   4.062   7.609  0.8008  0.1002 -0.6570
  703TP3      O13927   0.091   1.741   7.807  0.5068 -0.7611 -0.3086
  703TP3     H113928   0.112   1.662   7.857  0.8060  0.6109  1.8880
  703TP3     H213929   0.175   1.776   7.781  0.4155 -0.7123 -0.5410
  704TP3      O13930   0.786   4.151   0.474  0.5105 -0.2320 -0.1682
  704TP3     H113931   0.791   4.188   0.386  0.1586  0.6328  0.1709
  704TP3     H213932   0.806   4.224   0.532 -0.9345 -0.3773  0.5498
  705TP3      O13933   2.085   4.773   9.667 -0.0632  0.3415  0.2989
  705TP3     H113934   2.159   4.779   9.606  0.6632  0.5193  1.1763
  705TP3     H213935   2.023   4.838   9.636  1.3393  2.1760  1.1084
  706TP3      O13936   1.306   0.991   0.203  0.2447  0.6882  0.3334
  706TP3     H113937   1.268   0.977   0.290 -1.9875  0.4338 -0.6055
  706TP3     H213938   1.291   0.909   0.157 -0.3896  1.4421 -0.8658
  707TP3      O13939   1.538   4.588   2.634 -0.7260 -0.2046 -0.0470
  707TP3     H113940   1.501   4.646   2.700 -0.7740 -0.6830  0.3601
  707TP3     H213941   1.632   4.591   2.649 -0.8000 -1.0144  0.6540
  708TP3      O13942   2.351   3.456   1.120  0.1141  0.1649  0.4970
  708TP3     H113943   2.358   3.490   1.031 -1.1403  0.6814  0.5793
  708TP3     H213944   2.261   3.476   1.147  0.4159 -0.1430  1.8160
  709TP3      O13945   1.942   0.952   9.493  0.2914  0.1863  0.1048
  709TP3     H113946   1.911   1.041   9.479 -0.1262  0.0065 -0.1519
  709TP3     H213947   1.955   0.918   9.404  2.6047  0.7109  0.1784
  710TP3      O13948   1.465   2.227   7.439 -0.2198 -0.0559  0.3445
  710TP3     H113949   1.462   2.244   7.345 -0.8408  0.0088  0.3728
  710TP3     H213950   1.462   2.314   7.479 -1.4105 -0.1347  0.4492
  711TP3      O13951   0.587   2.608   7.862  0.4202  0.0444 -0.2026
  711TP3     H113952   0.500   2.577   7.889  0.5753  1.2835  1.9381
  711TP3     H213953   0.640   2.529   7.859 -0.3371 -0.5021  0.3263
  712TP3      O13954   0.523   2.207   2.649  0.2750 -0.3811 -0.3056
  712TP3     H113955   0.612   2.216   2.614  0.5509  0.2188  0.4913
  712TP3     H213956   0.496   2.119   2.626  1.1478 -0.6246 -0.4302
  713TP3      O13957   1.385   0.058   8.624  0.5458 -0.1599 -0.0111
  713TP3     H113958   1.292   0.034   8.623  0.8118 -1.3754  1.1169
  713TP3     H213959   1.385   0.153   8.619 -0.7404 -0.1703 -0.6208
  714TP3      O13960   3.795   2.939   9.108 -0.5710 -0.3712  0.0109
  714TP3     H113961   3.716   2.973   9.149  0.2621  0.7072  0.7971
  714TP3     H213962   3.847   3.017   9.088  1.8022 -1.1029  2.6670
  715TP3      O13963   0.759   2.373   2.163 -0.1771 -0.2331 -0.1991
  715TP3     H113964   0.700   2.338   2.229  0.1280  0.0511  0.2308
  715TP3     H213965   0.703   2.392   2.088 -0.3641 -1.5561 -0.4258
  716TP3      O13966   1.192   3.223   2.702 -0.0563  0.5110 -0.0301
  716TP3     H113967   1.171   3.310   2.670  1.3548  1.2289  0.8869
  716TP3     H213968   1.215   3.236   2.794 -3.2347 -1.3691  1.1881
  717TP3      O13969   4.599   0.102   8.968 -0.0235 -0.2006 -0.0870
  717TP3     H113970   4.675   0.055   8.934 -0.3319  0.6691 -2.1329
  717TP3     H213971   4.524   0.053   8.936 -0.3355  1.1690 -1.6371
  718TP3      O13972   4.264   4.622   9.671  0.7837  0.3348  0.0103
  718TP3     H113973   4.301   4.535   9.680 -1.0293 -0.5546 -0.5946
  718TP3     H213974   4.196   4.613   9.604  0.0726  2.0509  0.4255
  719TP3      O13975   5.238   4.097   7.228  0.1955 -0.2277  0.1355
  719TP3     H113976   5.320   4.053   7.207 -1.6416 -3.7520 -0.2900
  719TP3     H213977   5.189   4.096   7.146 -0.7641  0.7143  0.6754
  720TP3      O13978   0.587   4.770   8.979 -0.2039 -0.3058  0.2695
  720TP3     H113979   0.614   4.711   8.909 -0.6322 -0.7348  0.4664
  720TP3     H213980   0.636   4.740   9.056  0.2844  0.1793  0.1549
  721TP3      O13981   0.982   4.474   0.610  0.3204 -0.2189 -0.5952
  721TP3     H113982   1.019   4.506   0.528  1.3162  0.0809 -0.0533
  721TP3     H213983   0.959   4.553   0.658  1.9119 -0.2741  0.3560
  722TP3      O13984   2.509   0.814   2.360 -0.4352  0.1399  0.3338
  722TP3     H113985   2.469   0.831   2.275  2.3097  1.2766 -0.8440
  722TP3     H213986   2.529   0.720   2.359  0.7575  0.3740 -0.8931
  723TP3      O13987   4.070   5.044   9.925  0.1705  0.3389 -0.4152
  723TP3     H113988   4.100   5.089  10.005 -0.6094  1.9439 -0.9727
  723TP3     H213989   4.141   4.983   9.904 -0.1913 -1.1708  2.2456
  724TP3      O13990   5.213   3.247   6.939  0.0737  0.2793 -0.3250
  724TP3     H113991   5.181   3.211   6.856  0.8631 -0.1155 -0.4671
  724TP3     H213992   5.227   3.171   6.995 -0.8121  0.5665  0.3203
  725TP3      O13993   0.583   0.675   0.501  1.0061  0.6089  0.0269
  725TP3     H113994   0.562   0.764   0.473 -0.0411  0.2186 -0.4789
  725TP3     H213995   0.499   0.630   0.502  1.1340  0.2757  2.7130
  726TP3      O13996   4.281   2.469   0.413 -0.3303  0.0657 -0.5952
  726TP3     H113997   4.315   2.505   0.495 -0.4097 -0.8843 -0.1385
  726TP3     H213998   4.283   2.374   0.425 -0.4789 -0.0835 -1.6395
  727TP3      O13999   2.279   1.099   6.694 -0.6857 -0.6580  0.1178
  727TP3     H114000   2.304   1.008   6.707  0.5344 -0.3133  0.3520
  727TP3     H214001   2.332   1.148   6.758 -2.3475  0.0919  0.9753
  728TP3      O14002   5.079   2.177   9.401  0.8716 -0.1029 -0.4020
  728TP3     H114003   5.143   2.243   9.428 -1.0719  1.1918  1.3005
  728TP3     H214004   5.072   2.118   9.475  0.3150 -0.4089 -0.6906
  729TP3      O14005   0.255   5.087   8.672  0.5099  0.4210 -0.1356
  729TP3     H114006   0.347   5.089   8.645  0.6895  0.4906  0.4668
  729TP3     H214007   0.241   5.170   8.716 -0.1646  0.9119 -1.2270
  730TP3      O14008   2.464   2.000   8.251 -0.3386 -0.2458  0.8930
  730TP3     H114009   2.435   1.912   8.278  0.1743 -0.6316  0.2110
  730TP3     H214010   2.434   2.008   8.161 -1.5784  0.8318  1.3785
  731TP3      O14011   3.838   0.067   0.050 -0.3059 -0.2986 -0.0972
  731TP3     H114012   3.815  -0.022   0.025  0.4694 -1.2782  2.3159
  731TP3     H214013   3.771   0.093   0.113 -0.1211  0.5491 -0.2277
  732TP3      O14014   0.882   3.786   0.988  0.5708  0.0912  0.1451
  732TP3     H114015   0.797   3.805   0.950  0.3080 -0.3012  0.5214
  732TP3     H214016   0.890   3.847   1.062 -0.0445 -0.8606  1.0295
  733TP3      O14017   4.734   1.915   9.791 -0.3770 -0.3577 -1.1095
  733TP3     H114018   4.676   1.991   9.788 -0.1819 -0.1075  0.5405
  733TP3     H214019   4.748   1.892   9.699  1.9113  3.3850 -1.9083
  734TP3      O14020   0.241   0.981   9.152 -0.0660  0.0934  0.1788
  734TP3     H114021   0.152   0.955   9.175  0.1633 -0.2496  0.7020
  734TP3     H214022   0.295   0.904   9.173 -0.1459 -1.3312 -3.9974
  735TP3      O14023   1.016   2.191   8.687 -0.5291  0.0259 -0.0822
  735TP3     H114024   1.048   2.150   8.606 -0.2214 -0.1999  0.1503
  735TP3     H214025   0.976   2.272   8.658  1.3480  0.9385 -0.2735
  736TP3      O14026   0.774   2.273   9.609  0.1768 -0.3510 -0.0525
  736TP3     H114027   0.798   2.230   9.692 -0.1794  0.1517  0.3160
  736TP3     H214028   0.824   2.354   9.609  0.4001 -0.4930 -0.4684
  737TP3      O14029   1.537   0.036   0.146  0.2487 -0.6901 -0.4328
  737TP3     H114030   1.588   0.058   0.224 -0.2498 -0.5544 -0.1348
  737TP3     H214031   1.456   0.086   0.156 -0.0489 -1.0987 -0.7655
  738TP3      O14032   4.769   3.428   8.236  0.1968 -1.0997  0.3240
  738TP3     H114033   4.808   3.510   8.208 -0.0869 -1.0880 -0.0614
  738TP3     H214034   4.814   3.361   8.184  0.0508 -1.1333  0.2393
  739TP3      O14035   2.026   1.343   0.671  0.5691  0.0483  0.3604
  739TP3     H114036   1.998   1.412   0.611 -1.5823 -1.7262 -0.8232
  739TP3     H214037   1.980   1.362   0.753 -1.6491 -0.9865 -0.5668
  740TP3      O14038   1.857   2.357   8.440  0.0906  0.5840 -0.1711
  740TP3     H114039   1.790   2.359   8.509 -0.4001  1.5416 -0.6525
  740TP3     H214040   1.939   2.340   8.487  0.0344  2.8889  0.9099
  741TP3      O14041   3.331   0.633   7.906 -0.1911  0.4839  0.1262
  741TP3     H114042   3.272   0.611   7.834 -0.1420 -1.0815  0.5113
  741TP3     H214043   3.360   0.722   7.888 -1.3753  0.6806 -0.9561
  742TP3      O14044   1.902   4.838   7.681  0.2539 -0.2017  0.1652
  742TP3     H114045   1.898   4.745   7.699  1.8334 -0.1946  0.7407
  742TP3     H214046   1.821   4.858   7.634  0.2019 -1.9806 -0.5607
  743TP3      O14047   4.844   0.486   9.143  0.3938 -0.4594  0.2160
  743TP3     H114048   4.926   0.530   9.164  0.3392  0.6647 -1.6766
  743TP3     H214049   4.862   0.438   9.063 -1.0032  0.5185 -0.7225
  744TP3      O14050   0.283   0.919  10.099 -0.0509 -0.3454 -0.6005
  744TP3     H114051   0.362   0.874  10.129  0.4358 -0.1113 -1.4922
  744TP3     H214052   0.277   0.996  10.156  1.4647  0.6703 -1.7365
  745TP3      O14053   1.391   0.262   1.924  0.3627 -0.5190  0.1980
  745TP3     H114054   1.412   0.339   1.976 -3.8752  0.7061  0.4866
  745TP3     H214055   1.425   0.282   1.837  1.3333  0.6070  0.8095
  746TP3      O14056   3.353   4.992   8.848 -0.2275 -0.1855 -0.0168
  746TP3     H114057   3.282   4.929   8.860 -0.1093 -0.4030 -0.4475
  746TP3     H214058   3.405   4.985   8.928  0.3749 -1.3874 -0.4886
  747TP3      O14059   5.157   0.678   9.797  0.4961  0.5429  0.2327
  747TP3     H114060   5.077   0.628   9.776  1.1155 -0.5623  0.4277
  747TP3     H214061   5.134   0.768   9.778  0.0821 -0.0359 -2.4541
  748TP3      O14062   3.711   0.668   7.652  0.1594  0.0580  0.0159
  748TP3     H114063   3.752   0.710   7.727 -0.0251 -0.0577  0.1813
  748TP3     H214064   3.686   0.581   7.683 -2.0713  0.8182  0.5408
  749TP3      O14065   1.713   3.009   6.973  0.6638 -0.5282  0.3439
  749TP3     H114066   1.646   2.947   6.947  0.0366  0.7696 -1.3233
  749TP3     H214067   1.665   3.082   7.013  0.8541  1.0578 -2.1388
  750TP3      O14068   1.022   2.632   7.700  0.1259  0.2332  0.0351
  750TP3     H114069   1.010   2.543   7.666  1.4032 -0.1497  0.5128
  750TP3     H214070   0.934   2.660   7.725 -0.5497 -0.2258 -1.6933
  751TP3      O14071   0.127   1.498   8.193  0.1104 -0.2073 -0.0426
  751TP3     H114072   0.035   1.489   8.169 -0.4211  0.1988  1.6720
  751TP3     H214073   0.166   1.414   8.171 -0.7330 -0.4920 -0.4945
  752TP3      O14074   4.870   2.299   0.085  0.6423 -0.0823 -0.4657
  752TP3     H114075   4.866   2.381   0.135  1.9962 -0.5840  0.4972
  752TP3     H214076   4.846   2.231   0.148 -1.3755 -0.3915 -1.4796
  753TP3      O14077   5.045   0.494   1.615 -0.4051  0.1253  0.4455
  753TP3     H114078   4.982   0.447   1.669  0.2733 -2.3971 -0.7967
  753TP3     H214079   5.087   0.426   1.562  1.6969  1.9871 -0.4698
  754TP3      O14080   5.277   1.584   9.667  0.5480 -0.3304 -0.1650
  754TP3     H114081   5.329   1.549   9.595 -0.6961  2.0682 -2.3846
  754TP3     H214082   5.302   1.676   9.672  0.6878 -0.4400  2.6376
  755TP3      O14083   5.114   2.917   6.887 -0.3244 -0.1932  1.1467
  755TP3     H114084   5.063   2.900   6.808  0.0977 -0.8953  1.0117
  755TP3     H214085   5.106   2.836   6.938  0.7553 -0.3786  1.0508
  756TP3      O14086   1.928   4.008   9.455  1.1205  0.0190 -0.0031
  756TP3     H114087   1.994   3.979   9.393  0.6527  1.6524 -1.3620
  756TP3     H214088   1.966   3.991   9.541  1.3499 -3.2827 -0.6489
  757TP3      O14089   1.269   5.265   7.280 -1.0529  0.1063  0.5052
  757TP3     H114090   1.254   5.208   7.204 -0.8764  0.8379 -0.0971
  757TP3     H214091   1.364   5.278   7.280 -1.1521  0.8592  0.2837
  758TP3      O14092   2.209   4.622   7.816 -0.0210  0.7398 -0.0665
  758TP3     H114093   2.159   4.583   7.744 -1.1067  2.3404 -0.2217
  758TP3     H214094   2.177   4.578   7.894 -0.6934  0.7832 -0.3104
  759TP3      O14095   3.150   0.012   7.550 -0.7532 -0.2324  0.3808
  759TP3     H114096   3.099  -0.004   7.629  1.3769 -4.1867  1.2485
  759TP3     H214097   3.239   0.027   7.582  0.3403 -2.8044 -1.1474
  760TP3      O14098   0.547   0.648   8.372 -0.1244 -0.2883  0.1044
  760TP3     H114099   0.587   0.565   8.346 -2.3601 -1.4697  0.1665
  760TP3     H214100   0.579   0.711   8.308 -0.0213 -1.6511 -1.2454
  761TP3      O14101   3.837   4.104   8.794 -0.6831  0.8376 -0.1400
  761TP3     H114102   3.861   4.186   8.838 -1.0617  1.0832 -0.3814
  761TP3     H214103   3.884   4.106   8.711  1.4894 -0.4679  0.9474
  762TP3      O14104   3.291   3.691   8.130  0.4922  0.1989 -0.3982
  762TP3     H114105   3.285   3.782   8.161  0.0389  0.2567 -0.6487
  762TP3     H214106   3.315   3.641   8.208  1.7395  0.6575 -0.4664
  763TP3      O14107   1.000   1.312   7.283 -0.3529  0.6636  0.2219
  763TP3     H114108   1.062   1.379   7.253 -2.1409  2.4522  0.3578
  763TP3     H214109   0.929   1.314   7.220 -2.1359  1.4560  2.1280
  764TP3      O14110   2.400   5.139   1.957  0.2671  0.1805  1.1663
  764TP3     H114111   2.411   5.215   2.015 -0.8136  0.6152  0.8338
  764TP3     H214112   2.315   5.102   1.983  0.0233  0.0616  0.2209
  765TP3      O14113   4.820   0.417   2.664 -0.1991  0.9237  0.1536
  765TP3     H114114   4.865   0.354   2.721  0.0805 -1.8150 -2.7713
  765TP3     H214115   4.891   0.460   2.616 -0.5064  1.3797  0.1088
  766TP3      O14116   4.238   4.373   7.954 -0.1804 -0.3254 -0.0538
  766TP3     H114117   4.143   4.358   7.957 -0.0571 -1.1635 -0.2453
  766TP3     H214118   4.260   4.407   8.041 -0.7876  0.7268 -0.2850
  767TP3      O14119   3.711   2.837   7.742 -0.2192 -0.0231  0.2683
  767TP3     H114120   3.742   2.921   7.708 -0.0171 -0.1558  0.1241
  767TP3     H214121   3.714   2.846   7.837  0.9777 -0.2958  0.2686
  768TP3      O14122   4.419   0.198   8.386  0.1615 -0.3624  0.5405
  768TP3     H114123   4.436   0.267   8.322 -0.2845 -1.2670 -0.6144
  768TP3     H214124   4.353   0.234   8.444  0.3279  0.3713  0.2777
  769TP3      O14125   2.711   4.690   1.315  0.1435  0.1128 -0.0204
  769TP3     H114126   2.767   4.762   1.344  0.0356 -0.8419  2.7666
  769TP3     H214127   2.660   4.666   1.392 -0.2460 -2.5974 -1.0204
  770TP3      O14128   5.094   1.736   1.015 -0.1642  0.4843  0.2277
  770TP3     H114129   5.125   1.823   1.039 -2.7655  1.6996 -0.4678
  770TP3     H214130   5.002   1.735   1.042  0.2910 -2.8853  2.2131
  771TP3      O14131   1.575   2.726   1.283  0.1675 -0.2910 -0.1192
  771TP3     H114132   1.577   2.810   1.329 -0.6829  0.0568 -0.6933
  771TP3     H214133   1.551   2.748   1.194  0.0668 -1.1384 -0.3112
  772TP3      O14134   1.670   3.796   1.177 -0.1517  0.2376  0.8192
  772TP3     H114135   1.749   3.841   1.147 -0.4624  1.0648  1.2094
  772TP3     H214136   1.640   3.848   1.251 -1.2050  0.0750  0.5181
  773TP3      O14137   4.321   1.112   9.128  0.1190  0.9592 -0.5272
  773TP3     H114138   4.299   1.136   9.218  0.7185  2.6567 -0.7973
  773TP3     H214139   4.338   1.018   9.132  0.4432  1.0553  1.1928
  774TP3      O14140   1.883   0.908   8.097  0.3170 -0.1810  0.8392
  774TP3     H114141   1.795   0.885   8.127  0.4391  0.1959  1.4967
  774TP3     H214142   1.868   0.968   8.024  0.0157 -1.3494 -0.1077
  775TP3      O14143   1.835   3.644  10.023 -0.1298  0.4310  0.2350
  775TP3     H114144   1.915   3.593  10.035 -0.7949 -0.8931 -0.7242
  775TP3     H214145   1.818   3.683  10.109 -0.4090 -2.1895  1.4742
  776TP3      O14146   0.720   1.266   7.529 -0.8905 -0.2106 -0.1693
  776TP3     H114147   0.667   1.197   7.491 -0.5927 -0.1904 -0.6206
  776TP3     H214148   0.688   1.346   7.488 -1.4791 -0.0281  0.6126
  777TP3      O14149   1.562   3.989   2.982  0.0509  0.6392 -0.7127
  777TP3     H114150   1.482   3.994   2.929  0.6508 -1.0476 -1.8539
  777TP3     H214151   1.632   3.972   2.919  1.1105  0.6278  0.4215
  778TP3      O14152   0.904   4.508   8.856 -0.5626  0.0780 -0.0184
  778TP3     H114153   0.952   4.435   8.895  0.9415  0.8365 -0.3815
  778TP3     H214154   0.841   4.533   8.923 -0.2765 -0.7727  0.5898
  779TP3      O14155   4.285   4.613   7.099 -0.4404  0.2399  0.1763
  779TP3     H114156   4.206   4.609   7.154 -1.2922 -0.4972 -1.0452
  779TP3     H214157   4.314   4.522   7.093  2.1223  0.7533  2.7734
  780TP3      O14158   0.333   2.669   8.364 -0.4088 -0.0621  0.0120
  780TP3     H114159   0.296   2.588   8.328 -1.5463  0.7337 -0.6896
  780TP3     H214160   0.405   2.691   8.305 -0.4461 -0.2865 -0.1197
  781TP3      O14161   2.362   3.477   8.629  0.2576 -0.2726  0.6981
  781TP3     H114162   2.458   3.472   8.631  0.2357 -0.9389  3.1116
  781TP3     H214163   2.333   3.390   8.654 -1.0047  0.0092  0.2845
  782TP3      O14164   2.682   1.014   8.170  0.2900 -0.6089  0.2817
  782TP3     H114165   2.763   1.066   8.166 -0.6314  0.8007 -0.7077
  782TP3     H214166   2.643   1.023   8.084 -2.3661  1.1289  1.5343
  783TP3      O14167   0.712   0.879   0.952 -0.1778  0.0652 -0.3735
  783TP3     H114168   0.737   0.895   0.861 -1.2205 -1.2095 -0.9220
  783TP3     H214169   0.655   0.953   0.975 -1.2889 -0.4567 -1.3455
  784TP3      O14170   2.248   3.096   9.750  0.3111  0.1411 -0.7682
  784TP3     H114171   2.263   3.010   9.711  1.1302 -0.5229  0.9069
  784TP3     H214172   2.268   3.158   9.680 -0.0695 -1.0212 -1.9338
  785TP3      O14173   1.305   0.665   1.167 -0.6666 -0.6761  0.3967
  785TP3     H114174   1.276   0.716   1.243  1.6991  0.9620  0.2934
  785TP3     H214175   1.296   0.725   1.093  0.6265 -0.9532  0.0005
  786TP3      O14176   1.453   2.420   7.215 -0.7096  0.0637  0.5295
  786TP3     H114177   1.448   2.423   7.119 -0.8515  0.6335  0.5500
  786TP3     H214178   1.523   2.482   7.236 -1.0140  0.3061  0.8214
  787TP3      O14179   0.503   1.694   7.352 -0.2698  0.2317  0.1080
  787TP3     H114180   0.471   1.712   7.440 -1.3643  1.2251 -0.4700
  787TP3     H214181   0.430   1.718   7.295  1.6406  3.1915 -1.3114
  788TP3      O14182   2.723   2.653   8.122 -0.1020 -0.0734  0.2489
  788TP3     H114183   2.812   2.637   8.091 -0.3595 -1.4600  0.1694
  788TP3     H214184   2.720   2.748   8.136  2.0478 -0.2136  2.3422
  789TP3      O14185   1.573   5.276   7.606  0.3631 -0.5494  0.8675
  789TP3     H114186   1.558   5.360   7.649  0.3263 -0.2609  0.2946
  789TP3     H214187   1.486   5.238   7.594  0.3208 -0.3119  0.4150
  790TP3      O14188   2.340   3.203   8.621 -0.7046 -0.2835 -0.5913
  790TP3     H114189   2.302   3.230   8.705  1.1894  0.3586  0.1188
  790TP3     H214190   2.399   3.131   8.644 -0.1178 -0.0584 -1.3571
  791TP3      O14191   2.730   3.863   7.994 -0.0242 -0.0702 -0.0779
  791TP3     H114192   2.816   3.858   7.951 -0.6139  1.4395 -1.5169
  791TP3     H214193   2.676   3.916   7.935 -1.1999  1.2301  2.0345
  792TP3      O14194   4.059   0.210   7.770  0.2998 -0.1610  0.2643
  792TP3     H114195   4.017   0.297   7.775 -1.2489 -0.8746  0.2869
  792TP3     H214196   4.078   0.189   7.861  0.5899  0.1096  0.2687
  793TP3      O14197   1.590   1.753   8.896  0.4468  0.1915  0.2367
  793TP3     H114198   1.609   1.797   8.813  0.2936  0.4610  0.3416
  793TP3     H214199   1.523   1.688   8.874  1.5410 -0.8440 -0.1563
  794TP3      O14200   0.342   4.652   7.153  0.7545 -0.1821  0.1296
  794TP3     H114201   0.387   4.657   7.069  0.6648 -0.0274  0.0895
  794TP3     H214202   0.323   4.744   7.175  0.0640 -0.2693 -0.0723
  795TP3      O14203   4.920   4.915   8.291 -0.0546  0.2858  0.2748
  795TP3     H114204   4.983   4.853   8.327  0.0335  0.4776  0.4561
  795TP3     H214205   4.843   4.906   8.347 -1.4829 -2.3613 -1.9110
  796TP3      O14206   0.223   4.184   8.598  0.3761  0.1997  0.1572
  796TP3     H114207   0.271   4.126   8.657 -1.2569 -1.3388  0.0528
  796TP3     H214208   0.206   4.130   8.521  0.2565  1.3773 -0.6750
  797TP3      O14209   5.181   2.166   7.957  0.3724  0.2919 -0.1946
  797TP3     H114210   5.183   2.231   8.027 -2.7829 -1.1038  1.4127
  797TP3     H214211   5.168   2.217   7.877 -0.8699  1.7401  0.8799
  798TP3      O14212   0.217   1.499   0.708 -0.1471  0.0658 -0.5700
  798TP3     H114213   0.169   1.523   0.787  1.2939 -1.5304  0.8848
  798TP3     H214214   0.208   1.403   0.702 -1.0028  0.2309 -2.9071
  799TP3      O14215   4.512   2.353   2.245 -0.2804  0.2435 -0.8281
  799TP3     H114216   4.499   2.437   2.201 -1.9075 -0.5337 -1.9502
  799TP3     H214217   4.560   2.300   2.182  1.2187  0.4524  0.0830
  800TP3      O14218   1.905   4.438   8.875  0.2979 -0.5063  0.0674
  800TP3     H114219   1.901   4.459   8.782  0.5046  0.7543  0.3180
  800TP3     H214220   1.858   4.355   8.884  0.0654 -0.5150 -1.1126
  801TP3      O14221   4.997   2.418   0.303  0.2250 -0.1199  0.0159
  801TP3     H114222   5.006   2.455   0.391 -0.2901  1.9452 -0.7317
  801TP3     H214223   5.034   2.485   0.245 -1.6797 -0.3113 -1.5181
  802TP3      O14224   1.191   0.743   7.902 -0.0598 -0.0670  0.0680
  802TP3     H114225   1.115   0.781   7.858  0.4421 -0.2889 -1.0039
  802TP3     H214226   1.165   0.739   7.994 -0.4342  2.0980  0.1021
  803TP3      O14227   0.760   3.065   7.351 -0.2753 -0.0361 -0.0759
  803TP3     H114228   0.705   3.122   7.404  1.0324  1.9712 -0.7500
  803TP3     H214229   0.738   3.089   7.260  0.6849 -0.2190 -0.3653
  804TP3      O14230   2.233   3.114   9.142  0.0235 -0.4546  0.5623
  804TP3     H114231   2.316   3.162   9.149  1.5042 -3.0381  3.5359
  804TP3     H214232   2.175   3.159   9.204 -0.3414  0.4597 -0.4173
  805TP3      O14233   0.622   1.469   9.099 -0.2626  0.0121 -0.1908
  805TP3     H114234   0.704   1.457   9.052  0.4065  1.8036  0.4412
  805TP3     H214235   0.645   1.458   9.192 -1.0893 -1.0995 -0.0900
  806TP3      O14236   1.957   4.475   7.237 -0.1761  0.0153 -0.9112
  806TP3     H114237   1.920   4.424   7.164  0.6558 -0.9198 -0.7032
  806TP3     H214238   2.036   4.427   7.262  0.7755  1.5428 -0.8420
  807TP3      O14239   1.610   4.182   7.790  0.3877 -0.3009 -0.0528
  807TP3     H114240   1.601   4.141   7.876 -0.9583  0.3134  0.1104
  807TP3     H214241   1.521   4.196   7.760  0.8198  1.2817 -0.7013
  808TP3      O14242   4.806   0.817   8.321  0.1192 -0.3945 -0.2171
  808TP3     H114243   4.896   0.846   8.308 -0.2705  0.5325 -0.9323
  808TP3     H214244   4.792   0.823   8.416  1.2600 -1.9792  0.0986
  809TP3      O14245   4.347   3.583   8.821  0.6013 -0.1000  0.0981
  809TP3     H114246   4.328   3.509   8.763  0.0197  0.6419 -0.6869
  809TP3     H214247   4.328   3.550   8.909 -0.4005 -0.6465 -0.3099
  810TP3      O14248   2.927   1.160   2.084 -0.2474 -0.2041 -0.4489
  810TP3     H114249   2.993   1.186   2.149 -1.2264  0.4888  0.3050
  810TP3     H214250   2.960   1.193   2.001  0.1180  0.6036  0.0040
  811TP3      O14251   4.892   0.283   9.354  0.0603  0.4144 -0.1827
  811TP3     H114252   4.903   0.207   9.296 -1.1395  0.8063 -0.9454
  811TP3     H214253   4.895   0.358   9.295 -0.9675  0.8301  0.2844
  812TP3      O14254   1.327   2.327   7.918  0.2315  0.8778 -0.2380
  812TP3     H114255   1.405   2.275   7.936  0.0190  0.2163 -1.2016
  812TP3     H214256   1.293   2.348   8.005  1.6415  1.4433  0.2059
  813TP3      O14257   0.168   4.525   7.394  0.1316 -0.0961 -0.4818
  813TP3     H114258   0.240   4.485   7.442  1.0294  1.8750 -0.0803
  813TP3     H214259   0.193   4.518   7.301 -0.3102 -1.5038 -0.5056
  814TP3      O14260   4.295   0.478   8.824 -0.1479 -0.0127 -0.4058
  814TP3     H114261   4.259   0.544   8.884 -1.1390 -1.3797  0.5698
  814TP3     H214262   4.361   0.432   8.877  0.1081 -0.1991 -0.8815
  815TP3      O14263   2.296   2.868   2.649 -0.2364 -0.1930 -0.1695
  815TP3     H114264   2.358   2.804   2.685  0.4245  1.0593  1.0274
  815TP3     H214265   2.295   2.939   2.714 -1.6719  0.5796 -0.9889
  816TP3      O14266   0.141   2.312   9.764  0.0232 -0.0586  0.9085
  816TP3     H114267   0.177   2.354   9.843  0.4823 -0.0493  0.6971
  816TP3     H214268   0.164   2.371   9.693  0.0529 -0.3180  0.7007
  817TP3      O14269   4.916   1.702   7.259  0.1356  0.4178  0.1671
  817TP3     H114270   4.992   1.664   7.215  0.5817  1.2191  0.2315
  817TP3     H214271   4.842   1.674   7.206  0.5693  0.4538 -0.4657
  818TP3      O14272   4.200   4.727   7.802  0.4097 -0.7518 -0.1981
  818TP3     H114273   4.222   4.812   7.839  0.7405 -1.1757  0.6058
  818TP3     H214274   4.284   4.683   7.790  0.4212 -0.2635 -2.4338
  819TP3      O14275   1.806   4.154   6.947  0.2015 -0.5208  0.7469
  819TP3     H114276   1.766   4.070   6.925  0.7456 -0.0286 -2.5904
  819TP3     H214277   1.894   4.132   6.977  0.1374 -1.1789  0.4614
  820TP3      O14278   2.524   0.814   2.772  0.1027 -0.0323  0.0372
  820TP3     H114279   2.619   0.804   2.759  0.0572 -0.7039  0.1868
  820TP3     H214280   2.489   0.725   2.763 -0.2825 -0.1121  1.8752
  821TP3      O14281   5.139   4.140   9.092 -0.0110  0.6298 -0.0357
  821TP3     H114282   5.113   4.126   9.000  1.4674  0.1653 -0.4059
  821TP3     H214283   5.233   4.154   9.088  0.8116 -3.2067  1.7451
  822TP3      O14284   1.054   2.730   2.072  0.7352 -0.2754  0.7564
  822TP3     H114285   1.123   2.696   2.129  2.2736  0.6617 -0.4488
  822TP3     H214286   1.101   2.784   2.007 -1.2567  1.4860  0.6661
  823TP3      O14287   2.620   4.339   1.142  0.1659  0.1282  0.4199
  823TP3     H114288   2.604   4.407   1.207 -0.3589 -1.2432  1.7741
  823TP3     H214289   2.700   4.296   1.172  0.3506 -0.0312 -0.2828
  824TP3      O14290   0.428   0.366   2.113  0.0054 -0.0617 -0.0093
  824TP3     H114291   0.450   0.406   2.198 -0.3872 -2.2496  1.1922
  824TP3     H214292   0.337   0.394   2.097  0.8284  2.3253 -0.9775
  825TP3      O14293   3.974   2.275   3.299  0.0130 -0.2148 -0.2907
  825TP3     H114294   3.938   2.333   3.231 -1.8790 -0.3861  0.5026
  825TP3     H214295   4.041   2.224   3.254 -0.4107  0.4687 -1.7532
  826TP3      O14296   0.837   3.848   8.975 -0.2303 -0.1277  0.3517
  826TP3     H114297   0.889   3.840   8.894 -1.3144  0.3629 -0.4139
  826TP3     H214298   0.789   3.766   8.980 -1.5353  0.5471 -0.5095
  827TP3      O14299   2.299   4.531   9.706  0.0477 -0.6324 -0.1121
  827TP3     H114300   2.229   4.465   9.711  1.2220 -2.0551 -1.3884
  827TP3     H214301   2.291   4.567   9.618 -1.0258  1.5265  0.8031
  828TP3      O14302   0.574   4.982   9.483  0.8062  0.4463 -0.4099
  828TP3     H114303   0.613   4.924   9.549  2.8655  1.0001 -1.0667
  828TP3     H214304   0.527   5.048   9.534  2.0066  0.6130  0.5222
  829TP3      O14305   0.354   3.475   9.791 -0.0875 -0.1960 -0.2043
  829TP3     H114306   0.287   3.432   9.738  0.5678 -0.8195 -0.5617
  829TP3     H214307   0.426   3.491   9.730  0.3141 -0.0665  0.2929
  830TP3      O14308   3.853   2.723   1.732 -0.7590 -0.0991 -0.1932
  830TP3     H114309   3.900   2.781   1.792  1.3005 -1.2302 -0.6274
  830TP3     H214310   3.814   2.656   1.787 -0.4858 -0.0695  0.0337
  831TP3      O14311   2.026   3.960   6.930  0.0299  0.3404  0.2421
  831TP3     H114312   2.028   3.871   6.893 -1.4776 -0.9012  2.8978
  831TP3     H214313   2.115   3.975   6.961  0.0068 -0.7835  0.9039
  832TP3      O14314   3.584   4.859   2.739 -0.3750  0.4816  0.5208
  832TP3     H114315   3.670   4.894   2.718 -0.9429  2.8507  1.8071
  832TP3     H214316   3.528   4.884   2.666 -0.2237 -0.1312  0.1863
  833TP3      O14317   4.549   0.337   7.792  0.0116  0.3297  0.1757
  833TP3     H114318   4.588   0.284   7.722  0.6159  1.3617 -0.2976
  833TP3     H214319   4.622   0.388   7.827 -0.7996  2.0679 -0.5177
  834TP3      O14320   4.148   3.878   0.782 -0.1121  0.2323 -0.2386
  834TP3     H114321   4.173   3.970   0.776 -1.4283  0.6705  0.5546
  834TP3     H214322   4.056   3.877   0.754  0.0239 -0.9126 -0.6777
  835TP3      O14323   2.614   4.637   9.472  0.2809 -0.1562 -0.3522
  835TP3     H114324   2.559   4.709   9.440  2.2243  1.1640 -0.9075
  835TP3     H214325   2.681   4.679   9.525  2.1007 -1.4138 -1.5302
  836TP3      O14326   0.843   5.136   9.054 -0.4939  0.4604  0.0743
  836TP3     H114327   0.914   5.096   9.004  0.0526 -0.1642  1.3128
  836TP3     H214328   0.848   5.096   9.141 -0.0531  3.0014  1.3343
  837TP3      O14329   3.219   2.606   0.837  0.9725 -0.2484  0.2213
  837TP3     H114330   3.186   2.520   0.861 -1.9971 -0.4738 -3.6819
  837TP3     H214331   3.162   2.668   0.883  0.2847 -0.4961 -0.2804
  838TP3      O14332   1.008   2.377   7.215 -0.0202 -0.2554 -0.2621
  838TP3     H114333   1.023   2.344   7.126  0.7307 -1.2004  0.1991
  838TP3     H214334   1.073   2.446   7.227  0.5050 -0.7593 -0.1351
  839TP3      O14335   4.860   1.915   3.544  0.2875 -0.0663 -0.5642
  839TP3     H114336   4.825   1.835   3.504 -2.1918 -0.7039  2.5328
  839TP3     H214337   4.952   1.896   3.559 -0.2432 -2.4103  0.1184
  840TP3      O14338   1.097   4.737   9.716 -0.5287  0.1226  0.1820
  840TP3     H114339   1.160   4.682   9.762 -0.2946  1.1023  1.0745
  840TP3     H214340   1.075   4.806   9.779 -1.6871  0.3974 -0.4947
  841TP3      O14341   3.559   3.191   6.671  0.9091 -0.3617  0.3346
  841TP3     H114342   3.587   3.223   6.585  0.4999 -1.3466 -0.1697
  841TP3     H214343   3.536   3.100   6.657  1.5863 -0.7592  1.6655
  842TP3      O14344   0.278   0.095   8.661  0.2232  0.7927 -0.0866
  842TP3     H114345   0.286   0.117   8.754  0.1033  0.7209 -0.0587
  842TP3     H214346   0.270   0.179   8.616 -0.8174  0.7938  0.0758
  843TP3      O14347   2.498   0.900   8.337 -0.0932 -0.3317 -0.0223
  843TP3     H114348   2.441   0.837   8.292  0.5985 -1.2386  0.3405
  843TP3     H214349   2.554   0.935   8.268 -1.6470  1.2551 -0.5575
  844TP3      O14350   2.040   2.504   0.403  0.0451 -0.1999  0.0985
  844TP3     H114351   2.105   2.490   0.471  1.3589  1.0380 -0.8459
  844TP3     H214352   1.974   2.436   0.418  1.8202 -1.8650  0.7602
  845TP3      O14353   1.359   3.544   8.368 -0.2562 -0.3803  0.1290
  845TP3     H114354   1.325   3.457   8.348  1.0273 -0.3066 -3.0422
  845TP3     H214355   1.444   3.528   8.407 -0.8798 -0.5281  1.4576
  846TP3      O14356   5.041   4.640   1.758  0.0398 -0.3059 -0.1758
  846TP3     H114357   5.041   4.629   1.853  2.4523  0.1139 -0.0646
  846TP3     H214358   4.990   4.719   1.743 -0.1327 -0.2249  0.7790
  847TP3      O14359   4.255   4.212   8.281  0.6331  0.3071 -0.1938
  847TP3     H114360   4.332   4.261   8.309  0.6779 -0.4883  1.1834
  847TP3     H214361   4.187   4.278   8.270  0.7552  0.7366  1.3800
  848TP3      O14362   3.761   4.426   8.207  0.5719 -0.0218 -0.9092
  848TP3     H114363   3.679   4.398   8.248  1.6707  0.3056  1.7754
  848TP3     H214364   3.745   4.516   8.180 -0.1644 -0.1828 -1.0163
  849TP3      O14365   2.105   4.322   0.131 -0.6203  0.3160 -0.5863
  849TP3     H114366   2.187   4.278   0.111 -0.5850  0.2418 -0.2885
  849TP3     H214367   2.042   4.252   0.144 -0.4928  0.3347  0.1936
  850TP3      O14368   2.725   2.962   6.516  0.3719 -0.1800 -0.0424
  850TP3     H114369   2.729   3.055   6.495  0.7540  0.1610  1.4780
  850TP3     H214370   2.805   2.944   6.564  0.7280 -1.5117 -1.0570
  851TP3      O14371   4.324   4.279   1.465 -0.1101  0.4707 -0.1703
  851TP3     H114372   4.295   4.192   1.491 -0.1409  0.2739 -0.8471
  851TP3     H214373   4.337   4.273   1.371 -3.5376  2.1300 -0.9147
  852TP3      O14374   4.457   0.389   8.187  0.7055 -0.2238  0.1372
  852TP3     H114375   4.526   0.452   8.207  0.6144  0.0122 -0.2733
  852TP3     H214376   4.423   0.416   8.102  0.0297 -0.2684  0.3793
  853TP3      O14377   4.878   3.707   8.165 -0.3797  0.3070 -0.4226
  853TP3     H114378   4.902   3.751   8.247 -0.1010 -0.0198 -0.3241
  853TP3     H214379   4.817   3.767   8.123 -0.1611  0.6959 -0.1982
  854TP3      O14380   1.956   2.869   9.901 -0.3863 -0.5922  0.5785
  854TP3     H114381   1.937   2.788   9.949 -2.0756 -0.8493 -0.4515
  854TP3     H214382   1.911   2.859   9.818  2.8814 -0.3987 -1.3895
  855TP3      O14383   1.501   5.176   8.811 -0.5457 -0.6884  0.3013
  855TP3     H114384   1.455   5.183   8.895 -1.0401 -2.3687  0.2013
  855TP3     H214385   1.476   5.256   8.764  0.9409  1.0767  2.2704
  856TP3      O14386   2.422   2.967   1.228 -0.2004 -0.2389  0.0095
  856TP3     H114387   2.450   3.044   1.278 -3.5885  0.8840  0.4387
  856TP3     H214388   2.495   2.950   1.168  1.3370  2.3089  0.9655
  857TP3      O14389   0.699   3.732   9.752 -0.1164 -0.0875 -0.1621
  857TP3     H114390   0.771   3.791   9.728 -0.9969  0.5849 -1.2364
  857TP3     H214391   0.719   3.651   9.706  1.1360 -0.7058  1.3761
  858TP3      O14392   4.534   1.527   7.591  0.1278  0.5530 -0.0205
  858TP3     H114393   4.616   1.569   7.565  0.4803  0.2361  0.5432
  858TP3     H214394   4.541   1.521   7.687  0.6453 -1.9012 -0.1611
  859TP3      O14395   4.838   2.644   9.342 -0.3471 -0.1210  0.0098
  859TP3     H114396   4.902   2.578   9.315 -0.2663 -0.3018  0.6270
  859TP3     H214397   4.877   2.685   9.419  0.1180  1.4378 -1.0045
  860TP3      O14398   2.874   2.214   8.930  0.5699  0.1991 -0.7287
  860TP3     H114399   2.934   2.236   8.859  2.2987 -1.7056  0.0361
  860TP3     H214400   2.882   2.119   8.940 -3.1448 -0.2967 -1.0043
  861TP3      O14401   2.139   1.592   3.012 -0.0762  0.1728  0.2485
  861TP3     H114402   2.046   1.572   3.013 -0.5223  2.0386  1.7476
  861TP3     H214403   2.158   1.613   2.920 -1.7393  2.1579  0.2811
  862TP3      O14404   1.823   1.854   9.034 -0.5243 -0.4435  0.1937
  862TP3     H114405   1.917   1.844   9.016 -0.1522 -0.0695  1.8030
  862TP3     H214406   1.780   1.820   8.955  0.9682  0.4584 -1.0598
  863TP3      O14407   3.931   0.442   8.832 -0.4038  0.2691 -0.2463
  863TP3     H114408   3.878   0.508   8.786 -0.0613 -1.2939 -3.1116
  863TP3     H214409   3.867   0.385   8.874 -0.9031 -0.0034 -1.3423
  864TP3      O14410   5.169   3.963   7.892  0.7533 -0.2791  0.2707
  864TP3     H114411   5.238   3.964   7.826 -1.4736 -0.8457 -2.2740
  864TP3     H214412   5.108   4.031   7.863 -0.6328 -1.0036  1.3692
  865TP3      O14413   0.477   2.110   9.455  0.4392  0.5859 -0.1017
  865TP3     H114414   0.522   2.026   9.446 -1.2794 -0.3651 -0.3073
  865TP3     H214415   0.472   2.125   9.550  0.9963  0.6232 -0.0714
  866TP3      O14416   4.854   1.302   9.211  0.8096 -0.3274  0.7668
  866TP3     H114417   4.785   1.238   9.223  2.0016 -1.3359  2.7232
  866TP3     H214418   4.909   1.266   9.142  0.5508 -0.5649  0.6833
  867TP3      O14419   4.664   0.661   3.218 -0.8874 -0.5134 -0.0866
  867TP3     H114420   4.704   0.747   3.231 -1.1040 -0.5672  1.0614
  867TP3     H214421   4.736   0.604   3.190 -1.0374  0.3733 -2.5450
  868TP3      O14422   4.027   3.856   8.577  0.2092  0.2277  0.2668
  868TP3     H114423   4.097   3.790   8.580  0.0598  0.0602  0.0800
  868TP3     H214424   4.067   3.935   8.615  0.2302 -0.1157  0.9851
  869TP3      O14425   4.616   2.056   8.098 -0.1055  0.0638  0.1068
  869TP3     H114426   4.688   2.032   8.156  0.7072  0.3076 -0.7752
  869TP3     H214427   4.569   1.974   8.083  0.7502 -0.3558 -0.3272
  870TP3      O14428   1.104   1.315   6.990  0.0320  0.1278  0.0226
  870TP3     H114429   1.176   1.378   6.979  0.2119 -0.3278 -1.6273
  870TP3     H214430   1.027   1.360   6.956 -0.5914  0.7341  2.0755
  871TP3      O14431   2.842   3.352   9.842 -0.0592  0.3518 -0.5682
  871TP3     H114432   2.771   3.407   9.810 -1.1185  0.4646  1.8425
  871TP3     H214433   2.799   3.277   9.883  1.3279 -2.1087 -3.1947
  872TP3      O14434   5.076   3.366   9.191 -0.1953  0.2932 -0.4718
  872TP3     H114435   5.068   3.450   9.237  0.3070  0.6418 -1.0099
  872TP3     H214436   5.135   3.385   9.118  0.8034 -0.7978  0.0305
  873TP3      O14437   2.944   0.817   8.204  0.0098  0.0389 -0.1797
  873TP3     H114438   2.853   0.790   8.194  0.3361 -1.3840  0.5327
  873TP3     H214439   2.995   0.745   8.168  0.8985 -0.3509  1.7327
  874TP3      O14440   1.668   0.551   7.992 -0.8871 -0.0115 -0.2820
  874TP3     H114441   1.611   0.591   7.926 -0.8467 -1.3392 -1.1638
  874TP3     H214442   1.757   0.569   7.961 -0.8675 -0.8362 -0.7664
  875TP3      O14443   2.962   1.532   6.734  0.3810 -0.5185  0.0594
  875TP3     H114444   2.937   1.625   6.732  0.9067 -0.3637  0.5860
  875TP3     H214445   2.920   1.495   6.656 -1.3512 -0.2270  0.8015
  876TP3      O14446   1.664   0.822   8.214  0.1949 -0.2299  0.3344
  876TP3     H114447   1.576   0.839   8.247  0.0945 -2.5130  1.4265
  876TP3     H214448   1.682   0.732   8.239  2.0160 -0.5524 -1.7991
  877TP3      O14449   3.157   0.001   0.479  0.5061  0.0770 -0.6625
  877TP3     H114450   3.103   0.080   0.476 -1.4123 -0.7964  3.2878
  877TP3     H214451   3.245   0.032   0.503 -0.2272  1.0934  0.8513
  878TP3      O14452   5.094   0.118   9.772 -0.5097 -0.0543 -0.4511
  878TP3     H114453   5.091   0.034   9.728  1.4090 -1.0239  1.1046
  878TP3     H214454   5.050   0.179   9.712 -1.6088 -2.0554 -1.7677
  879TP3      O14455   1.884   0.532   0.906 -0.0669 -0.3053 -0.4019
  879TP3     H114456   1.834   0.602   0.865  0.7177  0.3995 -0.1974
  879TP3     H214457   1.836   0.452   0.885 -1.3360  0.3534 -0.0802
  880TP3      O14458   1.764   4.649   9.042 -0.2616 -0.2658 -0.0546
  880TP3     H114459   1.747   4.646   8.948 -0.3471  0.3646 -0.0642
  880TP3     H214460   1.787   4.559   9.065  0.4842 -0.2802 -0.8112
  881TP3      O14461   2.122   3.480   8.463 -0.8715 -0.3390 -0.4350
  881TP3     H114462   2.073   3.436   8.532 -0.1954  0.1876  0.3843
  881TP3     H214463   2.204   3.506   8.503  0.0018 -0.9826 -1.7336
  882TP3      O14464   4.679   2.156   8.389  0.1760 -0.1697 -0.2711
  882TP3     H114465   4.609   2.143   8.453  0.1454 -0.1082 -0.2920
  882TP3     H214466   4.744   2.089   8.411 -0.0938 -0.5208 -0.5360
  883TP3      O14467   0.520   3.493   6.999 -0.1854 -0.2179 -0.0474
  883TP3     H114468   0.473   3.516   6.919 -0.0787  0.7628  0.1617
  883TP3     H214469   0.589   3.433   6.970  0.2125  0.5740 -0.7942
  884TP3      O14470   4.428   4.966   0.198  0.2897  0.1965  0.3393
  884TP3     H114471   4.357   4.915   0.237 -0.5764  1.1370  0.0613
  884TP3     H214472   4.460   5.022   0.269 -1.0690  1.6764 -0.1657
  885TP3      O14473   1.784   3.012   7.641 -0.4361 -0.6408 -0.0739
  885TP3     H114474   1.765   3.069   7.566  0.3378 -3.0285 -2.2385
  885TP3     H214475   1.699   2.980   7.670 -0.8627  1.3904  1.0496
  886TP3      O14476   1.017   4.579   7.992  0.0754 -0.1472  0.1994
  886TP3     H114477   1.028   4.489   8.024  1.5387  0.5650  1.8241
  886TP3     H214478   0.939   4.611   8.039 -3.3640 -1.8670 -3.6850
  887TP3      O14479   1.481   4.441   8.084  0.1988 -0.4159 -0.1464
  887TP3     H114480   1.400   4.390   8.094  0.2130  0.0533  3.6890
  887TP3     H214481   1.450   4.530   8.063 -0.2519 -0.4843  0.2020
  888TP3      O14482   2.241   2.504   0.607 -0.2709  0.1481 -0.3920
  888TP3     H114483   2.275   2.417   0.585 -0.7204 -0.1827  0.1960
  888TP3     H214484   2.319   2.558   0.620  0.1053 -0.7647  1.6162
  889TP3      O14485   2.263   4.885   0.305  0.0001  0.7250 -0.2741
  889TP3     H114486   2.346   4.917   0.340  0.3126  0.8291 -1.0957
  889TP3     H214487   2.220   4.963   0.270  0.8133  0.3061 -2.3877
  890TP3      O14488   2.982   0.824  10.102 -0.2269 -0.2253  0.0879
  890TP3     H114489   2.947   0.740  10.072  0.7277 -0.9604  0.9724
  890TP3     H214490   2.998   0.811  10.196 -1.3058  1.3797  0.5266
  891TP3      O14491   4.152   1.250   8.812 -0.0013  0.1851  0.0123
  891TP3     H114492   4.081   1.292   8.860  0.2269 -0.5346  1.0055
  891TP3     H214493   4.232   1.284   8.852  0.1889 -0.8419  0.5353
  892TP3      O14494   3.475   2.539   0.917 -0.0639 -0.4596 -0.3500
  892TP3     H114495   3.401   2.578   0.869 -0.2126  0.1516  0.3592
  892TP3     H214496   3.548   2.546   0.856 -0.8058 -2.1035 -1.5137
  893TP3      O14497   0.193   1.230   0.042  0.3615 -0.2733 -0.2735
  893TP3     H114498   0.209   1.243   0.135 -1.9392  0.5617  0.0711
  893TP3     H214499   0.207   1.316   0.003  2.3302 -0.8283 -0.9445
  894TP3      O14500   4.995   1.993   2.857 -0.4621  0.5773 -0.1693
  894TP3     H114501   4.916   2.042   2.834 -0.1915  0.8087 -0.6394
  894TP3     H214502   5.017   1.944   2.778 -0.3421  0.2250  0.0789
  895TP3      O14503   4.397   1.208   7.137 -0.2106 -0.1344 -0.1934
  895TP3     H114504   4.455   1.172   7.204 -1.9326 -0.7225  1.0451
  895TP3     H214505   4.401   1.302   7.149 -0.6267 -0.2424  0.8795
  896TP3      O14506   1.326   3.979   1.194 -0.0401  0.3242 -0.6965
  896TP3     H114507   1.415   3.972   1.158 -0.6944  0.2364 -2.3576
  896TP3     H214508   1.300   4.069   1.175  0.8851  1.4649  2.7815
  897TP3      O14509   3.947   2.646   7.362 -0.9326 -0.4178 -0.0335
  897TP3     H114510   3.880   2.628   7.427 -0.2214 -0.9567  0.5715
  897TP3     H214511   4.006   2.571   7.367  0.4827  0.6858  0.4402
  898TP3      O14512   5.082   0.577   9.203  0.1081  0.0101  0.9427
  898TP3     H114513   5.162   0.582   9.255  0.8348 -1.7379  0.0654
  898TP3     H214514   5.105   0.524   9.127 -1.7562 -0.1412  0.4151
  899TP3      O14515   1.161   5.041   8.478 -0.0663  0.2833 -0.0251
  899TP3     H114516   1.077   5.076   8.508 -0.7280 -2.1763  1.2591
  899TP3     H214517   1.138   4.971   8.417  1.0034 -0.6279  0.5645
  900TP3      O14518   4.942   2.104   0.591  0.2879  0.3449 -0.0786
  900TP3     H114519   4.968   2.165   0.660 -0.8107  0.7065  0.0342
  900TP3     H214520   4.998   2.127   0.517  1.6866 -0.2360  0.7459
  901TP3      O14521   4.742   3.192   7.565  0.3200 -0.9270 -0.6898
  901TP3     H114522   4.690   3.116   7.538 -0.3821 -0.5875 -0.2899
  901TP3     H214523   4.799   3.158   7.634 -0.6785 -0.8765  0.1774
  902TP3      O14524   1.291   2.207   1.676 -0.3291  0.4529 -0.0186
  902TP3     H114525   1.265   2.254   1.597 -0.8165 -0.5177 -0.4435
  902TP3     H214526   1.356   2.143   1.646  0.9678  1.3940  0.6897
  903TP3      O14527   4.719   0.070   1.575 -0.4669 -0.8442  0.0652
  903TP3     H114528   4.779   0.100   1.507 -0.0496 -1.6308  0.0754
  903TP3     H214529   4.675  -0.006   1.537 -1.1440 -0.5400  0.2209
  904TP3      O14530   0.665   4.138   2.340 -0.1844  0.1221  0.0552
  904TP3     H114531   0.677   4.057   2.389 -2.9114 -1.1133 -1.1074
  904TP3     H214532   0.604   4.189   2.393  1.0709  1.1993  0.4998
  905TP3      O14533   1.651   4.809   9.517  0.0528 -0.0409  0.3179
  905TP3     H114534   1.638   4.812   9.612  2.5617 -0.5335  0.7474
  905TP3     H214535   1.563   4.818   9.481 -0.8490  1.3618  2.6432
  906TP3      O14536   4.311   2.145   6.881  0.0388  0.4891 -0.1240
  906TP3     H114537   4.267   2.201   6.945  0.8269  1.3358 -0.3038
  906TP3     H214538   4.384   2.198   6.849  0.2967 -0.3289 -0.9297
  907TP3      O14539   2.198   3.444   9.082  0.1125  0.0658 -0.2674
  907TP3     H114540   2.198   3.537   9.060  1.0283  0.4667  1.2228
  907TP3     H214541   2.106   3.418   9.079 -0.1169  0.9432 -0.9900
  908TP3      O14542   0.924   0.205   8.327 -0.3741  0.0983  0.0954
  908TP3     H114543   0.912   0.255   8.246 -2.0457 -1.7087 -0.8884
  908TP3     H214544   0.961   0.121   8.298  1.4514  0.3364  1.5604
  909TP3      O14545   0.967   1.056   9.808  0.5267  0.0693  0.1097
  909TP3     H114546   0.954   0.999   9.732 -0.6464  1.0238 -0.4369
  909TP3     H214547   1.057   1.038   9.835  0.6935 -0.9170 -0.9755
  910TP3      O14548   2.796   0.124   7.985 -0.6622 -0.3715 -0.1999
  910TP3     H114549   2.838   0.096   8.066  0.2956 -0.0251 -0.5629
  910TP3     H214550   2.737   0.052   7.963 -1.1817 -0.3192  0.9735
  911TP3      O14551   3.490   3.407   7.922  0.0983 -0.7740 -0.2992
  911TP3     H114552   3.436   3.485   7.907 -0.4136 -1.2733 -1.1454
  911TP3     H214553   3.525   3.419   8.010 -1.5005 -0.4834  0.3369
  912TP3      O14554   4.910   1.181   2.441 -0.0108  0.1488 -0.3390
  912TP3     H114555   4.947   1.179   2.353 -1.8457 -0.0612 -1.1476
  912TP3     H214556   4.838   1.244   2.435 -0.1453  0.1464  1.0212
  913TP3      O14557   0.947   2.274   8.280 -0.0611  0.1880  0.8001
  913TP3     H114558   0.977   2.221   8.206 -0.9944  1.3403 -0.4589
  913TP3     H214559   0.884   2.218   8.326 -0.0638 -0.2567  0.2583
  914TP3      O14560   3.192   0.132   0.849  0.0582  0.3254 -0.2873
  914TP3     H114561   3.098   0.147   0.863  0.3841  0.7471  1.6649
  914TP3     H214562   3.224   0.213   0.811 -0.5943 -0.3540 -2.4679
  915TP3      O14563   0.421   1.787   1.906  0.0630 -0.3167 -0.1879
  915TP3     H114564   0.349   1.848   1.928 -1.4140 -1.9074 -0.3956
  915TP3     H214565   0.499   1.841   1.909 -1.2997  1.8950 -1.5330
  916TP3      O14566   1.294   2.186   9.155  0.0598  0.1263  0.0597
  916TP3     H114567   1.223   2.183   9.091  0.3941  2.4796 -0.4893
  916TP3     H214568   1.355   2.117   9.126 -0.1635  0.6293 -1.7157
  917TP3      O14569   3.941   3.708  10.052  0.0551  0.3431 -0.4051
  917TP3     H114570   4.001   3.653  10.103  1.0165 -0.8648 -2.6659
  917TP3     H214571   3.860   3.657  10.049  0.2698  0.0118 -0.7470
  918TP3      O14572   3.761   5.289   1.600  0.0447  0.5081 -0.6507
  918TP3     H114573   3.734   5.269   1.511 -1.0125  1.8984 -0.6737
  918TP3     H214574   3.767   5.203   1.643  1.2020 -0.2246 -2.1937
  919TP3      O14575   2.819   0.658   7.050 -0.8527  0.0923 -0.3860
  919TP3     H114576   2.768   0.583   7.080  1.5243 -1.1391  0.8640
  919TP3     H214577   2.880   0.621   6.986 -1.1651  1.4300 -1.5137
  920TP3      O14578   4.202   1.827   8.592  0.0139 -0.6925 -0.2236
  920TP3     H114579   4.132   1.774   8.555  0.1145 -0.1133 -1.2799
  920TP3     H214580   4.257   1.765   8.639 -0.4218 -1.3704 -0.5974
  921TP3      O14581   1.786   5.125   8.528 -0.0295  0.3286  0.1631
  921TP3     H114582   1.749   5.211   8.545 -0.1435  0.3067  0.0265
  921TP3     H214583   1.712   5.064   8.538 -0.2233  0.3644 -0.9135
  922TP3      O14584   4.810   5.194   8.916 -0.5355 -0.1662  0.2728
  922TP3     H114585   4.786   5.107   8.946 -1.1255 -0.0751  0.0705
  922TP3     H214586   4.819   5.186   8.821 -0.7387  0.0270  0.2363
  923TP3      O14587   2.674   4.570   0.571  0.0303  0.5351  0.7518
  923TP3     H114588   2.670   4.476   0.587  1.7326  0.4861  1.0951
  923TP3     H214589   2.682   4.609   0.658 -0.4759  1.0022  0.5972
  924TP3      O14590   0.504   2.046   0.248 -0.0697  0.0092 -0.0007
  924TP3     H114591   0.579   2.068   0.303 -0.9276  1.5209  0.6116
  924TP3     H214592   0.506   1.950   0.243  2.4869  0.0200 -0.8787
  925TP3      O14593   4.042   3.124   9.348  0.3331 -0.6256 -0.9785
  925TP3     H114594   4.044   3.028   9.351  0.9391 -0.5917  0.5859
  925TP3     H214595   3.984   3.144   9.275 -1.4260 -2.2025 -0.1014
  926TP3      O14596   1.503   3.486   0.463 -0.0227  0.3041  0.0690
  926TP3     H114597   1.512   3.414   0.401  0.8485  0.8255 -0.4360
  926TP3     H214598   1.430   3.461   0.519 -1.8948  0.4895 -2.1114
  927TP3      O14599   2.558   1.451   2.136 -0.3983  0.2462 -0.1719
  927TP3     H114600   2.476   1.465   2.088  0.7673  0.9383 -2.0973
  927TP3     H214601   2.625   1.448   2.067  1.3456  0.9320  1.4144
  928TP3      O14602   3.341   1.131   9.046  0.0442 -0.3277 -0.2164
  928TP3     H114603   3.328   1.148   8.953  0.2136 -1.4824 -0.4560
  928TP3     H214604   3.252   1.125   9.082 -0.0203 -0.0439 -0.3260
  929TP3      O14605   2.619   5.010   1.121  0.2122 -0.2332  0.1570
  929TP3     H114606   2.627   4.920   1.088  0.8659 -0.4588  0.8936
  929TP3     H214607   2.585   5.000   1.210  0.5852  0.2268  0.3545
  930TP3      O14608   3.319   2.799   0.087 -0.7962 -0.1309  0.0367
  930TP3     H114609   3.320   2.705   0.067 -1.7776  0.1167 -1.3231
  930TP3     H214610   3.344   2.804   0.179  1.1918 -1.5611 -0.3756
  931TP3      O14611   2.598   3.907   8.569  0.1749  0.3288  0.7932
  931TP3     H114612   2.529   3.852   8.532 -0.7617  0.9096  1.6203
  931TP3     H214613   2.560   3.995   8.571  0.7153  0.5502  1.8353
  932TP3      O14614   4.751   4.882   2.043 -0.4158 -0.0268  0.3517
  932TP3     H114615   4.805   4.855   1.968 -0.5238 -0.7625  0.5288
  932TP3     H214616   4.691   4.809   2.056 -0.7986  0.3607  0.7854
  933TP3      O14617   3.415   2.883   8.111 -0.1519  0.0379  0.2164
  933TP3     H114618   3.389   2.803   8.065 -2.7125  1.2503 -0.5795
  933TP3     H214619   3.452   2.939   8.043 -0.4856  0.4039  0.3334
  934TP3      O14620   1.444   2.001   1.473 -0.2332 -0.4256  0.2896
  934TP3     H114621   1.513   2.022   1.410 -1.1179  2.6712  0.1794
  934TP3     H214622   1.398   1.926   1.434 -0.2604  0.8863 -2.4193
  935TP3      O14623   3.698   1.467   7.075 -0.2048 -0.5463 -0.4486
  935TP3     H114624   3.675   1.447   7.165  0.1048  1.1215  0.0290
  935TP3     H214625   3.793   1.463   7.072 -0.1014  1.2050 -0.2199
  936TP3      O14626   3.232   0.303   7.749  0.9209 -0.0727  0.1892
  936TP3     H114627   3.301   0.332   7.808  1.5573 -0.7247 -0.2288
  936TP3     H214628   3.151   0.316   7.800  1.3184  0.8806  0.6031
  937TP3      O14629   2.090   0.306   9.071  0.2209 -0.3775 -0.0350
  937TP3     H114630   2.032   0.231   9.058 -0.7565  0.3975 -0.2336
  937TP3     H214631   2.068   0.367   9.001  1.2463 -0.0335 -0.0815
  938TP3      O14632   1.387   1.552   1.296 -0.0180  0.4498 -0.7148
  938TP3     H114633   1.481   1.553   1.279  0.1725  2.1147  0.1402
  938TP3     H214634   1.347   1.522   1.215  1.2804 -1.0214 -0.8395
  939TP3      O14635   3.539   0.550   9.437 -0.4849 -0.0957  0.0275
  939TP3     H114636   3.588   0.630   9.457  1.0762 -0.9782 -0.0483
  939TP3     H214637   3.532   0.506   9.522 -0.3561 -0.3951 -0.1170
  940TP3      O14638   2.074   0.645   2.192 -0.1178 -0.5745 -0.3086
  940TP3     H114639   2.088   0.688   2.108  0.4209  2.4848  1.1743
  940TP3     H214640   2.006   0.698   2.234  1.3480 -0.4375  2.0730
  941TP3      O14641   4.586   1.582   7.271 -0.3019  0.3065 -0.1796
  941TP3     H114642   4.627   1.632   7.201 -2.3885  0.6022 -1.2527
  941TP3     H214643   4.504   1.549   7.234 -2.1022  1.4521  2.4125
  942TP3      O14644   3.586   3.584   1.048 -0.3593  0.3748 -0.2834
  942TP3     H114645   3.570   3.595   1.142  1.9059  0.2253  0.1810
  942TP3     H214646   3.556   3.667   1.010  0.1156  1.0867  0.8014
  943TP3      O14647   0.607   2.339   9.357 -0.0147 -0.0289 -0.3945
  943TP3     H114648   0.542   2.273   9.382  1.4153 -1.6822 -0.8264
  943TP3     H214649   0.669   2.341   9.430  1.4536 -1.2363 -1.5500
  944TP3      O14650   4.509   3.757   8.230  0.1621  0.5932 -0.5923
  944TP3     H114651   4.588   3.797   8.192 -0.1130  1.2931 -0.4345
  944TP3     H214652   4.543   3.693   8.292  0.6190  1.5095  0.1303
  945TP3      O14653   0.453   3.063   7.824  0.0894 -0.5200  0.4716
  945TP3     H114654   0.365   3.082   7.858 -1.3782 -1.2937 -2.5311
  945TP3     H214655   0.456   2.967   7.817  0.0063 -0.4060 -2.0226
  946TP3      O14656   1.877   0.370   2.532 -0.3293  0.5513 -0.0037
  946TP3     H114657   1.839   0.457   2.516 -0.0040  0.5185 -1.0672
  946TP3     H214658   1.953   0.387   2.588 -2.1381  0.5550  2.6333
  947TP3      O14659   1.847   4.219   1.991  0.0185  0.3886  0.2777
  947TP3     H114660   1.942   4.220   1.977 -0.1587 -1.2421 -1.3595
  947TP3     H214661   1.815   4.149   1.934 -2.2600  1.3089  0.3290
  948TP3      O14662   1.191   3.479   2.532  0.0195  0.1337 -0.1947
  948TP3     H114663   1.203   3.405   2.473 -1.5008 -0.7839  0.5727
  948TP3     H214664   1.129   3.536   2.487 -0.0457  0.1323 -0.1083
  949TP3      O14665   2.509   4.328   8.775 -0.1640 -0.3570 -0.3607
  949TP3     H114666   2.447   4.382   8.825 -0.1827 -0.7922  0.0965
  949TP3     H214667   2.592   4.377   8.780 -0.1950 -0.3347  0.0027
  950TP3      O14668   2.155   1.206   9.418 -0.2174 -0.1945  0.4296
  950TP3     H114669   2.225   1.152   9.455  1.7812  2.1946  0.4367
  950TP3     H214670   2.142   1.171   9.329  0.6400 -1.0023  0.6082
  951TP3      O14671   2.010   3.672   1.551  0.0005 -0.1358  0.5295
  951TP3     H114672   1.917   3.663   1.530 -0.2412  0.4932  1.2538
  951TP3     H214673   2.014   3.659   1.646  0.1689  2.8564  1.0335
  952TP3      O14674   2.885   0.202   9.172  0.0763  0.5454  0.2143
  952TP3     H114675   2.897   0.266   9.241  0.0485 -0.2558  0.9786
  952TP3     H214676   2.965   0.151   9.171  0.5157  1.2037 -1.0704
  953TP3      O14677   0.101   2.127   7.659  0.0228  0.2095  0.1682
  953TP3     H114678   0.137   2.048   7.619 -1.1969 -1.3026  1.8837
  953TP3     H214679   0.122   2.118   7.752 -2.0300  0.7765  0.7367
  954TP3      O14680   0.355   1.846   9.763 -0.1392  0.3187 -0.4962
  954TP3     H114681   0.401   1.767   9.736  0.5115  0.6443 -0.3520
  954TP3     H214682   0.386   1.863   9.851 -0.5859  0.5091 -0.3721
  955TP3      O14683   4.153   0.599   7.462  0.2651 -0.5218  0.6932
  955TP3     H114684   4.082   0.663   7.457  1.8527  1.2351 -0.7789
  955TP3     H214685   4.174   0.579   7.371  1.5281 -1.1418  1.0965
  956TP3      O14686   0.375   2.775   1.708  0.2989 -0.0034 -0.3487
  956TP3     H114687   0.389   2.847   1.768  0.7088  0.0300 -0.4787
  956TP3     H214688   0.393   2.812   1.621  0.2445 -0.1895 -0.4407
  957TP3      O14689   0.608   1.442   7.337  0.1483 -0.2303  0.5357
  957TP3     H114690   0.667   1.404   7.272  0.6927 -0.3764  1.1003
  957TP3     H214691   0.586   1.528   7.302 -1.2213 -1.0799 -0.8387
  958TP3      O14692   4.914   4.618   0.669 -0.0346 -0.0487 -0.0986
  958TP3     H114693   4.947   4.693   0.620  0.2303  0.2951  0.5921
  958TP3     H214694   4.933   4.542   0.613  1.3201  0.2087 -0.0242
  959TP3      O14695   1.911   4.399   9.157 -0.0460  0.0469  0.2141
  959TP3     H114696   1.955   4.453   9.092 -1.7070  1.9650  0.5764
  959TP3     H214697   1.901   4.314   9.115  2.3787  0.0412 -0.5047
  960TP3      O14698   0.472   1.152   8.552  0.1398 -0.3750 -0.5312
  960TP3     H114699   0.541   1.168   8.488  1.0788 -1.6450  0.1110
  960TP3     H214700   0.497   1.205   8.628  0.3680 -0.7684 -0.3298
  961TP3      O14701   1.846   2.103   7.798  0.0143  0.1095  0.0973
  961TP3     H114702   1.932   2.141   7.783 -0.4409  0.5933 -1.5115
  961TP3     H214703   1.789   2.145   7.733 -1.7372  0.7420  1.9191
  962TP3      O14704   1.716   0.365   0.280 -0.7900 -0.1347  0.0606
  962TP3     H114705   1.708   0.273   0.307 -1.1510 -0.4250 -0.9654
  962TP3     H214706   1.651   0.411   0.332  0.2324 -0.2364  1.4813
  963TP3      O14707   2.492   2.287   9.751  0.2616 -0.0147 -0.3725
  963TP3     H114708   2.547   2.266   9.675 -2.5117 -1.8756 -2.0787
  963TP3     H214709   2.418   2.226   9.743 -1.4369  1.5091  2.4269
  964TP3      O14710   1.233   4.752   6.545 -0.1270  0.3800 -0.0496
  964TP3     H114711   1.266   4.669   6.579  0.7516  0.7001 -0.0905
  964TP3     H214712   1.165   4.726   6.482  0.3660 -0.3313 -0.3123
  965TP3      O14713   0.685   1.581   9.496  0.0100  0.3881 -0.2260
  965TP3     H114714   0.779   1.599   9.500  0.0303  0.1598  0.4629
  965TP3     H214715   0.678   1.486   9.487 -0.1621  0.1930  1.5655
  966TP3      O14716   2.695   0.255   7.469 -0.7975 -0.2410 -0.1184
  966TP3     H114717   2.749   0.260   7.548 -0.4176 -1.0601 -0.3190
  966TP3     H214718   2.735   0.320   7.410 -0.0172 -0.8328 -0.2625
  967TP3      O14719   0.541   1.874   8.314  0.0211  0.1503  0.4240
  967TP3     H114720   0.594   1.944   8.353  0.3327  0.2499 -0.1588
  967TP3     H214721   0.580   1.793   8.347 -0.0140  0.2423  0.6903
  968TP3      O14722   1.335   4.858   8.614 -0.3151 -0.1759  0.0004
  968TP3     H114723   1.309   4.783   8.562 -0.0295 -0.6419  0.5163
  968TP3     H214724   1.275   4.928   8.588 -3.3384 -1.6647  2.4179
  969TP3      O14725   1.534   4.559   0.162 -0.0198  0.8553  0.0143
  969TP3     H114726   1.568   4.492   0.221 -0.8431  0.9568  0.6125
  969TP3     H214727   1.474   4.513   0.104  1.5802  0.5538 -1.4727
  970TP3      O14728   3.537   5.156   8.530 -0.0760  0.3091  0.3223
  970TP3     H114729   3.484   5.077   8.546  0.8816 -0.6168 -0.9113
  970TP3     H214730   3.622   5.122   8.502  1.0035  1.7843  1.6784
  971TP3      O14731   2.430   1.372   7.481 -0.0899  0.1562 -0.6026
  971TP3     H114732   2.432   1.312   7.556  0.8941 -0.4716 -1.1083
  971TP3     H214733   2.446   1.317   7.405  0.2453  0.9751 -1.1428
  972TP3      O14734   4.072   1.367   7.703 -0.3567  0.6565 -0.1355
  972TP3     H114735   3.993   1.405   7.665  0.5858  2.2415 -0.6517
  972TP3     H214736   4.143   1.400   7.647  0.9330  1.7277  1.9835
  973TP3      O14737   2.911   1.300   3.115 -0.2599 -0.0192 -0.0132
  973TP3     H114738   2.934   1.390   3.138  0.5437 -0.4114  0.8144
  973TP3     H214739   2.993   1.251   3.126 -0.8646 -0.9901  0.3347
  974TP3      O14740   2.497   5.199   9.106 -0.0581 -0.1199  1.2942
  974TP3     H114741   2.424   5.252   9.073  0.1298 -0.0825  0.9367
  974TP3     H214742   2.492   5.208   9.201 -0.8265 -0.5185  1.3009
  975TP3      O14743   4.992   4.001   1.494 -0.2266  0.1320 -0.1836
  975TP3     H114744   5.006   3.967   1.405 -0.4689 -1.2004  0.2624
  975TP3     H214745   4.903   4.036   1.493 -0.9493 -1.6192  0.0318
  976TP3      O14746   2.190   3.743   1.205  0.6056  0.3127 -0.2481
  976TP3     H114747   2.221   3.780   1.288 -0.6434  0.9691 -0.0478
  976TP3     H214748   2.254   3.773   1.140  3.5146 -2.8753  0.8363
  977TP3      O14749   3.999   5.048   8.402  0.0187 -0.5837 -0.2425
  977TP3     H114750   4.001   5.142   8.388 -0.1389 -0.0581  2.6107
  977TP3     H214751   3.920   5.033   8.455 -0.0694 -2.3653 -0.7984
  978TP3      O14752   1.371   2.661   0.111 -0.0007  0.0833  0.2436
  978TP3     H114753   1.320   2.704   0.043  1.2663  1.2712  0.0062
  978TP3     H214754   1.366   2.720   0.187 -0.2066 -0.5179  0.7059
  979TP3      O14755   1.935   0.640   7.024 -0.0374 -0.4546 -0.2893
  979TP3     H114756   1.930   0.685   6.940 -2.3240 -0.0489 -0.0072
  979TP3     H214757   1.936   0.547   7.001 -1.9959 -0.3942 -0.8120
  980TP3      O14758   4.754   0.592   7.587  0.3716 -0.4147  0.2140
  980TP3     H114759   4.742   0.600   7.681 -1.5051 -2.5311  0.2625
  980TP3     H214760   4.670   0.620   7.550  1.0664  0.3443 -0.8300
  981TP3      O14761   2.988   2.978   6.604  0.4663  0.4466  0.0508
  981TP3     H114762   3.036   2.902   6.570  1.8717  0.8029  1.0849
  981TP3     H214763   2.956   2.949   6.690 -1.0227  0.2905 -0.5381
  982TP3      O14764   3.955   1.826   1.135 -0.2692  0.2402  0.1508
  982TP3     H114765   4.028   1.786   1.183 -0.1099  1.2357  0.7710
  982TP3     H214766   3.969   1.921   1.146 -1.5542  0.4415  0.1165
  983TP3      O14767   0.669   0.930   6.755 -0.0007  0.4691 -0.2379
  983TP3     H114768   0.758   0.897   6.746  0.0048  0.6089 -0.7120
  983TP3     H214769   0.614   0.853   6.742  0.0744  0.0243  1.7677
  984TP3      O14770   1.512   3.259   9.999  0.2613  0.4227  0.0520
  984TP3     H114771   1.427   3.217   9.981 -0.0239  0.1998  1.7904
  984TP3     H214772   1.576   3.196   9.967 -0.1981 -0.4805  0.8682
  985TP3      O14773   1.676   1.966   9.658  0.0352  0.1036 -0.3038
  985TP3     H114774   1.647   1.980   9.567  1.8701 -0.2395 -0.9894
  985TP3     H214775   1.656   2.048   9.702 -1.8525 -0.0862 -0.7260
  986TP3      O14776   4.104   4.651   0.789 -0.3160  0.1830 -0.0862
  986TP3     H114777   4.184   4.680   0.744  0.0250  0.2410  0.5412
  986TP3     H214778   4.036   4.710   0.757 -0.2195 -0.1862 -1.0099
  987TP3      O14779   2.597   4.405   8.172 -0.4380 -0.4098  0.4222
  987TP3     H114780   2.561   4.460   8.102 -0.6474  0.6014  1.2956
  987TP3     H214781   2.643   4.467   8.230 -0.0421 -1.2560  1.0415
  988TP3      O14782   1.196   4.543   0.784  0.2313 -0.3969 -0.2333
  988TP3     H114783   1.138   4.519   0.712  0.5255  0.4497 -0.7663
  988TP3     H214784   1.146   4.521   0.863 -1.0684  0.8434 -0.6680
  989TP3      O14785   2.599   3.109   7.892  0.3577  0.0121  0.1605
  989TP3     H114786   2.662   3.161   7.842  1.2319 -0.0734  1.1560
  989TP3     H214787   2.553   3.172   7.946  1.4896 -0.2164  1.4459
  990TP3      O14788   5.097   0.567   8.097 -0.5978  0.4426  0.8340
  990TP3     H114789   5.038   0.493   8.081 -0.6724  0.9704 -1.7692
  990TP3     H214790   5.041   0.644   8.089 -0.0328  0.8707  0.9591
  991TP3      O14791   2.537   2.183   8.429  0.3110 -0.2845  0.5675
  991TP3     H114792   2.472   2.253   8.427 -0.0895 -0.6548  0.4204
  991TP3     H214793   2.497   2.111   8.379  0.5966 -0.7205  0.9517
  992TP3      O14794   0.223   2.493   7.657  0.0017  0.0569  0.1190
  992TP3     H114795   0.130   2.477   7.640 -0.1114  0.8732 -0.1034
  992TP3     H214796   0.253   2.539   7.578  0.3250  0.7690  0.6518
  993TP3      O14797   1.671   4.743   8.759  0.0354  1.0513 -0.0427
  993TP3     H114798   1.684   4.657   8.720 -0.0586  1.1488 -0.2875
  993TP3     H214799   1.678   4.804   8.686  0.2180  1.2607  0.1476
  994TP3      O14800   2.520   0.437   0.140  0.1297 -0.8317  0.4292
  994TP3     H114801   2.488   0.356   0.100  1.5806 -0.0252 -2.7069
  994TP3     H214802   2.442   0.491   0.151 -0.3544 -0.9707 -1.8490
  995TP3      O14803   5.212   0.512   2.310  0.0972  0.3616  0.2011
  995TP3     H114804   5.233   0.528   2.218  0.0537  1.4400  0.3669
  995TP3     H214805   5.130   0.463   2.308 -0.1971  0.8658 -0.3301
  996TP3      O14806   1.407   0.814   8.267  0.4258  0.4185  0.1709
  996TP3     H114807   1.349   0.821   8.192  0.5904 -0.0370 -0.0029
  996TP3     H214808   1.349   0.813   8.343  0.1504 -0.7822 -0.0364
  997TP3      O14809   2.053   3.388   8.221 -0.3790 -0.3840  0.1346
  997TP3     H114810   2.068   3.294   8.209  0.2704 -0.1428 -1.0621
  997TP3     H214811   2.091   3.407   8.307 -1.5865 -1.4246  0.9290
  998TP3      O14812   3.352   3.236   8.503 -0.3747 -0.1648  0.1925
  998TP3     H114813   3.311   3.161   8.546 -1.5353 -0.4069 -1.2620
  998TP3     H214814   3.400   3.198   8.429  1.0516  0.3082  0.8400
  999TP3      O14815   0.110   2.950   8.330 -0.1253  0.2148  0.3861
  999TP3     H114816   0.159   2.921   8.253 -1.6733 -3.5934  0.5767
  999TP3     H214817   0.025   2.978   8.295 -0.1648  0.2927  0.5468
 1000TP3      O14818   4.882   2.528   6.595  0.3917  0.4871 -0.6142
 1000TP3     H114819   4.951   2.573   6.643 -0.2059 -0.6635  1.4173
 1000TP3     H214820   4.929   2.460   6.545  0.9089  0.8920 -0.6844
 1001TP3      O14821   4.412   1.469   7.988 -0.2216 -0.0604 -0.3486
 1001TP3     H114822   4.321   1.470   7.959 -0.0014 -0.6177 -1.1227
 1001TP3     H214823   4.418   1.395   8.048 -0.4619  0.4948  0.3673
 1002TP3      O14824   2.793   4.188   7.466  0.2074  0.7750  0.0006
 1002TP3     H114825   2.830   4.118   7.520  1.0593  1.5269  0.4229
 1002TP3     H214826   2.706   4.156   7.442 -0.9571  1.0625  3.2212
 1003TP3      O14827   3.454   5.039   2.238  0.0741  0.3353  0.1999
 1003TP3     H114828   3.422   4.989   2.163  0.5145  0.6069 -0.1791
 1003TP3     H214829   3.415   5.126   2.228 -0.1469  0.2698  0.4805
 1004TP3      O14830   4.421   4.511   7.814  0.1309 -0.2236 -0.1137
 1004TP3     H114831   4.465   4.568   7.877  1.1771 -0.5865 -0.5004
 1004TP3     H214832   4.373   4.449   7.868  2.8818 -2.0270  0.4780
 1005TP3      O14833   2.448   2.453   0.878 -0.1085  0.7263 -0.2993
 1005TP3     H114834   2.470   2.450   0.785  1.1034 -1.4258 -0.0154
 1005TP3     H214835   2.496   2.380   0.916 -0.8657  1.3285  1.9768
 1006TP3      O14836   0.612   5.212   0.571  0.5544  0.3562 -0.1762
 1006TP3     H114837   0.628   5.303   0.548 -1.0896  0.9198  0.7647
 1006TP3     H214838   0.628   5.164   0.490  0.7027  1.5728 -0.8928
 1007TP3      O14839   4.350   3.218   6.995 -0.5821 -0.0290  0.0086
 1007TP3     H114840   4.370   3.137   7.043 -1.7188  0.5391  1.5497
 1007TP3     H214841   4.434   3.261   6.984  0.0200 -1.3514 -0.7224
 1008TP3      O14842   4.176   3.825   9.232  0.3848 -0.0115  0.3038
 1008TP3     H114843   4.155   3.879   9.307  0.3548 -0.6307  0.7462
 1008TP3     H214844   4.107   3.759   9.229 -0.4489  0.8762 -1.1454
 1009TP3      O14845   3.671   2.681   7.195  0.4665  0.3540  0.0639
 1009TP3     H114846   3.641   2.756   7.145 -1.8758  1.1415  2.4082
 1009TP3     H214847   3.643   2.699   7.285  2.6484 -1.8668  1.3243
 1010TP3      O14848   3.934   2.645   6.888  0.0026  0.4119 -0.4432
 1010TP3     H114849   3.843   2.641   6.918 -0.2044  1.8409 -0.8355
 1010TP3     H214850   3.982   2.591   6.950 -0.8822  0.8954  0.6850
 1011TP3      O14851   0.937   0.341   8.749 -0.6693  0.1248  0.5055
 1011TP3     H114852   0.905   0.431   8.755 -1.2027  0.0170 -0.4923
 1011TP3     H214853   0.870   0.289   8.794 -0.6505  0.1621  0.5765
 1012TP3      O14854   1.753   5.070   7.618 -0.5812  0.7274  0.0282
 1012TP3     H114855   1.775   5.162   7.607 -0.6008  0.6503 -0.6924
 1012TP3     H214856   1.766   5.032   7.532 -1.3837  0.2175  0.1272
 1013TP3      O14857   4.976   3.715   6.653 -0.3354  0.1698  0.3311
 1013TP3     H114858   5.037   3.645   6.630 -0.6588 -0.1459  0.4281
 1013TP3     H214859   4.890   3.682   6.627 -0.7099 -0.1762  1.8978
 1014TP3      O14860   1.167   2.756   8.051  0.1622  0.3007 -0.2909
 1014TP3     H114861   1.131   2.828   7.999  1.9857  1.0487 -0.6119
 1014TP3     H214862   1.253   2.788   8.079  0.0692 -0.8720  1.5110
 1015TP3      O14863   2.240   4.505   8.099 -0.1507  0.4291 -0.1269
 1015TP3     H114864   2.330   4.524   8.073  1.0641 -1.1178  2.5178
 1015TP3     H214865   2.237   4.410   8.107 -2.2410  0.3959 -0.7640
 1016TP3      O14866   4.428   0.986   1.154 -0.0238 -0.1275 -0.5332
 1016TP3     H114867   4.493   0.967   1.222 -0.0089  2.5617  0.2961
 1016TP3     H214868   4.414   0.902   1.110  2.7648 -1.1529  0.3396
 1017TP3      O14869   1.356   4.259   0.898 -0.3838 -0.0635 -0.0592
 1017TP3     H114870   1.361   4.285   0.806  0.9799 -0.1174 -0.0154
 1017TP3     H214871   1.284   4.196   0.901  0.4237 -1.1010 -1.3489
 1018TP3      O14872   3.619   1.497   7.342 -0.2775  0.3581  0.4264
 1018TP3     H114873   3.661   1.485   7.428  0.2575  0.3310  0.1659
 1018TP3     H214874   3.646   1.585   7.315 -1.2342  0.7540  0.7118
 1019TP3      O14875   3.694   2.200   1.046 -0.3706  0.1925  0.1051
 1019TP3     H114876   3.658   2.288   1.058 -0.5996 -0.0306  1.1648
 1019TP3     H214877   3.725   2.199   0.955 -2.9672  0.4285 -0.8756
 1020TP3      O14878   3.538   2.332   0.279  0.6096 -0.1888 -0.0138
 1020TP3     H114879   3.468   2.397   0.284  2.0285  1.4525 -0.2915
 1020TP3     H214880   3.526   2.291   0.194  0.5351  0.7817 -0.4921
 1021TP3      O14881   4.150   3.423   1.069 -0.2936  0.6377 -0.0425
 1021TP3     H114882   4.182   3.423   0.979 -2.2854  1.0793 -0.8276
 1021TP3     H214883   4.110   3.510   1.079  3.2360  2.1669  2.6272
 1022TP3      O14884   1.338   4.553   7.701 -0.0822 -0.6005  0.4935
 1022TP3     H114885   1.337   4.568   7.796 -2.2295 -1.4929  0.6615
 1022TP3     H214886   1.431   4.552   7.678  0.4782 -0.1406  2.5476
 1023TP3      O14887   0.279   0.899   0.933 -0.2440 -0.2438 -0.2720
 1023TP3     H114888   0.362   0.855   0.951  0.5318  1.3426  0.2299
 1023TP3     H214889   0.268   0.892   0.839  1.2708  0.8343 -0.5738
 1024TP3      O14890   0.500   3.835   6.593  0.6304 -0.1077 -0.3136
 1024TP3     H114891   0.428   3.887   6.555 -0.2220 -1.1140 -0.1181
 1024TP3     H214892   0.567   3.900   6.614  1.0330  0.5481 -3.2231
 1025TP3      O14893   0.773   0.766   9.220 -0.1154 -0.4942  0.5780
 1025TP3     H114894   0.833   0.839   9.237  0.1604 -0.2218 -1.4169
 1025TP3     H214895   0.802   0.730   9.136 -2.2017 -0.9102 -0.0002
 1026TP3      O14896   1.646   1.570   7.195 -0.1092 -0.5725 -0.0740
 1026TP3     H114897   1.598   1.505   7.145  0.7706  0.4307 -2.3918
 1026TP3     H214898   1.702   1.519   7.253 -0.5330 -1.8424 -0.7390
 1027TP3      O14899   4.013   0.904   7.696  0.4094 -0.1496  0.6271
 1027TP3     H114900   4.005   0.873   7.606  1.4298 -1.7140  1.0422
 1027TP3     H214901   3.926   0.935   7.719  0.0469 -0.0771 -0.7655
 1028TP3      O14902   1.426   1.544   2.705 -0.3111 -0.0513 -0.1004
 1028TP3     H114903   1.419   1.639   2.715 -0.4911 -0.2002  1.5834
 1028TP3     H214904   1.358   1.521   2.642  0.1437  0.9998 -0.9838
 1029TP3      O14905   1.982   3.114   7.347 -0.3094 -0.3540  0.0847
 1029TP3     H114906   2.065   3.097   7.392 -0.7532 -1.2313  0.5869
 1029TP3     H214907   1.937   3.177   7.403  1.0732  2.2094 -1.4725
 1030TP3      O14908   4.724   1.002   2.038  0.3097 -0.2305  0.3412
 1030TP3     H114909   4.668   1.009   2.115 -0.5595  1.1455 -0.3753
 1030TP3     H214910   4.800   1.056   2.059  0.1954 -0.0711  0.3503
 1031TP3      O14911   3.621   3.479   2.851 -0.0347 -0.5306  0.0664
 1031TP3     H114912   3.553   3.533   2.811 -0.4306 -0.0289  1.3747
 1031TP3     H214913   3.669   3.539   2.907 -0.5628 -1.5238  1.6500
 1032TP3      O14914   4.642   0.088   9.468 -0.0894 -0.1951  0.1465
 1032TP3     H114915   4.717   0.144   9.450  0.3642  0.0011  2.4554
 1032TP3     H214916   4.597   0.128   9.542  0.8556 -3.3152  2.6460
 1033TP3      O14917   4.846   0.694   8.017 -0.3957 -0.2460  0.4218
 1033TP3     H114918   4.863   0.758   7.947  2.7136 -1.1518  0.1978
 1033TP3     H214919   4.838   0.747   8.096  1.5228  0.5528  0.1504
 1034TP3      O14920   0.233   2.160   8.307 -0.2912  0.2086  0.4293
 1034TP3     H114921   0.295   2.124   8.245 -0.4091 -0.4212  0.6703
 1034TP3     H214922   0.281   2.164   8.390 -0.0201  1.3738  0.2355
 1035TP3      O14923   3.614   4.306   7.616  0.2003 -0.0429 -0.1309
 1035TP3     H114924   3.521   4.328   7.627 -0.3697 -2.0841 -0.3386
 1035TP3     H214925   3.642   4.357   7.540 -0.0269  2.4579  1.3418
 1036TP3      O14926   3.384   2.241   8.823  0.3834 -0.0028  0.5111
 1036TP3     H114927   3.348   2.238   8.734  1.0933 -0.8535  0.2339
 1036TP3     H214928   3.479   2.238   8.810  0.5618  1.4859  1.2432
 1037TP3      O14929   5.118   4.128   6.966  0.1732 -0.3437 -0.4668
 1037TP3     H114930   5.076   4.052   6.926  0.7457  0.1788 -2.1539
 1037TP3     H214931   5.082   4.203   6.918 -1.0048  0.5812  1.6823
 1038TP3      O14932   1.053   5.256   1.987 -0.0488 -0.2756  0.0859
 1038TP3     H114933   1.037   5.204   1.908  0.0084  0.1701 -0.2262
 1038TP3     H214934   1.145   5.282   1.980 -0.3263  0.6448 -0.2379
 1039TP3      O14935   1.094   2.199   8.957 -0.2129  0.8926 -0.1981
 1039TP3     H114936   1.024   2.242   9.007 -0.6060  0.5178 -0.4287
 1039TP3     H214937   1.061   2.194   8.868 -0.7962 -1.2113  0.0904
 1040TP3      O14938   2.795   2.583   0.687  0.8781  0.0686  0.3317
 1040TP3     H114939   2.789   2.510   0.748 -0.7444 -0.5377 -0.4942
 1040TP3     H214940   2.843   2.547   0.611  2.1210  0.5693  0.8445
 1041TP3      O14941   3.921   1.995   7.564  0.2541  0.1727 -0.0603
 1041TP3     H114942   3.829   1.985   7.589 -0.4012  0.8270 -2.0230
 1041TP3     H214943   3.960   2.043   7.638 -1.0910  0.3405  0.5843
 1042TP3      O14944   1.894   1.809   0.729 -0.0245  0.5519 -0.0405
 1042TP3     H114945   1.815   1.863   0.727 -1.1460 -1.0395 -0.6156
 1042TP3     H214946   1.949   1.845   0.659 -0.5887  1.1510 -0.1901
 1043TP3      O14947   4.161   0.821   1.701 -0.4202  0.6227 -0.9935
 1043TP3     H114948   4.239   0.872   1.681 -0.4950  1.3642  0.4423
 1043TP3     H214949   4.189   0.759   1.769 -1.2410  1.4789  0.1669
 1044TP3      O14950   2.677   0.529   9.436 -0.9329  0.1349 -0.6289
 1044TP3     H114951   2.673   0.569   9.349  0.1390  2.4822  0.2940
 1044TP3     H214952   2.656   0.601   9.496  1.1695 -0.6251  1.1766
 1045TP3      O14953   3.468   0.484   2.024 -0.9644  0.4290 -0.2240
 1045TP3     H114954   3.529   0.537   2.076 -1.7360  0.5109  0.6367
 1045TP3     H214955   3.392   0.472   2.082 -0.7768 -1.7236 -0.3105
 1046TP3      O14956   3.015   1.402   1.765 -0.1299 -0.0410  0.5432
 1046TP3     H114957   3.079   1.474   1.767 -0.2820  0.0848  1.0738
 1046TP3     H214958   3.059   1.330   1.810  0.2820 -0.5094 -0.5831
 1047TP3      O14959   0.120   4.210   9.103  0.0305 -1.0814 -0.0697
 1047TP3     H114960   0.145   4.194   9.194 -0.1083 -0.7622  0.0229
 1047TP3     H214961   0.069   4.290   9.105  0.3809 -0.8423 -0.4888
 1048TP3      O14962   4.841   2.242   8.146 -0.3295  0.5763  0.4749
 1048TP3     H114963   4.775   2.208   8.206  0.0173 -2.4642 -0.7262
 1048TP3     H214964   4.792   2.303   8.090 -2.1474 -1.4624 -0.2806
 1049TP3      O14965   4.254   1.524   6.598  0.2941  0.3866  0.1048
 1049TP3     H114966   4.290   1.580   6.668 -0.8469  1.6770 -0.3026
 1049TP3     H214967   4.164   1.506   6.625 -0.1406  0.8385 -0.9908
 1050TP3      O14968   0.204   3.937   7.936 -0.3619 -0.0183 -0.1159
 1050TP3     H114969   0.201   3.841   7.943  2.3713 -0.1411  0.8263
 1050TP3     H214970   0.293   3.959   7.963 -1.1739  2.8834  0.4727
 1051TP3      O14971   4.758   1.657   7.479  0.4509  0.1228 -0.3386
 1051TP3     H114972   4.836   1.657   7.425  0.4029  0.4477 -0.4106
 1051TP3     H214973   4.686   1.646   7.417  0.2790  2.0562 -0.5367
 1052TP3      O14974   2.760   0.499   0.516  0.2210  0.7689  0.2605
 1052TP3     H114975   2.803   0.580   0.487 -0.4968  1.3328  0.7347
 1052TP3     H214976   2.804   0.476   0.597  0.9549  0.2317 -0.2694
 1053TP3      O14977   4.713   4.066   0.289  0.0399 -0.7097 -0.2070
 1053TP3     H114978   4.726   4.073   0.384  1.6600 -0.1220 -0.4256
 1053TP3     H214979   4.633   4.015   0.279  0.7665 -2.3236  1.4768
 1054TP3      O14980   0.981   1.492   6.786  0.0512 -0.2943 -0.2356
 1054TP3     H114981   0.895   1.457   6.809  0.6936 -1.8979 -0.1537
 1054TP3     H214982   1.004   1.447   6.705  0.0702  1.4518 -1.2577
 1055TP3      O14983   1.072   3.972   8.473  0.1200  0.3237  0.5347
 1055TP3     H114984   1.005   3.980   8.405 -1.2882 -0.2325  1.8102
 1055TP3     H214985   1.073   4.057   8.516  2.9882  1.6714 -1.8322
 1056TP3      O14986   1.285   0.834   0.964  0.0950  0.1538  0.4967
 1056TP3     H114987   1.263   0.815   0.873 -1.9217 -0.4215  1.0520
 1056TP3     H214988   1.268   0.928   0.973  0.8222  0.3239  0.1581
 1057TP3      O14989   3.604   0.506   0.939  0.1619  1.1558 -0.0595
 1057TP3     H114990   3.551   0.538   0.866 -0.5796 -0.5459 -0.3158
 1057TP3     H214991   3.552   0.525   1.017 -0.2375  0.7054 -0.2061
 1058TP3      O14992   1.072   1.583   7.871  0.2596  0.1485  0.1089
 1058TP3     H114993   1.078   1.639   7.794  1.7183  1.9795  1.4430
 1058TP3     H214994   0.982   1.552   7.873 -0.3249  1.6720 -1.2447
 1059TP3      O14995   0.548   5.210   1.549 -0.3516  0.0836 -0.6359
 1059TP3     H114996   0.563   5.222   1.643 -0.7577 -0.1600 -0.5348
 1059TP3     H214997   0.459   5.241   1.535 -0.4052 -0.1708 -0.8822
 1060TP3      O14998   1.866   0.820   7.213  0.3036  0.8156  0.0035
 1060TP3     H114999   1.909   0.761   7.151  0.7122  0.3503  0.7192
 1060TP3     H215000   1.780   0.837   7.174  0.6092  0.6530 -0.7611
 1061TP3      O15001   2.825   2.671   7.651  0.3368  0.6893 -0.7345
 1061TP3     H115002   2.793   2.588   7.687  1.1795  1.0620  0.9345
 1061TP3     H215003   2.794   2.670   7.560 -1.9565 -0.2437 -0.0358
 1062TP3      O15004   0.384   1.975   8.096  0.2290  0.3769 -0.3704
 1062TP3     H115005   0.415   1.907   8.156  0.3499 -0.8283 -1.7351
 1062TP3     H215006   0.455   2.039   8.092  0.7515 -0.1924 -0.2219
 1063TP3      O15007   2.163   3.894   8.344 -0.0583 -0.4723 -0.0592
 1063TP3     H115008   2.095   3.865   8.284  1.5775 -0.5916 -1.9874
 1063TP3     H215009   2.214   3.816   8.362 -0.3123 -0.3565  1.2282
 1064TP3      O15010   1.962   4.788   6.743 -0.1520 -0.3728 -0.0118
 1064TP3     H115011   2.038   4.778   6.686  1.1895 -0.6078  1.7215
 1064TP3     H215012   1.933   4.878   6.729  0.8845 -0.0584 -0.1919
 1065TP3      O15013   3.891   4.205   9.699 -0.5287 -0.1510  0.3685
 1065TP3     H115014   3.959   4.258   9.740 -0.9794  1.1628 -0.5277
 1065TP3     H215015   3.809   4.249   9.721 -1.0956 -1.4664  1.0546
 1066TP3      O15016   2.714   3.431   0.006  0.2014 -0.6836 -0.8922
 1066TP3     H115017   2.685   3.344  -0.020  1.1643 -1.4467  0.4251
 1066TP3     H215018   2.799   3.442  -0.037  0.2034 -0.5076 -0.8464
 1067TP3      O15019   2.566   3.632  10.032 -0.2168 -0.4793 -0.0819
 1067TP3     H115020   2.643   3.653  10.085  0.9102 -1.7185 -1.1693
 1067TP3     H215021   2.571   3.538  10.018 -2.4891 -0.7707  0.6107
 1068TP3      O15022   0.553   1.094   9.728 -0.4786 -0.2750  0.2705
 1068TP3     H115023   0.555   1.056   9.640  1.7745  1.4406 -0.5126
 1068TP3     H215024   0.567   1.020   9.787  0.1735 -1.1662 -0.9577
 1069TP3      O15025   5.279   0.892   7.265  0.0185 -0.1598 -0.0079
 1069TP3     H115026   5.199   0.901   7.317 -0.5216  0.1212 -0.8540
 1069TP3     H215027   5.349   0.883   7.329 -0.4249  1.7758  0.8178
 1070TP3      O15028   3.545   2.890   7.109  0.0612  0.6061  0.4157
 1070TP3     H115029   3.551   2.958   7.042 -0.5364  0.7061  0.4569
 1070TP3     H215030   3.451   2.885   7.129 -0.5291 -2.9144 -2.3295
 1071TP3      O15031   3.360   0.348   0.751  0.3224 -0.0328  0.0630
 1071TP3     H115032   3.373   0.435   0.714  1.4795 -0.4700 -0.6060
 1071TP3     H215033   3.415   0.290   0.698  0.8529 -0.9205  1.5091
 1072TP3      O15034   2.259   1.766   8.857  0.4868  0.3788 -0.2120
 1072TP3     H115035   2.279   1.686   8.808  0.7755  0.6021 -0.4535
 1072TP3     H215036   2.337   1.820   8.849  0.8240  0.1298  1.0799
 1073TP3      O15037   4.041   5.256   9.742 -0.6301 -0.4293  0.1685
 1073TP3     H115038   4.114   5.304   9.780 -1.1163  0.8992 -0.5190
 1073TP3     H215039   4.030   5.180   9.799  0.2495  0.2026  1.2173
 1074TP3      O15040   3.759   0.361   7.270  0.1342 -0.3193 -0.0210
 1074TP3     H115041   3.752   0.268   7.246  0.2143 -0.0978 -0.9314
 1074TP3     H215042   3.696   0.405   7.213  2.2882  0.5767 -1.8780
 1075TP3      O15043   2.115   0.890   7.835 -0.0554 -0.1182  0.1468
 1075TP3     H115044   2.091   0.867   7.925  1.4470 -2.1348  0.1042
 1075TP3     H215045   2.033   0.886   7.787 -0.9146  1.1218  1.4114
 1076TP3      O15046   2.884   0.575   0.271 -0.0050 -0.4816 -0.1890
 1076TP3     H115047   2.817   0.551   0.207  0.6315 -1.3859 -0.5281
 1076TP3     H215048   2.878   0.507   0.338  0.1548 -0.2117  0.0995
 1077TP3      O15049   2.223   1.857   7.154 -0.3961  0.4843 -0.3678
 1077TP3     H115050   2.269   1.931   7.194  1.2009 -1.0836  0.8501
 1077TP3     H215051   2.284   1.822   7.089 -1.7031  1.0423 -1.9729
 1078TP3      O15052   5.024   1.178   0.832  0.5656  0.2116  0.3517
 1078TP3     H115053   5.110   1.149   0.864  2.1095  1.6957 -2.1059
 1078TP3     H215054   4.998   1.246   0.894  0.6184 -0.9117  1.6839
 1079TP3      O15055   0.089   0.934   0.598  1.2215  0.1816  0.1036
 1079TP3     H115056   0.042   0.971   0.523 -1.9393 -0.4978  1.5789
 1079TP3     H215057   0.102   0.842   0.576  2.5955  0.5221 -0.6007
 1080TP3      O15058   2.367   2.356   7.865 -0.1577 -0.1307 -0.4325
 1080TP3     H115059   2.343   2.399   7.948 -0.7021 -0.3981 -0.4416
 1080TP3     H215060   2.349   2.422   7.798  3.4195  1.3462 -0.1662
 1081TP3      O15061   4.764   3.923   8.878  0.7266 -0.4488 -0.4806
 1081TP3     H115062   4.668   3.917   8.874  0.6125 -2.6318  2.1744
 1081TP3     H215063   4.782   3.958   8.965  2.3237 -1.0026 -0.5573
 1082TP3      O15064   2.799   4.453   0.252 -0.1570 -0.4861  0.2673
 1082TP3     H115065   2.822   4.365   0.222  0.5053 -0.5806  1.0258
 1082TP3     H215066   2.712   4.468   0.216  0.0556 -1.1258 -0.5548
 1083TP3      O15067   1.618   2.194   9.794 -0.1497  0.2754  0.4413
 1083TP3     H115068   1.712   2.202   9.811 -0.1114  0.6293  0.0981
 1083TP3     H215069   1.578   2.184   9.880  0.2052  0.0974  0.5872
 1084TP3      O15070   1.819   2.465   9.381  0.4892 -0.3584 -0.2465
 1084TP3     H115071   1.903   2.427   9.353  0.4663 -0.4565 -0.1811
 1084TP3     H215072   1.817   2.551   9.340  0.1725 -0.7474 -1.0695
 1085TP3      O15073   4.266   1.508   7.538 -0.3598  0.3336 -0.0395
 1085TP3     H115074   4.360   1.504   7.557 -0.3590  0.3316 -0.0435
 1085TP3     H215075   4.260   1.553   7.454 -0.3387 -0.0010 -0.2256
 1086TP3      O15076   2.507   2.768   8.459  0.4015 -0.3618 -0.7478
 1086TP3     H115077   2.593   2.732   8.482  0.4689 -0.3679 -1.0093
 1086TP3     H215078   2.511   2.781   8.364  0.2749  0.0632 -0.6991
 1087TP3      O15079   1.184   2.479   9.204 -0.1472 -0.4221  0.7227
 1087TP3     H115080   1.148   2.475   9.116 -0.3865 -0.3961  0.8156
 1087TP3     H215081   1.107   2.487   9.261  0.0592  0.9393  0.8476
 1088TP3      O15082   3.584   3.049   7.879  0.1466 -0.1349 -0.2543
 1088TP3     H115083   3.504   3.049   7.827 -0.0887  1.4498  0.0657
 1088TP3     H215084   3.566   3.110   7.951  1.5995  0.1885 -0.1371
 1089TP3      O15085   1.626   2.284   6.616 -0.2195  0.1361  0.3725
 1089TP3     H115086   1.615   2.370   6.577  1.7354 -0.0957 -0.8414
 1089TP3     H215087   1.659   2.302   6.705 -1.0962  0.6356  0.6033
 1090TP3      O15088   2.129   2.314   0.920 -0.0262 -0.2257  0.3282
 1090TP3     H115089   2.222   2.324   0.902  0.2366 -1.3003  1.0220
 1090TP3     H215090   2.114   2.368   0.998 -0.4555  1.6451 -0.9687
 1091TP3      O15091   4.618   2.946   7.415 -0.2536 -0.0942 -0.4012
 1091TP3     H115092   4.663   2.880   7.467 -0.0996 -0.7459 -1.3375
 1091TP3     H215093   4.563   2.896   7.355  0.0786  0.6031 -1.3145
 1092TP3      O15094   4.422   0.153   7.388 -0.3613 -0.3230 -0.3552
 1092TP3     H115095   4.440   0.163   7.294  0.2709  1.9559 -0.0595
 1092TP3     H215096   4.334   0.187   7.399 -0.1026  0.2630 -0.0268
 1093TP3      O15097   0.412   0.352   2.533  1.0281 -0.5104  0.4185
 1093TP3     H115098   0.362   0.400   2.599 -0.8228 -0.4467 -0.9428
 1093TP3     H215099   0.361   0.362   2.453  0.4412 -4.7941  0.0325
 1094TP3      O15100   0.391   2.688   0.745 -0.2860 -0.1974  0.2955
 1094TP3     H115101   0.432   2.766   0.784  0.9895 -1.0241  0.6843
 1094TP3     H215102   0.456   2.656   0.682 -2.0002  0.6841 -2.0630
 1095TP3      O15103   1.995   1.118   1.264  0.5062 -0.0712 -0.5157
 1095TP3     H115104   2.071   1.174   1.278  0.0767  0.5770 -0.7122
 1095TP3     H215105   1.992   1.106   1.169  0.4321 -0.2007 -0.4975
 1096TP3      O15106   0.453   1.351   2.198  0.2104 -0.1886 -0.0305
 1096TP3     H115107   0.533   1.387   2.162  0.0175  0.5779  0.2891
 1096TP3     H215108   0.388   1.421   2.188 -0.2884 -0.6122  0.1784
 1097TP3      O15109   3.843   3.645   3.243 -0.3884  0.0455  0.2888
 1097TP3     H115110   3.907   3.711   3.216  0.0099 -0.7447 -0.7701
 1097TP3     H215111   3.777   3.645   3.174 -0.9629  0.0889  0.8308
 1098TP3      O15112   0.062   4.977   0.328  0.0786  0.2960 -0.2542
 1098TP3     H115113   0.101   4.890   0.320  0.4637  0.3574  0.8589
 1098TP3     H215114   0.029   4.996   0.240  0.2965 -0.8237 -0.5967
 1099TP3      O15115   5.112   3.831   0.666 -0.2232  0.2841  0.0847
 1099TP3     H115116   5.050   3.796   0.730 -0.0571  2.1690  1.3428
 1099TP3     H215117   5.061   3.839   0.585 -1.2084  0.4139  0.7032
 1100TP3      O15118   4.177   5.117   1.780 -0.5621  0.0676 -0.5324
 1100TP3     H115119   4.132   5.137   1.862 -0.4219  0.0502 -0.4505
 1100TP3     H215120   4.200   5.202   1.743  2.1838  0.0877  0.9980
 1101TP3      O15121   1.399   3.512   9.960  0.0253 -0.8527  0.0168
 1101TP3     H115122   1.386   3.534  10.052 -0.3574 -0.8082 -0.0435
 1101TP3     H215123   1.433   3.423   9.960  0.6946 -0.6034  0.2265
 1102TP3      O15124   4.605   4.885   7.734  0.0499  0.0472  0.0088
 1102TP3     H115125   4.634   4.958   7.680 -1.2787 -1.4041 -2.9178
 1102TP3     H215126   4.675   4.820   7.726  0.0422 -0.0089  0.3867
 1103TP3      O15127   0.293   0.008   1.507 -0.1036  0.4244  0.7846
 1103TP3     H115128   0.218  -0.051   1.500  1.1972 -1.3303  0.8925
 1103TP3     H215129   0.255   0.094   1.523 -2.1027 -0.2674  0.0119
 1104TP3      O15130   4.000   0.451   8.104  0.2589  0.1258  0.0517
 1104TP3     H115131   3.930   0.445   8.038 -0.1828  0.2375  0.4983
 1104TP3     H215132   4.026   0.543   8.102 -0.6511  0.4243  0.9173
 1105TP3      O15133   2.700   4.567   7.111 -0.0289 -0.2324  0.3586
 1105TP3     H115134   2.770   4.626   7.083  0.2230  0.3306  2.0635
 1105TP3     H215135   2.624   4.595   7.059  0.7167 -0.1211 -0.7121
 1106TP3      O15136   0.006   0.149   8.531  0.2855 -0.4841 -0.7697
 1106TP3     H115137   0.004   0.119   8.622  0.3093 -1.4105 -1.0542
 1106TP3     H215138   0.054   0.231   8.533 -1.4304  0.5633  0.3291
 1107TP3      O15139   2.496   1.240   9.138 -0.3560 -0.1463  0.0903
 1107TP3     H115140   2.454   1.296   9.202  0.6670 -0.0255  0.6681
 1107TP3     H215141   2.527   1.299   9.070 -0.9995 -0.2253 -0.2841
 1108TP3      O15142   4.459   0.353  10.077 -0.5142 -0.2396  0.3942
 1108TP3     H115143   4.382   0.314  10.035 -0.9806  0.8937  0.1577
 1108TP3     H215144   4.429   0.440  10.106  0.3774 -0.2102  1.2648
 1109TP3      O15145   0.831   4.123   1.644 -0.4276 -0.8526  0.3630
 1109TP3     H115146   0.778   4.054   1.606  0.0009 -0.4770 -0.9921
 1109TP3     H215147   0.793   4.204   1.610  2.1529 -0.6255 -2.3599
 1110TP3      O15148   0.283   3.222   0.415  0.0113 -0.1202 -0.2151
 1110TP3     H115149   0.197   3.255   0.442 -0.0283  0.3193 -0.8542
 1110TP3     H215150   0.311   3.166   0.488 -0.7222 -0.1035  0.0905
 1111TP3      O15151   1.616   3.942   1.414 -0.2670 -0.2932 -0.3241
 1111TP3     H115152   1.650   4.010   1.473 -1.2593 -1.1476  1.3049
 1111TP3     H215153   1.532   3.918   1.452 -0.2343 -1.9688 -1.2394
 1112TP3      O15154   1.181   1.323   9.509 -0.0826  0.0823  0.2427
 1112TP3     H115155   1.204   1.400   9.457 -1.6919  1.9074  2.0669
 1112TP3     H215156   1.225   1.336   9.593 -0.9223 -0.6040  0.8164
 1113TP3      O15157   0.743   3.811  10.041 -0.3212  0.6400  0.3934
 1113TP3     H115158   0.736   3.905  10.061 -0.1305  0.8640 -0.5332
 1113TP3     H215159   0.764   3.808   9.947  1.4030 -0.2612  0.7544
 1114TP3      O15160   3.663   3.339   6.447 -0.0502 -0.2149 -0.4268
 1114TP3     H115161   3.586   3.378   6.407  0.8515 -0.4255 -2.5260
 1114TP3     H215162   3.734   3.358   6.385  0.9543 -2.7359 -0.1713
 1115TP3      O15163   4.549   3.451   2.818  0.5607 -0.2361  0.6473
 1115TP3     H115164   4.611   3.429   2.887  1.5216  3.5478  1.2037
 1115TP3     H215165   4.593   3.425   2.737  1.4281 -0.5090  1.1901
 1116TP3      O15166   1.193   4.243   8.020  0.1662 -0.2187  0.0338
 1116TP3     H115167   1.208   4.198   8.103  0.8924  1.2125  0.7260
 1116TP3     H215168   1.101   4.269   8.024 -0.0209 -0.8590  0.0171
 1117TP3      O15169   2.603   4.263   8.535  0.2331 -0.4053 -0.1554
 1117TP3     H115170   2.519   4.293   8.502  0.6426  1.7433  0.6148
 1117TP3     H215171   2.598   4.277   8.630  1.6314  0.2483 -0.1548
 1118TP3      O15172   3.902   2.491   2.111  0.1319  0.2393  0.1291
 1118TP3     H115173   3.963   2.543   2.165 -0.4276  1.2635 -0.1873
 1118TP3     H215174   3.847   2.446   2.175  0.1037  0.6817  0.4235
 1119TP3      O15175   4.722   3.600   6.573 -0.3060 -0.0742  0.0159
 1119TP3     H115176   4.669   3.623   6.649 -1.0558 -1.4329 -0.0599
 1119TP3     H215177   4.684   3.517   6.541  1.6202 -0.9069 -0.2671
 1120TP3      O15178   2.247   1.875   9.818  0.1871 -0.3554  0.1823
 1120TP3     H115179   2.157   1.849   9.839  0.1929 -3.7350 -2.9574
 1120TP3     H215180   2.295   1.792   9.816  3.3641  1.2981  1.2743
 1121TP3      O15181   2.058   2.393   1.191  0.3743 -0.2057 -0.0135
 1121TP3     H115182   2.137   2.381   1.244  0.7134  0.4135 -0.3665
 1121TP3     H215183   1.997   2.440   1.249  0.1266 -1.0021  0.3800
 1122TP3      O15184   0.949   0.963   8.572  0.2124  0.1165 -0.1291
 1122TP3     H115185   1.008   1.005   8.634  1.5282 -0.0647 -1.2025
 1122TP3     H215186   0.993   0.971   8.487 -0.0257 -2.3338 -0.5772
 1123TP3      O15187   2.110   4.961   6.940 -0.5413 -0.1237  0.7706
 1123TP3     H115188   2.090   4.886   6.883 -0.3280 -1.3056  2.2107
 1123TP3     H215189   2.188   5.000   6.901 -1.8341  0.6790 -1.2096
 1124TP3      O15190   1.833   2.034   8.245 -0.1549  0.1116  0.1145
 1124TP3     H115191   1.928   2.024   8.250 -0.2694 -1.6738 -0.6200
 1124TP3     H215192   1.819   2.129   8.234  1.5997  0.2749 -1.0533
 1125TP3      O15193   0.434   1.625   9.292 -0.3003 -0.0478  0.0925
 1125TP3     H115194   0.420   1.619   9.197  1.8697 -0.4923 -0.2548
 1125TP3     H215195   0.451   1.534   9.319  0.2724  0.2303  0.6793
 1126TP3      O15196   2.130   0.473   0.241 -0.1644  0.2476  0.1146
 1126TP3     H115197   2.106   0.388   0.278  1.2041  0.7298  2.3331
 1126TP3     H215198   2.117   0.463   0.147  0.3641 -2.5563  0.2466
 1127TP3      O15199   1.578   0.786   9.625 -0.3807  0.3216  0.4460
 1127TP3     H115200   1.587   0.861   9.567  0.3539 -0.1789 -0.0912
 1127TP3     H215201   1.647   0.798   9.691 -0.0569 -0.0449  0.1753
 1128TP3      O15202   2.645   3.064   6.753  0.0277 -0.2233  0.3583
 1128TP3     H115203   2.701   3.018   6.816  1.2473 -0.5132 -0.8684
 1128TP3     H215204   2.648   3.009   6.675 -2.3612 -0.4595  0.3623
 1129TP3      O15205   4.461   3.820   8.875 -0.5628 -0.1452 -0.1121
 1129TP3     H115206   4.436   3.887   8.811 -1.9280  0.1891  0.7304
 1129TP3     H215207   4.419   3.740   8.842 -1.5733  0.1055  0.5396
 1130TP3      O15208   0.950   4.946   8.835  0.2731 -0.1494  0.4214
 1130TP3     H115209   1.018   4.997   8.878 -0.4863  1.3886 -0.1355
 1130TP3     H215210   0.992   4.862   8.816  1.3009 -0.0797  2.1093
 1131TP3      O15211   3.442   0.213  10.098 -0.0355 -0.4923 -0.0212
 1131TP3     H115212   3.366   0.266  10.075 -1.1597 -1.9550  0.2363
 1131TP3     H215213   3.456   0.230  10.191 -1.3208 -1.7228  0.4338
 1132TP3      O15214   2.431   4.865   1.748 -0.0005 -0.4292 -0.1488
 1132TP3     H115215   2.510   4.903   1.711 -1.4094  0.5219 -2.4142
 1132TP3     H215216   2.462   4.797   1.807  2.4975  0.4793 -0.3265
 1133TP3      O15217   0.250   0.516   0.972  0.0771 -0.2850 -0.0417
 1133TP3     H115218   0.339   0.517   1.008 -0.6087  0.0496  1.7649
 1133TP3     H215219   0.263   0.511   0.878  2.0005 -2.1061  0.2392
 1134TP3      O15220   1.790   0.158   7.799 -0.8837 -0.0373  0.1104
 1134TP3     H115221   1.803   0.240   7.750  0.0619  0.0040  0.4112
 1134TP3     H215222   1.728   0.182   7.868  0.1713  0.7176  0.8353
 1135TP3      O15223   4.476   0.341   9.589 -0.1240  0.3275  0.1189
 1135TP3     H115224   4.515   0.267   9.636  1.3304  0.1619 -1.2871
 1135TP3     H215225   4.505   0.418   9.638  1.8314  0.1928 -0.7444
 1136TP3      O15226   4.598   0.490   0.435 -0.1530  0.2418 -0.2804
 1136TP3     H115227   4.685   0.479   0.475  0.3754  2.3944 -0.7069
 1136TP3     H215228   4.539   0.444   0.494  1.3039 -1.7691 -0.2656
 1137TP3      O15229   1.334   2.344   1.046  0.0100 -0.4853 -0.1421
 1137TP3     H115230   1.281   2.395   0.984  1.1012 -0.2829 -0.9284
 1137TP3     H215231   1.276   2.330   1.120 -2.1652 -2.6294 -2.0428
 1138TP3      O15232   2.093   2.782   8.939  1.0788  0.0586  0.1525
 1138TP3     H115233   2.101   2.707   8.998  3.2283  0.1226  0.0345
 1138TP3     H215234   2.182   2.794   8.904  0.0243  0.4378 -2.6104
 1139TP3      O15235   4.419   4.253   7.720 -0.1491  0.1590  0.1984
 1139TP3     H115236   4.343   4.215   7.765 -1.2612 -0.1729 -1.8257
 1139TP3     H215237   4.418   4.345   7.746 -1.0980  0.1018  0.4250
 1140TP3      O15238   2.272   3.667   9.925 -0.5275  0.0941  0.0033
 1140TP3     H115239   2.283   3.593   9.865  3.3985 -0.8660  1.5309
 1140TP3     H215240   2.340   3.729   9.898 -2.5839  2.4395 -0.1204
 1141TP3      O15241   0.554   0.619   8.643 -0.3251  0.9856  0.0972
 1141TP3     H115242   0.539   0.626   8.548 -1.9024  1.2522  0.3351
 1141TP3     H215243   0.535   0.528   8.664 -2.0076  1.3770  0.4375
 1142TP3      O15244   2.575   3.945  10.039 -0.4214  0.7286  0.1119
 1142TP3     H115245   2.610   3.915  10.123  0.6707  0.9228 -0.2579
 1142TP3     H215246   2.587   3.871   9.980 -0.4344  0.8738 -0.0766
 1143TP3      O15247   3.267   2.555  10.052  0.3380 -0.0644  0.6151
 1143TP3     H115248   3.332   2.524   9.989 -0.0239 -3.0070  1.5270
 1143TP3     H215249   3.187   2.569  10.001  0.2314 -1.7644  0.2686
 1144TP3      O15250   0.110   0.252   1.632 -0.0845  0.2306  0.6232
 1144TP3     H115251   0.094   0.191   1.704  1.5889 -0.9656  0.0127
 1144TP3     H215252   0.190   0.298   1.657  0.1670  0.2454 -0.2004
 1145TP3      O15253   3.727   5.238   2.090 -0.1466 -0.1780  0.2308
 1145TP3     H115254   3.695   5.319   2.130  0.5364  0.8440 -1.2057
 1145TP3     H215255   3.667   5.223   2.017  0.4249 -0.3197 -0.2129
 1146TP3      O15256   2.833   1.997   8.670  0.3972  0.0088 -0.1482
 1146TP3     H115257   2.907   1.972   8.725  1.3162  0.6470 -1.0616
 1146TP3     H215258   2.779   2.053   8.726 -0.3640 -1.8617  1.0980
 1147TP3      O15259   3.733   4.079   0.667 -0.5021 -0.1028  0.2589
 1147TP3     H115260   3.747   4.102   0.576  1.4475  0.4555  0.6437
 1147TP3     H215261   3.642   4.103   0.685 -0.1896  2.1020 -0.8610
 1148TP3      O15262   0.864   3.280   6.675  0.4873 -0.2806 -0.9249
 1148TP3     H115263   0.876   3.305   6.583 -0.3737  3.3137 -0.2431
 1148TP3     H215264   0.844   3.363   6.719  2.3938 -1.6033  2.8190
 1149TP3      O15265   3.203   2.605   9.280 -0.1856  0.0889 -0.4798
 1149TP3     H115266   3.194   2.619   9.375 -0.6835 -0.8853 -0.3691
 1149TP3     H215267   3.286   2.558   9.270 -1.1163 -1.6730 -0.2965
 1150TP3      O15268   0.512   0.109   0.114  0.1836 -0.2136 -0.2289
 1150TP3     H115269   0.453   0.049   0.069  0.1345 -0.3191 -0.0259
 1150TP3     H215270   0.471   0.195   0.103  0.7620 -0.0643 -1.3678
 1151TP3      O15271   2.567   3.505   8.938  0.1787 -0.1919  0.1404
 1151TP3     H115272   2.486   3.551   8.960  0.1962  0.3418 -0.8568
 1151TP3     H215273   2.634   3.548   8.991 -0.3991 -1.7121  2.2425
 1152TP3      O15274   1.571   3.327   9.199 -0.5153  0.5838  0.2880
 1152TP3     H115275   1.617   3.251   9.234 -0.1057  0.9139  0.4741
 1152TP3     H215276   1.491   3.334   9.252 -1.3810 -0.6874 -0.7914
 1153TP3      O15277   2.401   4.372   8.371  0.2432  0.5661 -0.6616
 1153TP3     H115278   2.398   4.459   8.411  0.2887  1.0723 -1.7250
 1153TP3     H215279   2.465   4.381   8.299  1.6034 -0.8240  0.3072
 1154TP3      O15280   3.724   2.528   1.870 -0.1259  0.3126  0.1466
 1154TP3     H115281   3.774   2.511   1.949 -0.6600  0.7816  0.5945
 1154TP3     H215282   3.720   2.443   1.825  0.4647  0.1211  0.4507
 1155TP3      O15283   2.523   0.172   1.745  0.1603 -0.5330 -0.1405
 1155TP3     H115284   2.447   0.200   1.694 -0.4504 -0.1043  0.9749
 1155TP3     H215285   2.526   0.077   1.733 -0.9783 -0.6475  0.3554
 1156TP3      O15286   0.847   2.287   9.047 -0.2592 -0.1624  0.1545
 1156TP3     H115287   0.821   2.215   8.989  0.3949 -0.7933  0.6236
 1156TP3     H215288   0.823   2.256   9.135  0.0184  0.1935  0.3568
 1157TP3      O15289   0.680   3.513   7.661 -0.1502  0.2617 -0.4934
 1157TP3     H115290   0.750   3.529   7.724  0.3555  0.7080 -1.1473
 1157TP3     H215291   0.622   3.451   7.704  0.6316 -0.0910  0.0790
 1158TP3      O15292   4.477   3.720   7.656  0.0696 -0.4959  0.0038
 1158TP3     H115293   4.458   3.813   7.652 -1.1285 -0.7334 -0.3595
 1158TP3     H215294   4.546   3.712   7.721  1.0372  0.7629 -0.8213
 1159TP3      O15295   5.286   3.775   9.242  0.2906 -0.5142  0.2946
 1159TP3     H115296   5.265   3.764   9.150 -2.0746  0.4494  0.6479
 1159TP3     H215297   5.381   3.787   9.243  0.2722  0.5083 -2.1331
 1160TP3      O15298   1.143   3.246   9.526 -0.1117  0.2995  0.7677
 1160TP3     H115299   1.078   3.208   9.466  0.2966 -1.1698  1.2056
 1160TP3     H215300   1.093   3.305   9.582 -0.4176  2.1056 -1.3111
 1161TP3      O15301   4.836   4.029   1.272  0.0370 -0.5250 -0.1391
 1161TP3     H115302   4.755   4.005   1.226  0.6605 -0.5915 -1.2289
 1161TP3     H215303   4.837   4.124   1.270 -1.2218 -0.4063  2.0538
 1162TP3      O15304   4.975   0.197   7.604 -0.0314  0.2962  0.5306
 1162TP3     H115305   4.982   0.130   7.536  0.4054  0.8094  0.0665
 1162TP3     H215306   4.899   0.171   7.655 -0.3084 -0.1466 -0.0945
 1163TP3      O15307   1.549   0.881   9.226 -0.2293  0.5998 -0.3041
 1163TP3     H115308   1.608   0.922   9.289 -0.9191  2.3386 -0.7499
 1163TP3     H215309   1.593   0.893   9.142 -0.0664 -0.3239 -0.3707
 1164TP3      O15310   2.642   0.761   9.600 -0.1006 -0.4481  0.2353
 1164TP3     H115311   2.659   0.842   9.648  3.7973 -1.8193  1.5657
 1164TP3     H215312   2.597   0.704   9.664  0.0935 -0.4164  0.4011
 1165TP3      O15313   1.737   4.412   7.044 -0.0833 -1.0224  0.3569
 1165TP3     H115314   1.780   4.465   6.976 -0.8170 -1.3134 -0.3545
 1165TP3     H215315   1.737   4.323   7.008  0.2452 -1.3314  1.1066
 1166TP3      O15316   1.184   3.423   7.240  0.9534  0.2181 -0.2041
 1166TP3     H115317   1.126   3.365   7.191  1.1513  0.1601 -0.3679
 1166TP3     H215318   1.177   3.507   7.195 -1.5602  1.1489  1.6886
 1167TP3      O15319   1.762   1.499   8.085  0.3596 -0.0747  0.0290
 1167TP3     H115320   1.813   1.420   8.068 -0.2312 -0.2120 -1.1348
 1167TP3     H215321   1.702   1.506   8.011  0.0032  1.1442  0.4135
 1168TP3      O15322   3.048   0.487   1.015 -0.3568 -0.5543  0.0641
 1168TP3     H115323   3.138   0.472   1.045 -0.4384 -0.1890  0.5035
 1168TP3     H215324   2.993   0.462   1.089 -0.5745  0.1094  0.1304
 1169TP3      O15325   3.719   3.653   9.417  0.5064 -0.2055 -0.1084
 1169TP3     H115326   3.776   3.581   9.389 -0.5798  0.3986 -4.7832
 1169TP3     H215327   3.651   3.611   9.468  1.6788 -1.9199  0.1406
 1170TP3      O15328   1.425   3.266   9.440  0.9734  0.4678 -0.6158
 1170TP3     H115329   1.489   3.264   9.511  1.6132 -5.0078 -0.8720
 1170TP3     H215330   1.341   3.276   9.485  1.3676 -2.7393  1.1589
 1171TP3      O15331   4.803   2.091   0.276 -0.4519  0.1308  0.1603
 1171TP3     H115332   4.786   2.001   0.248 -0.6276 -0.2286  1.3798
 1171TP3     H215333   4.845   2.082   0.362 -0.5491  1.2188  0.3367
 1172TP3      O15334   4.282   2.189   0.995  0.0656  0.4778  0.5242
 1172TP3     H115335   4.316   2.108   1.032  0.5329  1.1883  1.7247
 1172TP3     H215336   4.226   2.225   1.064  0.0502  1.2772  0.1101
 1173TP3      O15337   4.203   1.030   2.816 -0.3423 -0.2680  0.2133
 1173TP3     H115338   4.170   0.946   2.848 -0.2856 -1.0236 -1.5744
 1173TP3     H215339   4.298   1.023   2.823 -0.3746  0.8945  2.9207
 1174TP3      O15340   2.182   2.560   2.613  0.6170  0.2105 -0.3854
 1174TP3     H115341   2.109   2.598   2.564  0.2898  1.9785  1.3214
 1174TP3     H215342   2.259   2.608   2.583  0.6182  0.3820 -0.1095
 1175TP3      O15343   3.035   4.332   9.918 -0.0488  0.8173 -0.2466
 1175TP3     H115344   2.942   4.310   9.922  0.2019 -0.3329 -0.4007
 1175TP3     H215345   3.077   4.266   9.974  0.7826  0.6142 -1.0950
 1176TP3      O15346   4.459   5.020   9.116  0.3839  0.2339 -0.3233
 1176TP3     H115347   4.496   5.090   9.170 -1.1976  0.3792  0.6420
 1176TP3     H215348   4.504   4.940   9.145 -0.2069  0.3626  1.0268
 1177TP3      O15349   0.484   1.540   8.468 -0.5451 -0.0370  0.1013
 1177TP3     H115350   0.463   1.578   8.553  1.3174  1.1908  0.0853
 1177TP3     H215351   0.537   1.463   8.489 -3.1693 -1.9905  0.0863
 1178TP3      O15352   2.529   3.847   7.605  0.1657  0.3374 -0.1656
 1178TP3     H115353   2.523   3.913   7.673 -0.3024  2.1021 -1.8270
 1178TP3     H215354   2.536   3.764   7.652  0.7486  1.5393  1.9993
 1179TP3      O15355   0.619   5.207   1.807  0.0921 -0.6754 -0.8031
 1179TP3     H115356   0.696   5.198   1.863  0.1958  0.8032 -0.6682
 1179TP3     H215357   0.556   5.255   1.861  0.8716  2.4969 -2.4946
 1180TP3      O15358   0.583   4.041   9.008 -0.8437 -0.3216  0.1875
 1180TP3     H115359   0.678   4.033   9.016 -0.6161  0.6328 -1.3058
 1180TP3     H215360   0.550   3.999   9.088  0.8218 -0.3810  0.9045
 1181TP3      O15361   4.062   2.236   8.735  0.0700  0.2084  0.8900
 1181TP3     H115362   4.154   2.223   8.714 -0.6989 -1.1664 -2.2363
 1181TP3     H215363   4.040   2.161   8.792  0.8329  0.5123  1.6003
 1182TP3      O15364   1.818   0.856   1.265 -0.3655 -0.4375  0.2330
 1182TP3     H115365   1.899   0.869   1.215  1.0061 -1.0721  2.1631
 1182TP3     H215366   1.782   0.774   1.231  1.0450 -1.3562  0.8584
 1183TP3      O15367   3.874   3.397   6.936 -0.2144 -0.5238 -0.0121
 1183TP3     H115368   3.969   3.392   6.951 -0.1194  0.0740 -0.3944
 1183TP3     H215369   3.847   3.475   6.984 -0.1435  0.5720 -1.6720
 1184TP3      O15370   2.698   0.643   7.536  0.7885 -0.3504 -0.2068
 1184TP3     H115371   2.632   0.585   7.573  0.0432  0.1816 -0.6452
 1184TP3     H215372   2.777   0.590   7.530 -0.1791 -1.7413 -1.7572
 1185TP3      O15373   2.648   4.554   7.742  0.1735 -0.8912  0.0270
 1185TP3     H115374   2.684   4.632   7.698  1.3773 -2.5017 -1.9988
 1185TP3     H215375   2.601   4.507   7.673  0.5510 -2.6073  0.8904
 1186TP3      O15376   2.625   1.185   9.492  0.3564  0.0078 -0.1842
 1186TP3     H115377   2.551   1.197   9.432  1.4249  0.9465 -1.3819
 1186TP3     H215378   2.674   1.267   9.486 -0.1874  0.7152  3.0483
 1187TP3      O15379   0.986   3.252   7.797  0.6250 -0.7855 -0.4820
 1187TP3     H115380   0.947   3.340   7.796  1.2668 -0.4609  0.9529
 1187TP3     H215381   0.982   3.223   7.706  0.3802  0.7205 -0.9764
 1188TP3      O15382   4.487   2.441   8.233  0.0503  0.0770 -0.2602
 1188TP3     H115383   4.556   2.445   8.167 -0.1205 -0.6921 -0.4984
 1188TP3     H215384   4.420   2.384   8.195 -0.5445  0.4986  0.1271
 1189TP3      O15385   4.874   1.275   0.052 -0.4307 -0.0545 -0.3719
 1189TP3     H115386   4.832   1.189   0.048 -1.9358  0.6441 -0.4792
 1189TP3     H215387   4.867   1.301   0.143  1.2513 -0.5998 -0.0625
 1190TP3      O15388   0.478   0.931   7.608  0.2082 -0.2394  0.1669
 1190TP3     H115389   0.462   1.021   7.638  0.8122  0.1179 -0.5713
 1190TP3     H215390   0.408   0.880   7.649  0.0109  0.5225  0.8016
 1191TP3      O15391   1.015   2.503   8.991  0.0925 -0.0011 -0.3389
 1191TP3     H115392   0.941   2.451   9.021  1.1859 -1.3034  0.1862
 1191TP3     H215393   0.988   2.594   9.007 -1.4388 -0.4358 -0.3191
 1192TP3      O15394   2.621   2.714   6.448  0.5032 -0.0848 -0.0212
 1192TP3     H115395   2.662   2.654   6.509 -0.9306  0.0117  1.0949
 1192TP3     H215396   2.672   2.795   6.455  2.2633 -1.0190 -1.3192
 1193TP3      O15397   3.964   2.449   0.638  0.5419  0.0685 -0.8963
 1193TP3     H115398   3.949   2.413   0.551 -0.5807 -0.6600 -0.4208
 1193TP3     H215399   4.053   2.422   0.660  0.7974  0.1693 -1.7621
 1194TP3      O15400   4.878   4.494   7.995 -0.2269 -0.0953  0.3706
 1194TP3     H115401   4.837   4.556   7.933 -0.9402  0.0858  1.0109
 1194TP3     H215402   4.918   4.428   7.939 -0.1417  0.5146 -0.3105
 1195TP3      O15403   3.766   4.249   7.018 -0.2631  0.0174 -0.5871
 1195TP3     H115404   3.693   4.287   7.067 -0.5613 -2.1409  0.7750
 1195TP3     H215405   3.825   4.323   7.002 -2.1243  1.5829 -0.6321
 1196TP3      O15406   1.106   2.247   0.478  0.0691  0.2125  0.6330
 1196TP3     H115407   1.033   2.204   0.523 -0.3767 -0.0026 -0.2612
 1196TP3     H215408   1.182   2.194   0.500 -0.2634 -0.2974  0.5664
 1197TP3      O15409   5.070   4.945   2.214  0.4740 -0.0489  0.5617
 1197TP3     H115410   5.082   4.974   2.124  0.1146 -1.7172 -0.0614
 1197TP3     H215411   4.978   4.962   2.234  0.3189 -0.5453  0.2774
 1198TP3      O15412   2.701   3.994   0.344 -0.3158 -0.7282 -0.2356
 1198TP3     H115413   2.689   3.931   0.415  0.5328  0.6356  1.1737
 1198TP3     H215414   2.612   4.018   0.318 -0.6374 -1.6469 -0.0172
 1199TP3      O15415   1.028   2.446   1.957  0.6073 -0.0528 -0.4450
 1199TP3     H115416   1.043   2.536   1.984 -0.2735 -0.5958  2.1124
 1199TP3     H215417   1.103   2.397   1.990 -0.0238 -0.5855  0.2498
 1200TP3      O15418   1.760   4.980   7.371  0.0191  0.1461  0.9261
 1200TP3     H115419   1.781   5.047   7.305 -1.7708  0.1263  0.2776
 1200TP3     H215420   1.745   4.900   7.320  0.0951 -0.2391  1.5008
 1201TP3      O15421   1.910   3.952   0.546 -0.0550  0.4358 -0.1009
 1201TP3     H115422   1.858   3.926   0.622 -1.0329  2.5462  0.0125
 1201TP3     H215423   1.884   4.042   0.528  0.2753  0.0795 -2.8471
 1202TP3      O15424   1.933   1.071   7.051  0.4099 -0.1166 -0.0424
 1202TP3     H115425   1.854   1.124   7.049 -0.1054 -0.8031  1.1250
 1202TP3     H215426   1.913   1.000   7.112  2.2163  0.1451  0.9259
 1203TP3      O15427   3.719   4.948   9.488  0.0617  0.2620 -0.2415
 1203TP3     H115428   3.741   4.938   9.581  1.4561 -0.6673 -0.6468
 1203TP3     H215429   3.769   4.880   9.444 -2.3331 -0.8485 -1.4590
 1204TP3      O15430   4.232   0.024   7.695 -0.0487  0.1152 -0.2332
 1204TP3     H115431   4.156   0.082   7.685 -0.4225 -0.2548  0.3926
 1204TP3     H215432   4.263   0.040   7.784 -0.1180 -0.5992 -0.0775
 1205TP3      O15433   4.811   5.137   7.588 -0.3731 -0.0871  0.0009
 1205TP3     H115434   4.793   5.154   7.681 -1.2125 -1.0734  0.0464
 1205TP3     H215435   4.855   5.216   7.557 -0.9942  0.6819  0.9975
 1206TP3      O15436   1.083   2.029   1.467 -0.1962  0.0708  0.0697
 1206TP3     H115437   1.122   1.963   1.525 -2.5373  0.0388  1.7531
 1206TP3     H215438   1.066   1.982   1.386 -2.5603 -1.7544  1.4879
 1207TP3      O15439   2.565   5.253   7.985  0.6960  0.1062 -0.1078
 1207TP3     H115440   2.512   5.288   7.913 -0.7530  0.9303  1.2778
 1207TP3     H215441   2.523   5.171   8.009  1.5283 -0.4669 -0.5590
 1208TP3      O15442   3.022   3.551   6.717  0.1742  0.5961  0.0810
 1208TP3     H115443   3.089   3.615   6.741  0.7070 -0.2466  0.9467
 1208TP3     H215444   2.945   3.603   6.698  0.5761  1.5005  0.8072
 1209TP3      O15445   2.428   3.738   8.766  0.1276 -0.7154  0.1334
 1209TP3     H115446   2.483   3.663   8.740  0.8877  0.5231 -2.1030
 1209TP3     H215447   2.338   3.706   8.756  0.4149 -1.0271 -2.0646
 1210TP3      O15448   0.169   1.503   7.895 -0.7270 -0.1855  0.0299
 1210TP3     H115449   0.248   1.491   7.947 -1.6707 -2.3345  1.0685
 1210TP3     H215450   0.097   1.494   7.957 -1.8251  1.3266 -0.9636
 1211TP3      O15451   4.982   2.151   9.038 -0.0460  0.0405 -0.1870
 1211TP3     H115452   5.045   2.126   8.970  0.8060 -0.7763  0.8779
 1211TP3     H215453   4.985   2.247   9.039  1.3916  0.0131  0.0179
 1212TP3      O15454   1.158   0.249   9.635  0.5577 -0.4688 -0.6304
 1212TP3     H115455   1.139   0.343   9.638  0.8199 -0.3628 -1.7132
 1212TP3     H215456   1.105   0.211   9.705 -0.9905  0.2523 -1.3582
 1213TP3      O15457   3.569   2.465   2.732 -0.6341  0.0500  0.9147
 1213TP3     H115458   3.587   2.456   2.638 -1.8678  1.0000  0.5553
 1213TP3     H215459   3.616   2.393   2.773 -0.2934 -0.5389 -0.4651
 1214TP3      O15460   5.016   0.916   8.178 -0.0360 -0.3159 -0.3367
 1214TP3     H115461   5.057   0.987   8.227  1.3450 -0.4715 -1.2134
 1214TP3     H215462   4.967   0.960   8.109  1.0293 -0.1984 -1.0379
 1215TP3      O15463   4.504   0.793   8.677 -0.3271  0.4961 -0.0524
 1215TP3     H115464   4.571   0.750   8.731 -0.2877  0.1443 -0.3752
 1215TP3     H215465   4.517   0.756   8.590 -0.8641  0.5226 -0.1457
 1216TP3      O15466   2.392   4.790   8.786 -0.0831  0.2611  0.3217
 1216TP3     H115467   2.366   4.846   8.712 -0.5188 -0.9973 -0.5170
 1216TP3     H215468   2.487   4.783   8.778  0.0851  1.6059  0.9823
 1217TP3      O15469   1.358   0.656   9.504 -0.1099 -0.4033 -0.0936
 1217TP3     H115470   1.367   0.679   9.412 -0.2252  0.0137 -0.0040
 1217TP3     H215471   1.448   0.657   9.538  0.1775 -2.5547 -0.6502
 1218TP3      O15472   4.620   3.632   8.630  0.1526  0.2334 -0.5281
 1218TP3     H115473   4.527   3.639   8.650  0.2170  2.0912 -0.7038
 1218TP3     H215474   4.624   3.573   8.555 -0.5922 -2.1124  1.1876
 1219TP3      O15475   1.141   3.848  10.045 -0.0893 -0.2859  0.2118
 1219TP3     H115476   1.088   3.928  10.055  1.0291  0.4515  0.4397
 1219TP3     H215477   1.143   3.810  10.133  1.7508  1.0086  0.7752
 1220TP3      O15478   3.671   0.392   7.869  0.5165 -0.0083 -0.1409
 1220TP3     H115479   3.674   0.484   7.898  0.2943  0.0236 -0.2212
 1220TP3     H215480   3.707   0.395   7.780 -1.6480  0.3681 -1.0780
 1221TP3      O15481   1.211   3.840   7.323 -0.0769  0.1347 -0.1969
 1221TP3     H115482   1.218   3.790   7.404 -3.0948 -0.7122 -0.3144
 1221TP3     H215483   1.178   3.778   7.258  2.4200  0.7369 -2.2340
 1222TP3      O15484   2.800   4.569   8.276  0.1935 -0.1761  0.5224
 1222TP3     H115485   2.872   4.522   8.234 -0.6220 -0.3738 -0.6979
 1222TP3     H215486   2.843   4.634   8.331  1.3444 -1.9002  1.7635
 1223TP3      O15487   2.347   4.083   8.508 -0.2386 -0.1603 -0.4669
 1223TP3     H115488   2.354   4.175   8.483 -1.4384 -0.0729 -0.5437
 1223TP3     H215489   2.332   4.037   8.425  0.3703 -0.4312 -0.4300
 1224TP3      O15490   3.645   3.469   1.802 -0.4440 -0.1948  0.6098
 1224TP3     H115491   3.667   3.497   1.713 -1.4609 -1.7727 -0.1651
 1224TP3     H215492   3.724   3.423   1.832 -0.0707  0.4058  0.5708
 1225TP3      O15493   3.406   0.372   7.942 -0.2198 -0.5865  0.5790
 1225TP3     H115494   3.499   0.348   7.936 -0.0291 -0.2810  2.0150
 1225TP3     H215495   3.405   0.467   7.932 -0.6258 -0.7640 -1.5583
 1226TP3      O15496   2.035   0.446   8.622 -0.5977  0.9905  0.2926
 1226TP3     H115497   2.110   0.505   8.629  1.7771 -1.8960  1.3440
 1226TP3     H215498   2.004   0.436   8.712 -1.3970  1.0861  0.0388
 1227TP3      O15499   0.379   2.164   8.536 -0.3730  0.0463 -0.1451
 1227TP3     H115500   0.371   2.088   8.594 -1.4353  0.1112 -0.1857
 1227TP3     H215501   0.451   2.214   8.573  0.0910 -0.7835  0.1115
 1228TP3      O15502   3.780   2.151   0.406 -0.1494  0.4003 -0.6931
 1228TP3     H115503   3.716   2.205   0.359 -1.4311 -0.3608  0.1066
 1228TP3     H215504   3.758   2.061   0.382 -0.1042  0.0633  0.4683
 1229TP3      O15505   1.344   4.265   9.939  0.4637 -0.7632  0.0581
 1229TP3     H115506   1.440   4.255   9.936  0.5319  0.0604 -1.6354
 1229TP3     H215507   1.310   4.179   9.917  0.8000 -1.1510  1.0203
 1230TP3      O15508   4.381   0.521   6.940 -0.0474 -0.1699 -0.8339
 1230TP3     H115509   4.449   0.585   6.918 -0.8410  0.6284 -1.0161
 1230TP3     H215510   4.395   0.449   6.879  1.7082 -0.8252  0.2547
 1231TP3      O15511   3.377   2.436   9.636 -0.5567 -0.3681 -0.3149
 1231TP3     H115512   3.333   2.364   9.592 -1.0153 -1.2457  1.4857
 1231TP3     H215513   3.336   2.515   9.599 -0.9209 -1.0396 -1.4071
 1232TP3      O15514   1.477   2.738   7.549 -0.6216 -0.5449 -0.1167
 1232TP3     H115515   1.519   2.770   7.469 -1.3235 -0.9248 -0.6447
 1232TP3     H215516   1.437   2.816   7.588  0.6645 -0.1414  0.4779
 1233TP3      O15517   3.832   3.064   7.660  0.6569  0.0063 -0.2051
 1233TP3     H115518   3.822   3.116   7.580  1.9719  0.8239  0.1486
 1233TP3     H215519   3.815   3.125   7.731 -0.6382 -0.7484  0.1873
 1234TP3      O15520   4.503   2.208   9.468  0.3294 -0.5164 -0.2792
 1234TP3     H115521   4.501   2.298   9.433 -0.1325 -1.4625 -2.9159
 1234TP3     H215522   4.427   2.166   9.430  0.6737 -2.1301  0.7141
 1235TP3      O15523   3.030   1.236   1.494 -0.2047  0.4199  0.4106
 1235TP3     H115524   3.117   1.234   1.456  0.5054 -0.2803  1.9952
 1235TP3     H215525   3.030   1.314   1.551 -1.2880  1.5222 -1.0227
 1236TP3      O15526   0.408   4.692   8.155  0.4600 -0.0228  0.5775
 1236TP3     H115527   0.396   4.781   8.122  1.7415 -0.1896 -0.4188
 1236TP3     H215528   0.319   4.656   8.160  0.0701  0.5821 -1.1529
 1237TP3      O15529   3.640   1.743   9.352  0.0833  0.3851 -0.1701
 1237TP3     H115530   3.692   1.675   9.393 -0.7857  0.7781  1.7041
 1237TP3     H215531   3.604   1.702   9.273  1.4712 -0.5391 -0.3587
 1238TP3      O15532   4.626   0.047   0.775  0.5931 -0.1577  0.0902
 1238TP3     H115533   4.653   0.110   0.841  3.3207 -0.5070 -0.5559
 1238TP3     H215534   4.676   0.072   0.697 -1.0882 -0.9069 -1.3090
 1239TP3      O15535   0.696   4.947   1.359  0.1189  0.2674  0.4713
 1239TP3     H115536   0.613   4.910   1.390  0.0283 -0.2463 -0.3601
 1239TP3     H215537   0.680   4.971   1.268  0.1017  2.6577  1.0435
 1240TP3      O15538   0.615   4.266   6.844  0.3812 -0.0004  0.7692
 1240TP3     H115539   0.549   4.287   6.911  1.2594 -0.0226  1.6688
 1240TP3     H215540   0.666   4.347   6.835 -1.0881  0.7638 -1.5473
 1241TP3      O15541   1.514   2.528   9.982 -0.0571 -0.9853 -0.3034
 1241TP3     H115542   1.523   2.599   9.919  1.2261 -1.5814 -0.8209
 1241TP3     H215543   1.515   2.572  10.068 -0.7171 -0.2748 -0.6399
 1242TP3      O15544   1.879   3.857   7.429 -0.0687 -0.0660  0.1914
 1242TP3     H115545   1.816   3.795   7.393 -0.7625  0.1741  0.9648
 1242TP3     H215546   1.946   3.866   7.360 -1.1793  0.1437 -0.8990
 1243TP3      O15547   2.541   4.027   7.839 -0.4242  0.9227  0.2248
 1243TP3     H115548   2.452   4.037   7.873 -1.0110  2.1819 -1.4810
 1243TP3     H215549   2.569   4.116   7.818 -0.4171  0.2989 -3.0683
 1244TP3      O15550   2.488   0.017   9.681 -0.0475 -0.3184 -0.4196
 1244TP3     H115551   2.424   0.064   9.627 -1.6723 -0.6438  1.1406
 1244TP3     H215552   2.490   0.066   9.763  0.1582 -1.5107  0.2985
 1245TP3      O15553   2.779   4.435   8.766 -0.1137 -0.6750  0.2569
 1245TP3     H115554   2.838   4.399   8.700 -0.0801  0.8806 -0.5903
 1245TP3     H215555   2.831   4.438   8.846  0.6850 -0.1274 -0.2729
 1246TP3      O15556   4.173   3.398   6.914  0.2154  0.1364 -0.3450
 1246TP3     H115557   4.181   3.400   6.819  0.6505 -0.3040 -0.3186
 1246TP3     H215558   4.237   3.333   6.943 -1.5459 -1.5276  0.0575
 1247TP3      O15559   1.178   0.362  10.026 -0.1864  0.2517 -0.3975
 1247TP3     H115560   1.264   0.321  10.017  0.5231  1.2638  1.2621
 1247TP3     H215561   1.188   0.448   9.987  0.6842  1.7184  2.6893
 1248TP3      O15562   2.312   1.013   9.538  0.2176 -0.2068  0.2985
 1248TP3     H115563   2.333   0.947   9.473  0.7044 -1.0317  1.2690
 1248TP3     H215564   2.385   1.010   9.600  0.7892  1.9751 -0.1849
 1249TP3      O15565   2.730   1.961   2.234 -0.0325 -0.2598  0.4779
 1249TP3     H115566   2.712   1.881   2.283 -0.1833 -0.5492 -0.0361
 1249TP3     H215567   2.698   1.941   2.145 -1.1914  0.7908  0.6332
 1250TP3      O15568   2.521   3.181   1.366 -0.7277  0.4255  0.3474
 1250TP3     H115569   2.578   3.223   1.302 -1.5042  1.7914  0.5312
 1250TP3     H215570   2.485   3.253   1.418 -1.6096 -0.5100  1.0834
 1251TP3      O15571   2.203   0.539   6.972  0.2214  1.1991  0.8021
 1251TP3     H115572   2.276   0.478   6.956 -0.6621  0.2718  0.1714
 1251TP3     H215573   2.128   0.482   6.988 -0.6959  2.1232 -0.0850
 1252TP3      O15574   4.575   5.237   9.248  0.2811 -0.1391  0.0407
 1252TP3     H115575   4.619   5.283   9.319 -0.7150 -0.0396  0.6061
 1252TP3     H215576   4.564   5.303   9.179 -1.9103  0.7702  1.1702
 1253TP3      O15577   2.293   0.049   2.843 -0.1487  0.0262 -0.3951
 1253TP3     H115578   2.264  -0.042   2.838 -0.5827  0.1195  0.2002
 1253TP3     H215579   2.259   0.079   2.927  0.1264  0.6921 -0.5203
 1254TP3      O15580   3.446   4.185   3.342 -0.5216  0.1201 -0.2824
 1254TP3     H115581   3.516   4.148   3.395 -0.7858  1.2917  0.9727
 1254TP3     H215582   3.394   4.236   3.405 -1.8813  0.1290 -1.3725
 1255TP3      O15583   4.965   3.245   0.192  0.0493  0.1665  0.4091
 1255TP3     H115584   4.915   3.327   0.190 -2.1395 -1.0831 -1.7229
 1255TP3     H215585   5.046   3.265   0.145 -0.5751  1.0706 -0.3153
 1256TP3      O15586   0.859   5.276   7.001  0.2844 -0.1493 -0.2002
 1256TP3     H115587   0.804   5.210   6.958  0.7232  0.1699 -1.2815
 1256TP3     H215588   0.947   5.260   6.967  0.5575  0.4149  0.2224
 1257TP3      O15589   4.389   0.789   2.300 -0.6499 -0.5122 -0.3614
 1257TP3     H115590   4.485   0.792   2.300 -0.6502  1.8936  1.0707
 1257TP3     H215591   4.366   0.783   2.393 -1.8753  0.3229 -0.5938
 1258TP3      O15592   1.851   3.638   8.454 -0.2598  0.6816  0.2332
 1258TP3     H115593   1.831   3.705   8.389 -1.2330  1.9079  1.7317
 1258TP3     H215594   1.945   3.625   8.448  0.1399  2.9703  0.5975
 1259TP3      O15595   0.166   3.182   7.528  0.0747  0.1122 -0.1961
 1259TP3     H115596   0.171   3.248   7.460 -1.6457  0.5252  0.0385
 1259TP3     H215597   0.228   3.211   7.595  0.8964  0.3312 -1.0423
 1260TP3      O15598   4.214   1.261   8.285 -0.2907 -0.3388  0.4927
 1260TP3     H115599   4.288   1.240   8.228 -0.9412 -1.5205  0.0392
 1260TP3     H215600   4.253   1.279   8.370  0.4962 -1.3762  0.3722
 1261TP3      O15601   0.986   2.818   9.777  0.1415 -0.2309 -0.0833
 1261TP3     H115602   1.053   2.885   9.788  0.2288 -0.1525 -1.0132
 1261TP3     H215603   0.921   2.859   9.720 -1.1856  0.0380  1.5648
 1262TP3      O15604   0.122   0.284   9.799 -0.2865 -0.3926 -0.5784
 1262TP3     H115605   0.081   0.338   9.731 -2.2454 -0.5154  0.4435
 1262TP3     H215606   0.158   0.347   9.861 -0.8766 -0.2675 -0.3625
 1263TP3      O15607   4.319   0.305   2.645 -0.2390 -0.2399  0.0085
 1263TP3     H115608   4.303   0.254   2.566  0.0447  0.4781 -0.5174
 1263TP3     H215609   4.414   0.309   2.653 -0.2059  1.6135 -0.9022
 1264TP3      O15610   4.488   1.622   1.653 -0.0416 -0.3980 -0.1873
 1264TP3     H115611   4.460   1.536   1.620  1.5117 -0.8315 -0.4905
 1264TP3     H215612   4.508   1.607   1.745 -1.4142  0.0781  0.2126
 1265TP3      O15613   2.627   0.623   9.186  0.0392  0.2766 -0.4490
 1265TP3     H115614   2.660   0.712   9.171 -1.4651  0.8698 -0.4129
 1265TP3     H215615   2.566   0.608   9.113 -1.8193  0.3668  1.0257
 1266TP3      O15616   1.407   3.680   7.911 -0.4730 -0.2388  0.3436
 1266TP3     H115617   1.403   3.731   7.992 -1.9711 -2.0656  1.5170
 1266TP3     H215618   1.491   3.634   7.917  0.5437  1.4616 -0.3679
 1267TP3      O15619   3.554   4.886   0.442  0.1352 -0.4836  0.1147
 1267TP3     H115620   3.478   4.943   0.456  1.3393  0.7568  2.1267
 1267TP3     H215621   3.517   4.803   0.411 -1.8209  0.7884 -1.1089
 1268TP3      O15622   1.019   4.672   6.342  0.5710 -0.1836 -0.1837
 1268TP3     H115623   1.033   4.766   6.344 -1.0528  0.0915 -0.8629
 1268TP3     H215624   0.936   4.658   6.387  1.9132 -1.5655  2.0570
 1269TP3      O15625   3.389   1.450   2.085  0.5044 -0.1805  0.6010
 1269TP3     H115626   3.477   1.414   2.099  1.1615  1.9657  2.8195
 1269TP3     H215627   3.346   1.441   2.170 -0.6320  0.7591  0.1481
 1270TP3      O15628   3.920   4.539   0.232  0.7631  0.1212 -0.0941
 1270TP3     H115629   3.836   4.584   0.228  1.2428  1.1399  0.7426
 1270TP3     H215630   3.898   4.448   0.250 -0.2145  0.0608 -1.4438
 1271TP3      O15631   4.430   2.037   9.014  0.1125 -0.4766  0.3112
 1271TP3     H115632   4.474   2.112   8.974 -2.3611  1.9580  1.7754
 1271TP3     H215633   4.501   1.982   9.046  2.0553  0.9243 -1.3458
 1272TP3      O15634   4.661   2.911   6.669 -0.2266 -0.5434 -0.1623
 1272TP3     H115635   4.667   2.817   6.687 -1.3648 -0.5228  0.4279
 1272TP3     H215636   4.567   2.929   6.666 -0.0610  0.2584 -2.0672
 1273TP3      O15637   2.013   4.355   7.950  0.3214  0.4119  0.2347
 1273TP3     H115638   1.972   4.356   7.864  1.7825  0.5309 -0.4836
 1273TP3     H215639   2.030   4.448   7.970  0.7026  0.3342  0.2875
 1274TP3      O15640   0.342   0.851   1.544 -0.0555  0.6050 -0.0051
 1274TP3     H115641   0.252   0.828   1.569 -0.3312  0.9605 -0.6253
 1274TP3     H215642   0.331   0.902   1.463  0.7188  0.4805 -0.1927
 1275TP3      O15643   3.663   3.301   7.707  0.0355 -0.5762 -0.1553
 1275TP3     H115644   3.639   3.346   7.788 -0.5566  2.0489 -1.6679
 1275TP3     H215645   3.604   3.227   7.702  0.5663 -1.2169  2.1317
 1276TP3      O15646   3.609   1.845   9.602 -0.3679 -0.3437  0.4677
 1276TP3     H115647   3.605   1.825   9.509  0.9837 -1.4131  0.6041
 1276TP3     H215648   3.583   1.937   9.608  1.4249  0.3301 -1.2034
 1277TP3      O15649   0.819   1.784   6.779  0.3737  0.1557  0.2794
 1277TP3     H115650   0.843   1.743   6.696  1.7700 -0.0733  0.7593
 1277TP3     H215651   0.749   1.729   6.813 -0.7829  0.7232 -1.1076
 1278TP3      O15652   1.549   0.417   9.423  0.5645 -0.6169  0.4165
 1278TP3     H115653   1.571   0.510   9.409 -0.8969 -0.3386 -0.1745
 1278TP3     H215654   1.604   0.391   9.497 -0.5765  1.3403  2.0520
 1279TP3      O15655   3.479   2.531   1.566  0.1989 -0.6697 -0.2245
 1279TP3     H115656   3.401   2.497   1.610 -0.9928  0.8860 -0.9985
 1279TP3     H215657   3.494   2.471   1.493 -0.0552 -1.1841  0.1424
 1280TP3      O15658   2.292   3.767   3.247 -0.1691 -0.8229 -0.8747
 1280TP3     H115659   2.381   3.800   3.261 -0.7260 -0.3406  2.4165
 1280TP3     H215660   2.249   3.834   3.194  1.0894 -0.5178 -1.5453
 1281TP3      O15661   4.804   1.721   0.979  0.2472 -0.3711 -0.0758
 1281TP3     H115662   4.788   1.744   1.071 -0.2304 -0.1367 -0.2108
 1281TP3     H215663   4.728   1.669   0.954  1.1244 -1.7694  0.0977
 1282TP3      O15664   1.774   1.334   9.209 -0.0908 -0.3533  1.0303
 1282TP3     H115665   1.795   1.420   9.246 -0.6632  0.6089 -0.7685
 1282TP3     H215666   1.832   1.325   9.133 -2.4267  0.0888 -0.9471
 1283TP3      O15667   2.326   4.814   1.109 -0.1018 -0.3176  0.1855
 1283TP3     H115668   2.281   4.729   1.113  1.4079 -1.1550  0.4427
 1283TP3     H215669   2.275   4.871   1.166 -2.0918 -0.5541 -1.2519
 1284TP3      O15670   3.596   3.236   9.597  0.6249 -0.2969  0.5534
 1284TP3     H115671   3.588   3.156   9.650  1.2969  0.3835  1.7407
 1284TP3     H215672   3.683   3.230   9.558 -0.2880 -1.3339 -1.4614
 1285TP3      O15673   4.961   1.774   9.578 -0.2417 -0.1285  0.2029
 1285TP3     H115674   4.996   1.687   9.599 -0.7514 -0.3914 -0.0238
 1285TP3     H215675   4.879   1.756   9.533  0.5393  0.4253 -1.5020
 1286TP3      O15676   2.965   4.034   7.258 -0.3330 -0.7112  0.0481
 1286TP3     H115677   3.001   4.078   7.335  0.7444 -0.6991 -0.4510
 1286TP3     H215678   2.880   4.001   7.288 -0.1396 -0.3037  1.1043
 1287TP3      O15679   2.983   2.423   7.632 -0.4154 -0.4075 -0.0456
 1287TP3     H115680   3.036   2.399   7.708  0.1449  0.9031  0.0051
 1287TP3     H215681   2.894   2.395   7.655 -0.1447 -0.5783  0.8405
 1288TP3      O15682   2.249   4.554   1.150 -0.1319 -0.0773 -0.6024
 1288TP3     H115683   2.222   4.516   1.067 -2.2904 -2.5683  1.0713
 1288TP3     H215684   2.294   4.483   1.196  2.4811  1.7138 -0.1670
 1289TP3      O15685   2.472   2.849   7.899 -0.3185  0.2690 -0.8232
 1289TP3     H115686   2.549   2.890   7.938 -0.5522  0.7028 -0.8133
 1289TP3     H215687   2.403   2.914   7.907 -2.1020 -1.7628  3.6336
 1290TP3      O15688   4.138   2.605   9.885  0.0343  0.3778  0.6495
 1290TP3     H115689   4.224   2.567   9.904  0.5525  1.1883  0.0164
 1290TP3     H215690   4.096   2.540   9.829  0.7018  0.4686  0.0161
 1291TP3      O15691   4.930   5.036   9.522 -0.1209  0.2687 -0.1271
 1291TP3     H115692   4.908   5.046   9.430  0.6213  0.5264 -0.2801
 1291TP3     H215693   4.845   5.035   9.567 -0.5481 -1.2267 -0.9300
 1292TP3      O15694   3.592   2.241   0.015  0.1732  0.6493  0.5921
 1292TP3     H115695   3.593   2.164  -0.042 -0.1497 -1.5879  3.3731
 1292TP3     H215696   3.558   2.312  -0.040  3.1403 -0.3583 -2.9624
 1293TP3      O15697   4.560   4.082   9.238  0.2545 -0.6515 -0.5657
 1293TP3     H115698   4.511   4.158   9.206 -0.6845 -1.2339 -0.5458
 1293TP3     H215699   4.647   4.091   9.198  0.4029  0.8099  0.0030
 1294TP3      O15700   3.801   2.051   8.442  0.4008 -0.3051  0.2767
 1294TP3     H115701   3.876   2.108   8.463 -1.3210  1.9050  0.7911
 1294TP3     H215702   3.764   2.088   8.363 -0.7622 -0.7416  0.5986
 1295TP3      O15703   2.465   3.468   2.211 -0.1297 -0.7825  0.3208
 1295TP3     H115704   2.446   3.411   2.285 -3.9621  1.9322  1.6855
 1295TP3     H215705   2.397   3.447   2.147  0.2246  0.2120 -0.3958
 1296TP3      O15706   3.449   3.614   8.550 -0.7340 -0.0602 -0.4922
 1296TP3     H115707   3.512   3.686   8.540  0.4830 -1.0777 -0.3781
 1296TP3     H215708   3.460   3.584   8.640 -2.0145  0.2851 -0.1914
 1297TP3      O15709   2.606   1.567   7.435 -0.8332 -0.3537 -0.1051
 1297TP3     H115710   2.550   1.492   7.456 -1.3479 -0.1120 -0.5681
 1297TP3     H215711   2.547   1.628   7.388 -0.3305  0.1673 -0.0715
 1298TP3      O15712   5.048   0.715   7.169  0.4628 -0.3596 -0.2141
 1298TP3     H115713   5.066   0.745   7.080 -0.1270  1.2373  0.1557
 1298TP3     H215714   5.127   0.668   7.195  2.0475  1.9973 -0.4409
 1299TP3      O15715   2.480   2.105   7.926  0.7482 -0.7896  0.1951
 1299TP3     H115716   2.414   2.045   7.892  0.1893 -0.4179  0.6098
 1299TP3     H215717   2.450   2.191   7.898  2.6479 -0.8325 -2.2316
 1300TP3      O15718   4.848   3.031   0.603 -0.2277  0.3986  0.2337
 1300TP3     H115719   4.836   3.094   0.674  0.4639  1.1179 -0.2699
 1300TP3     H215720   4.871   2.949   0.648 -1.3888  0.4243  0.9024
 1301TP3      O15721   1.388   5.211   9.057  0.5412 -0.2245  0.0861
 1301TP3     H115722   1.423   5.186   9.142  3.3236  2.4877 -0.1035
 1301TP3     H215723   1.354   5.299   9.069 -2.2341 -1.0451 -0.9100
 1302TP3      O15724   4.008   4.282   1.746 -0.1150 -0.3079 -0.0088
 1302TP3     H115725   3.986   4.297   1.654  0.6874  1.6316  0.0736
 1302TP3     H215726   4.098   4.312   1.755 -0.7122  1.2088  1.7317
 1303TP3      O15727   2.246   3.638   2.477 -0.2605 -0.5223 -0.0144
 1303TP3     H115728   2.331   3.602   2.505 -0.4008 -1.7871 -1.0912
 1303TP3     H215729   2.184   3.566   2.490 -0.9095 -0.0737 -0.5445
 1304TP3      O15730   1.575   4.631   6.813  0.1081 -0.2795  0.0690
 1304TP3     H115731   1.554   4.580   6.734  0.1885 -3.2378  1.8163
 1304TP3     H215732   1.502   4.615   6.872  1.7964 -1.3801  1.9973
 1305TP3      O15733   3.469   0.657   8.545 -0.4434  0.1246  0.2622
 1305TP3     H115734   3.546   0.705   8.578 -0.8700  0.6067  0.5750
 1305TP3     H215735   3.397   0.720   8.552 -0.4200  0.5794 -2.4208
 1306TP3      O15736   3.815   4.314   0.250 -0.9723 -0.1146  0.1028
 1306TP3     H115737   3.770   4.329   0.167 -1.6424 -0.2457  0.4356
 1306TP3     H215738   3.781   4.230   0.281 -2.6759  1.0932  1.7466
 1307TP3      O15739   3.261   0.256   2.804  0.8836 -0.7823 -0.3518
 1307TP3     H115740   3.208   0.178   2.790  2.3800 -1.9368  0.2386
 1307TP3     H215741   3.249   0.277   2.897 -0.0996  0.1824 -0.6612
 1308TP3      O15742   1.058   0.457   0.220  0.0624 -0.7330 -0.4531
 1308TP3     H115743   1.006   0.470   0.141 -0.3393 -2.9910 -0.6165
 1308TP3     H215744   1.149   0.458   0.190  0.0257  0.6054 -0.5705
 1309TP3      O15745   1.501   1.615   9.591  0.3856  0.2490 -0.2376
 1309TP3     H115746   1.534   1.606   9.501  1.1745 -2.5826  0.2542
 1309TP3     H215747   1.577   1.595   9.646 -0.3217  1.0501  1.0815
 1310TP3      O15748   4.330   0.098   2.135  0.1682 -0.1036  0.0382
 1310TP3     H115749   4.285   0.163   2.082  0.9776  0.0711 -0.4571
 1310TP3     H215750   4.274   0.020   2.131  0.4196 -0.2362 -1.4479
 1311TP3      O15751   3.200   0.783   8.955  0.1556  0.0476 -0.3649
 1311TP3     H115752   3.241   0.711   8.907  1.8488  1.9197 -1.8737
 1311TP3     H215753   3.272   0.825   9.002 -0.5350  1.5786 -0.6219
 1312TP3      O15754   4.731   3.431   8.825  0.0712  0.6435 -0.2062
 1312TP3     H115755   4.751   3.385   8.743 -0.0015 -0.7105  0.5239
 1312TP3     H215756   4.686   3.511   8.797 -0.8814 -0.2915 -1.4482
 1313TP3      O15757   1.532   4.523   7.193 -0.0659  0.6872 -0.2672
 1313TP3     H115758   1.450   4.474   7.184 -1.2155  2.3712  0.5347
 1313TP3     H215759   1.587   4.490   7.122 -2.7685  2.0199 -3.2246
 1314TP3      O15760   4.615   1.425  10.070  0.2978 -0.1658 -0.0272
 1314TP3     H115761   4.528   1.394  10.092  0.3239 -0.2582 -0.0537
 1314TP3     H215762   4.661   1.347  10.037 -0.5453  0.4232 -2.9238
 1315TP3      O15763   2.955   0.079   8.203  0.3276 -0.4129  0.0858
 1315TP3     H115764   3.043   0.055   8.173  1.1872  1.7926  0.6739
 1315TP3     H215765   2.950   0.045   8.293  1.5195  1.4138  0.9027
 1316TP3      O15766   2.853   5.094   8.742 -0.5781 -0.2957 -0.1979
 1316TP3     H115767   2.845   5.014   8.795 -1.3617  0.1616  0.3940
 1316TP3     H215768   2.764   5.129   8.739 -0.4059  0.0650 -1.2350
 1317TP3      O15769   2.642   2.374   8.907  0.1388  0.1912 -0.8216
 1317TP3     H115770   2.728   2.337   8.928 -0.6270 -0.4329  1.5901
 1317TP3     H215771   2.659   2.468   8.897  1.0226  0.1962  0.3878
 1318TP3      O15772   1.192   3.297   0.241  1.4104  0.1925 -1.0012
 1318TP3     H115773   1.258   3.235   0.208  1.2080 -0.1635 -0.7448
 1318TP3     H215774   1.191   3.367   0.176  0.2448 -1.0046 -2.3499
 1319TP3      O15775   5.122   5.273   9.194 -0.3842 -0.4340  0.5402
 1319TP3     H115776   5.145   5.210   9.126 -1.3179 -2.2048  1.7863
 1319TP3     H215777   5.029   5.290   9.180 -0.7896 -1.4420  1.7984
 1320TP3      O15778   0.195   5.112   9.772  0.4462 -0.0305  0.3278
 1320TP3     H115779   0.201   5.184   9.711 -0.0759  1.2282  1.7024
 1320TP3     H215780   0.119   5.132   9.826  1.0937 -0.8863  1.6253
 1321TP3      O15781   5.196   1.201   0.049 -0.8897 -0.1360  0.0094
 1321TP3     H115782   5.275   1.190  -0.005 -0.7383 -0.6184  0.3149
 1321TP3     H215783   5.218   1.274   0.108 -0.2609 -0.9022  0.7730
 1322TP3      O15784   4.742   2.303   7.336 -0.3662 -0.4691  0.3890
 1322TP3     H115785   4.672   2.282   7.399 -0.1331 -1.5526  0.3163
 1322TP3     H215786   4.727   2.241   7.264  1.0788 -1.2044  0.6898
 1323TP3      O15787   3.532   4.892   9.794 -0.6289 -0.3021  0.2891
 1323TP3     H115788   3.500   4.847   9.716  0.6915  1.3133 -1.2882
 1323TP3     H215789   3.621   4.918   9.771 -0.2868  0.4298  2.2722
 1324TP3      O15790   3.421   2.155   9.074 -0.4107  0.1942 -0.2919
 1324TP3     H115791   3.401   2.183   8.985 -0.6113 -1.1680 -0.6985
 1324TP3     H215792   3.404   2.061   9.074 -0.3161  0.1516  1.1624
 1325TP3      O15793   2.885   2.884   7.193  0.5059  0.0705 -0.5322
 1325TP3     H115794   2.935   2.843   7.122  0.5018 -1.2293  0.1888
 1325TP3     H215795   2.934   2.964   7.214  1.3094 -0.2899 -1.0132
 1326TP3      O15796   0.174   3.811   9.947 -0.1489  0.3285  0.2772
 1326TP3     H115797   0.226   3.866   9.888 -1.8495  1.8891  0.1150
 1326TP3     H215798   0.164   3.864  10.026  0.1184 -0.7603  1.0636
 1327TP3      O15799   2.601   4.770   7.523  0.5495  0.0459  0.1849
 1327TP3     H115800   2.697   4.771   7.525  0.5326  1.0578  1.8650
 1327TP3     H215801   2.580   4.708   7.452  2.4187  0.6055 -0.9383
 1328TP3      O15802   1.765   5.023   7.906 -0.5056 -0.3855  0.0603
 1328TP3     H115803   1.780   5.071   7.825 -0.1038  0.9936  0.9238
 1328TP3     H215804   1.852   4.992   7.932 -0.6257 -0.7824 -0.0114
 1329TP3      O15805   3.940   1.425   1.650  0.2826  0.0126 -0.1851
 1329TP3     H115806   4.032   1.422   1.675  0.1133  1.6644  0.7344
 1329TP3     H215807   3.939   1.476   1.569  0.2200 -0.4800 -0.4999
 1330TP3      O15808   2.282   0.170   8.560  0.2935 -0.3948 -0.3010
 1330TP3     H115809   2.368   0.179   8.518 -0.4918  1.7744 -1.6144
 1330TP3     H215810   2.220   0.165   8.487 -1.0178  2.3937  0.4901
 1331TP3      O15811   1.468   0.062   3.110 -0.8022  0.1031  0.7347
 1331TP3     H115812   1.418   0.142   3.119  1.3088  2.1552 -3.0200
 1331TP3     H215813   1.410   0.002   3.063 -1.5497  0.3115  1.3705
 1332TP3      O15814   4.989   1.827   6.968  0.0413 -0.0683 -0.1054
 1332TP3     H115815   4.894   1.831   6.981 -0.3401 -1.6703 -1.8736
 1332TP3     H215816   5.016   1.748   7.013  0.3824 -0.1012 -0.3655
 1333TP3      O15817   0.051   1.487   9.406  0.2825 -0.3492  0.0058
 1333TP3     H115818   0.065   1.549   9.335  1.6126 -0.2420  0.3507
 1333TP3     H215819   0.012   1.410   9.363 -2.5174  1.0944 -0.2534
 1334TP3      O15820   1.360   4.808   9.984  0.0443  0.2204  0.1596
 1334TP3     H115821   1.432   4.870   9.975 -1.2741  1.7841 -0.1853
 1334TP3     H215822   1.310   4.839  10.060 -1.3791  0.4193 -0.8120
 1335TP3      O15823   2.270   1.767   9.524  0.0897  0.0738 -0.1101
 1335TP3     H115824   2.329   1.808   9.460  2.3463  1.1723  2.4740
 1335TP3     H215825   2.249   1.837   9.586 -3.0153 -0.6319 -0.2110
 1336TP3      O15826   2.084   1.389   9.613 -0.2833 -0.2690  0.0784
 1336TP3     H115827   2.158   1.433   9.654 -0.8183  0.0635  0.7015
 1336TP3     H215828   2.123   1.313   9.569  0.4418 -0.0130  0.2630
 1337TP3      O15829   1.205   4.498   6.643  0.3382 -0.2537  0.2983
 1337TP3     H115830   1.123   4.451   6.661  0.1761 -0.4731 -0.9271
 1337TP3     H215831   1.259   4.435   6.595  2.0689 -0.8283  2.7780
 1338TP3      O15832   2.733   1.225   7.341  0.7989 -0.5389  0.0705
 1338TP3     H115833   2.648   1.238   7.299  1.1953 -0.0076 -0.5792
 1338TP3     H215834   2.793   1.205   7.269  1.8972  2.3061  0.0709
 1339TP3      O15835   3.684   0.978   9.745  0.1518 -0.3718 -0.1991
 1339TP3     H115836   3.757   0.974   9.683  0.6489 -2.2936  0.4221
 1339TP3     H215837   3.647   1.065   9.733  2.1462  0.4368 -1.0032
 1340TP3      O15838   1.472   2.168  10.010 -0.0283  0.3278  0.2954
 1340TP3     H115839   1.496   2.211  10.091 -0.4546 -1.1711  1.2597
 1340TP3     H215840   1.379   2.187   9.998 -0.3963 -0.8528  1.1018
 1341TP3      O15841   3.941   0.482   7.816  0.0263 -0.5097  0.6340
 1341TP3     H115842   3.895   0.558   7.851  1.5611  0.1432  1.3747
 1341TP3     H215843   4.033   0.509   7.815  0.3045 -1.2444 -2.0307
 1342TP3      O15844   1.304   1.277   3.308 -0.1740  0.5130  0.6823
 1342TP3     H115845   1.300   1.345   3.375  1.4394  0.3535  0.9874
 1342TP3     H215846   1.376   1.304   3.251 -2.0656  1.1044 -1.5555
 1343TP3      O15847   1.824   3.290   7.477 -0.1425  0.0129  0.2665
 1343TP3     H115848   1.820   3.361   7.540 -0.0493  0.6044 -0.3838
 1343TP3     H215849   1.739   3.292   7.433  0.8796  1.6563 -1.8010
 1344TP3      O15850   0.707   1.020   0.198  0.0255  0.7672  0.6224
 1344TP3     H115851   0.783   1.000   0.144 -0.7702 -0.1009 -0.1990
 1344TP3     H215852   0.732   1.101   0.244  1.5205  0.3830  0.5556
 1345TP3      O15853   5.272   2.362   8.441  0.5411 -0.0631  0.1835
 1345TP3     H115854   5.262   2.451   8.472  0.2040 -0.0290 -0.0196
 1345TP3     H215855   5.274   2.309   8.521 -1.8735 -0.1383  0.2622
 1346TP3      O15856   1.116   1.327   8.898 -1.0882  0.6759  0.1646
 1346TP3     H115857   1.135   1.283   8.981 -1.6911 -0.5472 -0.3193
 1346TP3     H215858   1.185   1.392   8.889 -0.7788  0.5512  1.4269
 1347TP3      O15859   5.008   1.804   8.432  0.3915  0.1817 -0.3593
 1347TP3     H115860   4.933   1.745   8.431  0.5151 -0.0008  0.2721
 1347TP3     H215861   5.075   1.759   8.380  0.5389 -0.3145  0.2487
 1348TP3      O15862   3.830   1.757   9.808  0.1185 -0.5098 -0.0063
 1348TP3     H115863   3.925   1.749   9.811  0.1200 -0.3732  2.4500
 1348TP3     H215864   3.813   1.826   9.744  1.9046  1.9342  1.9656
 1349TP3      O15865   0.683   3.392   8.937 -0.1970  0.3367  0.1983
 1349TP3     H115866   0.738   3.320   8.907  1.4243  1.3374  0.6317
 1349TP3     H215867   0.596   3.353   8.946  0.6572 -1.6085  0.6342
 1350TP3      O15868   4.652   1.941   3.333  0.1916  0.5114 -0.3215
 1350TP3     H115869   4.606   1.953   3.250 -1.4833 -0.7333  0.3611
 1350TP3     H215870   4.717   1.873   3.315 -0.4461 -0.0539 -0.5421
 1351TP3      O15871   5.111   3.676   1.264 -0.2505 -0.0862  0.2739
 1351TP3     H115872   5.079   3.614   1.329 -0.4366 -0.7958 -0.4871
 1351TP3     H215873   5.175   3.627   1.213  1.8330  1.1881  1.5029
 1352TP3      O15874   3.633   3.548   6.907 -0.3612  0.4190  0.4799
 1352TP3     H115875   3.628   3.499   6.989  1.0613  0.9810  0.9360
 1352TP3     H215876   3.713   3.601   6.916 -0.3150  0.6733 -1.1647
 1353TP3      O15877   5.055   2.591   7.945  0.6016 -0.6780 -0.0295
 1353TP3     H115878   5.035   2.562   8.035  0.2400 -0.8338 -0.1585
 1353TP3     H215879   5.003   2.533   7.889  1.4661 -1.1284 -0.3814
 1354TP3      O15880   1.857   3.206   8.542 -0.1816  0.3010  0.1547
 1354TP3     H115881   1.946   3.187   8.510 -0.3782  1.1334 -0.9298
 1354TP3     H215882   1.867   3.288   8.590 -0.4325  0.6163 -0.3255
 1355TP3      O15883   3.672   4.477   8.527  0.0968 -0.4099  0.0223
 1355TP3     H115884   3.687   4.568   8.501 -2.2403 -0.0174 -0.1767
 1355TP3     H215885   3.625   4.484   8.611 -0.1707 -1.4232 -0.0327
 1356TP3      O15886   1.633   1.882   8.663  0.1240  0.6430 -0.4459
 1356TP3     H115887   1.576   1.881   8.586 -0.8391 -2.4819  0.1365
 1356TP3     H215888   1.634   1.973   8.692 -2.5623  1.2487 -1.9391
 1357TP3      O15889   4.414   4.543   2.760  0.1892  0.4581  0.3818
 1357TP3     H115890   4.387   4.477   2.696  0.6435  0.8421 -0.2106
 1357TP3     H215891   4.414   4.625   2.711 -0.9463  1.0071  1.2520
 1358TP3      O15892   3.794   0.832   1.099 -0.4734  0.3457  0.1378
 1358TP3     H115893   3.730   0.857   1.032 -0.8823  1.0782  0.7853
 1358TP3     H215894   3.785   0.737   1.106 -1.2202  0.3925 -0.0537
 1359TP3      O15895   5.244   0.555   7.299 -0.1318 -0.4969  0.2799
 1359TP3     H115896   5.231   0.604   7.380  0.7339  0.0916  0.0704
 1359TP3     H215897   5.249   0.464   7.327  0.2180 -0.2940  0.8969
 1360TP3      O15898   2.984   4.479   7.220 -0.2011  0.1775  0.3900
 1360TP3     H115899   3.074   4.507   7.234 -0.0099  0.2598 -0.9264
 1360TP3     H215900   2.942   4.554   7.176 -0.8121 -0.0021  0.6491
 1361TP3      O15901   1.625   0.807   0.133  0.8491 -0.0308  0.2055
 1361TP3     H115902   1.609   0.849   0.217 -0.2389  0.4449 -0.2108
 1361TP3     H215903   1.703   0.754   0.147  0.0498 -0.8675  1.8557
 1362TP3      O15904   1.701   0.981   2.347 -0.8496 -0.2225 -0.2623
 1362TP3     H115905   1.680   1.061   2.298 -0.3339 -0.3545 -0.7013
 1362TP3     H215906   1.735   1.013   2.431  0.3303  0.0460 -0.8226
 1363TP3      O15907   4.238   4.078   7.780 -0.0557  0.2465  0.3872
 1363TP3     H115908   4.164   4.066   7.840  0.4870  0.4870  1.1178
 1363TP3     H215909   4.261   3.990   7.752  0.7303 -0.0224  1.8220
 1364TP3      O15910   0.621   0.543   9.759 -0.8440 -0.8184  0.4607
 1364TP3     H115911   0.564   0.548   9.682  1.2075 -0.6707 -1.1421
 1364TP3     H215912   0.586   0.471   9.810 -0.6897 -2.8007 -2.0435
 1365TP3      O15913   0.979   5.029   0.080 -0.2175  0.4017 -0.0387
 1365TP3     H115914   1.036   5.105   0.094  1.1535 -0.8154  1.3699
 1365TP3     H215915   0.902   5.065   0.036  1.3260  2.2347 -1.4372
 1366TP3      O15916   4.845   3.175   1.735 -0.3090  0.8435  0.7206
 1366TP3     H115917   4.769   3.199   1.788 -0.5379  1.8651 -0.0589
 1366TP3     H215918   4.899   3.254   1.732  0.4510  0.3344  0.6800
 1367TP3      O15919   1.823   4.283   9.470  0.1309 -0.7350  0.4030
 1367TP3     H115920   1.870   4.199   9.470 -0.3084 -1.1595 -3.3341
 1367TP3     H215921   1.734   4.260   9.496 -0.0930 -1.5536 -0.9998
 1368TP3      O15922   5.065   1.289   9.407 -0.0239 -0.7887  0.1778
 1368TP3     H115923   5.147   1.268   9.361 -1.0736 -0.1371 -2.1623
 1368TP3     H215924   4.997   1.247   9.354 -1.3325  0.1239  1.0869
 1369TP3      O15925   1.761   2.800   9.696 -0.0137 -0.0237 -0.0799
 1369TP3     H115926   1.800   2.845   9.622  1.6129 -0.3381  0.5271
 1369TP3     H215927   1.762   2.707   9.671 -1.9145  0.0967 -0.7046
 1370TP3      O15928   3.036   3.181   9.757 -0.5277  0.0238  0.4949
 1370TP3     H115929   2.985   3.261   9.760  0.7864  0.8725  1.6691
 1370TP3     H215930   3.016   3.137   9.839  0.1202  0.0503  0.6703
 1371TP3      O15931   4.802   1.045   2.726 -0.5824  0.0110  0.4204
 1371TP3     H115932   4.862   1.058   2.653 -2.7412 -1.2644 -1.7012
 1371TP3     H215933   4.838   0.970   2.774  1.0291  1.0624  0.9603
 1372TP3      O15934   2.793   1.696   0.692  0.4292  0.3515  0.3384
 1372TP3     H115935   2.747   1.760   0.638  0.9931  1.1476  0.7886
 1372TP3     H215936   2.876   1.681   0.646  0.8058  0.8481  0.8408
 1373TP3      O15937   0.102   4.736   8.770 -0.0433 -0.4814  0.6767
 1373TP3     H115938   0.181   4.777   8.804 -0.2760  0.8831 -0.3205
 1373TP3     H215939   0.128   4.646   8.749  1.2034 -0.0805  0.4634
 1374TP3      O15940   3.936   1.878   8.026 -0.0280 -0.6994  0.3221
 1374TP3     H115941   4.002   1.812   8.046  1.6942  0.7725 -0.2037
 1374TP3     H215942   3.954   1.950   8.087 -1.7175 -0.5840  0.7451
 1375TP3      O15943   4.215   1.531   8.511 -0.0583 -0.0058  0.3417
 1375TP3     H115944   4.270   1.569   8.442 -1.4160 -0.3918 -1.0283
 1375TP3     H215945   4.266   1.458   8.544  0.1460 -0.6022 -1.1775
 1376TP3      O15946   2.196   0.445   9.299  0.0143 -0.0976  0.0332
 1376TP3     H115947   2.159   0.534   9.297  1.9200  0.7542  0.3725
 1376TP3     H215948   2.151   0.399   9.228  0.8808  1.9789 -1.9981
 1377TP3      O15949   3.950   0.259   8.283  0.0947 -0.0746  0.5623
 1377TP3     H115950   3.890   0.311   8.336  0.2001  0.1966  0.4170
 1377TP3     H215951   3.975   0.318   8.211 -0.6343 -0.6786 -0.2165
 1378TP3      O15952   0.948   0.836   2.653  0.0665  0.3457 -0.0612
 1378TP3     H115953   1.008   0.775   2.695  0.0400  0.4654  0.1555
 1378TP3     H215954   0.861   0.811   2.686 -0.0244  0.0432 -0.5337
 1379TP3      O15955   0.819   3.172   8.849 -0.2188  0.3998  0.3285
 1379TP3     H115956   0.743   3.120   8.822 -1.2527  1.1013  1.8009
 1379TP3     H215957   0.894   3.114   8.834 -0.9691 -0.1712 -1.5126
 1380TP3      O15958   0.965   3.253   9.945 -0.2250 -0.3849  0.5066
 1380TP3     H115959   0.879   3.279   9.978 -0.1078  0.4912  0.1522
 1380TP3     H215960   1.004   3.202  10.016 -0.5582  0.2266  1.1375
 1381TP3      O15961   5.223   1.051   0.328  0.2043  0.0488  0.2791
 1381TP3     H115962   5.254   1.137   0.357  0.8373 -0.5664  1.5021
 1381TP3     H215963   5.131   1.049   0.354 -1.4205  2.2541 -4.1982
 1382TP3      O15964   1.047   0.088   0.217 -0.4213 -0.2896  0.0963
 1382TP3     H115965   0.976   0.087   0.153  0.7048  1.6567 -1.2786
 1382TP3     H215966   1.019   0.149   0.284  0.1777  0.9914 -0.7844
 1383TP3      O15967   0.042   0.114   7.679  0.1942  0.1950 -0.4452
 1383TP3     H115968   0.034   0.106   7.584  0.4703  0.8022 -0.5265
 1383TP3     H215969  -0.038   0.073   7.713 -1.6644  2.9920 -1.0889
 1384TP3      O15970   0.241   2.630   9.245 -0.4390 -0.3434 -0.2947
 1384TP3     H115971   0.275   2.706   9.199 -0.8381  0.1922  0.2782
 1384TP3     H215972   0.207   2.573   9.176 -1.2289  0.5454 -0.6560
 1385TP3      O15973   1.345   0.508   7.512  0.1221 -0.4835  0.1555
 1385TP3     H115974   1.326   0.516   7.605  0.4572 -0.0221  0.1913
 1385TP3     H215975   1.260   0.495   7.471 -0.1731  0.5202  0.4111
 1386TP3      O15976   4.425   5.230   7.542  0.3323 -0.2497  0.6259
 1386TP3     H115977   4.357   5.274   7.593 -1.4594  0.3925 -2.1146
 1386TP3     H215978   4.442   5.289   7.468  1.2491 -2.0445 -0.6695
 1387TP3      O15979   0.322   0.722   2.969  0.1388  0.1757  0.7650
 1387TP3     H115980   0.376   0.784   3.019 -1.5471  0.0739  2.8236
 1387TP3     H215981   0.360   0.637   2.989  1.2782  0.3429 -0.5459
 1388TP3      O15982   0.863   0.316   9.783  0.4065 -0.2070  0.5485
 1388TP3     H115983   0.780   0.317   9.735 -0.0175 -0.7601  1.2518
 1388TP3     H215984   0.883   0.223   9.795  1.4673 -0.0934 -0.1650
 1389TP3      O15985   2.318   2.238   0.615 -0.1612  0.5793  0.0364
 1389TP3     H115986   2.411   2.218   0.618 -0.0402  1.0573 -0.3996
 1389TP3     H215987   2.283   2.207   0.699 -0.1047 -2.0663 -0.8257
 1390TP3      O15988   2.957   0.504   6.882  0.2506  0.3604  0.4072
 1390TP3     H115989   2.925   0.420   6.915 -2.9412  1.3489  0.2117
 1390TP3     H215990   3.016   0.482   6.811 -1.6175 -1.7643 -0.5954
 1391TP3      O15991   2.436   0.894   9.989  0.0773  0.0018  0.0738
 1391TP3     H115992   2.432   0.928  10.078 -1.6497 -1.4485  0.6149
 1391TP3     H215993   2.525   0.862   9.979 -0.6008 -3.2465  2.7253
 1392TP3      O15994   1.442   3.761   8.188 -0.1456 -0.3799  0.1837
 1392TP3     H115995   1.419   3.686   8.243 -1.2806  0.3847  0.8043
 1392TP3     H215996   1.407   3.837   8.235 -1.3471  0.2921 -1.6733
 1393TP3      O15997   5.260   3.089   3.207  0.1119 -0.2195 -0.0459
 1393TP3     H115998   5.320   3.163   3.199  0.4529 -0.6170 -1.6442
 1393TP3     H215999   5.172   3.128   3.202  0.2497  0.2145  0.7709
 1394TP3      O16000   5.041   1.529   0.299 -0.7584 -0.3820 -0.8333
 1394TP3     H116001   4.994   1.446   0.308 -0.8864 -0.3269 -0.9744
 1394TP3     H216002   4.987   1.580   0.238 -0.4797 -0.3462 -1.0550
 1395TP3      O16003   0.401   1.603   8.085  0.0654  0.1772  0.2540
 1395TP3     H116004   0.470   1.645   8.137  0.3100  1.0151 -0.7109
 1395TP3     H216005   0.320   1.630   8.127  0.3013 -0.5109  1.1779
 1396TP3      O16006   3.024   5.219   7.340 -0.1682  0.3788  0.0894
 1396TP3     H116007   3.065   5.272   7.409  0.2847 -0.0799  0.1750
 1396TP3     H216008   3.083   5.146   7.327 -0.7147 -0.0305 -0.1402
 1397TP3      O16009   2.975   2.590   8.084 -0.1698  0.0385  0.3157
 1397TP3     H116010   2.982   2.504   8.126 -3.1375 -0.5754 -0.2117
 1397TP3     H216011   3.034   2.646   8.135  0.6401 -1.9373  1.6895
 1398TP3      O16012   2.867   2.889   6.857  0.3207 -0.3891  0.1386
 1398TP3     H116013   2.810   2.816   6.883  0.9885 -0.5731  1.1303
 1398TP3     H216014   2.953   2.867   6.893  0.4250  1.1193  0.8926
 1399TP3      O16015   1.978   3.471   1.995  0.4823  0.2055  0.0098
 1399TP3     H116016   1.940   3.397   2.043  0.9296 -0.2324 -0.3151
 1399TP3     H216017   2.070   3.450   1.986  0.6148  0.8013 -0.1014
 1400TP3      O16018   3.408   0.895   7.860 -0.4179  0.1320  0.0651
 1400TP3     H116019   3.406   0.959   7.931 -3.1556  1.1112 -0.7559
 1400TP3     H216020   3.375   0.942   7.784  1.7914 -1.0752 -1.7753
 1401TP3      O16021   4.872   0.277   8.356 -0.1549 -0.3061 -0.0773
 1401TP3     H116022   4.957   0.234   8.367 -1.3053 -2.3445  1.8083
 1401TP3     H216023   4.810   0.217   8.398 -2.0943  2.6283  1.5976
 1402TP3      O16024   1.983   4.719   2.345 -0.3653 -0.4136 -0.0278
 1402TP3     H116025   1.907   4.743   2.398  0.4416 -0.5011  1.1861
 1402TP3     H216026   1.973   4.772   2.265 -0.9020  0.7147  0.7589
 1403TP3      O16027   1.239   4.421   0.031  0.3171 -0.1712 -0.0029
 1403TP3     H116028   1.254   4.355   0.099  2.4939  0.7564  0.4991
 1403TP3     H216029   1.290   4.390  -0.044  2.6237  1.5483  0.7169
 1404TP3      O16030   4.864   5.252   0.325 -0.5641  0.5627 -0.4151
 1404TP3     H116031   4.937   5.265   0.263 -1.7390  0.6199 -1.8464
 1404TP3     H216032   4.786   5.255   0.270 -1.6003 -0.5606  0.9318
 1405TP3      O16033   0.992   0.390   0.648  0.5425 -0.2699  0.4574
 1405TP3     H116034   1.058   0.361   0.711  1.5629 -0.6053 -0.7363
 1405TP3     H216035   0.909   0.359   0.684  1.2509 -1.6809  0.9324
 1406TP3      O16036   4.551   5.167   1.452 -0.4223 -0.4060 -0.5612
 1406TP3     H116037   4.520   5.198   1.367 -0.2619 -0.6758 -0.7179
 1406TP3     H216038   4.493   5.094   1.474  0.0544 -0.8749 -0.8275
 1407TP3      O16039   2.658   2.572   1.200 -0.2870 -0.6652 -0.2851
 1407TP3     H116040   2.657   2.477   1.208 -1.6703 -0.6676 -0.3423
 1407TP3     H216041   2.688   2.603   1.285 -1.4786 -1.1101  0.3138
 1408TP3      O16042   1.969   0.876   9.229 -0.2370 -0.3222  0.3737
 1408TP3     H116043   1.906   0.946   9.213 -0.1608 -0.1538  0.8126
 1408TP3     H216044   1.930   0.799   9.187 -0.7368 -0.2189  0.6451
 1409TP3      O16045   2.679   1.708   1.067  0.4407  0.1184 -0.1935
 1409TP3     H116046   2.696   1.668   1.152 -2.5459 -1.1128 -0.0355
 1409TP3     H216047   2.615   1.777   1.086  0.6836  0.6693 -1.2892
 1410TP3      O16048   1.321   5.215   7.545  0.1740 -0.1373  0.1096
 1410TP3     H116049   1.247   5.156   7.561  1.0654 -1.1778  0.6117
 1410TP3     H216050   1.289   5.277   7.480 -0.9423 -0.9245 -0.1344
 1411TP3      O16051   1.643   2.799  10.081  0.3527  0.4748 -0.0482
 1411TP3     H116052   1.642   2.836  10.169 -0.2209  0.6959 -0.1424
 1411TP3     H216053   1.732   2.767  10.069 -0.3571 -2.5810  1.8669
 1412TP3      O16054   2.270   1.026   0.934  0.3448 -0.4603  0.5618
 1412TP3     H116055   2.338   1.013   0.868  0.6477 -2.2539  1.1749
 1412TP3     H216056   2.192   0.986   0.896 -0.0684  0.4623  0.3986
 1413TP3      O16057   3.090   4.849   9.884 -0.0774 -0.2132 -0.1827
 1413TP3     H116058   3.138   4.929   9.904  2.5781 -1.1901 -2.0220
 1413TP3     H216059   3.108   4.792   9.959 -1.8311  0.7552  1.0472
 1414TP3      O16060   0.424   0.556   2.336  0.0580 -0.1358  0.1941
 1414TP3     H116061   0.401   0.649   2.339 -1.7406 -0.2742 -3.3026
 1414TP3     H216062   0.510   0.551   2.378 -1.0989  2.4866  3.3466
 1415TP3      O16063   0.153   1.000   7.767  0.0733 -0.2292  0.2893
 1415TP3     H116064   0.232   0.998   7.822  0.5879 -1.9463 -0.4257
 1415TP3     H216065   0.179   1.049   7.689 -0.6185  2.0956  1.4423
 1416TP3      O16066   3.774   3.614   0.238  0.4763  0.0305 -0.2181
 1416TP3     H116067   3.750   3.600   0.146  2.0027  0.0581 -0.6409
 1416TP3     H216068   3.705   3.569   0.287  0.9536 -2.1475 -1.4211
 1417TP3      O16069   1.651   2.596   7.246 -0.2333  0.2830 -0.3201
 1417TP3     H116070   1.707   2.671   7.262  3.0890 -1.8127 -1.2016
 1417TP3     H216071   1.666   2.574   7.154 -1.8821 -0.9059 -0.3500
 1418TP3      O16072   1.405   0.369   8.649 -0.1412 -0.1977  0.1490
 1418TP3     H116073   1.381   0.423   8.573 -2.2537 -0.6691  0.4331
 1418TP3     H216074   1.480   0.415   8.688 -0.0856  0.9651 -1.2439
 1419TP3      O16075   1.966   1.657   8.288 -0.1258  0.0639 -0.1180
 1419TP3     H116076   1.905   1.594   8.249  0.2869 -2.6009  3.1315
 1419TP3     H216077   1.910   1.726   8.324 -0.8397 -0.0792 -0.9240
 1420TP3      O16078   2.423   1.145   2.039  0.2569 -0.3362  0.2364
 1420TP3     H116079   2.506   1.129   2.085  1.2569  0.0763 -1.3412
 1420TP3     H216080   2.377   1.209   2.093  2.8457  2.7099 -0.8827
 1421TP3      O16081   1.111   5.229   6.911  0.0472  0.5855  0.1831
 1421TP3     H116082   1.188   5.231   6.854  0.0445 -0.5821  0.1173
 1421TP3     H216083   1.135   5.168   6.981 -1.2860 -0.8543 -0.5500
 1422TP3      O16084   1.191   2.726   2.428 -0.0085  0.1154 -0.5103
 1422TP3     H116085   1.271   2.695   2.472 -0.1495  0.0640 -0.2856
 1422TP3     H216086   1.171   2.656   2.366  1.6213  1.3355 -2.5121
 1423TP3      O16087   0.640   2.157   7.326 -0.3814  0.7590  0.7477
 1423TP3     H116088   0.631   2.153   7.231 -0.7777  2.6010  0.6780
 1423TP3     H216089   0.551   2.146   7.359 -0.4591  1.5790  0.8295
 1424TP3      O16090   3.188   1.059   8.021 -0.3919  0.2032  0.0021
 1424TP3     H116091   3.163   0.981   7.972 -0.4214 -0.1119  0.5167
 1424TP3     H216092   3.211   1.123   7.954  0.0272 -0.3764 -0.4155
 1425TP3      O16093   3.796   4.686   8.149  0.6944  0.0106 -0.6267
 1425TP3     H116094   3.755   4.708   8.065  1.2788 -1.5934 -1.3809
 1425TP3     H216095   3.730   4.709   8.214  0.1932  1.2213 -1.5272
 1426TP3      O16096   2.081   0.153   1.613 -0.3449  0.3964 -0.0545
 1426TP3     H116097   2.008   0.163   1.674  1.0329  0.6085  1.6254
 1426TP3     H216098   2.064   0.069   1.569 -1.4543  0.3316  0.4664
 1427TP3      O16099   1.494   0.341   1.453 -0.8392  0.5471  0.0357
 1427TP3     H116100   1.506   0.433   1.428 -0.7000 -0.1965 -3.0015
 1427TP3     H216101   1.581   0.302   1.441 -0.9303 -0.0346  1.1603
 1428TP3      O16102   5.220   4.725   9.677 -0.0237  0.3095  0.0491
 1428TP3     H116103   5.177   4.764   9.602 -0.7385 -1.9158 -0.7521
 1428TP3     H216104   5.286   4.667   9.640  0.4642  0.1101  1.1716
 1429TP3      O16105   4.935   4.416  10.089 -0.0103  0.5149  0.2881
 1429TP3     H116106   5.027   4.399  10.068 -0.2201 -0.2497 -0.0486
 1429TP3     H216107   4.918   4.502  10.050  0.4188  0.4191 -0.1282
 1430TP3      O16108   2.987   1.608   0.539  0.2004  0.0168 -0.5694
 1430TP3     H116109   3.057   1.657   0.496  1.3442 -1.4011 -0.3806
 1430TP3     H216110   2.964   1.539   0.476 -1.7136  1.0033 -1.0350
 1431TP3      O16111   2.995   4.353   8.251 -0.5467 -0.1882 -0.5204
 1431TP3     H116112   3.072   4.393   8.210  0.2483 -0.4839  0.6446
 1431TP3     H216113   2.978   4.275   8.198 -0.7924  0.5170 -1.5057
 1432TP3      O16114   4.654   4.155   8.239  0.0529 -0.0916 -0.3129
 1432TP3     H116115   4.716   4.217   8.200  0.2689  1.2353  1.9777
 1432TP3     H216116   4.580   4.153   8.178  0.2678  2.0662 -0.7143
 1433TP3      O16117   5.213   3.265   7.273  0.2824  0.1330 -0.1088
 1433TP3     H116118   5.292   3.320   7.277  0.6828 -0.4741  0.7645
 1433TP3     H216119   5.141   3.326   7.290  0.5361  0.7176 -1.0423
 1434TP3      O16120   4.515   3.500   0.209  0.0430  0.0412  0.0881
 1434TP3     H116121   4.444   3.439   0.187 -0.5272 -0.0273  1.9299
 1434TP3     H216122   4.514   3.564   0.139  0.2858 -1.7292 -1.6064
 1435TP3      O16123   0.966   3.340   8.653  0.1953 -0.3167  0.3881
 1435TP3     H116124   0.998   3.389   8.578  0.1656  0.1993  0.7073
 1435TP3     H216125   0.913   3.270   8.615 -0.1674  0.1918 -0.0532
 1436TP3      O16126   2.681   4.155   6.266  0.3521  0.1332  0.2842
 1436TP3     H116127   2.593   4.149   6.304  0.6808  1.0845  1.2522
 1436TP3     H216128   2.714   4.239   6.297  2.0799 -0.7709  1.0050
 1437TP3      O16129   2.138   0.396   7.868 -0.2197 -0.2034  0.5382
 1437TP3     H116130   2.196   0.404   7.792  0.3437  1.3780  1.0810
 1437TP3     H216131   2.055   0.434   7.840 -0.5103 -1.0330  0.2496
 1438TP3      O16132   5.014   1.754   9.275 -0.2992 -0.3441 -0.2693
 1438TP3     H116133   5.040   1.757   9.367 -2.2121  0.3565  0.3132
 1438TP3     H216134   4.968   1.671   9.267 -0.4182 -0.2575 -0.4862
 1439TP3      O16135   1.238   4.324   0.322  0.1235 -0.7498  0.3474
 1439TP3     H116136   1.329   4.300   0.341  1.2350  0.5529 -2.7399
 1439TP3     H216137   1.230   4.414   0.354  0.0883 -0.6690  0.1105
 1440TP3      O16138   0.390   0.744   1.832  0.1203 -0.4950 -0.3410
 1440TP3     H116139   0.354   0.736   1.744 -3.3779  2.6928  0.5567
 1440TP3     H216140   0.393   0.838   1.849  0.9097 -0.9591  2.8544
 1441TP3      O16141   0.336   4.517   7.699  0.0803  0.0277  0.4005
 1441TP3     H116142   0.371   4.498   7.612  2.2113  0.0176  1.1920
 1441TP3     H216143   0.407   4.563   7.744 -0.2440 -1.5115  2.6913
 1442TP3      O16144   2.039   2.179   7.335  0.4637  0.1513  0.0975
 1442TP3     H116145   1.947   2.204   7.340  0.4849  0.2907 -0.1878
 1442TP3     H216146   2.080   2.246   7.280  0.7504  0.1299  0.2785
 1443TP3      O16147   3.294   0.146   1.138  0.5172  0.1979 -0.0711
 1443TP3     H116148   3.264   0.086   1.069  0.8925 -0.9577  0.7347
 1443TP3     H216149   3.382   0.115   1.159  0.3600  0.4581  1.0036
 1444TP3      O16150   1.751   0.749   0.812 -0.0091 -0.1806  0.0902
 1444TP3     H116151   1.669   0.728   0.856 -0.7086 -0.6487 -1.3761
 1444TP3     H216152   1.748   0.844   0.799  0.4908  0.0637  1.5408
 1445TP3      O16153   0.920   3.406   8.371 -0.3470 -0.3058  0.1607
 1445TP3     H116154   0.849   3.383   8.311  0.0767 -0.8426 -0.1502
 1445TP3     H216155   0.948   3.493   8.343 -0.5601 -0.2985 -0.0267
 1446TP3      O16156   2.703   0.093   9.957 -0.6930 -0.6851 -0.0459
 1446TP3     H116157   2.658   0.009   9.964 -0.3677 -0.8005  0.7102
 1446TP3     H216158   2.704   0.128  10.046 -0.7889  0.1028 -0.3485
 1447TP3      O16159   4.444   0.739   8.078 -0.3355  0.4065 -0.5340
 1447TP3     H116160   4.388   0.670   8.043 -0.6121  0.5153 -0.3063
 1447TP3     H216161   4.444   0.725   8.173 -0.1472  0.5325 -0.5135
 1448TP3      O16162   4.878   1.771   1.512 -0.8971  0.1340  0.0853
 1448TP3     H116163   4.968   1.802   1.502 -1.5228  1.6305 -1.5047
 1448TP3     H216164   4.852   1.801   1.599  0.2345 -0.6050  0.6918
 1449TP3      O16165   0.818   3.800   7.679 -0.1531 -0.0432 -0.5107
 1449TP3     H116166   0.774   3.807   7.594 -0.2675  1.8637 -0.3319
 1449TP3     H216167   0.911   3.798   7.657 -0.1939  0.0921 -0.7019
 1450TP3      O16168   4.251   4.922   9.420  0.4853 -0.1263  0.5828
 1450TP3     H116169   4.175   4.930   9.478  1.8762 -0.3203  2.5169
 1450TP3     H216170   4.279   5.012   9.404  0.2351 -0.0833  0.3769
 1451TP3      O16171   4.751   0.334   2.980 -0.1402  0.8399 -0.5546
 1451TP3     H116172   4.834   0.305   2.942  0.1529  2.0641 -0.9024
 1451TP3     H216173   4.696   0.255   2.982  1.4783 -0.3503  1.0085
 1452TP3      O16174   2.329   1.526   8.725  0.0863 -0.2986  0.3130
 1452TP3     H116175   2.302   1.552   8.637 -1.1306 -1.7358  0.2221
 1452TP3     H216176   2.306   1.433   8.730  2.8066 -1.0250  1.1286
 1453TP3      O16177   3.428   0.890   9.092  0.3422 -0.4972 -0.1513
 1453TP3     H116178   3.522   0.885   9.113  0.4082 -1.5067 -0.6366
 1453TP3     H216179   3.411   0.983   9.085  1.7017 -0.3170 -1.7322
 1454TP3      O16180   3.652   2.190   7.281  0.0153  0.0822 -0.4212
 1454TP3     H116181   3.642   2.149   7.195  1.8178 -1.7635  0.1449
 1454TP3     H216182   3.580   2.154   7.332  1.0211 -1.8030 -0.2063
 1455TP3      O16183   0.251   2.437   8.274  0.0183  0.3650 -0.0774
 1455TP3     H116184   0.168   2.486   8.270 -0.6631 -0.8123 -2.0064
 1455TP3     H216185   0.224   2.346   8.289  1.0003  0.0577 -0.1107
 1456TP3      O16186   4.080   5.112   6.851  0.3944  0.2432  0.0656
 1456TP3     H116187   4.016   5.070   6.908  0.3386  1.7732  1.2031
 1456TP3     H216188   4.044   5.104   6.763 -0.4208 -0.5696  0.4644
 1457TP3      O16189   3.552   0.457   2.868 -0.4412  0.1292 -0.0985
 1457TP3     H116190   3.589   0.382   2.914 -0.2394 -0.5061 -1.2524
 1457TP3     H216191   3.463   0.465   2.901 -0.4352 -0.5736  0.0922
 1458TP3      O16192   2.186   5.017   2.053  0.4721  0.5366 -0.4332
 1458TP3     H116193   2.185   4.923   2.069  0.7227  0.5083 -0.5836
 1458TP3     H216194   2.098   5.046   2.077  0.4310  0.2844 -0.2715
 1459TP3      O16195   2.535   4.093   7.412 -0.3668 -0.5889 -0.0863
 1459TP3     H116196   2.547   4.040   7.491 -0.5077 -0.7564 -0.1781
 1459TP3     H216197   2.522   4.029   7.342  1.4479 -0.5036 -0.5412
 1460TP3      O16198   3.895   3.636   7.653 -0.8983  0.0214  0.2972
 1460TP3     H116199   3.984   3.669   7.649 -0.9465  0.5014  2.3162
 1460TP3     H216200   3.862   3.643   7.563  1.2346 -0.6568 -0.5888
 1461TP3      O16201   1.397   0.332   2.329 -0.1751  0.0438 -0.3761
 1461TP3     H116202   1.405   0.390   2.404  0.3163 -1.7000  1.0036
 1461TP3     H216203   1.305   0.339   2.302  0.2426  2.6713 -1.3558
 1462TP3      O16204   3.518   5.089   1.519 -0.0221  0.9216  0.1177
 1462TP3     H116205   3.453   5.048   1.461  0.6216  0.4974 -0.3197
 1462TP3     H216206   3.603   5.066   1.480  0.3748  2.1918  0.1855
 1463TP3      O16207   2.763   0.275   9.420  0.6865 -0.3964  0.4638
 1463TP3     H116208   2.729   0.364   9.428  0.9124 -0.1778 -0.8669
 1463TP3     H216209   2.854   0.282   9.452  1.0552  0.1014 -0.6489
 1464TP3      O16210   1.942   2.836   8.514 -0.1959  0.0604 -0.6005
 1464TP3     H116211   1.929   2.824   8.609 -0.0765 -0.9027 -0.6898
 1464TP3     H216212   2.035   2.854   8.505 -0.5979  2.5598 -0.3450
 1465TP3      O16213   3.993   2.154   7.776  0.3892  0.2423  0.4503
 1465TP3     H116214   4.011   2.236   7.822  0.9279 -0.4782  1.5583
 1465TP3     H216215   3.905   2.129   7.802 -0.9438  1.8647 -2.0892
 1466TP3      O16216   1.822   3.350   1.366  0.7023 -0.2169  0.3567
 1466TP3     H116217   1.818   3.427   1.310 -0.4661 -0.4048  0.1569
 1466TP3     H216218   1.822   3.385   1.455  1.2099  0.0398  0.2587
 1467TP3      O16219   1.268   3.494   7.738  0.1736  0.0681 -0.0215
 1467TP3     H116220   1.318   3.553   7.795  0.5058 -1.1658  1.0229
 1467TP3     H216221   1.244   3.421   7.795 -2.2471  0.2658 -0.6782
 1468TP3      O16222   2.614   0.750   0.529  0.2563 -0.0257 -0.2917
 1468TP3     H116223   2.607   0.770   0.622 -0.3268 -0.9049 -0.1334
 1468TP3     H216224   2.689   0.802   0.498 -1.1429  2.3403  0.0740
 1469TP3      O16225   1.118   2.013   0.272 -0.4137  1.0138 -0.8974
 1469TP3     H116226   1.091   1.999   0.181 -0.3088 -2.7226 -0.5297
 1469TP3     H216227   1.046   1.976   0.324  0.3301  1.4258  0.4801
 1470TP3      O16228   1.842   1.564   0.247  0.2614 -0.1958 -0.1582
 1470TP3     H116229   1.892   1.516   0.313  0.3327 -0.0624 -0.1169
 1470TP3     H216230   1.906   1.619   0.203  0.1049  0.1671  0.0691
 1471TP3      O16231   3.474   3.170  10.023 -0.0364 -0.1238  0.5189
 1471TP3     H116232   3.420   3.228   9.971  0.7495  0.0082 -0.1711
 1471TP3     H216233   3.412   3.124  10.081 -0.7758  0.6023  0.3170
 1472TP3      O16234   2.525   0.987   7.895 -0.2818  0.1225 -0.6858
 1472TP3     H116235   2.498   0.923   7.960  0.4373 -0.4069 -0.8902
 1472TP3     H216236   2.565   0.935   7.825  0.4146  0.7960 -0.8109
 1473TP3      O16237   1.989   4.620   0.920 -0.2421  0.2778  0.0307
 1473TP3     H116238   1.904   4.595   0.958 -1.6071  0.2061 -2.7724
 1473TP3     H216239   2.020   4.690   0.976 -2.9191  1.3152  0.3930
 1474TP3      O16240   2.542   2.127   2.325  0.3553  0.4678  0.0143
 1474TP3     H116241   2.574   2.214   2.350  1.3282  0.2671 -0.4599
 1474TP3     H216242   2.621   2.078   2.302 -0.3221  0.1268 -1.7986
 1475TP3      O16243   0.060   3.207   1.083 -0.0623 -0.0408 -0.2696
 1475TP3     H116244   0.133   3.200   1.145 -1.5757 -0.0021  1.6241
 1475TP3     H216245   0.073   3.291   1.039  0.2965  0.6287  1.0666
 1476TP3      O16246   3.646   1.691   3.254 -0.0833 -0.2726 -0.1041
 1476TP3     H116247   3.575   1.696   3.191  1.8450  1.9169 -2.2772
 1476TP3     H216248   3.705   1.624   3.218  1.1529  1.1708 -0.8670
 1477TP3      O16249   3.623   0.068   0.415 -0.3240 -0.4200  0.7920
 1477TP3     H116250   3.630   0.120   0.335  0.6469 -0.3568  0.9108
 1477TP3     H216251   3.672  -0.012   0.396  1.2991  0.2852  1.8637
 1478TP3      O16252   2.843   3.333   6.651  0.7707 -0.7084  0.3686
 1478TP3     H116253   2.882   3.404   6.701 -1.3326  0.3670  0.6239
 1478TP3     H216254   2.750   3.337   6.675  0.4562 -3.0282 -0.2496
 1479TP3      O16255   2.575   2.580   7.275  0.1746 -0.4129  0.0729
 1479TP3     H116256   2.490   2.600   7.236 -0.1570 -0.7930  0.5923
 1479TP3     H216257   2.594   2.490   7.247 -0.3082 -0.8789  1.1947
 1480TP3      O16258   0.526   1.260   0.144 -0.2820  0.2332  0.1398
 1480TP3     H116259   0.615   1.289   0.163  0.4954 -2.6677  1.4031
 1480TP3     H216260   0.525   1.245   0.049  0.9673 -0.7839  0.2655
 1481TP3      O16261   1.402   4.614   1.489 -0.5120  0.0159 -0.0331
 1481TP3     H116262   1.375   4.524   1.468 -0.4541  0.3491 -1.6809
 1481TP3     H216263   1.324   4.653   1.527 -1.8690  0.3507 -2.8496
 1482TP3      O16264   2.370   4.085   9.286 -0.2712  0.0062  0.5906
 1482TP3     H116265   2.436   4.075   9.355 -0.5191 -2.1533  0.5898
 1482TP3     H216266   2.420   4.101   9.207  0.4133 -2.6773  0.3928
 1483TP3      O16267   0.377   4.001   7.339  0.3565 -0.2949 -0.5218
 1483TP3     H116268   0.373   3.917   7.295  0.0555  0.0427 -1.1571
 1483TP3     H216269   0.319   4.058   7.288 -1.6749 -0.4149  1.4496
 1484TP3      O16270   2.943   3.486   7.890  0.2542 -0.4040  0.3417
 1484TP3     H116271   2.854   3.451   7.897 -0.4903  0.7660 -2.2017
 1484TP3     H216272   2.995   3.410   7.863 -0.3049 -0.7124  0.0973
 1485TP3      O16273   4.554   1.080   7.306 -0.2856 -0.2341 -0.5915
 1485TP3     H116274   4.529   0.997   7.345  0.8205  0.2983  1.3796
 1485TP3     H216275   4.644   1.066   7.276  0.0589  0.3589  0.1384
 1486TP3      O16276   1.521   1.715   7.378  0.0233 -0.5041 -0.6357
 1486TP3     H116277   1.571   1.682   7.303  0.6570 -0.5853 -0.1890
 1486TP3     H216278   1.584   1.770   7.426  0.3454 -2.2508  1.0758
 1487TP3      O16279   2.354   5.189   7.342 -0.5583 -0.0710 -0.0815
 1487TP3     H116280   2.420   5.256   7.364  0.1969 -0.1950 -1.8240
 1487TP3     H216281   2.277   5.239   7.316 -0.9580  0.0766  1.3044
 1488TP3      O16282   0.358   3.864   1.077  0.1673 -0.3642  0.0213
 1488TP3     H116283   0.313   3.897   0.998  1.1597 -0.5949 -0.6571
 1488TP3     H216284   0.392   3.943   1.119 -1.0868 -0.1528  0.7088
 1489TP3      O16285   0.650   3.144   8.022 -0.3253 -0.1659 -0.1072
 1489TP3     H116286   0.573   3.177   8.069  0.4254  1.3804  0.1209
 1489TP3     H216287   0.616   3.120   7.936 -1.0192  0.8615 -0.1462
 1490TP3      O16288   1.057   2.258   0.850 -0.2851 -0.1010 -0.1600
 1490TP3     H116289   1.145   2.285   0.823 -0.6230  0.6214 -0.5611
 1490TP3     H216290   1.051   2.166   0.822  0.5001 -0.2989  0.2869
 1491TP3      O16291   1.033   2.024   0.692  0.1394  0.0626 -0.1395
 1491TP3     H116292   0.940   2.011   0.673  0.7270 -0.4352 -3.1627
 1491TP3     H216293   1.074   1.941   0.670  1.4720  0.7151 -0.2042
 1492TP3      O16294   2.945   5.024   8.120 -0.0925  0.7851 -0.0285
 1492TP3     H116295   3.036   4.992   8.120 -0.1468  0.6115 -0.6475
 1492TP3     H216296   2.926   5.040   8.027 -1.1505 -0.5369 -0.0681
 1493TP3      O16297   2.267   1.133   1.696  0.1347  0.2080 -0.1239
 1493TP3     H116298   2.300   1.047   1.668  0.3551  0.5800 -1.0680
 1493TP3     H216299   2.317   1.195   1.643 -0.9174  0.8668 -0.3654
 1494TP3      O16300   4.997   2.997   0.235  0.6424 -0.1447 -0.0107
 1494TP3     H116301   5.015   3.091   0.223  3.1715 -0.7147 -1.6982
 1494TP3     H216302   4.977   2.988   0.328  0.6659  2.0220  0.2663
 1495TP3      O16303   4.814   4.621   8.841  0.3183 -0.1054  0.4397
 1495TP3     H116304   4.751   4.589   8.776  1.7415 -1.3953 -0.3627
 1495TP3     H216305   4.898   4.617   8.797  0.9750  1.7851  1.4282
 1496TP3      O16306   2.346   3.680   8.428 -0.2712 -0.6648 -0.0802
 1496TP3     H116307   2.381   3.636   8.506 -1.2222 -1.4158 -0.0602
 1496TP3     H216308   2.424   3.713   8.383  0.3303 -0.6778  0.9088
 1497TP3      O16309   4.821   3.675   1.712  0.3680 -0.3603  0.5005
 1497TP3     H116310   4.871   3.755   1.697 -0.7892  0.3643  0.3875
 1497TP3     H216311   4.765   3.667   1.635 -1.9523  0.5942  1.9916
 1498TP3      O16312   3.404   0.583   8.277 -0.1275  0.0873  0.2948
 1498TP3     H116313   3.439   0.655   8.225  1.7840 -0.7289  0.3686
 1498TP3     H216314   3.438   0.598   8.365  0.0114 -0.7292  0.3883
 1499TP3      O16315   3.212   1.920  10.019 -0.2116  0.4427 -0.1811
 1499TP3     H116316   3.123   1.915   9.985 -0.4850  0.5493  0.4927
 1499TP3     H216317   3.262   1.858   9.967 -0.6143  0.6017 -0.7614
 1500TP3      O16318   0.556   0.568   8.049 -0.0193 -0.2580  0.0802
 1500TP3     H116319   0.477   0.525   8.081 -0.6174  0.8871  0.1626
 1500TP3     H216320   0.527   0.619   7.973  0.7303 -0.1915 -0.1709
 1501TP3      O16321   1.900   3.335   9.513  0.1626 -0.0731  0.2378
 1501TP3     H116322   1.917   3.357   9.605  1.4166  0.8010 -0.1729
 1501TP3     H216323   1.892   3.420   9.469  1.7164 -0.4328 -0.8134
 1502TP3      O16324   3.771   2.054   7.882 -0.2801 -0.2847 -0.9557
 1502TP3     H116325   3.838   1.991   7.908 -0.5436 -0.1058  0.1962
 1502TP3     H216326   3.689   2.004   7.886 -0.4099 -0.0515 -0.7217
 1503TP3      O16327   1.952   0.436   8.878 -0.1385  0.8228  0.4867
 1503TP3     H116328   1.995   0.522   8.871  0.3015  0.4913 -1.9003
 1503TP3     H216329   1.859   0.455   8.860  0.0177  0.7890 -0.4277
 1504TP3      O16330   0.856   4.745   8.155  0.3036 -0.3752  0.1729
 1504TP3     H116331   0.789   4.808   8.129  0.1891  0.0154  1.3536
 1504TP3     H216332   0.887   4.777   8.239  1.1072 -1.2369  0.2159
 1505TP3      O16333   1.836   0.033   7.567 -0.3872  0.1774  0.1533
 1505TP3     H116334   1.843   0.081   7.650 -0.4321 -1.2280  1.0051
 1505TP3     H216335   1.742   0.030   7.548 -0.3982  0.2593  0.1946
 1506TP3      O16336   0.825   2.347   1.688  0.4645 -0.1623 -0.2255
 1506TP3     H116337   0.809   2.282   1.620  0.7803 -0.8361  0.3277
 1506TP3     H216338   0.903   2.315   1.734  1.0179  0.9471 -0.3439
 1507TP3      O16339   4.523   2.376   0.129 -0.3518  0.0693  0.0607
 1507TP3     H116340   4.572   2.386   0.047 -0.1396  1.9236  0.3654
 1507TP3     H216341   4.457   2.445   0.127 -0.7966 -0.2890  1.1510
 1508TP3      O16342   3.480   3.826   0.942 -0.2556  0.1666  0.0981
 1508TP3     H116343   3.414   3.894   0.957 -0.4756 -0.1634  0.6919
 1508TP3     H216344   3.497   3.828   0.848 -0.1651  1.1278  0.1318
 1509TP3      O16345   2.291   1.807   0.343 -0.2140  0.2022  0.3668
 1509TP3     H116346   2.252   1.878   0.394 -1.3019 -0.8603  1.0705
 1509TP3     H216347   2.274   1.728   0.395  0.6171 -0.6298 -0.5824
 1510TP3      O16348   2.748   4.894   8.513 -0.5561 -0.8816  0.1432
 1510TP3     H116349   2.743   4.968   8.453 -0.8316 -0.0610  1.1480
 1510TP3     H216350   2.839   4.866   8.510 -0.6262 -1.0158 -0.8469
 1511TP3      O16351   0.971   2.937   8.821  0.2361  0.3963  0.3421
 1511TP3     H116352   1.042   2.926   8.884 -0.0615  2.6413  1.1708
 1511TP3     H216353   0.994   2.880   8.748  1.0536 -1.6057  2.0749
 1512TP3      O16354   4.106   1.568   0.850  0.1749 -0.3936  0.7761
 1512TP3     H116355   4.138   1.486   0.811  0.0540  0.0203 -0.1990
 1512TP3     H216356   4.011   1.562   0.842  0.2192  0.5494 -0.7879
 1513TP3      O16357   0.746   1.714   7.974 -0.2649 -0.0222  0.0192
 1513TP3     H116358   0.708   1.704   8.062  0.1464  1.1771  0.3660
 1513TP3     H216359   0.751   1.809   7.962  0.9923 -0.1604 -0.7250
 1514TP3      O16360   2.344   2.353   8.561  0.1593 -0.4683 -0.2819
 1514TP3     H116361   2.335   2.351   8.656  0.5427  0.3122 -0.2205
 1514TP3     H216362   2.316   2.442   8.536  1.1360 -0.2879 -0.7720
 1515TP3      O16363   3.040   2.359   9.396 -0.3032 -0.1208  0.2515
 1515TP3     H116364   3.099   2.428   9.367  1.3352 -2.3836 -2.1421
 1515TP3     H216365   3.097   2.286   9.420 -1.9661 -0.6893  2.8978
 1516TP3      O16366   2.336   0.685   7.822 -0.7490 -0.1231  0.1229
 1516TP3     H116367   2.330   0.685   7.917 -0.2437  1.1730  0.1721
 1516TP3     H216368   2.260   0.736   7.793 -0.7387 -0.2606 -0.1546
 1517TP3      O16369   3.809   2.455   6.683  0.4268  0.0247 -0.5438
 1517TP3     H116370   3.837   2.364   6.669  2.0548  0.6336 -1.5369
 1517TP3     H216371   3.841   2.476   6.771 -0.9004 -0.6557  0.1395
 1518TP3      O16372   2.765   1.988   8.262  0.1863  0.0430  0.3505
 1518TP3     H116373   2.838   1.978   8.324  0.5707 -0.6958 -0.1940
 1518TP3     H216374   2.687   1.995   8.317  0.6857  1.0361  0.9513
 1519TP3      O16375   1.752   1.202   0.536  0.4297  0.1103  0.1824
 1519TP3     H116376   1.737   1.183   0.444  2.6236  1.7728 -0.6112
 1519TP3     H216377   1.694   1.276   0.556  0.8952  0.6031 -0.2599
 1520TP3      O16378   2.481   3.195  10.105 -0.2620 -0.3762  0.0286
 1520TP3     H116379   2.476   3.120  10.046 -1.7167 -1.7531  1.7866
 1520TP3     H216380   2.524   3.161  10.183 -2.0168  0.2406  1.3255
 1521TP3      O16381   1.439   2.877   9.156  0.9021 -0.1762  0.5378
 1521TP3     H116382   1.532   2.901   9.153  1.4230 -2.0116 -1.5801
 1521TP3     H216383   1.439   2.784   9.133 -1.5641  0.2146 -1.4672
 1522TP3      O16384   3.646   3.229   2.337 -0.1511  0.0123 -0.3146
 1522TP3     H116385   3.635   3.231   2.432 -1.3275  0.8423 -0.4364
 1522TP3     H216386   3.610   3.313   2.307  0.3971 -0.1380 -1.4783
 1523TP3      O16387   0.609   0.827   8.188 -0.5563 -0.2935 -0.1142
 1523TP3     H116388   0.703   0.823   8.169 -0.6132  1.0741 -0.7635
 1523TP3     H216389   0.568   0.783   8.114 -0.5040  0.5599 -0.6599
 1524TP3      O16390   1.042   5.260   8.187 -0.2733  0.7375  0.2668
 1524TP3     H116391   1.033   5.286   8.096  0.4842  0.3178  0.0625
 1524TP3     H216392   1.137   5.254   8.201 -0.3843 -1.3878  0.4202
 1525TP3      O16393   5.258   5.074   8.086  0.4184 -0.1413 -0.0479
 1525TP3     H116394   5.220   5.146   8.035 -0.8782  1.1933  2.5387
 1525TP3     H216395   5.235   4.995   8.038 -0.1203  1.0534 -1.8344
 1526TP3      O16396   0.601   1.635   1.090 -0.1304  0.0596 -0.1668
 1526TP3     H116397   0.663   1.603   1.025  0.7198  2.1281 -0.4741
 1526TP3     H216398   0.517   1.599   1.063  0.1939  0.8278 -2.4663
 1527TP3      O16399   3.507   4.784   6.933  0.3291  0.2664  0.3135
 1527TP3     H116400   3.496   4.727   7.009 -0.4627 -0.8559 -0.6167
 1527TP3     H216401   3.541   4.726   6.865 -1.9588  0.5174 -1.1179
 1528TP3      O16402   1.596   1.843   9.184  0.0453  0.3634 -0.1432
 1528TP3     H116403   1.532   1.887   9.127  0.4941  0.8838 -0.2563
 1528TP3     H216404   1.673   1.831   9.129  0.2480  0.2623  0.1622
 1529TP3      O16405   3.230   4.611   7.217  0.1738 -0.2731  0.1839
 1529TP3     H116406   3.204   4.693   7.176 -0.8348 -0.1608  0.9982
 1529TP3     H216407   3.281   4.565   7.150  0.7172  0.9878 -0.2852
 1530TP3      O16408   3.550   1.725   8.251 -0.1346 -0.1638  0.7449
 1530TP3     H116409   3.514   1.686   8.331  0.1659 -0.6947  0.6261
 1530TP3     H216410   3.605   1.797   8.282 -1.0901  0.5050  0.9417
 1531TP3      O16411   3.088   1.070   2.914  1.0267  0.1725 -0.3126
 1531TP3     H116412   3.065   1.148   2.864  0.8086  0.0076 -0.4804
 1531TP3     H216413   3.138   1.101   2.988  0.0893  0.5785  0.1672
 1532TP3      O16414   2.430   0.128   7.503 -0.4388 -0.1371 -0.0638
 1532TP3     H116415   2.356   0.173   7.462 -2.4120 -1.3364  2.0027
 1532TP3     H216416   2.507   0.176   7.471 -1.9126  0.2439 -3.4772
 1533TP3      O16417   0.192   2.521   9.016  0.0856 -0.1662  0.3666
 1533TP3     H116418   0.226   2.580   8.949  1.4704 -0.9215  0.3713
 1533TP3     H216419   0.240   2.440   9.003 -1.8336 -1.3378  0.3132
 1534TP3      O16420   4.915   4.961   8.022 -0.2012  0.3789  0.5264
 1534TP3     H116421   4.926   4.966   8.117  0.9344  0.1571  0.4179
 1534TP3     H216422   4.820   4.958   8.009 -0.3655  0.2631  1.6604
 1535TP3      O16423   4.874   3.284   0.719  0.1224 -0.4594 -0.1701
 1535TP3     H116424   4.952   3.272   0.773 -0.8357  0.8202  1.6557
 1535TP3     H216425   4.898   3.354   0.658  0.6707 -0.6598 -0.1893
 1536TP3      O16426   2.311   0.765   1.699 -0.2066 -0.6240 -0.0655
 1536TP3     H116427   2.336   0.696   1.638  0.4324 -0.7188  0.2952
 1536TP3     H216428   2.394   0.805   1.725 -0.5575  0.2169 -0.1920
 1537TP3      O16429   2.199   1.389   8.019  0.5118 -0.1937 -0.5287
 1537TP3     H116430   2.276   1.412   7.966 -0.7730  1.2229 -1.8768
 1537TP3     H216431   2.226   1.406   8.109  1.4471  1.3727 -1.0628
 1538TP3      O16432   3.505   3.452   6.687 -0.8576  0.6331 -0.1266
 1538TP3     H116433   3.540   3.494   6.765 -0.9579  0.0191  0.2577
 1538TP3     H216434   3.540   3.363   6.690 -0.1069  0.8636 -1.2729
 1539TP3      O16435   4.034   0.214   0.179 -0.0989  0.0522  0.3690
 1539TP3     H116436   4.095   0.253   0.116 -0.6606  0.0086 -0.2136
 1539TP3     H216437   3.963   0.178   0.125 -0.1300 -0.8242  0.9618
 1540TP3      O16438   4.318   2.858   9.401 -0.0102 -0.7129  0.2296
 1540TP3     H116439   4.373   2.901   9.336 -0.5449 -0.0338  0.2085
 1540TP3     H216440   4.377   2.801   9.450  0.8628  0.5531  0.6965
 1541TP3      O16441   4.251   0.506   9.846  0.1244  0.4550 -0.1207
 1541TP3     H116442   4.338   0.510   9.808 -0.3414  1.0502 -1.1591
 1541TP3     H216443   4.246   0.581   9.905  0.3945  0.2717  0.1391
 1542TP3      O16444   4.316   1.566   9.724  0.1120  0.5148  0.3039
 1542TP3     H116445   4.383   1.569   9.793  1.6931 -2.3185 -0.9457
 1542TP3     H216446   4.276   1.479   9.733 -1.1075  0.8910 -1.0784
 1543TP3      O16447   3.192   3.593   2.536 -0.5048  0.2100 -0.0487
 1543TP3     H116448   3.135   3.553   2.470 -0.1372 -1.8160  0.7577
 1543TP3     H216449   3.239   3.662   2.490 -0.5530 -0.8844 -1.8161
 1544TP3      O16450   2.568   5.238   2.512 -0.2633 -0.2561 -0.7698
 1544TP3     H116451   2.497   5.263   2.454  0.2465  1.8858 -0.5598
 1544TP3     H216452   2.636   5.205   2.454 -0.2156  0.7382 -1.3056
 1545TP3      O16453   4.493   0.704   0.795 -0.1627 -0.7264 -0.3383
 1545TP3     H116454   4.507   0.614   0.766 -0.2390 -0.7248 -0.3802
 1545TP3     H216455   4.581   0.743   0.797 -0.1357 -0.7869 -0.3680
 1546TP3      O16456   3.895   0.936   8.202 -0.0179 -0.4241  0.0930
 1546TP3     H116457   3.910   0.881   8.279 -1.3913 -0.1350  0.6099
 1546TP3     H216458   3.838   0.883   8.146 -0.4701  0.0480  0.1028
 1547TP3      O16459   4.697   4.755   6.968  0.0804 -0.2138 -0.1905
 1547TP3     H116460   4.678   4.679   7.023  0.2494  1.3095  2.1060
 1547TP3     H216461   4.615   4.772   6.922 -0.5283 -0.6753  0.6913
 1548TP3      O16462   3.184   0.316   8.134  0.2822 -0.1099 -0.2934
 1548TP3     H116463   3.253   0.365   8.091  0.0946 -1.0492 -1.7297
 1548TP3     H216464   3.227   0.237   8.166  0.6094  0.9577  2.1189
 1549TP3      O16465   4.225   3.652   9.575 -0.0374  0.0514  0.1420
 1549TP3     H116466   4.258   3.629   9.488 -1.0440  1.4073 -0.6272
 1549TP3     H216467   4.304   3.660   9.629  0.5108 -4.2438  0.3471
 1550TP3      O16468   2.442   2.693   8.977 -0.0634  0.4615 -0.7189
 1550TP3     H116469   2.431   2.782   8.942 -0.3477  1.1506  0.9922
 1550TP3     H216470   2.519   2.659   8.932 -0.8574  0.9493 -2.5608
 1551TP3      O16471   4.378   3.313   9.635  0.2810 -0.4713  0.2743
 1551TP3     H116472   4.464   3.303   9.596  0.5134  0.3321  0.5764
 1551TP3     H216473   4.320   3.333   9.562  0.1712 -1.8499 -0.0576
 1552TP3      O16474   1.891   4.164   9.036 -0.1097 -0.2698 -0.5449
 1552TP3     H116475   1.829   4.104   9.078  3.6438 -3.0925  1.5702
 1552TP3     H216476   1.885   4.144   8.943 -2.1517 -0.5773 -0.3905
 1553TP3      O16477   0.387   3.335  10.001  0.4393  0.1278  0.0412
 1553TP3     H116478   0.326   3.265   9.981  0.0795  0.5199 -0.2377
 1553TP3     H216479   0.376   3.398   9.930  1.4408  0.0233 -0.2238
 1554TP3      O16480   3.046   2.968   9.122 -0.1593 -1.0927  0.6116
 1554TP3     H116481   3.017   3.054   9.152 -0.7673 -0.3138 -1.9789
 1554TP3     H216482   3.077   2.983   9.033 -1.2304 -3.6939 -0.3029
 1555TP3      O16483   3.572   3.483   7.467 -0.9068  0.1450 -0.2975
 1555TP3     H116484   3.577   3.424   7.542 -2.2015 -1.6601 -1.5498
 1555TP3     H216485   3.478   3.498   7.454 -0.6844  0.8028 -1.2692
 1556TP3      O16486   3.032   1.337   0.440  0.1313 -0.2350  0.8062
 1556TP3     H116487   3.107   1.314   0.494  0.1227 -0.9175  0.5377
 1556TP3     H216488   3.013   1.258   0.390 -0.5513  0.0356  0.6167
 1557TP3      O16489   0.414   2.272   7.625 -0.3475 -0.2219 -0.6441
 1557TP3     H116490   0.406   2.233   7.538  2.2603  0.5222 -1.2894
 1557TP3     H216491   0.338   2.331   7.631 -0.8429 -0.6501 -2.1963
 1558TP3      O16492   2.615   2.492   7.936 -0.1896 -0.1087  0.0077
 1558TP3     H116493   2.596   2.410   7.982  0.7386  0.1265  0.8711
 1558TP3     H216494   2.632   2.555   8.007  1.9552  0.1065 -0.6241
 1559TP3      O16495   4.852   4.583   6.819  0.0385 -0.4231 -0.0319
 1559TP3     H116496   4.820   4.656   6.871 -2.9972 -1.7789  0.1890
 1559TP3     H216497   4.777   4.525   6.810  1.9556 -2.8969 -1.3271
 1560TP3      O16498   1.354   2.867   1.915 -0.0096 -0.3304 -0.5529
 1560TP3     H116499   1.377   2.779   1.884  0.7264 -0.2440 -0.2720
 1560TP3     H216500   1.332   2.855   2.008 -0.9044 -0.3749 -0.7628
 1561TP3      O16501   3.705   2.138   9.107 -0.1199 -0.8048  0.4272
 1561TP3     H116502   3.609   2.136   9.112 -0.1209 -1.7359  0.2784
 1561TP3     H216503   3.732   2.052   9.140  0.7336 -0.0938  1.6318
 1562TP3      O16504   5.091   1.033   9.220 -0.2745  0.1678  0.4250
 1562TP3     H116505   5.075   1.089   9.144  2.1012 -1.3720 -1.3355
 1562TP3     H216506   5.043   0.953   9.201  1.5958 -0.8343 -0.2996
 1563TP3      O16507   3.132   3.408   9.023 -0.1226  0.1924 -0.1250
 1563TP3     H116508   3.123   3.361   9.105 -0.4527  0.7628  0.1679
 1563TP3     H216509   3.174   3.491   9.047 -1.3046  0.8698 -0.3498
 1564TP3      O16510   3.755   4.928   8.476  0.1349 -0.3396 -0.0356
 1564TP3     H116511   3.807   4.853   8.503 -0.3508 -0.0748  1.7641
 1564TP3     H216512   3.667   4.910   8.510 -0.7413 -0.3319 -2.1917
 1565TP3      O16513   1.723   0.629   9.447 -0.0588  0.0080  0.0255
 1565TP3     H116514   1.681   0.676   9.520  1.2974 -0.4847  1.1792
 1565TP3     H216515   1.796   0.582   9.488  0.9444 -0.0464 -1.7110
 1566TP3      O16516   3.209   4.602   7.591  0.4308  0.2522 -0.2255
 1566TP3     H116517   3.161   4.683   7.579  0.4024  0.1809 -0.6289
 1566TP3     H216518   3.282   4.608   7.529  0.4925  0.0208 -0.1768
 1567TP3      O16519   0.753   0.223   7.122  0.2031  0.2136 -0.6655
 1567TP3     H116520   0.827   0.238   7.181  1.7219 -0.1346 -2.4099
 1567TP3     H216521   0.783   0.155   7.063 -1.5057  0.1231 -1.4879
 1568TP3      O16522   3.354   0.265   0.250 -0.1569  0.4915 -0.4706
 1568TP3     H116523   3.379   0.303   0.334  1.0538  1.2189 -1.1389
 1568TP3     H216524   3.281   0.320   0.220  0.2839  1.0597 -0.5091
 1569TP3      O16525   4.693   3.887   8.487  0.2349  0.0518  0.0978
 1569TP3     H116526   4.685   3.809   8.541  1.1076  1.8007  3.0541
 1569TP3     H216527   4.613   3.936   8.503 -0.0716  0.0547 -1.2999
 1570TP3      O16528   1.173   0.694   1.752  0.2550 -0.8384 -0.4342
 1570TP3     H116529   1.109   0.692   1.680 -0.5461  0.6934  0.1876
 1570TP3     H216530   1.149   0.620   1.807  0.8619 -2.0188 -1.6938
 1571TP3      O16531   1.975   2.387  10.013  0.0649 -0.2546 -0.0482
 1571TP3     H116532   1.928   2.348   9.940  0.5038  2.1062 -1.7069
 1571TP3     H216533   2.062   2.347  10.009 -0.3347 -1.1678  0.0921
 1572TP3      O16534   0.564   2.385   8.605  0.2722  0.0720 -0.1866
 1572TP3     H116535   0.655   2.395   8.575  0.2731  2.3225  0.4083
 1572TP3     H216536   0.524   2.470   8.589 -1.0237 -0.0753  1.8966
 1573TP3      O16537   3.200   1.647   2.986 -0.0518  0.3778 -0.3951
 1573TP3     H116538   3.244   1.564   2.967 -0.0046  0.7025 -1.8364
 1573TP3     H216539   3.108   1.631   2.967 -0.3100  0.2037  0.9189
 1574TP3      O16540   1.008   2.683   8.308 -0.5855  0.4126  0.0317
 1574TP3     H116541   0.946   2.623   8.267 -1.1174 -0.4947  2.0450
 1574TP3     H216542   1.027   2.747   8.240 -1.8520 -0.6636 -1.4225
 1575TP3      O16543   3.980   1.074   9.195  0.0795 -0.8459 -0.4934
 1575TP3     H116544   3.986   1.080   9.100 -0.1771 -0.4186 -0.4845
 1575TP3     H216545   3.887   1.054   9.212  0.3175 -1.9354 -0.3768
 1576TP3      O16546   3.993   0.029   8.416  0.1724 -0.4865  0.2654
 1576TP3     H116547   3.990   0.106   8.359 -0.1295  0.1990  1.1584
 1576TP3     H216548   3.920   0.043   8.477  0.6971 -1.0101  1.0305
 1577TP3      O16549   5.144   0.739   6.902  0.1728 -0.0780  0.6242
 1577TP3     H116550   5.233   0.709   6.884  0.7239  0.2025  2.7184
 1577TP3     H216551   5.089   0.686   6.843  1.7624  0.6254 -1.6124
 1578TP3      O16552   3.346   3.219   1.874  0.0168  0.0942 -0.0780
 1578TP3     H116553   3.371   3.301   1.916 -1.2619  0.2347  0.4511
 1578TP3     H216554   3.252   3.211   1.890 -0.2234 -0.5921 -1.6652
 1579TP3      O16555   4.560   1.475   8.593  0.1259 -0.4426  0.5695
 1579TP3     H116556   4.626   1.511   8.651  0.5466 -1.4649  0.7465
 1579TP3     H216557   4.584   1.382   8.584  0.3250 -0.2250 -1.5742
 1580TP3      O16558   2.551   5.190   1.732 -0.2472  0.2322  0.7405
 1580TP3     H116559   2.500   5.192   1.813  1.1934  0.5990  1.6763
 1580TP3     H216560   2.592   5.103   1.731  1.2430  0.8779  1.4310
 1581TP3      O16561   0.775   2.114   8.814 -0.2069 -0.1844 -0.0599
 1581TP3     H116562   0.830   2.142   8.741  0.5230 -0.5631  0.3374
 1581TP3     H216563   0.710   2.056   8.774 -0.8780  0.9370 -0.6682
 1582TP3      O16564   4.598   2.166   9.725 -0.0394  0.3001 -0.2883
 1582TP3     H116565   4.679   2.215   9.708 -0.3459  0.4523 -1.4173
 1582TP3     H216566   4.544   2.182   9.648 -1.4478  0.7631  0.7561
 1583TP3      O16567   1.195   3.672   8.540  0.2609 -0.8091 -0.0173
 1583TP3     H116568   1.120   3.702   8.489  0.6511  0.1700 -0.0299
 1583TP3     H216569   1.240   3.609   8.483  1.3585  1.1238 -1.3910
 1584TP3      O16570   3.893   2.139   9.875 -0.4237  0.1997  0.2043
 1584TP3     H116571   3.949   2.065   9.898 -2.3585 -0.7409  2.2657
 1584TP3     H216572   3.840   2.106   9.803  0.9380  0.7777 -1.1205
 1585TP3      O16573   3.741   4.056   6.846 -0.0675  0.8750  0.1059
 1585TP3     H116574   3.832   4.029   6.852 -0.0426  0.4541 -1.7980
 1585TP3     H216575   3.731   4.122   6.915  1.2692 -0.1102  1.2814
 1586TP3      O16576   4.342   4.047   1.774  0.0120  0.3835 -0.0141
 1586TP3     H116577   4.287   4.075   1.700  0.1463  0.7385  0.0159
 1586TP3     H216578   4.314   4.104   1.847  1.5125  1.6999 -0.3991
 1587TP3      O16579   4.173   0.027   8.639  0.4176  0.0619  0.1452
 1587TP3     H116580   4.157   0.037   8.545  0.8613  0.5099  0.1128
 1587TP3     H216581   4.129   0.101   8.679 -0.1687 -0.3824  0.3448
 1588TP3      O16582   3.601   3.714   8.792 -0.2806  0.1146  0.2746
 1588TP3     H116583   3.608   3.801   8.753  0.5417 -1.4437 -3.4642
 1588TP3     H216584   3.507   3.695   8.789 -0.3434  0.4419  0.0401
 1589TP3      O16585   1.420   5.167   0.424 -0.6171 -0.1962 -0.5162
 1589TP3     H116586   1.409   5.212   0.340  1.8113  0.0864 -0.7622
 1589TP3     H216587   1.450   5.079   0.401  1.1034  0.2044 -0.0081
 1590TP3      O16588   3.868   1.692   7.536 -0.4225  0.3486  0.9182
 1590TP3     H116589   3.900   1.637   7.465 -0.4353 -0.5584  1.5950
 1590TP3     H216590   3.925   1.769   7.534 -0.0302  0.0517  0.3115
 1591TP3      O16591   3.867   2.573   8.070  0.5462 -0.0076 -0.5238
 1591TP3     H116592   3.933   2.621   8.020  0.5334  1.3554  0.6859
 1591TP3     H216593   3.788   2.627   8.063  0.5108  0.1457  0.8298
 1592TP3      O16594   4.218   2.681   1.148  0.2326  0.5002 -0.3014
 1592TP3     H116595   4.222   2.760   1.093  0.3598  0.1948 -0.7397
 1592TP3     H216596   4.177   2.615   1.092 -0.6638  0.4830  0.3536
 1593TP3      O16597   0.727   0.738   1.904  0.8213 -0.2461  0.4014
 1593TP3     H116598   0.722   0.672   1.973  1.7159  0.3749  1.0806
 1593TP3     H216599   0.641   0.735   1.861  1.0495 -2.2984 -0.0249
 1594TP3      O16600   3.071   0.998   1.265  0.3702  0.0988  0.0070
 1594TP3     H116601   2.977   1.015   1.270  0.5089  0.6778  1.0226
 1594TP3     H216602   3.092   0.955   1.349  1.0585  0.2396 -0.0849
 1595TP3      O16603   0.434   4.667   1.466 -0.2661  0.1957  0.0674
 1595TP3     H116604   0.375   4.738   1.491 -1.4189 -0.2461 -1.3436
 1595TP3     H216605   0.419   4.599   1.532 -2.6133 -0.5944 -1.2051
 1596TP3      O16606   2.831   4.586   6.580 -0.1506 -0.1717 -0.3785
 1596TP3     H116607   2.785   4.597   6.663 -1.4186 -1.0684 -0.9180
 1596TP3     H216608   2.829   4.672   6.539  2.4456  0.8548  1.4299
 1597TP3      O16609   4.148   4.077   8.696 -0.2889  0.0856 -0.4409
 1597TP3     H116610   4.243   4.065   8.705 -0.1287  1.9824  0.8439
 1597TP3     H216611   4.119   4.103   8.783 -1.8517  0.4612 -1.0475
 1598TP3      O16612   2.340   3.538   0.852 -0.2837 -0.0150 -0.0356
 1598TP3     H116613   2.280   3.592   0.801 -0.5989 -0.9898 -0.7474
 1598TP3     H216614   2.427   3.559   0.819 -0.2377  1.2203  0.8240
 1599TP3      O16615   4.629   0.645   9.086  0.2461  0.5981  0.4523
 1599TP3     H116616   4.712   0.599   9.102 -0.0502 -0.0280  0.2373
 1599TP3     H216617   4.609   0.627   8.994  0.5515  1.8886  0.1171
 1600TP3      O16618   3.622   0.524   7.100 -0.5687  0.2506  0.0263
 1600TP3     H116619   3.595   0.614   7.084  1.2904  0.7081 -0.8248
 1600TP3     H216620   3.635   0.487   7.013 -0.1463 -0.4440  0.3769
 1601TP3      O16621   0.190   4.784   6.678  0.1495  0.6325  0.4161
 1601TP3     H116622   0.234   4.843   6.739 -0.2996  0.7186  0.6612
 1601TP3     H216623   0.102   4.821   6.668 -0.0990  0.0693  0.4855
 1602TP3      O16624   5.180   1.654   7.628 -0.2426  0.2021  0.0255
 1602TP3     H116625   5.253   1.659   7.689  0.0845 -1.7602 -0.1337
 1602TP3     H216626   5.116   1.716   7.661  0.2224 -0.2908  1.9679
 1603TP3      O16627   5.207   4.396   7.295  0.5710 -0.5061  0.7506
 1603TP3     H116628   5.280   4.424   7.350 -0.4548 -0.3752  2.1100
 1603TP3     H216629   5.220   4.302   7.284  1.0832 -0.4390  0.7593
 1604TP3      O16630   3.452   4.981  10.051 -0.4977 -0.0023  0.1896
 1604TP3     H116631   3.366   5.008  10.018 -0.8884  0.5244  1.5891
 1604TP3     H216632   3.494   4.941   9.975 -2.0792 -0.5378 -0.4624
 1605TP3      O16633   5.039   5.255   8.636 -0.1908  0.0813  0.7083
 1605TP3     H116634   5.009   5.273   8.547  3.4602 -0.5464 -0.8508
 1605TP3     H216635   5.045   5.159   8.640  0.3819  0.1348  1.3465
 1606TP3      O16636   3.933   4.935   6.982 -0.8441 -0.2216 -0.2534
 1606TP3     H116637   3.948   4.854   7.031 -0.6722 -1.3129 -1.9889
 1606TP3     H216638   3.884   4.991   7.041 -0.4460 -1.3634  1.2148
 1607TP3      O16639   4.096   1.004   8.914  0.3502  0.1188  0.4661
 1607TP3     H116640   4.133   1.087   8.883 -1.0113 -0.2303 -2.3230
 1607TP3     H216641   4.158   0.938   8.886  0.0028 -0.0490  0.0861
 1608TP3      O16642   0.071   2.773   7.117  0.2755  0.4175  0.1089
 1608TP3     H116643  -0.009   2.726   7.091 -0.0642 -1.2622  3.6112
 1608TP3     H216644   0.040   2.858   7.146  0.0958  0.5987 -0.5802
 1609TP3      O16645   1.802   1.010   8.445  0.2505 -0.0089  0.4102
 1609TP3     H116646   1.787   0.930   8.394  0.7765  0.9319 -1.3387
 1609TP3     H216647   1.897   1.024   8.438  0.3909 -0.0263  1.9910
 1610TP3      O16648   3.719   0.981   0.782  0.3629  0.0797  0.4814
 1610TP3     H116649   3.773   1.034   0.841  0.2615 -0.7035  1.3143
 1610TP3     H216650   3.654   0.941   0.840 -0.3042  0.0070 -0.3150
 1611TP3      O16651   1.031   0.705   8.462  0.4399  0.6326  0.1955
 1611TP3     H116652   1.083   0.782   8.488  1.2157  0.7645 -1.5986
 1611TP3     H216653   1.095   0.634   8.457  0.2920  0.5684 -1.0551
 1612TP3      O16654   4.854   3.062   2.095  0.0066  0.9676 -0.1798
 1612TP3     H116655   4.786   3.112   2.051  0.5914  0.4756 -1.7116
 1612TP3     H216656   4.883   2.998   2.030 -0.2753 -0.9460  1.4949
 1613TP3      O16657   1.649   2.229   8.965  0.0363 -0.0376  0.0831
 1613TP3     H116658   1.724   2.233   9.025  1.7241  1.2402 -1.9487
 1613TP3     H216659   1.583   2.284   9.007  0.4542 -0.6385  1.6153
 1614TP3      O16660   4.114   1.821   2.100  0.2882 -0.4818  0.0691
 1614TP3     H116661   4.181   1.855   2.041  0.3497 -2.1571 -0.8712
 1614TP3     H216662   4.048   1.891   2.104  1.6353  0.8173  0.3086
 1615TP3      O16663   2.556   0.474   2.189 -0.0277 -0.4891 -0.1966
 1615TP3     H116664   2.651   0.487   2.199 -0.1147  0.1635 -0.1726
 1615TP3     H216665   2.536   0.509   2.102 -0.2640 -0.5408 -0.1631
 1616TP3      O16666   5.083   3.722   7.993 -0.6823 -0.2051  0.8823
 1616TP3     H116667   5.094   3.809   7.952  1.4645 -0.4324  0.8709
 1616TP3     H216668   5.030   3.739   8.071 -0.6359  1.0582  0.6639
 1617TP3      O16669   2.094   3.450   2.582  0.1672  0.1751 -0.6583
 1617TP3     H116670   2.022   3.409   2.630  0.5735  0.2873  0.0669
 1617TP3     H216671   2.168   3.445   2.643  1.1245 -1.0915 -1.8473
 1618TP3      O16672   1.566   2.480   0.223  0.7993 -0.0108  0.1510
 1618TP3     H116673   1.505   2.553   0.213 -0.5368 -0.9014  1.4067
 1618TP3     H216674   1.646   2.520   0.256  0.2608  0.9401  0.3413
 1619TP3      O16675   3.291   0.066   8.974 -0.1981  0.0341 -0.0055
 1619TP3     H116676   3.385   0.060   8.992 -0.0198  1.4192 -0.3690
 1619TP3     H216677   3.285   0.061   8.879 -0.5880 -1.0153  0.0680
 1620TP3      O16678   3.807   0.444   9.389  0.9758  0.1335  0.3418
 1620TP3     H116679   3.781   0.352   9.387 -0.8951  0.6061  0.6254
 1620TP3     H216680   3.724   0.491   9.399  1.6223  1.9911 -2.1759
 1621TP3      O16681   2.855   4.050   9.697 -0.3033  0.0131  0.1542
 1621TP3     H116682   2.907   4.060   9.617  1.0470  0.6842  1.0597
 1621TP3     H216683   2.915   4.008   9.758 -1.1192  0.0419  0.9912
 1622TP3      O16684   4.638   4.367   8.444 -1.1506 -0.1515 -0.0781
 1622TP3     H116685   4.612   4.301   8.380 -0.5956  0.0765 -0.5445
 1622TP3     H216686   4.582   4.443   8.424 -1.6348 -0.3931  0.3188
 1623TP3      O16687   4.229   2.875   2.509 -0.1629 -0.2334 -0.0682
 1623TP3     H116688   4.169   2.940   2.471 -0.1062  0.6235  1.2456
 1623TP3     H216689   4.282   2.846   2.435 -0.2329  1.1857 -0.7236
 1624TP3      O16690   3.342   4.745   8.032 -0.1601 -0.0347  0.1838
 1624TP3     H116691   3.320   4.689   7.958  1.7401  0.2550 -0.6610
 1624TP3     H216692   3.438   4.745   8.035 -0.0964 -1.5932  3.8574
 1625TP3      O16693   3.113   3.910   8.936  0.0263 -0.0180  0.6359
 1625TP3     H116694   3.160   3.992   8.926  0.6007 -0.3847  0.2272
 1625TP3     H216695   3.154   3.868   9.012 -0.6391  0.3157  1.1854
 1626TP3      O16696   3.804   1.392   7.492 -0.0059 -0.4129  0.5148
 1626TP3     H116697   3.771   1.304   7.472 -0.2880 -0.0298 -0.8288
 1626TP3     H216698   3.859   1.414   7.416  0.3377  0.4414  0.9954
 1627TP3      O16699   4.964   1.560   1.873  0.6843  0.3614 -0.3862
 1627TP3     H116700   4.951   1.553   1.967  0.6049 -0.4330 -0.4472
 1627TP3     H216701   5.000   1.648   1.860  1.2394  0.2672  0.4468
 1628TP3      O16702   0.602   5.082   0.121 -0.2780  0.2142 -0.7554
 1628TP3     H116703   0.535   5.018   0.095 -0.9553  0.3787  0.4987
 1628TP3     H216704   0.661   5.087   0.046 -0.6833 -1.2557 -1.2050
 1629TP3      O16705   4.173   2.301   7.070  0.1709 -0.1838 -0.1546
 1629TP3     H116706   4.102   2.366   7.070 -0.0360 -0.3868  1.1632
 1629TP3     H216707   4.249   2.349   7.101 -0.5438 -1.0720  3.3628
 1630TP3      O16708   3.557   3.798   8.025 -0.4728 -0.1215  0.3038
 1630TP3     H116709   3.545   3.735   8.095 -1.0881 -2.3363 -1.6505
 1630TP3     H216710   3.624   3.758   7.968 -1.3780  0.6166 -1.3561
 1631TP3      O16711   3.482   4.417   7.865 -0.4234 -0.8082  0.1676
 1631TP3     H116712   3.402   4.466   7.847 -1.3727 -1.6479  1.8171
 1631TP3     H216713   3.474   4.337   7.814 -0.0729 -0.3798 -0.5670
 1632TP3      O16714   2.360   2.329   8.838  1.2427  0.3891 -0.2434
 1632TP3     H116715   2.335   2.319   8.930 -0.0406  0.5101 -0.5629
 1632TP3     H216716   2.455   2.342   8.840  1.4654 -1.1613  0.9408
 1633TP3      O16717   1.814   3.383   3.156 -0.0621  0.3830 -0.1013
 1633TP3     H116718   1.724   3.404   3.128 -0.4788 -0.7853  0.2893
 1633TP3     H216719   1.833   3.445   3.226 -0.1917  1.2735 -0.8325
 1634TP3      O16720   4.167   2.441   8.931  0.0110  0.9919 -0.6636
 1634TP3     H116721   4.121   2.507   8.880 -0.2987  0.3883 -1.1871
 1634TP3     H216722   4.126   2.358   8.905  1.3553  0.4418 -1.1137
 1635TP3      O16723   4.631   1.472   7.845  0.5336  0.3652 -0.4706
 1635TP3     H116724   4.697   1.441   7.907 -1.1125  0.3078  1.3710
 1635TP3     H216725   4.548   1.456   7.890 -0.7366  0.5679 -2.6305
 1636TP3      O16726   2.244   4.779   2.372  0.2066 -0.9289  0.2294
 1636TP3     H116727   2.214   4.868   2.391  1.3664  0.0797 -2.1819
 1636TP3     H216728   2.164   4.728   2.362 -0.6013  0.4847 -0.8989
 1637TP3      O16729   4.627   3.419   7.205  0.0265  0.1350  0.2719
 1637TP3     H116730   4.578   3.349   7.249  1.0315 -0.7092  0.0621
 1637TP3     H216731   4.605   3.409   7.113 -0.2686  0.4559  0.3058
 1638TP3      O16732   4.780   2.245   9.445  0.3679 -0.1244 -0.0154
 1638TP3     H116733   4.848   2.189   9.409  1.0755  0.4739  0.3688
 1638TP3     H216734   4.700   2.194   9.436  1.0495 -1.3843  0.7193
 1639TP3      O16735   3.406   0.945   1.421 -0.6399 -0.2536 -0.4511
 1639TP3     H116736   3.438   0.934   1.510 -0.9915  2.5767  0.1340
 1639TP3     H216737   3.312   0.928   1.427 -1.0108  1.7526  0.2126
 1640TP3      O16738   4.275   3.804   2.605  0.0370 -0.5589 -0.1985
 1640TP3     H116739   4.203   3.781   2.545 -0.3566  0.5936 -0.2020
 1640TP3     H216740   4.231   3.820   2.689  0.4078 -0.7463  0.0297
 1641TP3      O16741   1.577   4.968   8.642  0.4190 -0.5169 -0.1693
 1641TP3     H116742   1.492   4.926   8.632  0.6071 -0.8655 -0.3116
 1641TP3     H216743   1.559   5.047   8.694 -0.1571 -0.0354 -1.0771
 1642TP3      O16744   4.442   0.804   7.265 -0.1425  0.3972 -0.6304
 1642TP3     H116745   4.350   0.797   7.240 -0.1759  0.0624 -0.4214
 1642TP3     H216746   4.487   0.826   7.183 -0.4649  1.0439 -0.6413
 1643TP3      O16747   5.167   1.351   8.863 -0.3440  0.1453  0.0287
 1643TP3     H116748   5.136   1.423   8.917  1.2621  0.6208  0.3942
 1643TP3     H216749   5.258   1.374   8.843 -0.3211 -0.9569 -1.2794
 1644TP3      O16750   3.837   2.739   6.653  0.5017  0.1572 -0.1934
 1644TP3     H116751   3.814   2.647   6.639  0.8786  0.0580 -0.1771
 1644TP3     H216752   3.908   2.737   6.718  0.6702  0.4454 -0.3646
 1645TP3      O16753   5.046   0.901   3.171 -0.2560  0.2786 -0.3313
 1645TP3     H116754   5.054   0.939   3.258 -1.4710 -1.5113  0.6015
 1645TP3     H216755   4.952   0.899   3.154 -0.0318  0.9892 -1.9061
 1646TP3      O16756   2.144   0.064   8.796  0.1052 -0.2880 -0.3069
 1646TP3     H116757   2.198   0.106   8.729  2.3379 -0.0795  1.4992
 1646TP3     H216758   2.110  -0.015   8.754  0.9561  0.1320 -1.8333
 1647TP3      O16759   3.389   1.115   7.650 -0.5814  0.2155  0.2160
 1647TP3     H116760   3.359   1.066   7.573 -1.0532 -0.4486  0.8055
 1647TP3     H216761   3.484   1.113   7.644 -0.6194  0.5620 -0.5864
 1648TP3      O16762   2.237   1.029   8.706 -0.0474  0.4307  0.0193
 1648TP3     H116763   2.190   1.070   8.633  0.2802  1.0648  0.1586
 1648TP3     H216764   2.310   0.984   8.665 -0.1879  0.3066 -0.0988
 1649TP3      O16765   2.095   3.748   8.744  0.3966 -0.1393  0.7474
 1649TP3     H116766   2.113   3.819   8.805 -0.1589  0.7269 -0.0580
 1649TP3     H216767   2.130   3.779   8.660  0.9459 -1.2078  0.5636
 1650TP3      O16768   0.708   0.255   1.953 -0.1948 -0.0370  0.1132
 1650TP3     H116769   0.742   0.219   2.035  2.5433 -2.3982 -1.8250
 1650TP3     H216770   0.624   0.213   1.941  0.3212 -1.2869  0.7355
 1651TP3      O16771   0.719   3.859   7.941 -0.2647 -0.1902  0.5069
 1651TP3     H116772   0.753   3.779   7.982 -1.0403 -1.3331 -0.9484
 1651TP3     H216773   0.764   3.862   7.856 -0.3266  0.8793  0.5086
 1652TP3      O16774   3.284   3.872   7.483 -0.2755  0.2539  0.3258
 1652TP3     H116775   3.237   3.881   7.566  0.0197 -0.8194  0.6125
 1652TP3     H216776   3.349   3.942   7.486 -0.5128  0.4660  0.8256
 1653TP3      O16777   4.103   1.649   8.136 -0.0839 -0.0935 -0.0230
 1653TP3     H116778   4.192   1.639   8.169 -0.2071  0.2741  0.4188
 1653TP3     H216779   4.094   1.578   8.072  0.1213 -0.8490  0.7785
 1654TP3      O16780   4.191   0.556   7.756  0.2022  0.0816 -0.3631
 1654TP3     H116781   4.168   0.646   7.780 -1.3759 -0.0358 -1.2387
 1654TP3     H216782   4.176   0.553   7.661  0.5162 -1.0346 -0.3871
 1655TP3      O16783   0.298   3.416   9.273 -0.4021  0.6494  0.6810
 1655TP3     H116784   0.239   3.471   9.324 -0.6544  1.0921 -0.0783
 1655TP3     H216785   0.376   3.471   9.259 -0.8924  1.0524 -0.5846
 1656TP3      O16786   1.726   3.163   9.362 -0.2487  0.1649 -0.3364
 1656TP3     H116787   1.743   3.258   9.359  0.2694  0.1880  1.5296
 1656TP3     H216788   1.697   3.148   9.452 -0.9830 -1.3702 -0.8075
 1657TP3      O16789   0.946   4.931   6.326 -0.3047 -0.1071 -0.6896
 1657TP3     H116790   0.861   4.890   6.316 -0.2869 -0.2462 -0.2750
 1657TP3     H216791   0.926   5.021   6.353 -0.3086 -0.2770 -0.1298
 1658TP3      O16792   2.349   5.144   9.394 -0.0357 -0.3036 -0.5281
 1658TP3     H116793   2.420   5.119   9.453 -0.6968  0.3214  0.5803
 1658TP3     H216794   2.304   5.215   9.440 -0.0801  0.7946 -2.1675
 1659TP3      O16795   2.637   2.989   7.055  0.3212 -0.3699 -0.1940
 1659TP3     H116796   2.724   2.974   7.092  1.3287  1.3123 -1.7297
 1659TP3     H216797   2.626   2.921   6.989  0.8386 -0.0853 -0.5767
 1660TP3      O16798   3.056   4.684   8.757 -0.0693 -0.2817 -0.4768
 1660TP3     H116799   3.036   4.591   8.762  1.1158 -0.5050  1.0682
 1660TP3     H216800   3.100   4.704   8.840 -0.7260  1.7651 -0.5458
 1661TP3      O16801   3.898   5.143   9.386 -0.0993 -0.0319  0.0206
 1661TP3     H116802   3.898   5.231   9.424  3.3235 -0.4530  1.3760
 1661TP3     H216803   3.806   5.117   9.386 -1.5751  4.2520 -2.4362
 1662TP3      O16804   2.228   0.134   7.919 -0.3403  0.1365 -0.2494
 1662TP3     H116805   2.172   0.075   7.869 -0.4036  0.9258 -1.1310
 1662TP3     H216806   2.190   0.221   7.906  1.0590  0.6839 -0.8540
 1663TP3      O16807   2.950   1.194   0.100 -0.4926  0.4020 -0.9552
 1663TP3     H116808   2.956   1.289   0.105 -1.9198  0.5156 -0.7486
 1663TP3     H216809   2.858   1.177   0.079 -0.8220 -0.9682  1.2283
 1664TP3      O16810   3.668   1.991   1.988 -0.4334 -0.4543  0.1690
 1664TP3     H116811   3.695   1.900   1.976 -2.2279 -0.9184 -0.5928
 1664TP3     H216812   3.691   2.011   2.079  2.0798 -0.8843 -0.3003
 1665TP3      O16813   5.036   5.265   8.056  0.1934  0.5535  0.5246
 1665TP3     H116814   4.953   5.253   8.010  0.8949 -0.9688 -0.4178
 1665TP3     H216815   5.019   5.234   8.145  0.6477 -3.5779 -0.6127
 1666TP3      O16816   1.961   3.153   1.219  0.1949 -0.1287 -0.3127
 1666TP3     H116817   2.050   3.183   1.237 -0.0990  0.0449  0.9549
 1666TP3     H216818   1.905   3.225   1.247 -0.3777 -0.4972 -0.4902
 1667TP3      O16819   0.488   4.629   0.022 -0.7587  0.3816  0.0305
 1667TP3     H116820   0.455   4.641  -0.067  1.8355 -1.1562 -1.2269
 1667TP3     H216821   0.455   4.543   0.048  0.7675 -0.4315 -0.6009
 1668TP3      O16822   0.418   4.492   8.769 -0.0197  0.2461  0.6447
 1668TP3     H116823   0.445   4.403   8.790  0.5376  0.2584  0.0001
 1668TP3     H216824   0.499   4.539   8.749 -0.1799  1.2296  2.1177
 1669TP3      O16825   4.596   4.514   1.409 -0.2634  0.1384  0.4395
 1669TP3     H116826   4.573   4.588   1.353 -0.3375  2.2160  3.0297
 1669TP3     H216827   4.516   4.495   1.458 -0.7018 -2.7472 -1.1367
 1670TP3      O16828   3.967   0.669   0.872  0.2870 -0.0673 -0.0459
 1670TP3     H116829   4.004   0.739   0.925  4.1239 -2.2497  0.5721
 1670TP3     H216830   3.936   0.604   0.935  0.2659 -0.5567 -0.5477
 1671TP3      O16831   4.850   0.784   9.986 -0.6527 -0.3519  0.1496
 1671TP3     H116832   4.827   0.871   9.954 -0.9295 -0.9114 -1.2524
 1671TP3     H216833   4.878   0.798  10.076  0.5976  1.3784 -0.4632
 1672TP3      O16834   3.203   4.168   8.895 -0.6177 -0.5661 -0.1055
 1672TP3     H116835   3.115   4.196   8.871  0.1441  1.5671 -0.6190
 1672TP3     H216836   3.224   4.217   8.974  0.5464 -0.0706 -0.6862
 1673TP3      O16837   1.801   0.371   0.552  0.3585  0.1208 -0.2699
 1673TP3     H116838   1.792   0.316   0.630  1.2450  0.8350  0.3576
 1673TP3     H216839   1.824   0.310   0.482 -0.1389 -0.4924  0.0953
 1674TP3      O16840   2.900   4.102   8.190 -0.0080 -0.2397 -0.3553
 1674TP3     H116841   2.985   4.059   8.195 -0.3126 -0.7713  0.5000
 1674TP3     H216842   2.868   4.103   8.281 -1.2192 -0.6877 -0.7528
 1675TP3      O16843   0.245   4.508   6.738  0.1567 -0.0516 -0.3257
 1675TP3     H116844   0.338   4.507   6.761  0.6177  0.8523 -1.9572
 1675TP3     H216845   0.229   4.597   6.706 -0.8373 -0.6569 -1.6509
 1676TP3      O16846   4.307   5.236   3.277  0.1441 -0.2755 -0.3186
 1676TP3     H116847   4.315   5.273   3.365  0.1112 -1.0478  0.0139
 1676TP3     H216848   4.371   5.284   3.225 -0.4863  0.8533 -0.1062
 1677TP3      O16849   2.089   3.014   0.034 -0.2374 -0.4981 -0.4562
 1677TP3     H116850   2.031   2.968  -0.027  0.1062 -1.6995  0.0872
 1677TP3     H216851   2.064   2.980   0.120  1.2031 -0.9755 -0.2064
 1678TP3      O16852   2.657   0.065   6.953 -0.3992 -0.2803 -0.2876
 1678TP3     H116853   2.574   0.096   6.989 -0.5350  0.1530 -0.9631
 1678TP3     H216854   2.635   0.034   6.866  0.3929  1.2352 -1.0611
 1679TP3      O16855   0.540   0.118   8.542  0.1942  0.1134  0.0091
 1679TP3     H116856   0.538   0.069   8.460  2.4154 -1.2070  0.6587
 1679TP3     H216857   0.472   0.078   8.596 -0.4457  0.1849 -0.7301
 1680TP3      O16858   0.757   0.827   7.934 -0.0058 -0.3766 -0.1208
 1680TP3     H116859   0.791   0.744   7.968 -1.6728 -1.2209 -0.4232
 1680TP3     H216860   0.664   0.810   7.917  0.3067  0.5116 -3.4353
 1681TP3      O16861   3.937   0.241   6.521 -0.0746 -0.2566 -0.4142
 1681TP3     H116862   3.911   0.331   6.536  2.3098  1.2049 -3.7770
 1681TP3     H216863   3.871   0.189   6.567 -2.6262  3.1226  0.1458
 1682TP3      O16864   3.740   3.546   9.777 -0.2972 -0.4739 -0.0984
 1682TP3     H116865   3.726   3.456   9.806  0.3573 -0.1326  1.3192
 1682TP3     H216866   3.835   3.555   9.772 -0.3519  0.2176  0.0286
 1683TP3      O16867   1.157   2.789   7.512  0.0701 -0.2680 -0.0328
 1683TP3     H116868   1.090   2.755   7.571 -1.4136  2.1562 -0.1820
 1683TP3     H216869   1.208   2.849   7.566 -0.9591  1.5477 -0.9604
 1684TP3      O16870   4.145   3.945   8.344  0.1301 -0.1885 -0.4735
 1684TP3     H116871   4.063   3.929   8.390  1.2279  0.9269  2.0913
 1684TP3     H216872   4.147   4.040   8.330  1.0268 -0.1860 -0.4018
 1685TP3      O16873   0.831   3.649   8.700 -0.6593  0.2469 -0.3019
 1685TP3     H116874   0.787   3.564   8.705  2.2711 -1.4982 -1.6535
 1685TP3     H216875   0.864   3.654   8.611  2.6506  0.8978  0.8124
 1686TP3      O16876   0.835   1.234   1.775 -0.4007  0.0592 -0.1392
 1686TP3     H116877   0.900   1.298   1.805 -1.4637  0.6710  0.8943
 1686TP3     H216878   0.860   1.153   1.818 -0.9256  0.5406  1.1062
 1687TP3      O16879   3.521   1.368   6.285  0.0213  0.0326 -0.3368
 1687TP3     H116880   3.548   1.426   6.213 -1.3165 -1.5840 -2.2577
 1687TP3     H216881   3.603   1.329   6.316  0.4777 -0.9499 -2.5827
 1688TP3      O16882   2.942   0.175   7.685  0.6129  0.1511  0.0381
 1688TP3     H116883   2.972   0.203   7.771  0.7697 -0.3426  0.1461
 1688TP3     H216884   2.920   0.082   7.696  1.0092 -0.0151 -0.5472
 1689TP3      O16885   4.063   0.585   9.655  0.0102  0.0915  0.1364
 1689TP3     H116886   4.139   0.599   9.711  0.9266 -0.8417 -0.8131
 1689TP3     H216887   4.100   0.574   9.567 -1.2966  0.4480 -0.4891
 1690TP3      O16888   1.517   5.289   0.836  0.3022 -0.2832 -0.7422
 1690TP3     H116889   1.508   5.378   0.869  0.9743 -0.4090 -0.2159
 1690TP3     H216890   1.505   5.233   0.913  2.6234 -0.5561 -0.4998
 1691TP3      O16891   3.265   2.683   1.272 -0.4355  0.0972 -0.6010
 1691TP3     H116892   3.191   2.740   1.254 -0.5699  0.7780  1.7456
 1691TP3     H216893   3.311   2.725   1.344  0.0770 -2.1934  0.5293
 1692TP3      O16894   1.674   2.130   8.719 -0.4251 -0.0800  0.2611
 1692TP3     H116895   1.656   2.158   8.809 -1.9267  1.9067 -0.5649
 1692TP3     H216896   1.652   2.207   8.666  1.4946 -0.8171 -1.7343
 1693TP3      O16897   2.066   1.269   3.190 -0.0058  0.0387  0.0103
 1693TP3     H116898   2.068   1.220   3.108 -0.0946 -1.2523  0.7475
 1693TP3     H216899   1.985   1.320   3.185  0.7597  1.1630 -1.3443
 1694TP3      O16900   4.270   0.162   2.877  0.1472  0.1527 -0.3673
 1694TP3     H116901   4.238   0.090   2.823 -0.3056  0.4589 -0.5164
 1694TP3     H216902   4.265   0.239   2.820  2.0872  0.0682 -0.7318
 1695TP3      O16903   4.555   2.590   7.610  0.5547 -0.4809 -0.4881
 1695TP3     H116904   4.589   2.586   7.699 -3.3940 -1.1669  1.1602
 1695TP3     H216905   4.518   2.678   7.602  0.7900 -0.4531 -1.4609
 1696TP3      O16906   0.055   0.694   9.596  0.3962  0.5049  0.0984
 1696TP3     H116907   0.148   0.710   9.615  0.7027 -0.4368 -0.5663
 1696TP3     H216908   0.013   0.691   9.682  1.0627  0.4367  0.4254
 1697TP3      O16909   4.858   2.303   6.878  0.2076 -0.5283  0.0214
 1697TP3     H116910   4.891   2.385   6.916 -0.6895  0.5754 -1.4529
 1697TP3     H216911   4.930   2.272   6.824  0.6258 -0.8504  0.7413
 1698TP3      O16912   4.205   1.664   2.309 -0.2896 -0.0213 -0.3297
 1698TP3     H116913   4.288   1.633   2.273  1.3758  2.0591  1.4760
 1698TP3     H216914   4.176   1.730   2.246  0.4607  0.6556  0.0263
 1699TP3      O16915   1.973   0.953   1.484 -0.1652  0.0772  0.2238
 1699TP3     H116916   2.060   0.913   1.484 -1.0962 -2.1151  1.3737
 1699TP3     H216917   1.972   1.006   1.404  3.7825  4.0421  2.3336
 1700TP3      O16918   3.599   3.335   1.433 -0.1074  0.1134  0.1923
 1700TP3     H116919   3.563   3.417   1.399 -0.6471 -0.1363  0.1430
 1700TP3     H216920   3.532   3.303   1.494 -0.3923 -0.8121 -0.5843
 1701TP3      O16921   4.651   2.839   8.274  0.1786 -0.1086  0.0909
 1701TP3     H116922   4.643   2.932   8.253 -1.2828  0.2342  1.9555
 1701TP3     H216923   4.733   2.813   8.232  0.8668  2.1243 -0.0989
 1702TP3      O16924   3.558   1.869   7.929  0.2337 -0.6954 -0.4066
 1702TP3     H116925   3.552   1.793   7.870 -1.6789  0.0540 -1.2381
 1702TP3     H216926   3.477   1.867   7.979  0.6950  0.1675  0.3891
 1703TP3      O16927   0.024   2.663  10.074  0.2543  0.2277  0.4525
 1703TP3     H116928  -0.036   2.588  10.073  0.0873  0.3652  0.2837
 1703TP3     H216929  -0.021   2.728  10.128 -0.1110  0.6335 -0.3265
 1704TP3      O16930   5.271   3.469   9.024 -0.4983 -0.4709 -0.0921
 1704TP3     H116931   5.226   3.553   9.028  0.9086  0.3519 -0.9152
 1704TP3     H216932   5.291   3.456   8.931  0.4533 -1.0864  0.1802
 1705TP3      O16933   4.388   1.575   2.827  0.0181  0.0971 -0.0488
 1705TP3     H116934   4.407   1.499   2.772  0.8923  1.7806 -2.2180
 1705TP3     H216935   4.294   1.590   2.816  0.3932  1.2169 -2.3268
 1706TP3      O16936   3.865   2.377   9.432 -0.2509  0.1257 -0.5174
 1706TP3     H116937   3.888   2.303   9.488 -0.3965 -0.0460 -0.6832
 1706TP3     H216938   3.922   2.368   9.356  0.8437  1.0701  0.1644
 1707TP3      O16939   2.921   3.030   8.416  0.1454  0.2892  0.4964
 1707TP3     H116940   2.958   3.103   8.366 -1.6328 -0.0609 -1.4795
 1707TP3     H216941   2.828   3.052   8.425 -0.3554 -1.5082  0.2060
 1708TP3      O16942   5.277   4.781   9.210 -0.1039 -0.0053 -0.8087
 1708TP3     H116943   5.370   4.763   9.196 -0.0596 -0.0225 -0.5023
 1708TP3     H216944   5.237   4.770   9.123  0.2194  0.2591 -0.9960
 1709TP3      O16945   4.434   4.100   7.342  0.0881 -0.0485 -0.1601
 1709TP3     H116946   4.408   4.118   7.252  0.9353  2.0982 -0.0217
 1709TP3     H216947   4.436   4.185   7.385 -2.0931 -1.1615  2.4564
 1710TP3      O16948   2.911   1.082   0.701 -0.0512 -0.3780 -0.4002
 1710TP3     H116949   3.005   1.083   0.722  0.1816  0.4288 -1.3757
 1710TP3     H216950   2.904   1.025   0.625 -0.0599  0.9450 -1.4366
 1711TP3      O16951   2.721   0.169   1.068 -0.0686 -0.2128  0.0634
 1711TP3     H116952   2.712   0.178   1.163 -0.5085  1.5986 -0.1173
 1711TP3     H216953   2.644   0.119   1.041 -1.4654  1.6851  0.3634
 1712TP3      O16954   2.307   4.961   3.364  0.2035  0.0782 -0.3513
 1712TP3     H116955   2.247   4.952   3.290  0.5117 -1.8374 -0.4199
 1712TP3     H216956   2.262   4.917   3.437  0.0216  1.7037  0.5662
 1713TP3      O16957   0.349   4.366   8.440 -0.1589  0.8165 -0.1406
 1713TP3     H116958   0.328   4.327   8.524 -1.2118  1.0272 -0.2909
 1713TP3     H216959   0.339   4.461   8.454  1.1414  0.9580 -0.1056
 1714TP3      O16960   4.187   4.588   1.256 -0.0420 -0.3006 -0.0779
 1714TP3     H116961   4.159   4.497   1.251 -3.6040  0.5906  0.7647
 1714TP3     H216962   4.189   4.608   1.350  1.1783  0.3975 -0.2242
 1715TP3      O16963   2.730   4.317   7.937 -0.7421 -0.0194  0.4061
 1715TP3     H116964   2.698   4.319   8.027  1.2550  2.5310  1.1748
 1715TP3     H216965   2.652   4.332   7.884 -1.6969  0.1509  1.8025
 1716TP3      O16966   0.975   1.016   0.141  0.0376  0.2030 -0.2986
 1716TP3     H116967   0.977   1.094   0.086 -1.0995  0.9385  0.6555
 1716TP3     H216968   1.004   1.047   0.227  0.0764 -0.5422 -0.0348
 1717TP3      O16969   3.146   4.552   8.427 -0.1685  0.3646  0.4297
 1717TP3     H116970   3.079   4.497   8.468  0.2203 -1.8062 -1.6179
 1717TP3     H216971   3.104   4.585   8.348  0.8680 -0.3092 -0.4259
 1718TP3      O16972   4.625   3.506   2.138 -0.7340 -0.5169 -0.0712
 1718TP3     H116973   4.556   3.510   2.205 -0.6490  0.5710 -0.0320
 1718TP3     H216974   4.589   3.554   2.063  0.6630  1.7989  0.6295
 1719TP3      O16975   3.680   1.751   7.214 -0.1391  0.0203 -0.6893
 1719TP3     H116976   3.604   1.809   7.214  0.2378  0.5950  1.4607
 1719TP3     H216977   3.743   1.793   7.272  0.6176 -1.9566  0.0280
 1720TP3      O16978   2.951   0.813   7.465  0.5894  0.6507  0.3495
 1720TP3     H116979   2.919   0.841   7.379  1.8731  0.1238 -0.3254
 1720TP3     H216980   2.961   0.895   7.514  1.6628  1.1554 -0.6599
 1721TP3      O16981   3.667   4.627   7.646  0.1015  0.3087 -0.3271
 1721TP3     H116982   3.597   4.605   7.585 -0.0989 -0.5960  0.2047
 1721TP3     H216983   3.738   4.661   7.591 -0.2704  0.0047 -1.0013
 1722TP3      O16984   1.469   4.441   9.078  0.0166  0.5257  0.1843
 1722TP3     H116985   1.405   4.382   9.116 -3.5507  1.6959 -3.2891
 1722TP3     H216986   1.493   4.401   8.994  3.8369  0.2953  1.1804
 1723TP3      O16987   2.814   3.711   7.100 -0.0908 -0.2243  0.0408
 1723TP3     H116988   2.900   3.670   7.093  0.3501 -0.5488  4.6272
 1723TP3     H216989   2.757   3.642   7.132 -1.6467  0.4730 -1.1143
 1724TP3      O16990   3.418   1.736   9.925  0.4036 -0.0813 -0.3134
 1724TP3     H116991   3.492   1.683   9.895 -1.4565 -2.5038 -0.9582
 1724TP3     H216992   3.366   1.752   9.846  0.3235  1.8451  0.0674
 1725TP3      O16993   2.360   0.667   0.649  0.1351 -0.5187  0.3384
 1725TP3     H116994   2.294   0.640   0.713 -1.9524 -0.1080 -1.5474
 1725TP3     H216995   2.350   0.761   0.641  0.6312 -0.5127 -0.3242
 1726TP3      O16996   5.169   3.084   8.241  0.7391 -0.5456 -0.1601
 1726TP3     H116997   5.146   3.177   8.242  1.1011 -0.4397 -1.0348
 1726TP3     H216998   5.100   3.042   8.293  1.7472  0.4517  2.1537
 1727TP3      O16999   1.287   1.933   2.332  0.0351  0.0588 -0.4127
 1727TP3     H117000   1.208   1.986   2.340  0.4315  0.4498  1.7551
 1727TP3     H217001   1.358   1.991   2.361  1.1706 -0.2286 -2.4754
 1728TP3      O17002   4.882   0.291   0.283  0.4532 -0.3954  0.3875
 1728TP3     H117003   4.929   0.340   0.215 -0.4773  0.6881  0.4978
 1728TP3     H217004   4.887   0.347   0.360 -0.4980 -0.5478  0.5656
 1729TP3      O17005   4.951   1.399   0.995 -0.5073 -0.2047  0.6716
 1729TP3     H117006   4.865   1.391   1.036 -0.4621  0.8390  0.9897
 1729TP3     H217007   4.959   1.492   0.973  0.4948 -0.3071  0.5421
 1730TP3      O17008   4.616   0.083   1.852 -0.9347 -0.4831 -0.1871
 1730TP3     H117009   4.614   0.099   1.758 -0.8326 -0.4109 -0.1770
 1730TP3     H217010   4.628  -0.012   1.861 -1.7047 -0.5925 -0.2493
 1731TP3      O17011   2.082   5.090   8.717  0.1477  0.0069  0.2805
 1731TP3     H117012   2.080   4.999   8.690 -0.4543 -0.2306  1.0690
 1731TP3     H217013   2.031   5.137   8.651 -0.2156 -0.3580  0.2998
 1732TP3      O17014   1.804   2.708   8.046 -0.1434  0.0684 -0.0708
 1732TP3     H117015   1.750   2.675   7.974 -2.3667  2.2810  0.4240
 1732TP3     H217016   1.818   2.631   8.102 -0.9137 -1.0656 -1.3623
 1733TP3      O17017   0.178   4.702   1.756  0.1539  0.2760 -0.0935
 1733TP3     H117018   0.242   4.631   1.758 -1.0160 -0.8115  0.1375
 1733TP3     H217019   0.146   4.707   1.846 -0.2030  0.6983 -0.2406
 1734TP3      O17020   3.414   3.703   0.391 -0.5947  0.2344 -0.0263
 1734TP3     H117021   3.506   3.731   0.392 -0.1423 -1.1338 -0.6614
 1734TP3     H217022   3.403   3.654   0.473 -0.5553 -0.1589 -0.2508
 1735TP3      O17023   3.264   2.697   9.548 -0.0990  0.1570  0.5467
 1735TP3     H117024   3.343   2.751   9.546 -0.8862  1.3164 -0.5335
 1735TP3     H217025   3.197   2.753   9.588 -0.8452 -0.1192 -0.2839
 1736TP3      O17026   0.826   3.922   0.587  0.1938  0.4724 -0.2173
 1736TP3     H117027   0.845   3.887   0.500 -1.5183 -0.4555 -0.2708
 1736TP3     H217028   0.843   4.016   0.580  0.2883  0.3737 -1.4871
 1737TP3      O17029   2.978   2.011   1.983  0.0692 -0.7748 -0.1645
 1737TP3     H117030   2.909   1.945   1.990 -0.7630  0.1857  1.2503
 1737TP3     H217031   3.027   1.986   1.905 -1.7479 -1.6026 -1.1092
 1738TP3      O17032   0.195   0.181   2.279 -0.1935  0.0099 -0.1984
 1738TP3     H117033   0.204   0.087   2.299 -0.5008 -0.2854 -1.3548
 1738TP3     H217034   0.118   0.185   2.222 -0.6392  1.0720  0.4432
 1739TP3      O17035   4.024   2.103   8.165 -0.5298 -0.5436  0.1351
 1739TP3     H117036   4.013   2.151   8.246 -0.6103  1.9395 -1.2474
 1739TP3     H217037   4.119   2.094   8.154 -0.4513  0.7743 -0.3747
 1740TP3      O17038   2.100   3.174   9.384 -0.5968 -0.0166  0.2844
 1740TP3     H117039   2.172   3.132   9.431 -1.6745 -2.3029  0.0352
 1740TP3     H217040   2.059   3.232   9.449  0.5078  0.1334  0.8643
 1741TP3      O17041   0.853   3.034   7.884 -0.1825  0.0953  0.2639
 1741TP3     H117042   0.908   3.102   7.846 -1.2383  0.8086 -0.0530
 1741TP3     H217043   0.791   3.081   7.940 -1.2843 -0.5224 -0.3794
 1742TP3      O17044   5.171   0.649   7.551 -0.1290  0.1011  0.1122
 1742TP3     H117045   5.186   0.654   7.646 -0.6575 -1.3410  0.2898
 1742TP3     H217046   5.107   0.579   7.541 -0.5905  0.7075 -1.2701
 1743TP3      O17047   2.613   1.956   9.823  0.4813 -0.7284  0.3394
 1743TP3     H117048   2.592   2.016   9.752  0.1709 -0.0887  0.9622
 1743TP3     H217049   2.623   1.871   9.780 -1.2864 -0.6586 -0.2736
 1744TP3      O17050   2.372   3.274   2.396  0.1688  0.1925  0.0110
 1744TP3     H117051   2.389   3.309   2.484 -0.1741  0.2672  0.0460
 1744TP3     H217052   2.341   3.185   2.411 -2.1113  0.9560  0.0926
 1745TP3      O17053   2.017   2.345   8.965  0.2892  0.6525  0.3534
 1745TP3     H117054   2.038   2.410   9.032 -3.0118  0.5185  1.6722
 1745TP3     H217055   1.977   2.273   9.013  1.1903 -1.1216 -1.4133
 1746TP3      O17056   1.005   3.044   2.669  0.4597  0.5121 -0.1825
 1746TP3     H117057   0.922   3.074   2.706 -0.1642 -0.8071 -0.4240
 1746TP3     H217058   1.071   3.099   2.710 -0.3516  0.2502  1.5969
 1747TP3      O17059   4.586   2.559   9.793 -0.3361  0.1048  0.1336
 1747TP3     H117060   4.644   2.601   9.857 -1.0231  0.2655  0.6673
 1747TP3     H217061   4.642   2.498   9.746  0.3358  0.4984  0.4129
 1748TP3      O17062   5.181   1.158   8.057 -0.1443  0.4359 -0.9312
 1748TP3     H117063   5.207   1.069   8.032  1.5797  0.9955 -1.3225
 1748TP3     H217064   5.161   1.201   7.974 -0.9811  0.4252 -0.7419
 1749TP3      O17065   1.176   4.821   1.026 -0.3095 -0.1276  0.0184
 1749TP3     H117066   1.172   4.850   1.117  0.0869 -0.6552  0.2071
 1749TP3     H217067   1.093   4.849   0.988  0.8105  3.0713 -0.3520
 1750TP3      O17068   2.981   4.755   1.342  0.6865  0.0562 -0.8077
 1750TP3     H117069   2.969   4.663   1.366  1.2680  0.1166 -0.2783
 1750TP3     H217070   3.062   4.756   1.291  1.1393  0.3983 -0.0902
 1751TP3      O17071   3.023   1.967   8.875 -0.3234 -0.4887 -0.5156
 1751TP3     H117072   3.097   1.959   8.815  0.2431 -1.1895  0.2709
 1751TP3     H217073   3.061   1.992   8.959 -1.0315 -0.2722 -0.2451
 1752TP3      O17074   0.903   1.255   2.167 -0.0407 -0.1639  0.1519
 1752TP3     H117075   0.924   1.324   2.103 -2.2381 -0.4395 -0.9676
 1752TP3     H217076   0.910   1.174   2.117 -0.5283 -0.4927  0.6184
 1753TP3      O17077   3.117   0.677   9.746 -0.3193  0.4177 -0.0296
 1753TP3     H117078   3.181   0.690   9.816  0.1293  0.6114 -0.4643
 1753TP3     H217079   3.170   0.677   9.666 -0.4021 -2.9167 -0.1957
 1754TP3      O17080   0.957   1.849   0.442  0.1935 -0.4180  0.7433
 1754TP3     H117081   1.028   1.813   0.495  1.2523  0.7439  0.1682
 1754TP3     H217082   0.883   1.791   0.458  0.8216 -0.7831  2.5638
 1755TP3      O17083   4.601   3.900   1.958 -0.5230  0.3958 -0.0420
 1755TP3     H117084   4.588   3.869   1.868 -0.9947  1.3245 -0.3133
 1755TP3     H217085   4.515   3.931   1.984 -0.1557  1.1099  0.3434
 1756TP3      O17086   2.141   1.304   2.105  0.2671  0.0436  0.1632
 1756TP3     H117087   2.108   1.305   2.016 -0.1543 -2.6580  0.2227
 1756TP3     H217088   2.137   1.396   2.133 -1.7540  0.6264 -1.7751
 1757TP3      O17089   4.475   1.921   9.981  0.1161  0.0385 -0.0964
 1757TP3     H117090   4.534   1.997   9.978  1.0439 -0.6853 -0.7216
 1757TP3     H217091   4.390   1.955   9.951  0.4498  0.8938 -0.0898
 1758TP3      O17092   3.336   0.578   0.608 -0.2900  0.2416  0.6483
 1758TP3     H117093   3.307   0.665   0.634 -1.2407 -0.0903  0.7085
 1758TP3     H217094   3.390   0.593   0.530 -0.0998  0.9173  0.9061
 1759TP3      O17095   0.193   3.740   9.673 -0.3046 -0.2314  0.5610
 1759TP3     H117096   0.288   3.750   9.685 -0.2619  0.5627 -0.3057
 1759TP3     H217097   0.158   3.736   9.762  0.5040 -0.1146  0.8952
 1760TP3      O17098   1.352   1.742   1.683  0.2265  0.3758  0.8156
 1760TP3     H117099   1.316   1.762   1.769 -0.9534 -0.7222  0.6080
 1760TP3     H217100   1.315   1.657   1.661  1.8660 -0.1595 -0.0436
 1761TP3      O17101   4.788   1.381   9.531 -0.0388  0.3740  0.2907
 1761TP3     H117102   4.707   1.419   9.567  0.1972  0.3871  0.8170
 1761TP3     H217103   4.802   1.429   9.449  0.9792  2.4401  1.5813
 1762TP3      O17104   2.729   1.442   7.937  0.0829  0.8303  0.0561
 1762TP3     H117105   2.743   1.360   7.889 -1.0076  1.0741 -0.7039
 1762TP3     H217106   2.781   1.432   8.017  2.4915  0.6782 -1.4307
 1763TP3      O17107   3.603   2.798   7.451 -0.0805 -0.7487  0.1426
 1763TP3     H117108   3.560   2.882   7.461  2.0669  0.5855 -1.0116
 1763TP3     H217109   3.638   2.777   7.537 -0.7659 -0.5627  0.4699
 1764TP3      O17110   1.119   0.920   1.228 -0.4075 -0.2755  0.1068
 1764TP3     H117111   1.077   0.848   1.182 -1.3581  0.5920 -0.4368
 1764TP3     H217112   1.074   0.924   1.312 -1.1075  0.3423 -0.2833
 1765TP3      O17113   0.340   3.284   1.330 -0.2063 -0.4905  0.2428
 1765TP3     H117114   0.285   3.206   1.335 -1.5016  0.4167  0.6928
 1765TP3     H217115   0.344   3.315   1.420 -1.4699  1.1203 -0.2134
 1766TP3      O17116   1.869   0.697   0.110 -0.1099  0.3716 -0.0574
 1766TP3     H117117   1.877   0.604   0.087 -1.1642  0.7305 -2.1154
 1766TP3     H217118   1.917   0.743   0.041 -0.4960  1.4074  0.3471
 1767TP3      O17119   4.297   2.736   7.959  0.1740 -0.7790  0.3388
 1767TP3     H117120   4.333   2.708   8.043  1.1307 -1.4480 -0.2685
 1767TP3     H217121   4.264   2.656   7.918  1.1274 -0.7309 -0.5713
 1768TP3      O17122   2.735   3.294   2.723  0.9304  0.2001  0.1849
 1768TP3     H117123   2.802   3.335   2.778  1.1183 -0.7966  0.7267
 1768TP3     H217124   2.730   3.204   2.754 -0.2705  0.1012 -0.2260
 1769TP3      O17125   1.597   3.181   3.001 -0.1129  0.1984 -0.2810
 1769TP3     H117126   1.614   3.267   3.039 -0.1888  0.2295 -0.3181
 1769TP3     H217127   1.536   3.139   3.062 -1.5332  0.8630 -1.1832
 1770TP3      O17128   2.708   3.968   6.071  0.0889 -0.4770  0.1698
 1770TP3     H117129   2.778   3.924   6.119  0.8107  0.2085 -0.2332
 1770TP3     H217130   2.677   4.037   6.130  1.4521  0.8213 -0.5738
 1771TP3      O17131   2.819   1.108   8.962 -0.3766  0.3750 -0.2411
 1771TP3     H117132   2.843   1.178   9.023 -1.0510  2.5907 -2.3673
 1771TP3     H217133   2.897   1.094   8.909  0.2134 -1.5570  1.0423
 1772TP3      O17134   4.721   0.396   0.034 -0.0302  0.1782 -0.2449
 1772TP3     H117135   4.627   0.383   0.024 -0.0869  0.1290  0.3552
 1772TP3     H217136   4.750   0.326   0.092  0.0960  1.1277  0.8908
 1773TP3      O17137   2.736   5.262   1.542  0.1592 -0.1849  0.0550
 1773TP3     H117138   2.750   5.174   1.507 -1.4213 -0.2862 -0.3833
 1773TP3     H217139   2.662   5.253   1.602 -1.8182  1.2542 -1.9865
 1774TP3      O17140   3.626   1.471   8.924 -0.0144 -0.5493 -0.4485
 1774TP3     H117141   3.651   1.497   8.835  0.2704 -0.1473 -0.2537
 1774TP3     H217142   3.633   1.375   8.923  0.1200 -0.5405 -0.8194
 1775TP3      O17143   0.281   3.702   7.680 -0.8220  0.2568  0.1434
 1775TP3     H117144   0.341   3.677   7.610 -0.4280 -0.3244  0.6726
 1775TP3     H217145   0.328   3.769   7.729 -0.4189 -0.4940  0.8045
 1776TP3      O17146   2.885   5.081   7.553 -0.1305 -0.2078 -0.4915
 1776TP3     H117147   2.937   5.115   7.481  1.6376 -0.2256  0.7330
 1776TP3     H217148   2.821   5.150   7.572 -1.5127 -0.7097 -2.8488
 1777TP3      O17149   3.435   1.821   0.130 -0.5666  0.3288  0.0085
 1777TP3     H117150   3.390   1.905   0.133  1.4948  1.5273 -0.4672
 1777TP3     H217151   3.447   1.803   0.037  1.8387  1.1951  0.0826
 1778TP3      O17152   1.702   0.551   8.261 -0.0962  0.7913 -0.6756
 1778TP3     H117153   1.755   0.478   8.294 -0.2492  1.4485  1.1901
 1778TP3     H217154   1.700   0.539   8.167  1.1921 -0.7221 -0.5561
 1779TP3      O17155   4.792   2.087   7.765 -1.1509 -0.1348  0.1322
 1779TP3     H117156   4.766   2.024   7.698 -0.1919  1.1061 -1.5054
 1779TP3     H217157   4.710   2.123   7.798 -1.6480 -0.8747 -0.2794
 1780TP3      O17158   4.163   0.482   2.184 -0.7343  0.5372  0.3153
 1780TP3     H117159   4.071   0.484   2.209 -0.2284  1.7034  2.2312
 1780TP3     H217160   4.210   0.510   2.262  1.1864  1.0039 -0.9473
 1781TP3      O17161   5.005   3.867   1.067 -0.5057  0.0158  0.3036
 1781TP3     H117162   4.950   3.908   1.133  0.7553  0.4462  1.1055
 1781TP3     H217163   5.055   3.801   1.114  0.9210  0.7948 -0.0505
 1782TP3      O17164   4.414   3.590   9.376  0.1708  0.0564  0.1746
 1782TP3     H117165   4.467   3.569   9.453 -0.5931 -1.0682  0.4207
 1782TP3     H217166   4.453   3.670   9.341  1.6986 -0.4509  0.6452
 1783TP3      O17167   2.146   1.826   1.712 -0.3139  0.0155  0.2929
 1783TP3     H117168   2.095   1.746   1.697 -0.5679 -0.0311  1.3640
 1783TP3     H217169   2.236   1.801   1.689 -0.8169  0.3289 -2.4012
 1784TP3      O17170   2.050   5.261   8.109 -0.4212 -0.2856  0.3707
 1784TP3     H117171   1.971   5.213   8.136 -0.6021 -0.1216  0.1373
 1784TP3     H217172   2.041   5.269   8.014  0.4831 -1.3470  0.1786
 1785TP3      O17173   0.383   1.719   7.583  0.4250  0.4624 -0.7599
 1785TP3     H117174   0.404   1.626   7.589  2.1723  0.9043  0.7296
 1785TP3     H217175   0.408   1.755   7.668 -2.1890  1.9565 -0.4981
 1786TP3      O17176   3.262   4.913   2.064  0.3393  0.2518 -0.2228
 1786TP3     H117177   3.188   4.857   2.089 -1.0131  2.4479  1.0507
 1786TP3     H217178   3.294   4.875   1.982 -2.1175 -0.8897 -0.7451
 1787TP3      O17179   0.087   0.206   0.072 -0.3641 -0.4486  0.7253
 1787TP3     H117180   0.067   0.152  -0.004  0.1129  0.7919 -0.3248
 1787TP3     H217181   0.090   0.144   0.146  2.0134 -2.1691 -0.6795
 1788TP3      O17182   4.804   2.401   9.673  0.1385 -0.6837 -0.3470
 1788TP3     H117183   4.859   2.374   9.747 -0.0460 -0.0975  0.0157
 1788TP3     H217184   4.841   2.356   9.598  1.1970 -0.2085 -0.1307
 1789TP3      O17185   0.313   0.784   8.609 -0.5360  0.3658 -0.1065
 1789TP3     H117186   0.408   0.781   8.600 -0.4633  1.4298  0.1763
 1789TP3     H217187   0.298   0.795   8.703 -1.0359 -2.2658  0.2174
 1790TP3      O17188   1.605   2.545   6.968 -0.1783 -0.2024  0.1765
 1790TP3     H117189   1.519   2.513   6.941 -0.7622  0.5657  1.0790
 1790TP3     H217190   1.667   2.484   6.927 -1.2235 -2.1544  1.3553
 1791TP3      O17191   1.088   4.501   1.036  0.2392  0.6297 -0.4498
 1791TP3     H117192   1.120   4.572   1.091  1.3921  0.5251 -0.9631
 1791TP3     H217193   1.002   4.480   1.072  0.4671  1.3612  0.5657
 1792TP3      O17194   0.870   0.609   8.673  0.4951 -0.0616 -0.0762
 1792TP3     H117195   0.778   0.622   8.651  0.5594 -1.4829 -1.2949
 1792TP3     H217196   0.917   0.637   8.595  0.9289 -1.8072 -0.4781
 1793TP3      O17197   0.093   1.837   9.909  0.6906  0.0311  0.0280
 1793TP3     H117198   0.061   1.747   9.920  1.0041 -0.1100 -0.2152
 1793TP3     H217199   0.166   1.830   9.848  1.0851  0.3731  0.4529
 1794TP3      O17200   2.415   4.013   8.758  0.1679  0.4938  0.2900
 1794TP3     H117201   2.392   4.047   8.672  0.8149  0.3063  0.0388
 1794TP3     H217202   2.406   3.919   8.750  1.3379  0.3806  0.0749
 1795TP3      O17203   3.103   3.457   8.205 -0.4081  0.0623 -0.3986
 1795TP3     H117204   3.097   3.500   8.119  1.1606 -0.2225 -0.6656
 1795TP3     H217205   3.163   3.511   8.255 -0.4250 -0.4033  0.1334
 1796TP3      O17206   4.264   1.481   9.413 -0.0924 -0.0489  0.0998
 1796TP3     H117207   4.207   1.442   9.479  1.5323  0.9533  2.2011
 1796TP3     H217208   4.324   1.411   9.388 -0.3358 -0.2693  0.1321
 1797TP3      O17209   2.501   1.902   0.212 -0.9942 -0.0568  0.0938
 1797TP3     H117210   2.433   1.848   0.253  0.5697 -1.0576  1.4938
 1797TP3     H217211   2.524   1.856   0.132 -0.5035 -0.8645  0.6888
 1798TP3      O17212   0.230   0.662   2.565  0.2482  0.2667  0.2671
 1798TP3     H117213   0.170   0.718   2.517  1.5752  1.0872 -0.5013
 1798TP3     H217214   0.209   0.573   2.536  1.3093  0.7671 -2.2581
 1799TP3      O17215   2.304   2.002   0.877 -0.2185  0.0029 -0.0508
 1799TP3     H117216   2.373   2.067   0.888  0.5737 -0.8438  0.0944
 1799TP3     H217217   2.350   1.920   0.863 -1.1935 -0.6260  0.2839
 1800TP3      O17218   4.277   4.475   2.542  0.2089 -0.0953  0.2726
 1800TP3     H117219   4.191   4.438   2.559 -0.6204  1.6432  0.0700
 1800TP3     H217220   4.259   4.557   2.497  2.0503 -0.5534 -1.4310
 1801TP3      O17221   0.935   2.308   0.285  0.0497 -0.3576  0.5204
 1801TP3     H117222   0.977   2.387   0.251 -0.8056 -0.2914 -0.4697
 1801TP3     H217223   0.995   2.274   0.351  0.0312  1.5900  1.6044
 1802TP3      O17224   1.742   1.613   6.909  0.4398  0.4209 -0.4858
 1802TP3     H117225   1.741   1.634   7.002  1.1831  0.3697 -0.4604
 1802TP3     H217226   1.663   1.562   6.895  0.5184  0.0952  0.2008
 1803TP3      O17227   3.447   0.626   2.394  0.1526 -0.2917  0.0715
 1803TP3     H117228   3.413   0.550   2.346  2.2551 -0.6971 -0.8848
 1803TP3     H217229   3.518   0.591   2.447  0.5187  0.8485  0.3641
 1804TP3      O17230   2.269   4.897   7.871  0.5837  0.8157 -0.3746
 1804TP3     H117231   2.285   4.804   7.889  0.8233  0.4844 -2.1656
 1804TP3     H217232   2.174   4.906   7.879  0.6934  0.8453  1.5224
 1805TP3      O17233   4.285   4.883   9.806 -0.1754 -0.3374 -0.1725
 1805TP3     H117234   4.263   4.797   9.770  0.9268 -0.9013  0.4784
 1805TP3     H217235   4.308   4.866   9.897  1.2815  0.4602 -0.3744
 1806TP3      O17236   1.630   3.726   9.559  0.7332 -0.0233 -0.2113
 1806TP3     H117237   1.562   3.670   9.596  1.1465 -0.0533  0.5220
 1806TP3     H217238   1.710   3.673   9.562  1.1194  0.5747  0.4356
 1807TP3      O17239   0.747   3.508   2.445  0.1307 -0.3352  0.3753
 1807TP3     H117240   0.742   3.490   2.351  1.7468  0.5123  0.0930
 1807TP3     H217241   0.692   3.441   2.486  0.7299 -1.7327 -1.0558
 1808TP3      O17242   1.244   0.957   1.768 -0.3667  0.5289 -0.3222
 1808TP3     H117243   1.302   0.964   1.844  0.2679  1.0598 -0.8345
 1808TP3     H217244   1.222   0.864   1.762  0.3837  0.3292 -0.0767
 1809TP3      O17245   0.093   1.624   1.504  0.4117 -0.4225 -0.3241
 1809TP3     H117246   0.176   1.649   1.543  0.2128  0.2440 -0.3133
 1809TP3     H217247   0.100   1.529   1.490  0.5196 -0.6787  1.2515
 1810TP3      O17248   4.562   3.677   0.010  0.4855  0.0697  0.0872
 1810TP3     H117249   4.628   3.746   0.009 -0.8068  1.3361 -0.6923
 1810TP3     H217250   4.480   3.721  -0.015 -1.0448 -1.0648  2.6738
 1811TP3      O17251   2.610   2.012   9.544  0.3426  0.3893 -0.0729
 1811TP3     H117252   2.675   1.943   9.531 -0.1732 -0.0791 -0.1964
 1811TP3     H217253   2.540   1.992   9.482 -0.2659  0.4514  0.5729
 1812TP3      O17254   4.940   3.257   1.345  0.0937 -0.2203 -0.0839
 1812TP3     H117255   4.941   3.233   1.252  0.4103  3.7872 -1.3250
 1812TP3     H217256   4.848   3.277   1.363  0.1500 -0.2421  0.2214
 1813TP3      O17257   4.926   4.783   9.357  0.0736 -0.1443 -0.1920
 1813TP3     H117258   4.980   4.714   9.319 -0.7311 -0.7544 -0.2702
 1813TP3     H217259   4.855   4.736   9.400  1.3875  0.4650  2.8745
 1814TP3      O17260   3.919   1.333   8.919  0.3445  0.2866 -0.1752
 1814TP3     H117261   3.923   1.393   8.843  1.7802 -0.9615 -1.1582
 1814TP3     H217262   3.843   1.278   8.903  0.5113  0.1785 -0.6182
 1815TP3      O17263   5.039   2.500   0.568 -0.4942 -0.1471  0.2781
 1815TP3     H117264   4.992   2.525   0.647  0.8420  1.6739  0.5418
 1815TP3     H217265   5.113   2.447   0.599 -0.6718 -0.4842  0.1323
 1816TP3      O17266   0.038   2.529   7.975 -0.2425 -0.3807 -0.2422
 1816TP3     H117267  -0.051   2.556   7.955  0.2133  1.4570  0.0136
 1816TP3     H217268   0.039   2.517   8.070 -0.1021  0.1246 -0.1755
 1817TP3      O17269   2.918   3.187   6.440 -0.2942  0.4769 -0.3368
 1817TP3     H117270   2.910   3.246   6.515 -0.0319  0.3576 -0.2141
 1817TP3     H217271   2.963   3.110   6.474 -0.2628  0.3787 -0.5934
 1818TP3      O17272   0.954   1.707   9.526 -0.8139  0.1806 -0.0408
 1818TP3     H117273   0.997   1.767   9.587  0.0602 -0.4473 -0.0185
 1818TP3     H217274   0.971   1.745   9.440 -1.9704  1.0181  0.0817
 1819TP3      O17275   4.667   2.457   7.077  0.2733  0.2941  0.0581
 1819TP3     H117276   4.695   2.367   7.093 -1.0393 -0.1332  0.0023
 1819TP3     H217277   4.748   2.502   7.051  0.6378 -1.3002 -1.7665
 1820TP3      O17278   0.060   0.083   1.849  0.5391  0.4637 -0.0301
 1820TP3     H117279   0.114   0.142   1.902  0.8024  2.9658 -2.7852
 1820TP3     H217280  -0.030   0.101   1.877  0.8063 -0.2428  1.3407
 1821TP3      O17281   0.324   2.487   7.902 -0.1491 -0.6176 -0.7031
 1821TP3     H117282   0.253   2.507   7.963 -0.5462 -1.9161 -0.7158
 1821TP3     H217283   0.281   2.472   7.818  0.1609 -1.0431 -0.7917
 1822TP3      O17284   3.690   2.367   8.960 -0.3049 -0.5844 -0.2564
 1822TP3     H117285   3.751   2.420   9.011 -1.7756  0.1074  0.8585
 1822TP3     H217286   3.701   2.279   8.995 -0.6427 -0.2815  0.6531
 1823TP3      O17287   3.662   4.126   2.170  0.8394  0.4034  0.0451
 1823TP3     H117288   3.707   4.129   2.254  2.1401  1.5523 -0.6478
 1823TP3     H217289   3.569   4.136   2.193  1.1190  0.2165  1.3658
 1824TP3      O17290   1.082   3.958   0.881  0.1174  0.3931  0.1156
 1824TP3     H117291   1.037   4.031   0.838 -0.6465  0.4465  0.9793
 1824TP3     H217292   1.011   3.901   0.912  0.6754 -0.1315  0.4544
 1825TP3      O17293   0.885   2.424   6.638 -0.0839 -0.7904 -0.0608
 1825TP3     H117294   0.831   2.438   6.560  0.9524  0.3751 -0.6065
 1825TP3     H217295   0.962   2.479   6.624  0.6291 -1.3833  1.3061
 1826TP3      O17296   3.047   1.601   8.449 -0.0157 -0.6129 -0.3073
 1826TP3     H117297   3.116   1.566   8.507 -0.6139 -1.8406 -0.3148
 1826TP3     H217298   2.966   1.567   8.485 -0.7276  1.3995  0.1199
 1827TP3      O17299   0.641   2.634   0.394 -0.2585 -0.0861  0.6021
 1827TP3     H117300   0.607   2.545   0.406 -1.2582  0.3775  1.3120
 1827TP3     H217301   0.630   2.651   0.301 -1.0866 -0.3058  0.6549
 1828TP3      O17302   0.775   3.787   7.397  0.4773  0.2180 -0.4103
 1828TP3     H117303   0.695   3.760   7.351 -1.1570 -2.2407  3.4175
 1828TP3     H217304   0.841   3.724   7.370 -0.5204 -1.3443  0.6730
 1829TP3      O17305   1.213   1.943   0.942  0.3333 -0.3604  0.5924
 1829TP3     H117306   1.119   1.942   0.959 -0.1152  0.7062 -1.4756
 1829TP3     H217307   1.231   1.858   0.904  0.2238 -0.5857  1.0365
 1830TP3      O17308   1.626   1.033   8.912  0.6818 -0.7884 -0.4190
 1830TP3     H117309   1.647   1.089   8.838  0.1796 -0.4523 -0.3096
 1830TP3     H217310   1.608   0.947   8.873  0.8918 -0.7353 -0.6360
 1831TP3      O17311   1.793   1.410  10.041  0.1468  0.3563  0.2190
 1831TP3     H117312   1.698   1.422  10.032  0.3265  1.6787 -0.2513
 1831TP3     H217313   1.806   1.388  10.133 -0.7160 -1.1506  0.0085
 1832TP3      O17314   1.623   4.321   1.123  0.0893 -0.0017 -0.2927
 1832TP3     H117315   1.708   4.335   1.081  1.0745  0.7648  1.7964
 1832TP3     H217316   1.565   4.383   1.080  0.6577 -0.2502 -1.4762
 1833TP3      O17317   3.890   4.783   9.302  0.2590  0.4104  0.2888
 1833TP3     H117318   3.958   4.843   9.272 -0.7864  1.4867 -0.0295
 1833TP3     H217319   3.937   4.716   9.351  1.7687 -0.0553 -1.6840
 1834TP3      O17320   2.219   4.414   7.246 -0.0342  0.2227  0.2511
 1834TP3     H117321   2.221   4.330   7.202 -0.8170  0.3706 -0.0867
 1834TP3     H217322   2.279   4.469   7.196 -0.5509  0.2493 -0.3565
 1835TP3      O17323   1.855   2.251   8.085 -0.2957  0.2109  0.0523
 1835TP3     H117324   1.834   2.341   8.111 -0.0352  0.3752 -0.3126
 1835TP3     H217325   1.842   2.250   7.990 -4.3497 -1.1724  0.4139
 1836TP3      O17326   4.951   3.936   6.878  0.3832 -0.8686  0.0759
 1836TP3     H117327   4.895   3.887   6.938 -1.3523  1.2467  0.2919
 1836TP3     H217328   4.923   3.909   6.791  0.6998 -1.5915  0.1953
 1837TP3      O17329   4.379   4.016   2.077  0.7480 -0.0963  0.0097
 1837TP3     H117330   4.293   4.045   2.105  0.8368  1.2683 -0.9867
 1837TP3     H217331   4.425   4.097   2.054  1.5193 -0.9173 -1.5546
 1838TP3      O17332   4.722   3.538   0.967  0.1818  0.0435  0.5883
 1838TP3     H117333   4.668   3.527   0.888  2.1936 -2.2596 -0.6021
 1838TP3     H217334   4.725   3.450   1.006  1.1920  0.6411  1.9078
 1839TP3      O17335   3.539   4.626  10.091 -0.3888 -0.0398 -0.3217
 1839TP3     H117336   3.622   4.642  10.046 -0.5489  0.9701 -0.2938
 1839TP3     H217337   3.481   4.593  10.022  0.3378 -1.8990 -0.1043
 1840TP3      O17338   4.962   4.268   9.355 -0.0221  0.3535  0.3489
 1840TP3     H117339   4.904   4.209   9.404  0.2880  0.8152  1.3055
 1840TP3     H217340   5.042   4.218   9.341 -0.2214  0.1172  0.0564
 1841TP3      O17341   1.595   3.286   7.888 -0.1263 -0.2945 -0.6129
 1841TP3     H117342   1.667   3.265   7.947  0.9158 -1.0373 -2.0864
 1841TP3     H217343   1.612   3.377   7.860 -0.8122  0.1806  0.4475
 1842TP3      O17344   4.600   2.971   9.013  1.1301 -0.3458  0.0728
 1842TP3     H117345   4.593   3.050   8.959 -0.7281  0.7634  1.7866
 1842TP3     H217346   4.582   2.899   8.953  1.3494  0.6535 -1.2271
 1843TP3      O17347   3.547   1.657   7.752 -0.6316  0.2703  0.0649
 1843TP3     H117348   3.613   1.589   7.762  0.8945  0.9967 -3.4854
 1843TP3     H217349   3.465   1.610   7.739 -0.2508 -0.7497  1.2093
 1844TP3      O17350   2.156   0.583   7.254 -0.1819 -0.5817  0.2043
 1844TP3     H117351   2.225   0.572   7.189  0.3525 -1.3206  0.8784
 1844TP3     H217352   2.075   0.566   7.206  0.2311 -1.5564 -0.1817
 1845TP3      O17353   2.227   2.625   2.291  0.0661 -0.2278  0.1005
 1845TP3     H117354   2.223   2.530   2.280  1.7080 -0.3949  0.6756
 1845TP3     H217355   2.314   2.641   2.327  0.1340  1.5771 -0.7550
 1846TP3      O17356   4.148   5.033   0.586  0.4469  0.0424 -0.2520
 1846TP3     H117357   4.112   5.007   0.671  0.5321  1.0158  0.0955
 1846TP3     H217358   4.093   5.107   0.558  2.0569  1.4940  0.2376
 1847TP3      O17359   5.046   3.422   6.653  0.2030 -0.3382  0.1485
 1847TP3     H117360   4.956   3.422   6.685 -0.6705 -0.2840 -2.1025
 1847TP3     H217361   5.083   3.340   6.686 -1.3079 -1.3206 -0.4526
 1848TP3      O17362   4.160   1.323   7.307 -0.0018  0.0246 -0.0721
 1848TP3     H117363   4.223   1.313   7.234 -2.2106 -2.0039 -1.8771
 1848TP3     H217364   4.172   1.243   7.359 -0.4927  0.0392  0.0635
 1849TP3      O17365   0.390   4.653   8.442 -0.0587 -0.0283 -0.1961
 1849TP3     H117366   0.357   4.704   8.368 -0.2359  1.7511  1.0337
 1849TP3     H217367   0.331   4.676   8.514  0.7568 -0.8752  0.7620
 1850TP3      O17368   3.017   0.803   3.467 -0.2712  0.4311 -0.3715
 1850TP3     H117369   3.063   0.725   3.498 -0.9173  0.3083  0.3332
 1850TP3     H217370   3.086   0.864   3.442  0.2452 -0.3767 -0.9757
 1851TP3      O17371   1.332   2.344   1.904  0.1196 -0.0020 -1.2403
 1851TP3     H117372   1.339   2.307   1.816 -0.8237 -0.1368 -1.2709
 1851TP3     H217373   1.409   2.311   1.951 -0.1258 -1.1099 -1.5939
 1852TP3      O17374   3.765   3.707   7.420  0.0438  0.6126 -0.1643
 1852TP3     H117375   3.800   3.656   7.347  1.2516  0.5842  0.4271
 1852TP3     H217376   3.694   3.654   7.455  1.4945 -0.8582  0.6618
 1853TP3      O17377   5.138   2.709   2.250 -0.1369  0.2412  0.6247
 1853TP3     H117378   5.154   2.801   2.274 -0.0770  0.3897  0.0321
 1853TP3     H217379   5.043   2.701   2.252 -0.1244  0.1667  1.2033
 1854TP3      O17380   0.925   3.589   7.265 -0.8700  0.7668 -0.2075
 1854TP3     H117381   0.872   3.532   7.210 -2.1796  1.4381  0.3089
 1854TP3     H217382   1.001   3.611   7.211 -0.7653 -0.7733 -0.7142
 1855TP3      O17383   4.931   3.783   9.622 -0.8744  0.0813  0.0984
 1855TP3     H117384   4.882   3.834   9.687 -0.3874  1.4195 -0.5477
 1855TP3     H217385   5.017   3.825   9.619 -0.3672 -0.9455 -0.2887
 1856TP3      O17386   4.479   1.068   8.674  0.2464  0.3190  0.3477
 1856TP3     H117387   4.527   1.108   8.747  1.2468  0.5226 -0.3949
 1856TP3     H217388   4.476   0.975   8.695  1.5066  0.2112  0.1395
 1857TP3      O17389   1.895   3.863   8.231 -0.2685 -0.2560  0.2714
 1857TP3     H117390   1.822   3.911   8.192  0.8055 -0.0531 -1.6188
 1857TP3     H217391   1.951   3.841   8.157  2.0953  0.4334  1.7644
 1858TP3      O17392   5.264   1.955   1.023 -0.1362  0.7051  0.0592
 1858TP3     H117393   5.216   2.035   1.045 -1.0691  0.3584 -0.6062
 1858TP3     H217394   5.295   1.970   0.934  0.4715  0.6835  0.2666
 1859TP3      O17395   3.436   1.082   7.324  0.3272  0.1937  1.4035
 1859TP3     H117396   3.400   1.018   7.264  2.6084  1.0161 -1.0625
 1859TP3     H217397   3.378   1.158   7.316  1.2319  0.7345 -0.8263
 1860TP3      O17398   3.439   4.653   1.942  0.0142  0.4244  0.4006
 1860TP3     H117399   3.428   4.646   1.847 -0.9104  2.8209  0.2513
 1860TP3     H217400   3.364   4.606   1.978 -0.9711  1.5156 -0.1562
 1861TP3      O17401   0.981   2.266   2.782 -0.1759 -0.1175 -0.4896
 1861TP3     H117402   0.962   2.270   2.876 -1.6412  0.7001 -0.7795
 1861TP3     H217403   1.034   2.187   2.771  1.0445  0.4097  1.1748
 1862TP3      O17404   2.379   4.207   2.141 -0.3340 -0.4520 -0.3523
 1862TP3     H117405   2.472   4.188   2.148  0.0945 -0.7050 -4.3106
 1862TP3     H217406   2.336   4.121   2.145 -0.4338 -0.3578  1.1913
 1863TP3      O17407   4.410   2.753   0.929 -0.2920  0.0087 -0.0160
 1863TP3     H117408   4.452   2.754   0.843  2.4126  0.1622  1.2206
 1863TP3     H217409   4.363   2.670   0.933 -0.5837  0.0639 -1.6452
 1864TP3      O17410   3.240   3.512   9.802 -0.1088 -0.7622 -0.2414
 1864TP3     H117411   3.252   3.419   9.822 -1.0055 -1.1098 -1.2386
 1864TP3     H217412   3.328   3.549   9.808  0.6134 -2.0866 -1.8458
 1865TP3      O17413   2.146   2.691   0.203 -0.1487 -0.2426 -0.3573
 1865TP3     H117414   2.107   2.620   0.254 -0.6696 -0.8508 -1.5773
 1865TP3     H217415   2.129   2.769   0.256 -3.4934 -0.3784 -1.0125
 1866TP3      O17416   2.079   3.835   2.593 -0.5488 -0.3338  0.7504
 1866TP3     H117417   2.137   3.797   2.527 -0.1851  0.0008  0.8683
 1866TP3     H217418   2.112   3.801   2.676 -2.0218 -2.0796  0.6728
 1867TP3      O17419   0.468   0.925   2.511  0.2297 -0.1296  0.1706
 1867TP3     H117420   0.429   0.904   2.427 -0.3762  3.7198 -0.6961
 1867TP3     H217421   0.561   0.936   2.493  0.6444 -2.2675  0.7365
 1868TP3      O17422   0.636   2.720   7.571 -0.1195  0.2389  0.3854
 1868TP3     H117423   0.632   2.704   7.665 -0.6659  0.8859  0.4786
 1868TP3     H217424   0.698   2.792   7.562 -1.1192  1.1408  0.3999
 1869TP3      O17425   0.982   1.203  10.030  0.2634  0.1790  0.1928
 1869TP3     H117426   1.042   1.278  10.033 -2.7536  2.8166  0.6807
 1869TP3     H217427   0.981   1.176   9.938  1.4524  0.6975  0.0128
 1870TP3      O17428   0.913   3.025   0.842  0.0394  0.2730 -0.0546
 1870TP3     H117429   0.910   2.929   0.841 -2.0188  0.2571  1.3540
 1870TP3     H217430   0.877   3.051   0.757 -0.4392 -0.2106 -0.0048
 1871TP3      O17431   0.836   1.732   8.452 -0.0561 -0.0241 -0.1958
 1871TP3     H117432   0.807   1.654   8.404 -0.2762 -0.4004  0.5343
 1871TP3     H217433   0.755   1.770   8.487  0.2460 -0.6761  1.2556
 1872TP3      O17434   0.813   4.204   9.234  0.1578  0.1950 -0.1003
 1872TP3     H117435   0.877   4.264   9.195  0.5223  0.0417  0.2558
 1872TP3     H217436   0.851   4.180   9.319 -0.1906 -0.1966 -0.0510
 1873TP3      O17437   4.109   2.708   0.411 -0.0916  0.4379 -0.2627
 1873TP3     H117438   4.161   2.628   0.421 -0.6356  0.1665  0.4914
 1873TP3     H217439   4.169   2.771   0.372  1.1996  0.5129  1.7267
 1874TP3      O17440   0.260   2.718   6.946  0.2621  0.4593  0.4653
 1874TP3     H117441   0.232   2.629   6.925  1.8208  0.1288 -0.3785
 1874TP3     H217442   0.182   2.760   6.983 -1.5224 -0.1816 -2.2936
 1875TP3      O17443   3.388   1.959   1.975  0.0462  0.6460 -0.5157
 1875TP3     H117444   3.482   1.976   1.965  0.4325 -0.6879  0.5305
 1875TP3     H217445   3.382   1.864   1.987 -1.2616  0.8902  1.1192
 1876TP3      O17446   3.880   3.846   0.757  0.2373 -0.0264  0.4255
 1876TP3     H117447   3.866   3.772   0.698  0.5057  0.5078 -0.3237
 1876TP3     H217448   3.813   3.909   0.732 -0.2523 -0.1808  1.3396
 1877TP3      O17449   2.956   4.347   0.467  0.1280 -0.1266  0.1137
 1877TP3     H117450   3.017   4.292   0.418 -0.7160 -1.3879  0.4275
 1877TP3     H217451   2.906   4.393   0.400  1.8606  1.5039 -0.1573
 1878TP3      O17452   3.025   2.263   0.598 -0.4451  0.1387  0.6425
 1878TP3     H117453   3.028   2.288   0.691  1.4789 -1.3124  1.0413
 1878TP3     H217454   2.976   2.181   0.597 -1.7538  0.8968  0.1289
 1879TP3      O17455   3.118   4.727   9.378 -0.6479 -0.8911  0.1906
 1879TP3     H117456   3.142   4.728   9.471  0.0688 -0.6530  0.0049
 1879TP3     H217457   3.094   4.817   9.358  0.3273 -0.6901 -0.1363
 1880TP3      O17458   0.544   4.805   0.851  0.0563  0.0630  0.4440
 1880TP3     H117459   0.551   4.763   0.765  1.0193  1.1118 -0.0052
 1880TP3     H217460   0.619   4.770   0.900  0.1976  0.3814  0.4545
 1881TP3      O17461   2.915   0.133   2.006  0.3970 -0.1365  0.1377
 1881TP3     H117462   2.940   0.057   1.953  1.4520 -0.8014  1.5297
 1881TP3     H217463   2.829   0.158   1.972  1.0362 -0.5086 -1.8765
 1882TP3      O17464   0.716   0.023   7.961  0.9703 -0.3948 -0.3972
 1882TP3     H117465   0.764   0.067   7.891 -0.5224 -0.5984 -1.5984
 1882TP3     H217466   0.685  -0.058   7.922 -0.8600  0.0066  0.1295
 1883TP3      O17467   2.438   4.159   9.953  0.2659 -0.1664  0.1368
 1883TP3     H117468   2.485   4.079   9.974 -0.3501 -0.0786  1.9908
 1883TP3     H217469   2.453   4.216  10.028  0.3342  1.3090 -0.9533
 1884TP3      O17470   3.204   3.689   0.872 -0.4150 -0.5019  0.3306
 1884TP3     H117471   3.215   3.596   0.890  0.8235 -0.6517 -1.0071
 1884TP3     H217472   3.277   3.731   0.918 -0.6521 -0.2462  0.4770
 1885TP3      O17473   1.582   0.485   9.085 -0.6344  0.6272  0.3825
 1885TP3     H117474   1.498   0.519   9.114 -0.9573 -0.2359  0.4907
 1885TP3     H217475   1.569   0.390   9.081  0.4847  0.4361  0.9068
 1886TP3      O17476   0.640   1.876   9.426 -1.1904 -0.4839  0.5867
 1886TP3     H117477   0.617   1.786   9.404 -1.1636 -0.2797 -0.3048
 1886TP3     H217478   0.686   1.909   9.349  0.3366 -0.2525  1.5594
 1887TP3      O17479   3.363   3.112   8.229 -0.1188 -0.1913 -0.0172
 1887TP3     H117480   3.446   3.152   8.204 -0.4528 -0.1041 -1.0368
 1887TP3     H217481   3.355   3.036   8.170  0.5214 -1.8271  1.8707
 1888TP3      O17482   4.309   1.032   0.011 -0.1417 -0.4833 -0.7799
 1888TP3     H117483   4.228   1.042   0.061 -0.5339  0.0646 -1.5143
 1888TP3     H217484   4.327   1.119  -0.023  1.0038 -0.5069 -0.2575
 1889TP3      O17485   2.527   4.562   7.324 -0.6161  0.2302 -0.6998
 1889TP3     H117486   2.457   4.574   7.260 -1.3925 -0.4495 -0.0025
 1889TP3     H217487   2.605   4.548   7.271 -1.1771  0.0214 -1.4982
 1890TP3      O17488   4.406   0.040   0.450 -0.1978 -0.3817  0.0851
 1890TP3     H117489   4.418  -0.027   0.517 -1.2952 -0.4491  0.2324
 1890TP3     H217490   4.323   0.017   0.408  1.1428 -1.2274 -2.3296
 1891TP3      O17491   1.580   1.376   9.760  0.4382  0.0628 -0.5564
 1891TP3     H117492   1.583   1.448   9.823  0.3892 -0.2632 -0.1789
 1891TP3     H217493   1.662   1.385   9.711  0.7192  0.0086 -0.1019
 1892TP3      O17494   3.819   1.718   6.978  0.5531  0.3527 -0.2466
 1892TP3     H117495   3.748   1.756   7.030 -0.0677  2.9170 -2.7577
 1892TP3     H217496   3.803   1.623   6.983  0.1089  0.4649  3.4504
 1893TP3      O17497   3.223   2.096   0.876 -0.1552  0.1338 -0.2540
 1893TP3     H117498   3.305   2.102   0.925  1.6591  1.1759 -3.1373
 1893TP3     H217499   3.196   2.187   0.862 -0.4109 -0.0973 -1.4237
 1894TP3      O17500   3.730   3.175   6.920 -0.1786 -0.4147 -0.4190
 1894TP3     H117501   3.677   3.184   6.840  0.8776 -0.0738 -1.1082
 1894TP3     H217502   3.788   3.251   6.918 -0.9219  0.2366  1.3076
 1895TP3      O17503   0.112   1.819   9.579  0.0307 -0.8071 -0.3486
 1895TP3     H117504   0.204   1.806   9.602 -0.1146  0.3584  1.0742
 1895TP3     H217505   0.100   1.914   9.583 -1.5384 -1.0037  0.8945
 1896TP3      O17506   0.248   4.471   2.130  0.2923 -0.1301 -0.0732
 1896TP3     H117507   0.191   4.535   2.087  0.6070 -0.3198 -0.7848
 1896TP3     H217508   0.190   4.424   2.189  0.2391  1.4651  1.2092
 1897TP3      O17509   5.043   4.610   8.695 -0.2681  0.9450  0.0115
 1897TP3     H117510   5.051   4.522   8.660  1.3552  1.3371 -0.7138
 1897TP3     H217511   5.051   4.667   8.619 -1.5464  1.7399  0.4358
 1898TP3      O17512   1.405   2.462   7.561 -0.0458  0.0347  0.1600
 1898TP3     H117513   1.468   2.533   7.575  0.3251 -0.3479  0.4663
 1898TP3     H217514   1.340   2.473   7.631  0.5905 -0.5476  0.8636
 1899TP3      O17515   4.912   3.723   8.685 -0.6229  0.1967  0.0313
 1899TP3     H117516   4.844   3.662   8.656  1.0040 -1.8853  0.3308
 1899TP3     H217517   4.864   3.801   8.712 -2.7774 -0.7211 -0.8993
 1900TP3      O17518   0.701   1.033   2.392  0.3408  0.0375 -0.0170
 1900TP3     H117519   0.774   0.989   2.350  0.3240  0.2433 -0.2662
 1900TP3     H217520   0.727   1.126   2.393 -0.4438  0.2912 -1.2331
 1901TP3      O17521   4.025   2.707   1.505 -0.1603 -0.0322  0.5198
 1901TP3     H117522   3.972   2.699   1.584  0.8987 -0.4438  1.2083
 1901TP3     H217523   3.996   2.789   1.465 -0.5936  0.2696  1.4293
 1902TP3      O17524   1.086   2.187   9.315 -0.0510 -0.0525 -0.6857
 1902TP3     H117525   1.175   2.191   9.282  0.9371  0.3299  1.8022
 1902TP3     H217526   1.067   2.275   9.346 -1.1469 -0.2211 -0.8383
 1903TP3      O17527   2.763   2.717   7.386  0.6129 -0.0124  0.3174
 1903TP3     H117528   2.691   2.669   7.345  0.5570 -0.1979  0.6283
 1903TP3     H217529   2.797   2.773   7.316 -0.8348  1.2470  0.5623
 1904TP3      O17530   2.339   3.834   0.979  0.6291  0.1879  0.6923
 1904TP3     H117531   2.308   3.805   0.893  0.0863  2.4285  0.0542
 1904TP3     H217532   2.427   3.867   0.963  1.6925 -1.9995  1.6232
 1905TP3      O17533   1.733   3.775   7.996 -0.0097  0.4228  0.3757
 1905TP3     H117534   1.730   3.827   7.916  0.6511  2.2700  1.4978
 1905TP3     H217535   1.707   3.835   8.065 -1.1011 -1.2623  1.5278
 1906TP3      O17536   3.587   3.622   1.349 -0.0849  0.5441 -0.9077
 1906TP3     H117537   3.667   3.668   1.374 -0.7702  1.6145 -0.6509
 1906TP3     H217538   3.532   3.627   1.427  1.1216 -3.8652  0.5483
 1907TP3      O17539   3.883   2.316   7.358 -0.4156  0.1446 -0.6189
 1907TP3     H117540   3.923   2.275   7.435 -1.7740  0.7848  0.4541
 1907TP3     H217541   3.823   2.249   7.324  0.5209 -0.3133 -1.4376
 1908TP3      O17542   0.807   1.899   7.628  0.5978 -0.0442 -0.4043
 1908TP3     H117543   0.797   1.986   7.589 -1.4208  0.9801  2.1173
 1908TP3     H217544   0.775   1.838   7.562 -1.6351  1.4940 -0.8361
 1909TP3      O17545   2.100   2.149   7.791 -0.0267  0.0266  0.1614
 1909TP3     H117546   2.123   2.127   7.881 -0.4991  0.4635  0.3958
 1909TP3     H217547   2.061   2.236   7.797 -3.0496 -1.2010  0.0167
 1910TP3      O17548   2.771   2.328   7.768 -0.4670  0.5090  0.0427
 1910TP3     H117549   2.701   2.392   7.783 -0.3633  0.1348  2.3875
 1910TP3     H217550   2.765   2.267   7.841  2.7447  0.8768  0.7549
 1911TP3      O17551   3.626   0.186   7.621 -0.4499  0.5071 -0.5929
 1911TP3     H117552   3.676   0.114   7.659  0.2390  0.0527 -2.2582
 1911TP3     H217553   3.688   0.259   7.619 -0.6127  0.6492 -0.4571
 1912TP3      O17554   4.866   0.027   9.156 -0.2400 -0.1599 -0.6612
 1912TP3     H117555   4.849   0.004   9.065  3.6278 -1.9202 -1.1088
 1912TP3     H217556   4.863  -0.056   9.203  2.6387 -0.1007 -0.1869
 1913TP3      O17557   1.701   3.243   1.757  0.5190 -0.0429 -0.1808
 1913TP3     H117558   1.690   3.244   1.852 -0.8905  0.4591 -0.3337
 1913TP3     H217559   1.630   3.186   1.725 -0.3929  1.5402 -1.0772
 1914TP3      O17560   0.903   1.711   2.586  0.2022 -0.0080  0.4701
 1914TP3     H117561   0.997   1.709   2.569  0.2707  0.7221  0.7575
 1914TP3     H217562   0.887   1.796   2.627 -0.4244 -0.5421  1.3671
 1915TP3      O17563   3.322   0.437   8.881 -0.1962 -0.5823  0.0681
 1915TP3     H117564   3.253   0.398   8.827  0.1023  0.9232 -1.5030
 1915TP3     H217565   3.403   0.416   8.836  0.2379 -0.8796  0.9689
 1916TP3      O17566   2.937   3.423   9.373 -0.4132  0.1476 -0.4267
 1916TP3     H117567   2.882   3.502   9.373 -2.4670 -1.1990 -0.6600
 1916TP3     H217568   2.904   3.371   9.446  0.0622 -1.0214 -1.0195
 1917TP3      O17569   3.958   4.942   7.943 -0.0576 -0.6361 -0.6476
 1917TP3     H117570   3.967   5.033   7.914  0.3126 -0.8383 -1.1800
 1917TP3     H217571   3.880   4.943   7.999  0.3746  0.1542 -0.0322
 1918TP3      O17572   3.323   4.343   9.591  0.1226  0.2329 -0.1083
 1918TP3     H117573   3.312   4.286   9.514 -0.6038 -0.9236  0.8251
 1918TP3     H217574   3.408   4.319   9.626 -0.5706 -1.0196  0.8250
 1919TP3      O17575   3.272   3.513   8.394  0.2075 -0.0260  0.2895
 1919TP3     H117576   3.269   3.427   8.436 -3.0631 -0.6673 -1.0333
 1919TP3     H217577   3.315   3.569   8.459  0.5926 -2.1964  2.0280
 1920TP3      O17578   4.219   0.953   8.221 -0.3434  0.2344 -0.3038
 1920TP3     H117579   4.187   1.028   8.272  1.6501  0.3702  0.8234
 1920TP3     H217580   4.312   0.949   8.239 -0.2598 -2.1144 -0.9089
 1921TP3      O17581   4.326   1.904   9.280 -0.0300 -0.1538  0.1766
 1921TP3     H117582   4.415   1.913   9.247  0.4776  0.3060  1.6093
 1921TP3     H217583   4.275   1.965   9.227  1.0961  1.9148  1.3441
 1922TP3      O17584   2.366   2.297   7.373  0.5344 -0.1616  0.1635
 1922TP3     H117585   2.375   2.353   7.450  1.7592  0.9584 -0.7307
 1922TP3     H217586   2.443   2.318   7.319  0.5091 -1.9922 -0.6858
 1923TP3      O17587   0.732   3.230   2.497  0.0543 -0.2027 -0.2888
 1923TP3     H117588   0.650   3.231   2.545  0.0780 -0.5611 -0.2432
 1923TP3     H217589   0.799   3.221   2.565  0.0653 -1.1626 -0.4169
 1924TP3      O17590   2.326   4.233   8.119 -0.1320 -0.1589  0.4092
 1924TP3     H117591   2.413   4.201   8.142 -0.4427 -0.2088  1.5791
 1924TP3     H217592   2.307   4.193   8.034  0.0923 -1.9316  1.1506
 1925TP3      O17593   4.309   0.759   8.863 -0.6676 -0.2439 -0.2336
 1925TP3     H117594   4.376   0.791   8.804  1.2694 -1.0434  1.4169
 1925TP3     H217595   4.246   0.715   8.806  1.2508 -1.2264 -1.7005
 1926TP3      O17596   1.691   0.718   8.605 -0.2415 -0.3405  0.0994
 1926TP3     H117597   1.764   0.741   8.547 -1.3686  0.3763 -1.0820
 1926TP3     H217598   1.655   0.638   8.568 -1.3547  0.4540 -0.6116
 1927TP3      O17599   4.934   2.181   7.512 -0.1252  0.5038 -0.6228
 1927TP3     H117600   4.916   2.222   7.596 -1.4685 -1.2184 -0.0188
 1927TP3     H217601   4.875   2.225   7.450 -0.3681  0.6074 -0.3183
 1928TP3      O17602   1.928   1.305   8.989 -0.6492  0.3967 -0.5645
 1928TP3     H117603   1.978   1.225   8.975 -1.0067  0.1589 -0.5046
 1928TP3     H217604   1.993   1.369   9.018 -0.5392 -0.1921  0.5490
 1929TP3      O17605   2.640   4.181   6.594  0.2065 -0.7781 -0.6188
 1929TP3     H117606   2.566   4.240   6.608 -2.1316 -3.8759  1.4191
 1929TP3     H217607   2.691   4.222   6.523 -1.8974  2.8733 -0.2600
 1930TP3      O17608   1.731   0.748   1.657 -0.4663 -0.0752  0.1419
 1930TP3     H117609   1.640   0.756   1.687 -0.4041 -0.1181  0.3434
 1930TP3     H217610   1.782   0.795   1.723 -0.3690  0.1974 -0.1260
 1931TP3      O17611   2.877   4.689   7.604  0.6875  0.4948  0.0440
 1931TP3     H117612   2.961   4.681   7.648  1.3967 -0.0449 -1.3218
 1931TP3     H217613   2.872   4.611   7.548 -1.0857  0.1150  0.6542
 1932TP3      O17614   3.011   2.005   7.044  0.3232 -0.1150  0.2081
 1932TP3     H117615   2.992   2.098   7.059 -0.3640 -0.1747 -0.2351
 1932TP3     H217616   3.104   2.003   7.024  0.3307  0.4965  0.1472
 1933TP3      O17617   0.167   2.947   9.657  0.1888 -0.3692  0.3415
 1933TP3     H117618   0.242   3.003   9.679 -0.5628 -0.0786  2.4273
 1933TP3     H217619   0.151   2.897   9.737 -1.3466 -1.0009 -0.3311
 1934TP3      O17620   2.917   2.717   0.305  0.0477  0.4057  0.0978
 1934TP3     H117621   2.854   2.782   0.336 -0.1262  0.8990 -1.2557
 1934TP3     H217622   2.866   2.637   0.293 -0.2223  0.6599 -0.4823
 1935TP3      O17623   1.298   1.363   0.339  0.0715 -0.0463  0.2904
 1935TP3     H117624   1.384   1.330   0.313 -0.7260 -1.2250 -0.9943
 1935TP3     H217625   1.317   1.442   0.389  1.9285 -0.6991  0.7168
 1936TP3      O17626   1.190   2.244  10.075 -0.2369  0.3724 -0.3550
 1936TP3     H117627   1.211   2.294  10.154 -2.5395  0.6877  0.1288
 1936TP3     H217628   1.148   2.164  10.107 -0.4469  0.1165 -1.2360
 1937TP3      O17629   0.945   4.020   6.641  0.0542  0.0346  0.3058
 1937TP3     H117630   0.909   4.075   6.572 -1.8809 -0.3711  0.9142
 1937TP3     H217631   0.992   4.081   6.698  1.6941  0.3728 -1.2996
 1938TP3      O17632   4.472   5.279   1.211 -0.4790 -0.6179  0.5455
 1938TP3     H117633   4.489   5.347   1.146  0.1781 -0.9386  0.3722
 1938TP3     H217634   4.404   5.224   1.171 -0.1746 -0.7360  0.1823
 1939TP3      O17635   3.401   0.091   6.917 -0.7386  0.4027 -1.0011
 1939TP3     H117636   3.333   0.058   6.859 -1.2008  1.9549 -1.3854
 1939TP3     H217637   3.446   0.012   6.948 -2.0698 -0.5958 -1.4969
 1940TP3      O17638   5.072   1.734   0.737 -0.1918  0.5704 -0.3807
 1940TP3     H117639   5.096   1.821   0.705  0.8643  0.2596 -0.4647
 1940TP3     H217640   5.072   1.742   0.832  1.3512  0.3171 -0.3340
 1941TP3      O17641   1.515   3.108   7.513  0.6062  0.0904 -0.0989
 1941TP3     H117642   1.484   3.182   7.460  1.7214 -0.6776 -1.9522
 1941TP3     H217643   1.444   3.089   7.573 -0.4094  1.5472 -0.7874
 1942TP3      O17644   2.320   2.902   8.783  0.5156  0.5516 -0.6737
 1942TP3     H117645   2.389   2.966   8.768 -0.3974  1.4775 -1.0116
 1942TP3     H217646   2.289   2.878   8.696 -2.8176  3.7778 -0.6453
 1943TP3      O17647   0.445   0.759   9.122  0.3736  0.7053 -0.1895
 1943TP3     H117648   0.485   0.728   9.203 -0.6639 -0.5865 -0.1516
 1943TP3     H217649   0.509   0.738   9.054  0.8728  1.0209  0.1758
 1944TP3      O17650   0.323   2.547   7.410  0.4664 -0.0825 -0.0548
 1944TP3     H117651   0.281   2.545   7.323  0.4257  2.8148 -0.1894
 1944TP3     H217652   0.417   2.543   7.391  0.4654  0.7190 -0.2816
 1945TP3      O17653   4.997   1.167   9.020  0.2858 -0.4129  0.6135
 1945TP3     H117654   4.972   1.094   8.964  0.9870 -1.2419  1.3417
 1945TP3     H217655   5.036   1.231   8.961 -1.3212 -0.1374 -0.1866
 1946TP3      O17656   2.587   1.712   2.238 -0.3206 -0.4652 -0.3179
 1946TP3     H117657   2.508   1.735   2.189 -2.9732 -1.7737  2.9604
 1946TP3     H217658   2.590   1.617   2.235  0.7265 -0.4618  0.2313
 1947TP3      O17659   2.743   4.768   2.445 -0.3473 -0.0149 -0.1812
 1947TP3     H117660   2.652   4.739   2.441 -0.6938  0.8954  0.9549
 1947TP3     H217661   2.770   4.772   2.353 -1.9444  1.2491 -0.6333
 1948TP3      O17662   2.804   2.577   0.980 -0.5225  0.2263 -0.0512
 1948TP3     H117663   2.885   2.601   1.026 -0.0275 -0.9301 -0.2748
 1948TP3     H217664   2.739   2.570   1.049 -0.0247 -0.4792  0.3670
 1949TP3      O17665   1.114   1.388   1.724  0.3054  0.1142 -0.4725
 1949TP3     H117666   1.128   1.420   1.635  0.0787 -0.3185 -0.6671
 1949TP3     H217667   1.188   1.424   1.774  1.1419 -0.6720 -1.1010
 1950TP3      O17668   1.221   1.524   7.265 -0.1891  0.0317  0.0754
 1950TP3     H117669   1.211   1.618   7.278  0.3842  0.4015 -1.9133
 1950TP3     H217670   1.239   1.513   7.172  0.6090 -1.9802  0.3915
 1951TP3      O17671   1.350   2.134   0.255  0.0876 -0.7659 -0.1512
 1951TP3     H117672   1.275   2.085   0.287 -0.2733  0.4059  0.8793
 1951TP3     H217673   1.322   2.225   0.258  0.9753 -0.4366 -1.3576
 1952TP3      O17674   3.235   4.405   2.775  0.0954  0.3227  0.2516
 1952TP3     H117675   3.218   4.313   2.753  1.1049 -0.0143  0.8430
 1952TP3     H217676   3.150   4.447   2.766 -0.3506 -0.6344 -0.1940
 1953TP3      O17677   3.766   2.487   0.165  0.0574  0.4251  0.5510
 1953TP3     H117678   3.804   2.415   0.115 -1.7054 -0.2564  0.1467
 1953TP3     H217679   3.688   2.451   0.205 -2.9064  2.8718 -2.4512
 1954TP3      O17680   4.427   4.370   7.346  0.4164  0.6943 -0.1269
 1954TP3     H117681   4.399   4.403   7.261 -1.1614 -0.4338 -0.0789
 1954TP3     H217682   4.488   4.437   7.378  0.4945  1.4873 -1.8080
 1955TP3      O17683   1.728   5.045   7.071  1.0891  0.7070 -0.1114
 1955TP3     H117684   1.639   5.067   7.046  1.6579  1.5769 -1.4955
 1955TP3     H217685   1.752   4.973   7.014  1.2922  0.5075  0.2217
 1956TP3      O17686   4.845   4.614   1.338  0.4496  0.2078  0.1494
 1956TP3     H117687   4.776   4.583   1.397 -0.1549 -0.4254 -0.8394
 1956TP3     H217688   4.926   4.597   1.385  0.0611 -1.5618  0.2777
 1957TP3      O17689   1.905   3.385   0.503  0.0395 -0.1436  0.0157
 1957TP3     H117690   1.916   3.466   0.552  0.3371  0.0291 -0.3289
 1957TP3     H217691   1.834   3.339   0.547  0.7627 -0.3119  1.0257
 1958TP3      O17692   2.889   4.097   7.904  0.4515  0.4381 -0.2930
 1958TP3     H117693   2.907   4.083   7.997  2.8149  0.3598 -0.6979
 1958TP3     H217694   2.813   4.156   7.903 -2.1543 -2.5508  1.5914
 1959TP3      O17695   0.795   1.475   0.903  0.0340 -0.1255 -0.3361
 1959TP3     H117696   0.726   1.411   0.919  0.8705 -0.9372  0.0994
 1959TP3     H217697   0.802   1.479   0.807  0.3164 -1.0660 -0.3602
 1960TP3      O17698   2.819   3.775   7.585 -0.3365 -0.1359 -0.5953
 1960TP3     H117699   2.873   3.719   7.529 -0.4137 -0.3289 -0.4792
 1960TP3     H217700   2.730   3.764   7.550 -0.3557 -0.1068 -0.5555
 1961TP3      O17701   1.869   2.614   1.288 -0.3071 -0.3072  0.3124
 1961TP3     H117702   1.910   2.670   1.222  0.3068  1.2237  1.9053
 1961TP3     H217703   1.776   2.636   1.283 -0.5617 -1.6094 -1.2966
 1962TP3      O17704   2.579   4.920   2.613 -0.1773  0.3744 -0.4168
 1962TP3     H117705   2.561   4.950   2.524  0.0369 -0.4713 -0.7579
 1962TP3     H217706   2.653   4.860   2.603 -1.2802 -1.1287  0.0692
 1963TP3      O17707   4.826   2.930   9.597 -0.5888  0.6516  0.1931
 1963TP3     H117708   4.778   2.949   9.678  0.2626 -1.0449  1.1726
 1963TP3     H217709   4.868   2.846   9.615  0.5444  0.7932 -1.6214
 1964TP3      O17710   2.142   2.088   2.173 -0.3605  0.3645  0.1671
 1964TP3     H117711   2.169   2.057   2.086  0.3311  0.8749  0.1963
 1964TP3     H217712   2.217   2.138   2.205 -0.6439  0.2470  1.0304
 1965TP3      O17713   1.727   0.386   9.918 -0.0278 -0.0302 -0.3254
 1965TP3     H117714   1.762   0.471   9.892 -2.3472  0.9358 -0.5012
 1965TP3     H217715   1.741   0.330   9.842 -0.2292  0.7491 -0.9508
 1966TP3      O17716   3.978   2.108   1.106  0.0922 -0.1557  0.6652
 1966TP3     H117717   3.976   2.151   1.191  0.5279  2.1291 -0.4057
 1966TP3     H217718   3.889   2.118   1.071  0.6655  1.8063 -0.4157
 1967TP3      O17719   2.485   4.947   2.358  0.5277 -0.0096 -0.5451
 1967TP3     H117720   2.518   4.952   2.269  1.7696 -2.3232 -0.2955
 1967TP3     H217721   2.401   4.901   2.350  0.0442  0.8740 -0.6255
 1968TP3      O17722   5.152   2.247   2.287 -0.0472  0.1391  0.2144
 1968TP3     H117723   5.194   2.311   2.229 -0.3741 -0.2425 -0.4617
 1968TP3     H217724   5.224   2.191   2.315  0.3288  1.1120  1.2422
 1969TP3      O17725   1.185   2.937   8.962 -0.2006 -0.0832 -0.3411
 1969TP3     H117726   1.222   2.967   9.045 -0.8848 -1.5019  0.5237
 1969TP3     H217727   1.258   2.891   8.919 -0.0356  0.0538 -0.2093
 1970TP3      O17728   0.291   4.274   8.182 -0.0357  0.3523  0.6486
 1970TP3     H117729   0.372   4.280   8.132 -0.0292  0.3171  0.6555
 1970TP3     H217730   0.318   4.289   8.273 -0.0677  0.5593  0.6248
 1971TP3      O17731   4.684   4.247   9.550 -0.0220 -0.0626 -0.5769
 1971TP3     H117732   4.716   4.167   9.507  0.7317 -0.6707  1.0443
 1971TP3     H217733   4.603   4.268   9.504 -1.1551 -2.7503  0.0388
 1972TP3      O17734   0.460   0.782   7.920 -0.0535 -0.2546  0.0882
 1972TP3     H117735   0.397   0.762   7.851  2.3058  2.4629 -3.2031
 1972TP3     H217736   0.438   0.872   7.946 -0.5398 -1.0336  2.6037
 1973TP3      O17737   5.216   2.206   8.681  0.3869 -0.3472 -0.0968
 1973TP3     H117738   5.300   2.172   8.712  0.7720 -3.0615 -3.4032
 1973TP3     H217739   5.157   2.131   8.686 -0.6218  0.2975 -1.6901
 1974TP3      O17740   4.706   3.406   1.819  0.0489  0.4231 -0.0777
 1974TP3     H117741   4.625   3.454   1.800  0.0834  0.2518 -0.6948
 1974TP3     H217742   4.775   3.472   1.812 -0.1808  0.9651  2.2236
 1975TP3      O17743   3.383   0.104   7.687 -0.2994  0.0526  0.1265
 1975TP3     H117744   3.316   0.166   7.713 -1.2887 -0.7337 -0.4771
 1975TP3     H217745   3.460   0.158   7.667 -0.8501  0.9906  0.4986
 1976TP3      O17746   3.852   0.909   0.047  0.1057  0.0218 -0.5912
 1976TP3     H117747   3.801   0.878   0.122  1.3471  1.6436  1.0137
 1976TP3     H217748   3.832   0.847  -0.023 -1.6164 -1.1787  0.8774
 1977TP3      O17749   1.646   1.709   1.189 -0.0527  0.2634 -0.1318
 1977TP3     H117750   1.687   1.770   1.128  0.1538 -2.3953 -2.8926
 1977TP3     H217751   1.717   1.681   1.246  0.1531  1.4381  0.2215
 1978TP3      O17752   4.549   2.493   9.406 -0.0659 -0.3968 -0.1037
 1978TP3     H117753   4.570   2.559   9.472  0.8277 -2.1087  1.4329
 1978TP3     H217754   4.632   2.477   9.361 -0.4297 -0.0109 -0.9367
 1979TP3      O17755   0.147   3.113   2.085  0.7864 -0.4095  0.6235
 1979TP3     H117756   0.151   3.129   1.991 -2.3545 -2.2781  0.0298
 1979TP3     H217757   0.155   3.200   2.124  0.3262  0.6503 -1.4716
 1980TP3      O17758   2.808   2.845   0.803 -0.2954 -0.6437  0.0143
 1980TP3     H117759   2.790   2.757   0.770  0.7991 -0.5539 -0.8562
 1980TP3     H217760   2.746   2.901   0.756  1.1506 -0.5356 -1.8734
 1981TP3      O17761   3.075   2.174   7.815 -0.1141 -0.2468  0.5111
 1981TP3     H117762   3.131   2.112   7.861 -1.7222 -2.1345  0.0656
 1981TP3     H217763   2.995   2.177   7.868  0.3952  2.6277  1.3200
 1982TP3      O17764   3.533   3.809   2.227  0.6830  0.3865 -0.1241
 1982TP3     H117765   3.450   3.836   2.189  1.1582  0.2921 -1.2652
 1982TP3     H217766   3.566   3.742   2.167  2.3328  1.5618 -0.5906
 1983TP3      O17767   2.676   1.071   2.142 -0.1381 -0.2627 -0.1070
 1983TP3     H117768   2.677   0.981   2.108 -0.8250  0.2261 -1.4959
 1983TP3     H217769   2.757   1.110   2.110  0.7814 -0.7011  1.5297
 1984TP3      O17770   2.129   4.176   8.315 -0.3951  0.6469 -0.6759
 1984TP3     H117771   2.198   4.192   8.250  0.3179 -1.1203 -0.4076
 1984TP3     H217772   2.124   4.081   8.321 -2.0531  0.7614  0.1988
 1985TP3      O17773   4.681   3.429  10.001 -0.0636 -0.0215 -0.3215
 1985TP3     H117774   4.673   3.514  10.044 -2.3483 -1.1125  1.6981
 1985TP3     H217775   4.636   3.441   9.917 -3.5661  0.0323  1.3701
 1986TP3      O17776   3.246   4.562   7.851 -0.3317 -0.8307 -0.5501
 1986TP3     H117777   3.198   4.502   7.908  1.8801 -1.3057  0.9793
 1986TP3     H217778   3.202   4.556   7.767 -1.5504 -2.8875  0.1578
 1987TP3      O17779   4.859   1.125   8.699  0.4725 -0.3527 -0.2347
 1987TP3     H117780   4.788   1.164   8.649  1.0043  0.6410 -0.2311
 1987TP3     H217781   4.868   1.037   8.662  0.3655  0.0978 -1.3778
 1988TP3      O17782   1.632   4.335   1.405  0.4479 -0.2675 -0.2801
 1988TP3     H117783   1.619   4.318   1.312 -0.0106  1.1841 -0.5117
 1988TP3     H217784   1.709   4.392   1.409  0.7771 -0.7378  0.2821
 1989TP3      O17785   2.835   2.653   6.622  0.4357  0.5915 -0.0437
 1989TP3     H117786   2.874   2.568   6.642  1.2212  1.2674  1.5332
 1989TP3     H217787   2.904   2.701   6.576  0.4579  0.8049  0.2077
 1990TP3      O17788   3.276   4.820   1.541 -0.2289  0.9915  0.2789
 1990TP3     H117789   3.352   4.859   1.499  0.1725  0.5985  0.6270
 1990TP3     H217790   3.208   4.823   1.475 -0.1485  2.0822  0.2333
 1991TP3      O17791   3.776   0.404   0.395  0.3882  0.3938  0.3063
 1991TP3     H117792   3.758   0.486   0.349  0.3326 -0.1277 -0.6177
 1991TP3     H217793   3.869   0.389   0.381  0.4078  0.3184  0.5182
 1992TP3      O17794   1.088   4.208   6.753 -0.3296 -0.1022  0.0141
 1992TP3     H117795   1.033   4.283   6.731 -0.7472 -0.2250  0.5942
 1992TP3     H217796   1.125   4.230   6.839 -1.8134 -1.2525  1.0238
 1993TP3      O17797   5.281   0.454   0.940  0.3384  0.4060  0.2964
 1993TP3     H117798   5.248   0.411   1.019  0.3233  2.0847  1.2296
 1993TP3     H217799   5.370   0.480   0.961  0.9035 -0.4856 -0.8167
 1994TP3      O17800   4.783   0.084   7.768 -0.4396 -0.0340 -0.1373
 1994TP3     H117801   4.697   0.103   7.731 -0.1710 -1.5131 -1.6327
 1994TP3     H217802   4.765   0.042   7.852 -1.1079  1.2828  0.4072
 1995TP3      O17803   2.277   2.758   8.072  0.2619 -0.6675 -0.4984
 1995TP3     H117804   2.346   2.791   8.014 -0.2127 -0.6650 -1.0751
 1995TP3     H217805   2.319   2.690   8.124  1.9603  2.3180  2.4289
 1996TP3      O17806   1.075   3.454   1.641 -0.1719 -0.6428 -0.1996
 1996TP3     H117807   1.002   3.435   1.700 -0.4346  2.3260  0.5879
 1996TP3     H217808   1.036   3.505   1.569  1.1285  1.8739  0.7307
 1997TP3      O17809   4.410   0.135   7.957 -0.6993  0.2794 -0.1635
 1997TP3     H117810   4.342   0.153   8.022 -2.4064 -0.3742 -1.6791
 1997TP3     H217811   4.411   0.213   7.902 -1.2532 -0.2792 -0.9847
 1998TP3      O17812   1.053   3.453   9.187 -0.6066 -0.7119 -0.0347
 1998TP3     H117813   1.134   3.505   9.188 -0.6824 -0.5957  0.8416
 1998TP3     H217814   1.030   3.446   9.095 -1.0806  1.6187 -0.1680
 1999TP3      O17815   0.561   2.079   7.079  0.6094 -0.1517  0.8179
 1999TP3     H117816   0.475   2.113   7.054  0.6603 -0.4312  0.2322
 1999TP3     H217817   0.578   2.008   7.016  0.1588 -1.8022  2.4639
 2000TP3      O17818   0.259   5.189   8.141 -0.3449  0.0341  0.0137
 2000TP3     H117819   0.225   5.211   8.227  0.8006  2.0171  0.0001
 2000TP3     H217820   0.207   5.242   8.080 -0.5693 -0.7113 -0.4602
 2001TP3      O17821   1.272   3.383   1.853  0.0584  0.3973 -0.6842
 2001TP3     H117822   1.228   3.299   1.862  0.5357  0.3597  2.0977
 2001TP3     H217823   1.234   3.421   1.774 -2.3656 -1.1175 -0.3636
 2002TP3      O17824   2.167   0.654   1.934  0.0409  0.0390 -0.0136
 2002TP3     H117825   2.190   0.561   1.939  1.5920  0.4271  0.6148
 2002TP3     H217826   2.218   0.687   1.860 -0.0130  0.5223  0.1638
 2003TP3      O17827   1.985   5.089   7.145  0.1152  0.6874 -0.0122
 2003TP3     H117828   2.030   5.043   7.074  2.1637  1.0117  0.9689
 2003TP3     H217829   1.895   5.098   7.116  0.5015 -0.7019 -1.8026
 2004TP3      O17830   4.956   3.076   8.692 -0.1554 -0.0924  0.2607
 2004TP3     H117831   4.898   3.015   8.647  1.4385  0.1786 -2.3656
 2004TP3     H217832   5.034   3.025   8.712  0.4830  0.5933 -0.3870
 2005TP3      O17833   0.044   3.042   8.791 -0.4184 -0.0956  0.7382
 2005TP3     H117834   0.031   3.099   8.715 -0.5757 -1.8086 -0.5611
 2005TP3     H217835   0.001   2.960   8.768  3.3176 -2.2653  0.7279
 2006TP3      O17836   4.611   4.638   9.825 -0.4449 -0.1985 -0.2818
 2006TP3     H117837   4.686   4.677   9.869 -1.7232  0.0912  1.7434
 2006TP3     H217838   4.588   4.702   9.757 -1.7479  2.1180  2.1833
 2007TP3      O17839   4.816   4.949   0.779 -0.5555  0.3173 -0.6615
 2007TP3     H117840   4.838   5.015   0.712  0.0148  0.1036 -0.6922
 2007TP3     H217841   4.892   4.950   0.838 -1.5967  1.4248  0.7278
 2008TP3      O17842   3.347   4.564   8.245  0.5201  0.2378  0.3895
 2008TP3     H117843   3.307   4.620   8.179 -0.4246 -1.5915 -0.6627
 2008TP3     H217844   3.280   4.555   8.313  0.5318  0.1000  0.3832
 2009TP3      O17845   1.844   4.532   6.837 -0.1712  0.1253 -0.6322
 2009TP3     H117846   1.767   4.568   6.791 -0.6787 -0.5371 -0.3113
 2009TP3     H217847   1.916   4.543   6.774 -0.9707 -1.3478 -1.8820
 2010TP3      O17848   3.364   3.838   9.807  0.0467 -0.2847  0.0574
 2010TP3     H117849   3.406   3.886   9.878 -1.1313  0.5842  0.2061
 2010TP3     H217850   3.432   3.779   9.774  1.3638  1.0378  0.2861
 2011TP3      O17851   3.221   3.250   7.333 -0.6770 -0.0488  0.4968
 2011TP3     H117852   3.274   3.261   7.412  0.0280 -1.5982  0.2797
 2011TP3     H217853   3.239   3.328   7.281  1.2683 -0.4268  0.5351
 2012TP3      O17854   3.046   1.398   9.536  0.7685  0.5530 -0.0492
 2012TP3     H117855   3.084   1.400   9.624  1.5406  1.0117 -0.3830
 2012TP3     H217856   3.066   1.310   9.504 -2.9319 -1.1070  1.6618
 2013TP3      O17857   0.833   4.802   8.451 -0.2889  0.0253  0.1084
 2013TP3     H117858   0.869   4.875   8.501  0.0360  1.1461 -1.7004
 2013TP3     H217859   0.738   4.810   8.462 -0.1995 -0.6820  1.7625
 2014TP3      O17860   3.455   5.259   9.217  0.1710  0.0934 -0.0596
 2014TP3     H117861   3.431   5.239   9.307  0.2390  0.8690  0.1352
 2014TP3     H217862   3.491   5.347   9.220  0.5001 -0.0055 -0.7923
 2015TP3      O17863   4.236   3.148   8.640 -0.1852  0.9976  0.8270
 2015TP3     H117864   4.196   3.062   8.638 -1.7468  1.6981 -0.3950
 2015TP3     H217865   4.277   3.158   8.554  1.7754  0.7176  1.6748
 2016TP3      O17866   5.220   4.474   7.814  0.2731  0.4585 -0.2908
 2016TP3     H117867   5.168   4.554   7.808 -1.3829 -0.5129  0.3845
 2016TP3     H217868   5.306   4.504   7.845 -0.3718  1.9346  0.1676
 2017TP3      O17869   1.833   0.969   0.342  0.2996  0.1413  0.1606
 2017TP3     H117870   1.886   0.901   0.300 -0.7206  0.0604 -1.0754
 2017TP3     H217871   1.890   1.046   0.346  1.7701 -0.9681  2.3779
 2018TP3      O17872   0.789   2.796   2.927  0.1924 -0.1294  0.1139
 2018TP3     H117873   0.701   2.801   2.964 -0.6468  2.1163 -1.9251
 2018TP3     H217874   0.847   2.814   3.001 -1.2081  0.8051  1.0416
 2019TP3      O17875   1.439   2.551   0.704  0.8348 -0.1070  0.7470
 2019TP3     H117876   1.384   2.568   0.780 -0.9105  0.0512 -0.4714
 2019TP3     H217877   1.483   2.635   0.687 -1.5273  0.9875 -0.4704
 2020TP3      O17878   4.405   0.611   0.011  0.2097  0.1556  0.5983
 2020TP3     H117879   4.377   0.670  -0.059  1.2248 -0.2662 -0.1923
 2020TP3     H217880   4.476   0.659   0.055 -1.7603  1.3157  2.7271
 2021TP3      O17881   0.387   2.215   0.417  0.0709  0.4780 -0.0326
 2021TP3     H117882   0.390   2.146   0.350 -1.4408 -0.7170  1.0787
 2021TP3     H217883   0.297   2.247   0.414 -0.0058  0.4328  1.3860
 2022TP3      O17884   1.852   2.090   0.089  0.1438 -0.2260  0.2926
 2022TP3     H117885   1.808   2.038   0.157 -0.7257 -1.1497 -0.9172
 2022TP3     H217886   1.797   2.168   0.079 -2.3371 -2.0952 -2.3234
 2023TP3      O17887   4.192   5.274   2.688 -0.2730  0.0416 -0.2705
 2023TP3     H117888   4.144   5.209   2.636  0.1895  0.7897 -1.6600
 2023TP3     H217889   4.284   5.251   2.675 -0.1270  0.7099 -0.4186
 2024TP3      O17890   0.417   3.258   8.709  0.4064  0.0217 -0.4287
 2024TP3     H117891   0.479   3.187   8.722  0.4398 -0.0838 -1.1495
 2024TP3     H217892   0.372   3.266   8.794  1.2970  0.0109  0.0517
 2025TP3      O17893   0.795   2.618   9.291 -0.6624 -0.2229  0.0075
 2025TP3     H117894   0.699   2.615   9.291 -0.7409  0.7530  1.7222
 2025TP3     H217895   0.817   2.671   9.214 -1.4989 -0.4519 -0.3984
 2026TP3      O17896   2.122   1.992   8.275 -0.2954 -0.5259 -0.4967
 2026TP3     H117897   2.155   1.902   8.279  1.6427  0.1666  0.4425
 2026TP3     H217898   2.143   2.028   8.361 -2.0472  0.5217 -0.4644
 2027TP3      O17899   0.100   0.761   1.634 -0.3454 -0.0197  0.1324
 2027TP3     H117900   0.017   0.763   1.587 -0.6251 -0.6803  0.5774
 2027TP3     H217901   0.100   0.676   1.679  0.0581  0.4452  1.0483
 2028TP3      O17902   3.483   1.570   0.979  0.3991 -0.0124 -0.0021
 2028TP3     H117903   3.555   1.633   0.985  0.2294  0.2245 -0.3657
 2028TP3     H217904   3.464   1.546   1.069  1.2772 -0.4761  0.0724
 2029TP3      O17905   1.371   3.082   0.178  0.4219  0.0839 -0.1795
 2029TP3     H117906   1.390   3.013   0.241 -0.4221  0.9887  1.1294
 2029TP3     H217907   1.323   3.039   0.108  0.1419 -0.7040  0.4871
 2030TP3      O17908   2.631   0.178   2.660  0.7660  0.0266 -1.0455
 2030TP3     H117909   2.644   0.121   2.585 -0.6912  0.9363 -2.0369
 2030TP3     H217910   2.580   0.125   2.722 -0.8945  0.3082 -2.1111
 2031TP3      O17911   0.276   0.433   2.805 -0.6308 -0.8029 -0.0258
 2031TP3     H117912   0.304   0.343   2.820  0.5565 -1.1476 -3.4400
 2031TP3     H217913   0.296   0.479   2.886  3.7600 -2.4940  0.0904
 2032TP3      O17914   3.282   3.988   1.822 -0.0021  0.1785  0.6267
 2032TP3     H117915   3.325   3.905   1.844 -1.3124 -0.3741  1.2287
 2032TP3     H217916   3.195   3.962   1.790  0.6488  1.1329 -2.2845
 2033TP3      O17917   1.268   0.225   2.852  0.6917 -0.1715 -0.0500
 2033TP3     H117918   1.353   0.232   2.809  1.1034 -1.8805  0.4110
 2033TP3     H217919   1.278   0.274   2.933  0.8108  0.7054 -0.5786
 2034TP3      O17920   0.503   2.834   9.431 -0.0506 -0.1395  0.1306
 2034TP3     H117921   0.481   2.810   9.521  1.8033 -1.2036  0.3436
 2034TP3     H217922   0.533   2.752   9.391 -1.0500  0.2575 -1.5572
 2035TP3      O17923   4.496   2.271   3.021 -0.3151  0.2221  0.0596
 2035TP3     H117924   4.582   2.305   2.998 -0.0094  0.0542  0.9328
 2035TP3     H217925   4.510   2.178   3.036 -0.5133  0.3209  0.8748
 2036TP3      O17926   1.550   2.228   6.954 -0.0755  0.1714 -0.3159
 2036TP3     H117927   1.613   2.271   6.896  0.1761  3.3383  2.0692
 2036TP3     H217928   1.468   2.277   6.942 -1.3779 -2.0983 -1.2925
 2037TP3      O17929   1.189   1.770   3.593  0.1142 -0.9436 -0.2298
 2037TP3     H117930   1.103   1.811   3.592 -0.1289 -1.4456 -0.0447
 2037TP3     H217931   1.177   1.687   3.546  0.3100 -1.3793  0.4871
 2038TP3      O17932   0.810   5.280   9.551  0.2316 -0.4794  0.6713
 2038TP3     H117933   0.736   5.338   9.531 -0.2393 -0.6435  1.8743
 2038TP3     H217934   0.867   5.288   9.475 -1.1880 -0.6278 -0.4620
 2039TP3      O17935   0.080   2.994   6.871  0.7109  0.0270  0.5812
 2039TP3     H117936   0.101   2.997   6.777  1.8806  2.1563  0.8297
 2039TP3     H217937   0.003   2.937   6.877 -1.0410  1.8860 -2.0042
 2040TP3      O17938   0.087   3.814   2.832  0.0360  0.1256 -0.9289
 2040TP3     H117939   0.010   3.868   2.850  0.8212  1.1482 -0.5436
 2040TP3     H217940   0.060   3.757   2.760 -0.9904  0.6768 -0.9969
 2041TP3      O17941   1.130   5.056   7.815 -0.0817 -0.0093 -0.6875
 2041TP3     H117942   1.081   5.058   7.734 -0.8506 -0.6924 -0.2547
 2041TP3     H217943   1.071   5.015   7.878  0.9011 -0.5055 -0.0591
 2042TP3      O17944   0.850   1.993   7.310  0.1723 -0.0162 -0.0312
 2042TP3     H117945   0.774   2.050   7.312 -0.8307 -1.3194 -0.0677
 2042TP3     H217946   0.921   2.047   7.345 -1.2667  0.5216  2.2585
 2043TP3      O17947   0.996   1.882   2.040  0.2172  0.1079 -0.1355
 2043TP3     H117948   0.980   1.957   2.097  0.6487  2.0586 -2.4214
 2043TP3     H217949   0.953   1.905   1.958 -0.0014 -2.3881 -0.8064
 2044TP3      O17950   3.859   3.622   1.615  0.3261  0.0987  0.0363
 2044TP3     H117951   3.935   3.599   1.560 -0.9169 -2.0621 -0.9048
 2044TP3     H217952   3.825   3.702   1.576  0.5092 -0.4505 -1.3161
 2045TP3      O17953   1.584   0.554   1.929 -0.1029 -0.2413 -0.0342
 2045TP3     H117954   1.632   0.626   1.970  0.2596  0.3240 -1.4065
 2045TP3     H217955   1.507   0.542   1.985  0.3413  0.5416  0.7672
 2046TP3      O17956   4.496   1.608   9.913 -0.1066 -0.1972 -0.1178
 2046TP3     H117957   4.533   1.694   9.894 -0.6449 -0.0545 -0.5282
 2046TP3     H217958   4.541   1.580   9.993 -1.1309  1.2012  1.0138
 2047TP3      O17959   4.013   1.060   9.922  0.1727  0.4579  0.2959
 2047TP3     H117960   4.034   1.089  10.011 -1.8149  1.6015  0.4634
 2047TP3     H217961   3.959   1.130   9.887  0.6098 -0.1586 -1.7042
 2048TP3      O17962   1.928   0.134   9.363  0.2374 -0.2542  0.4719
 2048TP3     H117963   1.996   0.093   9.310 -0.2325 -0.9487  0.3929
 2048TP3     H217964   1.906   0.214   9.316  0.9587 -0.0404  0.4750
 2049TP3      O17965   1.280   4.528   2.373 -0.0119  0.1462  0.2726
 2049TP3     H117966   1.315   4.467   2.308  1.0922  1.2837 -0.2330
 2049TP3     H217967   1.288   4.482   2.457  2.2839  0.1563  0.1099
 2050TP3      O17968   0.244   1.468   8.928  0.5302 -0.5234  0.2673
 2050TP3     H117969   0.222   1.559   8.947  0.6681 -0.5728  0.6621
 2050TP3     H217970   0.173   1.417   8.968 -0.9498 -0.4988 -2.0757
 2051TP3      O17971   2.847   4.335   6.458 -0.7692 -0.1124 -0.5134
 2051TP3     H117972   2.893   4.283   6.524  0.1254  2.1116  0.6917
 2051TP3     H217973   2.850   4.424   6.491 -3.5297  0.5490 -1.8080
 2052TP3      O17974   3.919   3.477   0.877  0.0125  0.3069 -0.5110
 2052TP3     H117975   3.876   3.500   0.795  0.3697  0.7997 -0.5669
 2052TP3     H217976   4.013   3.482   0.857  0.1011  0.0761 -0.1700
 2053TP3      O17977   0.853   2.881   8.181 -0.0353 -0.0637 -0.3944
 2053TP3     H117978   0.829   2.820   8.112 -0.3705  0.0114 -0.3461
 2053TP3     H217979   0.769   2.906   8.221  0.2032 -0.7507  0.5804
 2054TP3      O17980   4.307   1.269   8.564 -0.0527  0.1616 -1.0860
 2054TP3     H117981   4.387   1.218   8.579 -0.1771 -0.2281 -1.7002
 2054TP3     H217982   4.263   1.270   8.649  0.1914 -0.3449 -0.9481
 2055TP3      O17983   5.182   5.267   1.094  0.6098 -0.1541 -0.0279
 2055TP3     H117984   5.106   5.279   1.152  0.9511 -1.4935  0.7652
 2055TP3     H217985   5.257   5.273   1.153  1.0314 -0.3392 -0.5425
 2056TP3      O17986   1.536   4.498   9.776 -0.1633 -0.1949 -0.6658
 2056TP3     H117987   1.550   4.451   9.694  2.0474  0.6372 -0.8107
 2056TP3     H217988   1.618   4.487   9.824 -0.1759  2.1597 -0.0196
 2057TP3      O17989   0.110   3.594   0.107 -0.7300  0.0135  0.0182
 2057TP3     H117990   0.024   3.572   0.143 -0.6784 -0.6169 -0.2416
 2057TP3     H217991   0.118   3.540   0.029 -0.0184 -0.0716  0.1439
 2058TP3      O17992   2.751   2.874   8.948  0.2083  0.3122  0.0486
 2058TP3     H117993   2.685   2.818   8.905  0.6648 -0.4344  0.3013
 2058TP3     H217994   2.833   2.851   8.906  0.5116  0.2762  0.6528
 2059TP3      O17995   1.333   0.324   8.117 -0.0197 -0.3171 -0.2190
 2059TP3     H117996   1.329   0.253   8.181 -2.9403 -2.2439 -2.2610
 2059TP3     H217997   1.392   0.292   8.048 -1.1170 -0.6739 -1.0122
 2060TP3      O17998   1.230   0.346   0.785  0.2462  0.3249 -0.6613
 2060TP3     H117999   1.298   0.408   0.761  1.6717 -0.9042  0.0487
 2060TP3     H218000   1.277   0.266   0.808 -1.3547 -0.2821  0.7628
 2061TP3      O18001   5.203   3.712   2.622  0.5022 -0.0577  0.0175
 2061TP3     H118002   5.132   3.776   2.616  2.3764  2.2350  0.7844
 2061TP3     H218003   5.182   3.661   2.700 -1.7868 -1.5189 -1.4073
 2062TP3      O18004   0.130   0.900   1.162 -0.1590  0.0910 -0.4596
 2062TP3     H118005   0.164   0.972   1.215 -1.6751  0.6653 -0.1956
 2062TP3     H218006   0.180   0.905   1.081 -0.4074  1.6553 -0.5583
 2063TP3      O18007   3.948   3.163   9.074  0.1722  0.5208  0.3556
 2063TP3     H118008   3.902   3.247   9.079 -1.0117 -0.0529 -0.2736
 2063TP3     H218009   4.027   3.181   9.024 -0.1924  1.2095  0.0169
 2064TP3      O18010   2.301   3.530   8.178  0.9483 -0.1309  0.4244
 2064TP3     H118011   2.333   3.543   8.267 -2.0908 -0.7531  1.7546
 2064TP3     H218012   2.207   3.511   8.189  0.5908 -0.9308 -2.8678
 2065TP3      O18013   0.977   0.999   7.857 -0.7145  0.1267  0.1143
 2065TP3     H118014   0.890   0.959   7.848 -1.3072  1.3722  0.0658
 2065TP3     H218015   0.962   1.092   7.843  1.0538  0.1119 -2.5757
 2066TP3      O18016   3.487   1.247   7.961 -0.1878 -0.1346 -0.5483
 2066TP3     H118017   3.569   1.238   7.913 -0.5238  0.6357 -1.3034
 2066TP3     H218018   3.473   1.342   7.966 -1.1245 -0.2633 -0.6043
 2067TP3      O18019   1.808   4.543   1.322  0.7942  0.5861 -0.1528
 2067TP3     H118020   1.756   4.614   1.361  0.6016  0.3277  0.0607
 2067TP3     H218021   1.891   4.546   1.370  0.7582  0.6172 -0.0914
 2068TP3      O18022   4.153   3.486   0.736  0.5950  0.3106 -0.2142
 2068TP3     H118023   4.209   3.537   0.795 -1.0105 -0.1753  1.8801
 2068TP3     H218024   4.198   3.402   0.727  0.0198 -0.2974  1.9367
 2069TP3      O18025   0.206   4.309   7.177 -0.0632  0.2044  0.0054
 2069TP3     H118026   0.186   4.215   7.178 -1.8985  0.5616  1.3460
 2069TP3     H218027   0.294   4.314   7.139  0.9535 -2.2360  1.7955
 2070TP3      O18028   4.613   3.957   0.807 -0.3834 -0.3526 -0.4340
 2070TP3     H118029   4.536   3.929   0.856 -1.3623  1.4510 -0.8334
 2070TP3     H218030   4.669   3.998   0.871  0.5789 -2.1747 -0.0352
 2071TP3      O18031   1.650   2.914   7.354  0.3073 -0.3433 -0.3788
 2071TP3     H118032   1.640   2.978   7.424 -2.2379 -2.1747  1.1304
 2071TP3     H218033   1.637   2.964   7.273  1.1696  1.4515  0.5374
 2072TP3      O18034   2.852   0.895   7.229 -0.0694  0.1576 -0.2697
 2072TP3     H118035   2.847   0.987   7.204  0.1799  0.5682  1.1431
 2072TP3     H218036   2.877   0.850   7.148  0.2659  1.3803 -0.8690
 2073TP3      O18037   1.565   4.910   8.942  0.1170  0.3660  0.2280
 2073TP3     H118038   1.536   4.981   8.886 -0.5857  0.6806  0.9756
 2073TP3     H218039   1.615   4.852   8.884 -0.4296  0.7828 -0.6699
 2074TP3      O18040   1.002   4.437   6.955  0.4309  0.0919  0.4246
 2074TP3     H118041   1.071   4.371   6.967  1.7637  1.2974 -0.3319
 2074TP3     H218042   0.967   4.419   6.868 -0.2676 -0.5438  0.8239
 2075TP3      O18043   0.098   2.993   0.731 -0.0021 -0.2092  0.2145
 2075TP3     H118044   0.183   3.038   0.731  0.2065 -0.5090 -1.7308
 2075TP3     H218045   0.037   3.057   0.768  0.9901  0.1450  1.2832
 2076TP3      O18046   3.078   3.041   7.607 -0.0270  0.2948  0.7387
 2076TP3     H118047   3.106   3.002   7.524 -2.1854  0.5361 -0.1770
 2076TP3     H218048   3.045   2.967   7.658 -2.6974  0.5635 -0.3991
 2077TP3      O18049   5.083   3.451   8.573 -0.3325  0.0961  0.3142
 2077TP3     H118050   5.071   3.523   8.512 -0.9292  0.8227  1.2800
 2077TP3     H218051   5.110   3.492   8.655 -1.0689 -0.7359  0.9977
 2078TP3      O18052   4.610   0.016   2.218 -0.3607 -0.2134  0.2733
 2078TP3     H118053   4.586  -0.075   2.236  1.0673 -0.5506  0.5883
 2078TP3     H218054   4.527   0.057   2.193 -0.9857 -1.6717 -0.2221
 2079TP3      O18055   0.610   4.815   7.110 -0.2205 -0.0434 -0.4536
 2079TP3     H118056   0.578   4.834   7.022 -0.1999  0.0567 -0.4394
 2079TP3     H218057   0.631   4.901   7.147  1.4461 -0.1898 -0.9821
 2080TP3      O18058   3.363   4.969   7.111 -0.1310 -0.1167  0.3537
 2080TP3     H118059   3.437   4.943   7.056 -1.0265  0.4677 -1.2098
 2080TP3     H218060   3.296   4.903   7.094 -0.7378  0.5649 -0.0037
 2081TP3      O18061   4.686   1.200   8.496  0.3026 -0.4974  0.2771
 2081TP3     H118062   4.768   1.239   8.466 -0.1005  0.3155  0.2264
 2081TP3     H218063   4.648   1.162   8.417 -1.4898  2.9331 -0.7118
 2082TP3      O18064   1.344   4.647   7.971  0.2239 -0.1557  0.0713
 2082TP3     H118065   1.330   4.666   8.064  1.5015 -0.5148  0.3596
 2082TP3     H218066   1.426   4.692   7.950  1.6464 -2.5852 -0.0347
 2083TP3      O18067   1.443   1.217   0.551 -0.1260  0.3170  0.2495
 2083TP3     H118068   1.451   1.310   0.570 -1.6930  0.1755  1.8048
 2083TP3     H218069   1.369   1.187   0.603  1.1136 -2.0826  0.8044
 2084TP3      O18070   1.148   1.001   7.642 -0.2105  0.0137 -0.0666
 2084TP3     H118071   1.084   1.055   7.596 -0.2971  0.3650  0.4606
 2084TP3     H218072   1.139   1.026   7.734  1.3546  0.7564 -0.0945
 2085TP3      O18073   2.283   1.547   9.693 -0.4890  0.0304  0.3757
 2085TP3     H118074   2.374   1.520   9.690 -0.0539  1.2808  1.6828
 2085TP3     H218075   2.276   1.617   9.629 -0.5839 -0.1750  0.1581
 2086TP3      O18076   1.540   0.710   0.968  0.0786  0.2226 -0.0853
 2086TP3     H118077   1.518   0.675   1.054 -1.2466 -0.2896 -0.5976
 2086TP3     H218078   1.455   0.734   0.930  0.7263  1.4765 -0.8155
 2087TP3      O18079   0.395   0.562   9.563  0.7061 -0.1762  0.3370
 2087TP3     H118080   0.360   0.480   9.529 -0.6780  1.0379 -1.3554
 2087TP3     H218081   0.465   0.586   9.501  0.3600  0.4586  0.1852
 2088TP3      O18082   1.638   2.417   1.032 -0.3564 -0.4335  0.5909
 2088TP3     H118083   1.546   2.419   1.059 -0.8943 -3.2911 -0.6837
 2088TP3     H218084   1.655   2.326   1.009  2.2284  0.3817 -1.2553
 2089TP3      O18085   2.067   4.759   1.624 -0.0229 -0.4238 -0.1026
 2089TP3     H118086   2.124   4.806   1.685  0.5769  0.3673 -1.2426
 2089TP3     H218087   2.127   4.704   1.573 -0.5641 -1.3862  0.2791
 2090TP3      O18088   4.359   4.698   0.654 -0.3339 -0.2428 -0.4077
 2090TP3     H118089   4.448   4.709   0.686  0.1049 -0.0876 -1.6428
 2090TP3     H218090   4.367   4.634   0.582 -1.0027  0.7379 -1.3843
 2091TP3      O18091   2.087   0.232   0.406  0.4828  0.5398 -0.1999
 2091TP3     H118092   2.099   0.195   0.318  0.8277  1.7016 -0.6584
 2091TP3     H218093   2.033   0.167   0.452 -1.2226  0.7121 -1.8182
 2092TP3      O18094   1.441   4.786   0.984  0.3032  0.0413  0.2545
 2092TP3     H118095   1.350   4.771   0.956  0.4878  0.4478 -0.5964
 2092TP3     H218096   1.433   4.847   1.057  0.0403  2.8770 -2.0047
 2093TP3      O18097   3.132   4.011   8.217  0.7220 -0.2405 -0.2451
 2093TP3     H118098   3.168   3.940   8.269 -0.9067 -0.1219  1.1397
 2093TP3     H218099   3.209   4.062   8.188  1.7578 -1.3179  0.5536
 2094TP3      O18100   4.805   1.524   8.117 -0.2207  0.1125 -0.0489
 2094TP3     H118101   4.882   1.572   8.087  1.2173 -0.6459  2.2134
 2094TP3     H218102   4.840   1.444   8.157 -2.0722  0.2314  2.0070
 2095TP3      O18103   4.794   2.738   7.506  0.0273  0.5160  0.1889
 2095TP3     H118104   4.833   2.701   7.427 -1.0827  0.2302 -0.2444
 2095TP3     H218105   4.740   2.667   7.541 -0.5388  1.0754  0.4657
 2096TP3      O18106   4.507   3.524   2.382  0.3519 -0.1784 -0.3742
 2096TP3     H118107   4.546   3.506   2.467  1.5965  2.3535 -0.3188
 2096TP3     H218108   4.490   3.619   2.382 -0.5554 -0.2574 -2.5595
 2097TP3      O18109   3.265   3.246   0.293  0.4856 -0.3081  0.1790
 2097TP3     H118110   3.212   3.316   0.331 -1.4618 -1.2782 -0.6202
 2097TP3     H218111   3.328   3.224   0.362  0.0820  1.0964  1.0476
 2098TP3      O18112   2.735   5.245   2.189 -0.7356  0.5453 -0.3964
 2098TP3     H118113   2.737   5.174   2.124 -0.7874  0.0045  0.1854
 2098TP3     H218114   2.774   5.319   2.143  0.4624 -0.1915 -0.6384
 2099TP3      O18115   1.252   2.104   1.216  0.1503 -0.3657 -0.0483
 2099TP3     H118116   1.287   2.032   1.269  1.7330 -0.0715 -0.6253
 2099TP3     H218117   1.224   2.062   1.135  1.6763 -0.2876 -0.6479
 2100TP3      O18118   3.802   2.941   0.547  0.0277 -0.1848  0.2957
 2100TP3     H118119   3.852   2.893   0.613 -0.2569 -0.0508  0.6064
 2100TP3     H218120   3.815   2.891   0.466 -0.4450 -0.9048  0.6628
 2101TP3      O18121   0.114   0.493   0.118  0.0003  0.1183  0.0595
 2101TP3     H118122   0.054   0.525   0.050 -0.8351  0.4707  0.9342
 2101TP3     H218123   0.122   0.399   0.101  1.0160  0.4488 -1.4315
 2102TP3      O18124   0.527   4.636   7.398  0.4044 -0.1239 -0.3008
 2102TP3     H118125   0.478   4.562   7.434  1.2477 -0.0780  1.0254
 2102TP3     H218126   0.488   4.652   7.312 -1.0332 -0.8972  0.1786
 2103TP3      O18127   5.100   2.921   7.493  0.1365 -0.2833 -0.6335
 2103TP3     H118128   5.108   2.981   7.567  0.1865 -0.3923 -0.5496
 2103TP3     H218129   5.027   2.864   7.517  0.5412 -0.7090 -0.3900
 2104TP3      O18130   2.859   1.298   9.168  0.2982  0.2500  0.3263
 2104TP3     H118131   2.799   1.367   9.196 -1.4253 -0.6569 -0.8790
 2104TP3     H218132   2.900   1.267   9.248 -0.9335  0.8636  1.2167
 2105TP3      O18133   2.089   3.515  10.060 -0.6368 -0.2704 -0.3300
 2105TP3     H118134   2.115   3.459  10.133 -1.6260 -1.0497 -0.5540
 2105TP3     H218135   2.172   3.546  10.023 -0.1067 -0.4417  0.6690
 2106TP3      O18136   5.124   0.920   7.480 -0.5573  0.0889 -0.2060
 2106TP3     H118137   5.029   0.912   7.478 -0.5019 -0.4470 -1.1096
 2106TP3     H218138   5.154   0.839   7.521 -0.4613 -0.0450 -0.5378
 2107TP3      O18139   1.963   1.271   0.331  0.5521  0.5044 -0.2489
 2107TP3     H118140   1.882   1.252   0.284  0.0098  1.3890  0.3053
 2107TP3     H218141   1.936   1.328   0.403  1.5310  0.0516  0.4972
 2108TP3      O18142   2.060   3.707   8.079  0.0992  0.0337  0.3536
 2108TP3     H118143   2.153   3.727   8.068  0.1715  0.2697  1.2796
 2108TP3     H218144   2.051   3.618   8.046  0.5557  0.1826 -0.1948
 2109TP3      O18145   2.209   4.310   7.521  0.0727 -0.3083  0.2248
 2109TP3     H118146   2.304   4.321   7.516 -0.1365  1.1346 -1.8119
 2109TP3     H218147   2.182   4.297   7.430 -1.7659  0.0696  0.6878
 2110TP3      O18148   4.011   4.435   0.921 -0.1508 -0.3409 -0.1432
 2110TP3     H118149   4.035   4.508   0.864  0.6297 -0.7552 -0.3607
 2110TP3     H218150   3.919   4.451   0.942 -0.0773  0.5411 -0.4272
 2111TP3      O18151   0.626   3.234   7.515 -0.1194  0.0618 -0.6975
 2111TP3     H118152   0.586   3.278   7.591  0.3995  0.0027 -0.3802
 2111TP3     H218153   0.626   3.300   7.446  0.4148  0.4894 -0.3003
 2112TP3      O18154   3.456   1.869   8.797  0.6885 -0.4218 -0.2793
 2112TP3     H118155   3.491   1.942   8.746  0.0341 -0.0771 -0.2558
 2112TP3     H218156   3.420   1.809   8.732  1.1178 -0.6683 -0.2925
 2113TP3      O18157   3.853   2.002   2.813  0.1183 -0.6091  0.5612
 2113TP3     H118158   3.890   1.931   2.865  1.2127 -0.4401  0.0406
 2113TP3     H218159   3.868   2.080   2.865  0.6229 -0.5235  0.2904
 2114TP3      O18160   1.722   0.124  10.070 -0.3899  0.1717 -0.2058
 2114TP3     H118161   1.656   0.076  10.120 -2.5780  3.6094  0.6204
 2114TP3     H218162   1.679   0.147   9.988  1.2797 -0.8675 -1.4242
 2115TP3      O18163   2.261   3.036   7.921 -0.5023  0.0439 -0.3750
 2115TP3     H118164   2.287   3.094   7.849 -0.4860  0.5756  0.0497
 2115TP3     H218165   2.168   3.018   7.906 -0.2635 -0.6622 -1.0787
 2116TP3      O18166   3.006   4.579   1.863  0.1643 -0.4370  0.1471
 2116TP3     H118167   2.991   4.487   1.886 -0.0234 -0.0314  1.8094
 2116TP3     H218168   3.069   4.610   1.928 -1.0236  1.0340  0.6627
 2117TP3      O18169   1.865   5.010   0.446 -0.0560  0.4333 -0.4611
 2117TP3     H118170   1.893   4.944   0.510  0.0763  1.6861  0.8231
 2117TP3     H218171   1.787   5.049   0.486  0.4370  1.7251 -0.7334
 2118TP3      O18172   1.864   3.516   2.912 -0.1140  0.1270  0.1797
 2118TP3     H118173   1.864   3.445   2.976 -0.9747  0.4236  0.5188
 2118TP3     H218174   1.895   3.474   2.831  0.9171 -0.2601  0.7539
 2119TP3      O18175   0.754   1.408  10.040 -0.0998 -0.0390 -0.1379
 2119TP3     H118176   0.824   1.344  10.051  0.2491  0.2420 -0.6865
 2119TP3     H218177   0.687   1.363   9.989 -1.2977 -1.0250  2.1415
 2120TP3      O18178   2.924   0.418   1.281 -0.5354 -0.5090 -0.1421
 2120TP3     H118179   2.841   0.382   1.310 -0.7362 -1.4297 -1.7612
 2120TP3     H218180   2.989   0.353   1.308 -0.5765 -0.7426 -0.5959
 2121TP3      O18181   3.848   2.519   9.100 -0.1855 -0.3399 -0.0678
 2121TP3     H118182   3.902   2.593   9.128  0.0491 -0.6415  0.2995
 2121TP3     H218183   3.907   2.444   9.103 -0.3171 -0.4838 -0.8137
 2122TP3      O18184   1.354   3.136   6.746 -0.0838  0.4278  0.0005
 2122TP3     H118185   1.425   3.201   6.742 -0.3400  0.6584 -1.5486
 2122TP3     H218186   1.275   3.187   6.728 -0.5269 -0.0059  0.6786
 2123TP3      O18187   4.928   0.972   0.293 -0.0784 -0.1213 -0.5811
 2123TP3     H118188   4.847   0.959   0.243 -0.6165 -1.5823  0.5863
 2123TP3     H218189   4.925   1.063   0.320 -1.3947 -0.1658 -0.4878
 2124TP3      O18190   3.901   1.536   1.407  0.1450 -0.5378  0.2686
 2124TP3     H118191   3.979   1.537   1.352 -0.7590  1.9918 -1.1160
 2124TP3     H218192   3.850   1.611   1.379 -1.3568 -0.2686  3.2467
 2125TP3      O18193   1.111   0.512   9.629  0.3537  0.3362 -0.4902
 2125TP3     H118194   1.169   0.577   9.590 -0.1925 -0.5345 -2.9598
 2125TP3     H218195   1.041   0.563   9.669  0.5511  1.2944 -1.3479
 2126TP3      O18196   1.089   4.302   8.885 -0.1329  0.0883 -0.1422
 2126TP3     H118197   1.088   4.302   8.789  1.2097  0.4669 -0.1725
 2126TP3     H218198   1.104   4.210   8.908  1.1804  0.2268 -0.3526
 2127TP3      O18199   3.211   4.051   9.712  0.0506 -1.1947 -0.6095
 2127TP3     H118200   3.282   3.995   9.743 -0.1268 -0.5605  1.0094
 2127TP3     H218201   3.133   3.997   9.717  0.1119 -1.2700 -0.4645
 2128TP3      O18202   1.839   1.882   1.061  0.0687  0.1263 -0.2217
 2128TP3     H118203   1.853   1.869   0.968 -2.4823  1.8027 -0.9624
 2128TP3     H218204   1.860   1.975   1.076  1.0398 -0.2701  1.0253
 2129TP3      O18205   2.708   4.184   2.790  0.2668 -0.2221 -0.6432
 2129TP3     H118206   2.679   4.191   2.880 -1.6491 -2.4395 -0.9849
 2129TP3     H218207   2.697   4.273   2.754 -1.2401  0.1693  0.6689
 2130TP3      O18208   4.911   0.291   1.731  0.2241 -0.0424  0.4326
 2130TP3     H118209   4.823   0.312   1.762  0.4951 -1.3757  2.3035
 2130TP3     H218210   4.901   0.209   1.682  0.3044  0.2926 -0.1576
 2131TP3      O18211   0.388   0.166   8.073 -0.1020 -0.0561 -0.0810
 2131TP3     H118212   0.360   0.257   8.061  0.0009 -0.1266 -0.8539
 2131TP3     H218213   0.308   0.115   8.063  0.1596 -0.2001 -1.5819
 2132TP3      O18214   1.209   1.251   9.177 -0.0309  0.1880 -0.1907
 2132TP3     H118215   1.245   1.164   9.191 -0.4580  0.0023 -0.2320
 2132TP3     H218216   1.282   1.311   9.194  0.0955 -0.1447  0.4545
 2133TP3      O18217   3.508   5.063   9.049  0.0435 -0.5861 -0.1565
 2133TP3     H118218   3.560   4.999   9.097  1.2117  2.0194  2.3772
 2133TP3     H218219   3.481   5.127   9.115  0.3390  2.4166 -2.6837
 2134TP3      O18220   0.511   1.365   7.933  0.0721 -0.6254 -0.2173
 2134TP3     H118221   0.438   1.377   7.994  0.6526 -0.7968  0.5360
 2134TP3     H218222   0.586   1.404   7.978  0.3683 -0.1152 -1.1456
 2135TP3      O18223   2.726   0.711   1.979 -0.0461 -0.0731  0.6385
 2135TP3     H118224   2.701   0.778   1.915  0.3644  0.1017  0.6562
 2135TP3     H218225   2.813   0.683   1.951  0.0230 -0.1855  0.9655
 2136TP3      O18226   3.524   0.838   7.533  0.4623  0.7306  0.4216
 2136TP3     H118227   3.572   0.764   7.570  1.5058  0.9144 -0.5287
 2136TP3     H218228   3.570   0.859   7.452 -0.8532  1.3266 -0.2012
 2137TP3      O18229   1.919   1.701   7.469 -0.2493  0.0538  0.1756
 2137TP3     H118230   1.911   1.737   7.558  2.4934 -0.1935  0.6030
 2137TP3     H218231   1.972   1.765   7.422 -0.0263 -0.7721 -0.7115
 2138TP3      O18232   4.334   1.320   0.068 -0.1583  0.1713 -0.1445
 2138TP3     H118233   4.308   1.298   0.157 -0.3394  2.0262  0.3128
 2138TP3     H218234   4.325   1.416   0.064  1.3949  0.2994 -1.6497
 2139TP3      O18235   3.166   3.827   0.373 -0.0055 -0.0885  0.3113
 2139TP3     H118236   3.252   3.789   0.352  0.6494  0.5963  1.6333
 2139TP3     H218237   3.150   3.800   0.463  0.0581  1.9541  0.9832
 2140TP3      O18238   1.045   2.574   0.280 -0.2460  0.2050  0.1460
 2140TP3     H118239   0.989   2.559   0.356 -0.2974  1.7584  0.4610
 2140TP3     H218240   1.107   2.641   0.310 -2.9312  4.2108 -2.2949
 2141TP3      O18241   3.409   0.340   8.526  0.1081  0.3404  0.0501
 2141TP3     H118242   3.318   0.359   8.501  0.1210  0.5350  0.1519
 2141TP3     H218243   3.440   0.420   8.566  1.2748  1.3259 -2.5818
 2142TP3      O18244   4.763   2.933   8.581 -0.7362 -0.2250 -0.1963
 2142TP3     H118245   4.733   2.857   8.631  0.1253 -0.4239  0.0415
 2142TP3     H218246   4.683   2.981   8.560 -1.2911 -1.1612 -0.2995
 2143TP3      O18247   0.196   0.418   9.280 -0.5786 -0.4009 -0.9160
 2143TP3     H118248   0.256   0.383   9.346 -0.1103  1.2476 -0.4207
 2143TP3     H218249   0.174   0.342   9.225  1.3160 -1.2270 -0.6236
 2144TP3      O18250   4.940   5.093   0.573  0.3870  0.0347 -0.1611
 2144TP3     H118251   5.028   5.128   0.585 -0.0511  1.4346 -0.8369
 2144TP3     H218252   4.918   5.116   0.483 -0.4812 -0.7721 -0.1690
 2145TP3      O18253   0.220   4.731   2.656  0.3977  0.0885 -0.3133
 2145TP3     H118254   0.283   4.660   2.667 -1.5381 -1.7089 -0.1854
 2145TP3     H218255   0.233   4.761   2.566  1.9158  0.3018 -0.0493
 2146TP3      O18256   1.086   0.606   2.712 -0.1518 -0.2892 -0.2845
 2146TP3     H118257   1.126   0.547   2.648 -0.0914 -0.0559 -0.4585
 2146TP3     H218258   1.145   0.601   2.788 -0.0802 -0.3568 -0.3443
 2147TP3      O18259   3.306   1.661   9.384 -0.2877  0.1863 -0.1300
 2147TP3     H118260   3.337   1.606   9.312 -0.4966  0.1117 -0.1627
 2147TP3     H218261   3.326   1.610   9.463 -1.9735 -0.6910 -0.2304
 2148TP3      O18262   2.452   5.119   8.427  0.1275 -0.7453 -0.3588
 2148TP3     H118263   2.363   5.132   8.393  0.5353 -0.3522 -1.3094
 2148TP3     H218264   2.507   5.176   8.373  1.0677 -1.5664 -0.2942
 2149TP3      O18265   2.985   4.437   1.146  0.1625  0.4544  0.3045
 2149TP3     H118266   2.915   4.385   1.106  0.4186 -0.8227  1.4185
 2149TP3     H218267   2.963   4.528   1.124 -1.7732  0.0852  0.5153
 2150TP3      O18268   4.351   0.242   1.485 -0.0974  0.3621  0.3688
 2150TP3     H118269   4.273   0.285   1.450 -0.0618  1.1681  1.2153
 2150TP3     H218270   4.389   0.195   1.411 -0.1695  1.7702 -0.6014
 2151TP3      O18271   5.206   4.714   7.592 -0.4424 -0.6246  0.0327
 2151TP3     H118272   5.264   4.789   7.579  0.2772 -0.8642  1.6063
 2151TP3     H218273   5.246   4.644   7.541 -1.1318  0.0292 -1.4650
 2152TP3      O18274   1.170   4.504   7.337 -0.7359  0.0978  0.2950
 2152TP3     H118275   1.079   4.479   7.327 -0.3726 -2.0727  1.7309
 2152TP3     H218276   1.208   4.491   7.250 -1.6123  0.3520 -0.1404
 2153TP3      O18277   1.327   3.580   0.686  0.3320  0.3701 -0.2171
 2153TP3     H118278   1.284   3.598   0.770  0.2841  1.0915 -0.3900
 2153TP3     H218279   1.344   3.486   0.688  0.9483  0.4900  0.8890
 2154TP3      O18280   3.682   0.232   0.212  0.2590  0.2621 -0.0619
 2154TP3     H118281   3.704   0.287   0.287 -0.0049  1.2446 -0.6946
 2154TP3     H218282   3.711   0.282   0.136 -1.5105  0.2930 -0.7478
 2155TP3      O18283   3.556   1.777   2.176 -0.5899 -0.4012 -0.2516
 2155TP3     H118284   3.637   1.742   2.139 -0.6600  0.2594 -1.0485
 2155TP3     H218285   3.487   1.741   2.120 -0.8425 -0.8198  0.3190
 2156TP3      O18286   0.705   4.588   0.872 -0.1346  0.9665  0.7314
 2156TP3     H118287   0.701   4.553   0.961 -0.6462 -0.8964  0.0162
 2156TP3     H218288   0.798   4.603   0.855  0.5224 -2.9864  0.0427
 2157TP3      O18289   2.779   3.269   9.089  0.0401 -0.3971  0.2083
 2157TP3     H118290   2.820   3.352   9.112  0.4111 -0.3660 -0.5459
 2157TP3     H218291   2.773   3.270   8.994  0.0205 -1.2237  0.1909
 2158TP3      O18292   1.280   2.549   7.775  0.1402 -0.2865 -0.2726
 2158TP3     H118293   1.186   2.565   7.782 -0.2169 -1.4845 -1.8821
 2158TP3     H218294   1.299   2.485   7.844  0.2239  1.4798  1.4319
 2159TP3      O18295   4.944   1.559   2.450 -0.4195 -0.2936  0.2221
 2159TP3     H118296   4.959   1.598   2.536 -0.9088 -0.1195  0.2317
 2159TP3     H218297   4.849   1.545   2.447 -0.5270  0.5266 -0.6441
 2160TP3      O18298   2.186   0.567   3.161  0.1895 -0.4527 -0.1450
 2160TP3     H118299   2.251   0.637   3.155  0.2665 -0.4812  0.2998
 2160TP3     H218300   2.234   0.493   3.201 -0.1263 -0.4503  0.2475
 2161TP3      O18301   2.152   1.086   9.170  0.5324  0.1265  0.2706
 2161TP3     H118302   2.085   1.024   9.141  0.6393  0.5584 -0.9657
 2161TP3     H218303   2.234   1.053   9.132  0.3871  1.7265 -1.6336
 2162TP3      O18304   4.095   1.000   9.446 -0.0931 -0.0697  0.0922
 2162TP3     H118305   4.187   0.979   9.431  0.3625  1.6573  0.2377
 2162TP3     H218306   4.063   1.032   9.362 -0.5720 -0.6415  0.0463
 2163TP3      O18307   1.570   2.782   2.156  0.0229  0.3129  0.3408
 2163TP3     H118308   1.563   2.835   2.077 -0.9694  0.7328  0.6909
 2163TP3     H218309   1.654   2.807   2.194 -0.0275  0.9854  0.0364
 2164TP3      O18310   5.172   4.870   7.886 -0.1513  0.2225 -0.2781
 2164TP3     H118311   5.093   4.925   7.877  0.5892  1.2207 -0.8700
 2164TP3     H218312   5.210   4.868   7.798  1.4892  1.3342  0.3577
 2165TP3      O18313   2.408   2.734   7.081  0.3110  0.2828 -0.1799
 2165TP3     H118314   2.344   2.717   7.012 -0.2856  1.0860  0.1654
 2165TP3     H218315   2.360   2.717   7.162  0.7578  0.1798  0.0652
 2166TP3      O18316   0.301   5.198   2.720 -0.1549  0.2223  0.2170
 2166TP3     H118317   0.250   5.154   2.651 -1.3433 -4.0756  3.3749
 2166TP3     H218318   0.237   5.248   2.769 -0.4581 -1.0928  1.2249
 2167TP3      O18319   5.149   0.620  10.082 -0.3375 -0.6019 -0.0287
 2167TP3     H118320   5.140   0.681  10.155  0.2811  0.5157 -0.8420
 2167TP3     H218321   5.112   0.667  10.007  2.6420 -0.0248 -1.2828
 2168TP3      O18322   3.355   0.612   9.894  0.3858  0.1284 -0.1907
 2168TP3     H118323   3.355   0.705   9.917 -0.4498  0.3499 -1.0088
 2168TP3     H218324   3.297   0.571   9.959  0.6863  0.1905  0.1179
 2169TP3      O18325   2.601   0.330   9.100 -0.2128  0.2030 -0.6621
 2169TP3     H118326   2.665   0.359   9.164 -0.7203  0.3122 -0.1958
 2169TP3     H218327   2.538   0.278   9.150  0.4006 -1.3192 -1.3840
 2170TP3      O18328   3.719   0.004   1.322  0.1204  0.8469  0.0100
 2170TP3     H118329   3.810   0.029   1.310  0.8034 -0.4902  1.9467
 2170TP3     H218330   3.674   0.042   1.247  2.1360  2.1260 -0.6334
 2171TP3      O18331   1.896   2.185   9.839 -0.1206 -0.4346  0.7507
 2171TP3     H118332   1.937   2.144   9.763 -0.8259 -0.7690  0.5483
 2171TP3     H218333   1.932   2.137   9.914  0.6940 -0.0018  0.6489
 2172TP3      O18334   4.676   0.925   2.310 -0.0066 -0.2970 -0.0128
 2172TP3     H118335   4.751   0.868   2.326  0.9912  1.4160  1.8443
 2172TP3     H218336   4.629   0.927   2.393 -0.2740  1.1940 -0.1712
 2173TP3      O18337   4.837   1.302   1.892 -0.0820  0.1542 -0.2664
 2173TP3     H118338   4.883   1.381   1.921  0.1150  0.4892 -1.4531
 2173TP3     H218339   4.903   1.252   1.845 -0.3616 -0.4472 -0.0280
 2174TP3      O18340   5.263   2.213   9.936 -0.8734  0.1079 -0.1000
 2174TP3     H118341   5.194   2.155   9.904 -1.1125  1.1756 -1.6512
 2174TP3     H218342   5.305   2.246   9.856  0.4527  0.6518  0.7842
 2175TP3      O18343   4.507   1.824   1.129 -0.1838 -0.1185  0.1407
 2175TP3     H118344   4.451   1.773   1.070 -0.1531 -0.0792  0.0770
 2175TP3     H218345   4.467   1.911   1.130  1.0221  0.4974 -1.5127
 2176TP3      O18346   3.505   3.628  10.066  0.7187 -0.3047  0.2366
 2176TP3     H118347   3.464   3.546  10.094 -0.9182 -0.3862 -2.1019
 2176TP3     H218348   3.583   3.600  10.018 -0.0209 -0.5526 -0.8523
 2177TP3      O18349   5.064   4.680   2.051  0.2386  0.4735  0.0601
 2177TP3     H118350   5.046   4.591   2.082  1.0112  0.5024  0.6461
 2177TP3     H218351   5.019   4.737   2.113  0.3955  0.5021  0.1488
 2178TP3      O18352   0.582   3.758   8.722  0.1589 -0.4794  0.5756
 2178TP3     H118353   0.677   3.749   8.709  0.2077 -0.6580  1.0308
 2178TP3     H218354   0.569   3.741   8.815 -0.4409 -1.5292  0.3204
 2179TP3      O18355   2.629   4.497   2.853 -0.0556 -0.0140  0.1555
 2179TP3     H118356   2.710   4.487   2.903  0.6487  1.0795 -0.7201
 2179TP3     H218357   2.571   4.547   2.910  0.2174 -0.0320  0.4481
 2180TP3      O18358   3.167   3.772   8.646 -0.2476 -0.5498 -0.4101
 2180TP3     H118359   3.137   3.829   8.717 -0.1263 -0.7442 -0.2014
 2180TP3     H218360   3.240   3.723   8.685 -0.7537 -1.3003 -0.3964
 2181TP3      O18361   3.263   2.614   2.015 -0.3627 -0.1762  0.2000
 2181TP3     H118362   3.343   2.641   1.971 -0.0428 -1.3323  0.0419
 2181TP3     H218363   3.270   2.518   2.023 -2.1874 -0.4384 -0.7504
 2182TP3      O18364   1.892   4.080   8.536 -0.2612  0.2387 -0.2388
 2182TP3     H118365   1.928   4.017   8.474 -0.6204 -0.0742 -0.1358
 2182TP3     H218366   1.934   4.163   8.513 -1.1924  0.3712 -1.6271
 2183TP3      O18367   2.680   2.747   9.545 -0.2377  0.4227  0.0152
 2183TP3     H118368   2.649   2.657   9.552  0.5533  0.2485  1.6517
 2183TP3     H218369   2.761   2.741   9.494 -0.3483  0.2502 -0.1389
 2184TP3      O18370   0.245   0.860   0.306 -0.3712  0.3940  0.4014
 2184TP3     H118371   0.190   0.840   0.382  0.6542  1.0369  1.3427
 2184TP3     H218372   0.327   0.890   0.344 -0.1318  1.5462 -0.9751
 2185TP3      O18373   4.972   2.028   2.042  0.6722  0.2314 -0.4108
 2185TP3     H118374   4.948   2.094   2.107  2.9468 -1.4680  2.3934
 2185TP3     H218375   5.023   2.076   1.977  2.1570  1.3691  1.4761
 2186TP3      O18376   2.871   1.444   8.170  0.0461 -0.5447  0.1980
 2186TP3     H118377   2.808   1.495   8.221  1.2185  0.3246  0.8112
 2186TP3     H218378   2.900   1.375   8.231  2.1706  1.0625  1.1433
 2187TP3      O18379   1.332   1.370   8.631 -0.1437  0.3343  0.7584
 2187TP3     H118380   1.412   1.375   8.578 -1.0208 -1.4331 -0.8609
 2187TP3     H218381   1.265   1.412   8.577 -0.9546 -1.0528  0.6357
 2188TP3      O18382   3.547   1.465   8.120  0.4075 -0.1851 -0.3856
 2188TP3     H118383   3.528   1.555   8.146 -0.9329 -0.5060 -0.1552
 2188TP3     H218384   3.642   1.459   8.119  0.5205  1.3434 -0.7938
 2189TP3      O18385   4.935   2.947   1.856  0.4297  0.1626  0.3641
 2189TP3     H118386   4.916   3.019   1.795  0.7966 -0.4237 -0.4683
 2189TP3     H218387   5.006   2.899   1.814 -0.9055 -1.6699  0.0645
 2190TP3      O18388   2.224   3.252   0.111  0.0223 -0.1246 -0.0019
 2190TP3     H118389   2.306   3.241   0.064  1.1620  1.2477  1.5031
 2190TP3     H218390   2.171   3.176   0.087  1.0664 -0.2093 -2.2933
 2191TP3      O18391   3.996   4.358   8.579  0.2539  0.7300 -0.9459
 2191TP3     H118392   4.080   4.323   8.609  1.6640  2.2056 -2.9510
 2191TP3     H218393   3.978   4.431   8.638 -0.4533 -0.5041  0.4390
 2192TP3      O18394   2.713   2.174  10.001 -0.1015 -0.0118  0.3636
 2192TP3     H118395   2.677   2.096   9.958  1.9262 -1.2751  0.7760
 2192TP3     H218396   2.657   2.188  10.077 -0.4976 -1.0960  0.2891
 2193TP3      O18397   4.880   3.768   0.837  0.4796 -0.0074 -0.0564
 2193TP3     H118398   4.822   3.706   0.883 -0.1700 -0.5309 -1.5024
 2193TP3     H218399   4.917   3.822   0.907 -1.1993 -0.1264  0.9921
 2194TP3      O18400   1.276   2.404   0.166  0.0452 -0.7797  0.2169
 2194TP3     H118401   1.337   2.469   0.131  0.4678 -1.3585 -0.1493
 2194TP3     H218402   1.206   2.455   0.206 -0.3866 -0.0685 -1.3395
 2195TP3      O18403   0.466   1.552   2.645 -0.4126  0.2124  0.3874
 2195TP3     H118404   0.536   1.538   2.582 -0.9083 -2.2862  0.2791
 2195TP3     H218405   0.511   1.571   2.727  0.3879 -0.5651  0.1429
 2196TP3      O18406   0.855   3.280   2.745  0.4177 -1.1516  0.0094
 2196TP3     H118407   0.771   3.310   2.781  0.7268  0.4876 -0.5323
 2196TP3     H218408   0.906   3.255   2.822  0.3691  0.4370  0.5929
 2197TP3      O18409   4.990   5.273   7.420 -0.0587 -0.7344 -0.3188
 2197TP3     H118410   5.060   5.211   7.440 -0.1676 -0.8076 -0.1643
 2197TP3     H218411   5.010   5.303   7.331  0.6173 -0.1538  0.0175
 2198TP3      O18412   2.599   0.324   8.174 -0.4610 -0.3551  0.0355
 2198TP3     H118413   2.694   0.337   8.180 -0.4453 -0.8407  0.9062
 2198TP3     H218414   2.582   0.315   8.080  0.4292 -0.8456 -0.0869
 2199TP3      O18415   1.112   1.671   8.254  0.1596  0.3648 -0.2310
 2199TP3     H118416   1.142   1.633   8.171  2.1371 -1.4561  1.2058
 2199TP3     H218417   1.020   1.690   8.239  0.7297  1.4005 -3.2724
 2200TP3      O18418   2.203   0.737   9.412 -0.1286 -0.3315  0.0267
 2200TP3     H118419   2.166   0.822   9.389  1.0582  0.4853  1.0115
 2200TP3     H218420   2.278   0.727   9.354 -1.0162 -1.3278 -0.9831
 2201TP3      O18421   4.853   0.852   2.914 -0.0020  0.5306 -0.3421
 2201TP3     H118422   4.826   0.861   3.005 -0.2318  1.9449 -0.5306
 2201TP3     H218423   4.840   0.759   2.894 -4.3503  0.8993 -0.2862
 2202TP3      O18424   5.110   1.617   8.954  0.1927  0.3991 -0.1255
 2202TP3     H118425   5.052   1.622   8.878  1.9962 -1.0983 -1.6990
 2202TP3     H218426   5.136   1.708   8.970 -0.1400  0.7363 -1.3908
 2203TP3      O18427   5.032   1.979   8.674  0.3089  0.2702  0.0528
 2203TP3     H118428   5.043   1.916   8.603  1.2008  1.1370 -0.6171
 2203TP3     H218429   4.974   2.046   8.637 -0.3728  0.0133  0.6421
 2204TP3      O18430   0.467   2.815   8.956  0.0313  0.4143  0.2698
 2204TP3     H118431   0.561   2.828   8.950 -0.4087  4.2342 -1.5255
 2204TP3     H218432   0.447   2.823   9.049  1.4052 -0.1624  0.6378
 2205TP3      O18433   1.778   2.439   2.381  0.8072 -0.7050 -0.1143
 2205TP3     H118434   1.707   2.375   2.379  0.9109 -0.8584  0.6794
 2205TP3     H218435   1.738   2.517   2.420  0.4589  0.0162 -1.8255
 2206TP3      O18436   4.678   2.345   0.375 -0.1123  0.2262 -0.4735
 2206TP3     H118437   4.717   2.258   0.387  2.1715  1.2952  0.4517
 2206TP3     H218438   4.622   2.336   0.297  2.7140 -1.2440 -2.5102
 2207TP3      O18439   2.564   5.008   8.912 -0.1107  0.6272 -0.2249
 2207TP3     H118440   2.551   5.063   8.989 -0.9561  0.0792  0.0363
 2207TP3     H218441   2.655   4.978   8.919  0.4295  2.1478 -0.4896
 2208TP3      O18442   5.276   2.907   3.020 -0.0402 -0.0047  0.2829
 2208TP3     H118443   5.283   2.822   3.063 -1.6099 -0.3197 -0.0293
 2208TP3     H218444   5.262   2.969   3.092 -1.9724 -0.4381  0.3267
 2209TP3      O18445   2.448   0.567   8.524 -0.6792 -0.0319 -0.0841
 2209TP3     H118446   2.419   0.524   8.443  0.5185 -0.0253 -0.5351
 2209TP3     H218447   2.445   0.498   8.590 -1.9369  0.0296 -0.0540
 2210TP3      O18448   3.870   3.995   1.964  0.0379  0.2267  0.5592
 2210TP3     H118449   3.802   4.037   2.017  1.0540 -0.4377  2.4897
 2210TP3     H218450   3.838   3.905   1.952 -0.8222  0.7191 -1.1906
 2211TP3      O18451   4.762   1.933   7.294  0.3994 -0.1672 -0.3020
 2211TP3     H118452   4.747   1.958   7.202 -0.8626  1.6670  0.3437
 2211TP3     H218453   4.826   1.862   7.289 -0.6810 -1.1055 -2.6784
 2212TP3      O18454   0.657   0.473   1.638 -0.9077  0.3905  0.2260
 2212TP3     H118455   0.733   0.422   1.665 -0.5310  1.6718  1.7496
 2212TP3     H218456   0.608   0.487   1.719 -2.5637 -0.0414 -0.6558
 2213TP3      O18457   2.438   1.237   6.878 -0.3142  0.0334 -0.2076
 2213TP3     H118458   2.452   1.325   6.915  0.1340 -0.9546  2.1503
 2213TP3     H218459   2.498   1.181   6.927 -1.4740 -1.8085 -0.8094
 2214TP3      O18460   2.404   4.308   0.592  0.1378 -0.8551  0.2736
 2214TP3     H118461   2.372   4.392   0.624  0.3956  0.1508 -1.9891
 2214TP3     H218462   2.495   4.304   0.621  0.2725 -0.1377 -0.0575
 2215TP3      O18463   5.251   2.137   9.194 -0.5256 -0.1806  0.7136
 2215TP3     H118464   5.224   2.200   9.128  0.0794 -0.2415  0.4065
 2215TP3     H218465   5.185   2.146   9.263 -2.1548 -1.2938 -0.6069
 2216TP3      O18466   2.046   3.346   7.659 -0.5710 -0.5067  0.1298
 2216TP3     H118467   1.991   3.417   7.625 -0.4809  0.5332  2.0144
 2216TP3     H218468   1.990   3.298   7.720  0.3171  0.0995  1.4927
 2217TP3      O18469   1.542   4.822   8.016  0.1041 -0.1250 -0.3038
 2217TP3     H118470   1.613   4.803   8.078  1.5098 -0.4039 -1.9140
 2217TP3     H218471   1.571   4.899   7.968 -1.4109  0.6829  0.0097
 2218TP3      O18472   2.784   5.006   0.837 -0.3474  0.5894 -0.3547
 2218TP3     H118473   2.822   4.951   0.768 -1.3671 -0.4810 -0.0901
 2218TP3     H218474   2.690   4.998   0.824 -0.6121 -0.7408  2.0133
 2219TP3      O18475   2.456   4.582   8.526  0.5241  0.4421 -0.5702
 2219TP3     H118476   2.446   4.674   8.499 -1.3693  0.4545 -0.0332
 2219TP3     H218477   2.528   4.583   8.589  1.0482  1.4231 -1.1681
 2220TP3      O18478   1.833   4.729   9.832  0.0229  0.1190  0.1668
 2220TP3     H118479   1.899   4.785   9.873  0.1788  1.0902 -1.3316
 2220TP3     H218480   1.868   4.640   9.840  1.2797  0.5675 -0.1876
 2221TP3      O18481   3.877   0.055   9.002  0.0130 -0.3300 -0.5901
 2221TP3     H118482   3.946   0.070   9.066 -0.0636 -1.3694 -0.2478
 2221TP3     H218483   3.914  -0.007   8.939 -0.5859 -0.8805 -0.4176
 2222TP3      O18484   0.502   2.936   1.908 -0.8940  0.1756  0.5166
 2222TP3     H118485   0.517   2.976   1.994  0.8229  0.4827  0.1093
 2222TP3     H218486   0.484   3.009   1.850  2.6264  0.5782 -0.3102
 2223TP3      O18487   0.788   3.699   1.706 -0.2147 -0.1445 -0.0435
 2223TP3     H118488   0.817   3.774   1.655 -1.1949 -0.1615 -0.6684
 2223TP3     H218489   0.795   3.727   1.797 -2.6698  1.6048 -0.2709
 2224TP3      O18490   4.664   1.545   2.459  0.2405 -0.3639  0.1432
 2224TP3     H118491   4.632   1.619   2.511 -1.5584 -1.1317  0.1787
 2224TP3     H218492   4.592   1.483   2.457  1.2884 -1.6224 -0.8944
 2225TP3      O18493   0.294   0.245   0.551  0.4595 -0.2957  0.2534
 2225TP3     H118494   0.293   0.165   0.498 -1.8623  0.3958 -0.8377
 2225TP3     H218495   0.267   0.216   0.638 -0.7927 -0.6575 -0.2375
 2226TP3      O18496   0.979   4.584   8.423  0.3370  0.1954 -0.3415
 2226TP3     H118497   0.907   4.521   8.425  0.4404  0.0344 -1.2346
 2226TP3     H218498   0.942   4.664   8.458  0.7542 -0.8646  2.8598
 2227TP3      O18499   2.087   0.821   0.453 -0.1012  0.7375 -0.0673
 2227TP3     H118500   2.033   0.746   0.476 -2.6234  1.6856 -2.3767
 2227TP3     H218501   2.064   0.888   0.519  0.0407  0.3961  0.3330
 2228TP3      O18502   2.060   2.597   7.168  0.2688  0.3721 -0.1097
 2228TP3     H118503   2.072   2.677   7.116 -0.3408 -0.0804 -0.9568
 2228TP3     H218504   1.985   2.553   7.129  1.4603 -1.3473 -0.5800
 2229TP3      O18505   3.925   4.091   0.001 -0.3074 -0.3558  0.4062
 2229TP3     H118506   3.831   4.102   0.019  0.0823  1.9461  1.3916
 2229TP3     H218507   3.968   4.149   0.064  1.6751  0.3944 -1.5185
 2230TP3      O18508   3.931   4.443   2.472  0.2513  0.8079 -0.2405
 2230TP3     H118509   3.974   4.428   2.557  1.3260  1.5581 -0.6367
 2230TP3     H218510   3.889   4.528   2.482  1.7215  1.6502 -0.9663
 2231TP3      O18511   3.253   4.804   0.930 -0.3158 -0.1635 -0.4185
 2231TP3     H118512   3.290   4.887   0.903  2.0667 -0.6920  0.9660
 2231TP3     H218513   3.313   4.738   0.895 -2.2994 -1.4022 -1.7404
 2232TP3      O18514   2.583   2.118   8.719 -0.3615  0.1078  0.0256
 2232TP3     H118515   2.563   2.134   8.627  2.7462  1.4932 -0.5331
 2232TP3     H218516   2.561   2.200   8.764  0.3905  0.2877  0.0732
 2233TP3      O18517   1.736   2.112   7.140  0.1599  0.2946  0.0554
 2233TP3     H118518   1.652   2.146   7.109  1.0305  2.8578  0.3462
 2233TP3     H218519   1.763   2.171   7.210  2.3702 -0.2709 -0.2337
 2234TP3      O18520   0.182   0.317   7.275  0.4743 -0.0855  0.2413
 2234TP3     H118521   0.176   0.283   7.365  0.6551  0.3113  0.4047
 2234TP3     H218522   0.112   0.272   7.228  0.2497 -0.1430  0.6302
 2235TP3      O18523   4.641   3.243   2.037 -0.2127  0.1772  0.1639
 2235TP3     H118524   4.661   3.298   2.113  1.8706 -1.4075  0.8675
 2235TP3     H218525   4.639   3.304   1.964 -1.0876  1.5852  1.2949
 2236TP3      O18526   3.416   1.717   0.568 -0.3309  0.1498 -0.2356
 2236TP3     H118527   3.457   1.634   0.591 -0.6266  0.2914  0.8574
 2236TP3     H218528   3.485   1.783   0.581 -0.4014  0.1944 -0.0904
 2237TP3      O18529   4.022   3.039   8.312  0.5120 -0.0624  0.6220
 2237TP3     H118530   4.041   2.952   8.349  2.9514  2.1397  5.4973
 2237TP3     H218531   4.108   3.074   8.289 -0.1449  1.7990  0.8421
 2238TP3      O18532   4.905   5.026   9.254 -0.6635  0.4276 -0.7832
 2238TP3     H118533   4.915   4.933   9.275 -1.1065  0.7058  0.7485
 2238TP3     H218534   4.920   5.030   9.160  2.0029 -0.8405 -0.5320
 2239TP3      O18535   1.689   0.112   0.356  0.3462  0.0072  0.2063
 2239TP3     H118536   1.609   0.135   0.404 -0.0981 -0.6138 -0.2236
 2239TP3     H218537   1.717   0.029   0.394  1.3846  0.7186  1.0620
 2240TP3      O18538   0.079   0.572   8.105 -0.2514 -0.0102  0.2950
 2240TP3     H118539   0.106   0.663   8.116  0.0755 -0.0350 -0.2486
 2240TP3     H218540  -0.014   0.577   8.082  0.6097  0.5248 -3.9825
 2241TP3      O18541   3.292   2.354   2.046  0.6632  0.4686  0.4444
 2241TP3     H118542   3.340   2.313   1.974 -0.8046  0.5019 -0.6098
 2241TP3     H218543   3.201   2.329   2.031  0.4037 -0.4192  2.9155
 2242TP3      O18544   3.370   2.523   0.219  0.6345  0.1409  0.0740
 2242TP3     H118545   3.325   2.528   0.135 -2.1932 -1.0359  1.4057
 2242TP3     H218546   3.306   2.553   0.283  2.2675 -0.1796  1.9477
 2243TP3      O18547   2.963   0.832   9.493 -0.0162 -0.0229 -0.2212
 2243TP3     H118548   2.954   0.809   9.400  0.8229  0.6037 -0.4720
 2243TP3     H218549   3.032   0.775   9.525 -1.6835 -1.6988  0.5696
 2244TP3      O18550   0.472   3.622   7.502 -0.1296 -0.4617  0.3282
 2244TP3     H118551   0.545   3.581   7.548  0.2346 -0.4340 -0.2113
 2244TP3     H218552   0.478   3.588   7.412  0.0200  0.5550 -0.0640
 2245TP3      O18553   0.928   0.055   9.792 -0.4131 -0.0221 -0.3527
 2245TP3     H118554   0.908   0.059   9.698 -0.4812 -2.0048 -0.4646
 2245TP3     H218555   0.992  -0.017   9.800 -2.2463 -1.5707  1.3744
 2246TP3      O18556   5.227   4.965   8.679  0.3868 -0.0343 -0.2878
 2246TP3     H118557   5.269   4.890   8.721 -0.0621 -0.7787 -1.1302
 2246TP3     H218558   5.298   5.011   8.635  0.6768  0.0798  0.2938
 2247TP3      O18559   1.881   3.281   0.089 -0.0459 -0.3378  0.0770
 2247TP3     H118560   1.932   3.344   0.140 -0.7328  0.0313  0.3199
 2247TP3     H218561   1.914   3.289  -0.000  0.3893 -0.1789  0.2485
 2248TP3      O18562   0.271   1.744   0.360 -0.2804  0.4914  0.8762
 2248TP3     H118563   0.248   1.651   0.365 -0.7610  0.5727  0.2855
 2248TP3     H218564   0.356   1.746   0.317 -0.4451  0.3430  0.5384
 2249TP3      O18565   5.194   0.631   7.837 -0.0806 -0.7372 -0.2841
 2249TP3     H118566   5.158   0.634   7.925  0.7719  1.2168  0.0455
 2249TP3     H218567   5.230   0.543   7.828 -1.7471 -1.5495  0.6409
 2250TP3      O18568   2.367   3.597   7.811  0.1680  0.1934  0.0129
 2250TP3     H118569   2.378   3.547   7.730 -0.5739  1.6663 -1.0474
 2250TP3     H218570   2.275   3.584   7.835 -0.0443  1.0572 -0.2977
 2251TP3      O18571   3.191   0.826   0.736  0.1650 -0.1184 -0.0728
 2251TP3     H118572   3.216   0.915   0.712  1.1063 -0.2520  0.3552
 2251TP3     H218573   3.183   0.828   0.831 -2.3770  0.1191 -0.2138
 2252TP3      O18574   4.924   4.133   9.850  0.3637  0.6260 -0.1679
 2252TP3     H118575   4.841   4.133   9.898  0.4627 -2.6262  0.2070
 2252TP3     H218576   4.927   4.219   9.808 -2.7308  1.2184  0.5814
 2253TP3      O18577   0.836   3.548   9.328  0.5000 -0.0108  0.0249
 2253TP3     H118578   0.923   3.524   9.298  0.9338  0.7494  0.6489
 2253TP3     H218579   0.851   3.591   9.412 -0.5551 -0.7668  0.6308
 2254TP3      O18580   4.852   2.553   7.311 -0.6522 -0.1075  0.7128
 2254TP3     H118581   4.789   2.485   7.333  1.4970 -2.9900 -1.3952
 2254TP3     H218582   4.839   2.569   7.218 -0.7049  2.0534  1.0287
 2255TP3      O18583   3.183   0.514  10.093  1.0980 -0.1468  0.0250
 2255TP3     H118584   3.162   0.421  10.085  1.6360 -0.2493 -0.3009
 2255TP3     H218585   3.160   0.537  10.183 -0.6961 -0.1564 -0.3955
 2256TP3      O18586   1.521   1.801   7.734 -0.5774  0.2760 -0.6264
 2256TP3     H118587   1.442   1.790   7.682  0.2887 -0.2631 -1.8606
 2256TP3     H218588   1.587   1.830   7.672  0.5571 -0.6831  0.0949
 2257TP3      O18589   4.751   0.266   9.857 -0.1476 -0.1951 -0.0518
 2257TP3     H118590   4.780   0.218   9.935 -0.8720 -0.2768  0.1765
 2257TP3     H218591   4.778   0.356   9.873  2.6581 -0.7423 -1.1914
 2258TP3      O18592   3.487   1.106   8.177 -0.1240  0.1101 -0.1452
 2258TP3     H118593   3.468   1.167   8.105 -0.7247 -0.3756 -0.4126
 2258TP3     H218594   3.401   1.081   8.210 -0.0305 -2.3472 -1.5385
 2259TP3      O18595   5.282   1.900   8.024  0.3496 -0.2868  0.0653
 2259TP3     H118596   5.232   1.979   8.006  1.7166  0.5114 -0.4344
 2259TP3     H218597   5.310   1.869   7.938  0.0999 -1.1399  0.2780
 2260TP3      O18598   2.287   2.384   1.346  0.3334  0.2002 -0.5144
 2260TP3     H118599   2.283   2.451   1.414 -0.0815 -0.6427  0.3091
 2260TP3     H218600   2.315   2.305   1.392 -0.3823 -0.4898 -1.2386
 2261TP3      O18601   1.561   3.840  10.045  0.2476  0.3811 -0.8928
 2261TP3     H118602   1.547   3.841  10.140  2.3007  2.2299 -0.5092
 2261TP3     H218603   1.593   3.752  10.026 -0.9910 -0.2784 -0.0271
 2262TP3      O18604   0.701   5.009   9.852 -0.5540 -0.0052 -0.1488
 2262TP3     H118605   0.607   5.007   9.837 -0.5958  0.6412 -0.0173
 2262TP3     H218606   0.725   4.919   9.873 -1.4216  0.1147  1.5130
 2263TP3      O18607   4.885   0.888   7.336 -0.4583 -0.0227 -0.0574
 2263TP3     H118608   4.930   0.823   7.281 -0.5492 -0.3341  0.2306
 2263TP3     H218609   4.840   0.945   7.273  0.6417  0.5282 -0.3610
 2264TP3      O18610   4.883   2.165   1.141 -0.5918  0.2014 -0.0263
 2264TP3     H118611   4.848   2.142   1.227 -4.0573  0.6997 -1.1513
 2264TP3     H218612   4.859   2.091   1.085 -0.4194  0.8878 -1.0299
 2265TP3      O18613   3.618   0.048   1.830 -0.3849  0.2916  0.3410
 2265TP3     H118614   3.684   0.040   1.761 -0.9961  1.4886 -0.4147
 2265TP3     H218615   3.644   0.126   1.879 -0.2085 -0.2969  1.2120
 2266TP3      O18616   2.383   2.028   7.333  0.1848 -0.0449 -0.4272
 2266TP3     H118617   2.467   2.036   7.288 -1.1006  0.8196 -2.8441
 2266TP3     H218618   2.349   2.117   7.337 -0.8653 -0.4461  0.0282
 2267TP3      O18619   2.619   4.980   7.767  0.5222 -0.1885 -0.4371
 2267TP3     H118620   2.575   4.910   7.718  1.3009  0.2988 -1.8841
 2267TP3     H218621   2.550   5.019   7.821  0.3303 -2.9239  1.5101
 2268TP3      O18622   2.939   0.450   9.746  0.2429 -0.0783 -0.2762
 2268TP3     H118623   2.974   0.409   9.667 -1.1490  0.1246 -1.0458
 2268TP3     H218624   2.991   0.529   9.757  2.2178 -1.4410  0.5806
 2269TP3      O18625   1.477   4.912   0.356 -0.4341 -0.2863 -0.4028
 2269TP3     H118626   1.479   4.840   0.418  0.8175  1.3321  1.5331
 2269TP3     H218627   1.516   4.876   0.276  0.0490 -1.7595  0.4634
 2270TP3      O18628   4.465   1.905   2.681 -0.0381 -0.0312  0.3960
 2270TP3     H118629   4.438   1.819   2.648  0.3709 -0.9864  2.3752
 2270TP3     H218630   4.385   1.943   2.716 -0.0326 -0.0398  0.4183
 2271TP3      O18631   0.411   1.630   8.724  0.1212 -0.1243  0.1694
 2271TP3     H118632   0.476   1.637   8.794  1.2619 -1.2352 -0.7278
 2271TP3     H218633   0.330   1.604   8.769  0.9059 -1.1435  1.0505
 2272TP3      O18634   1.142   5.135   8.961  0.5504 -0.4013  0.0394
 2272TP3     H118635   1.114   5.197   8.893 -0.5012  1.2040  1.8393
 2272TP3     H218636   1.229   5.166   8.986  2.0892 -2.5211 -2.2204
 2273TP3      O18637   4.581   1.468   9.680 -0.1742  0.5249  0.4555
 2273TP3     H118638   4.494   1.499   9.655 -0.2039  0.9622  1.0632
 2273TP3     H218639   4.597   1.510   9.765  0.1104 -0.5221  0.9391
 2274TP3      O18640   1.191   5.278   2.604 -0.3394  0.8276  0.1764
 2274TP3     H118641   1.272   5.321   2.631  0.6655  0.1500 -1.6068
 2274TP3     H218642   1.160   5.235   2.683  3.7213 -3.1025  0.0361
 2275TP3      O18643   3.795   0.656   0.301  0.1288 -0.6110 -0.3180
 2275TP3     H118644   3.861   0.687   0.363 -1.3053 -0.1088  1.0228
 2275TP3     H218645   3.741   0.732   0.283 -0.3309 -1.1052 -1.0737
 2276TP3      O18646   1.165   4.817   1.521 -0.0857  0.1120  0.3115
 2276TP3     H118647   1.176   4.880   1.450 -0.5741  2.8317  2.4868
 2276TP3     H218648   1.090   4.764   1.495  1.2571 -0.6719 -2.2768
 2277TP3      O18649   1.443   2.109   8.143  0.1791  0.2397 -0.0144
 2277TP3     H118650   1.407   2.020   8.137 -0.1232  0.2932  0.8959
 2277TP3     H218651   1.482   2.124   8.057 -0.7329 -0.3632 -0.5580
 2278TP3      O18652   3.197   3.695   9.575  0.1539  0.0653  0.3021
 2278TP3     H118653   3.280   3.744   9.577 -0.3417  0.9585 -0.2481
 2278TP3     H218654   3.211   3.623   9.636  1.5029 -0.0743 -0.1335
 2279TP3      O18655   3.342   2.270   2.709  0.8694 -0.1130 -0.5449
 2279TP3     H118656   3.429   2.244   2.739  0.8353 -0.9288 -1.1240
 2279TP3     H218657   3.328   2.220   2.629 -1.2856 -2.2829  1.0193
 2280TP3      O18658   0.236   2.748   8.864 -0.1731  0.4205  0.2507
 2280TP3     H118659   0.233   2.746   8.769  0.4955 -0.6776  0.2455
 2280TP3     H218660   0.323   2.781   8.885  0.2212 -0.7402  0.4771
 2281TP3      O18661   0.212   0.828   8.897 -0.0149  0.4358  0.4124
 2281TP3     H118662   0.155   0.806   8.971  0.0350  0.9339  0.6027
 2281TP3     H218663   0.259   0.906   8.925  0.7401  0.0557  0.2401
 2282TP3      O18664   0.119   1.068   9.896  0.2447 -0.1685  0.0992
 2282TP3     H118665   0.161   1.152   9.878 -1.1149  0.5737  0.2682
 2282TP3     H218666   0.170   1.031   9.968 -0.6875  1.7283  1.8216
 2283TP3      O18667   0.323   0.605   0.229 -0.1474  0.1445  0.5940
 2283TP3     H118668   0.310   0.699   0.217 -0.5722  0.3771  2.5130
 2283TP3     H218669   0.251   0.565   0.181 -1.0411  0.9074  1.2405
 2284TP3      O18670   2.742   3.773   1.718 -0.4732 -0.2754  0.4993
 2284TP3     H118671   2.685   3.801   1.789  0.9225  0.2174  1.4625
 2284TP3     H218672   2.785   3.854   1.688 -0.9925 -0.4785 -0.8925
 2285TP3      O18673   3.144   1.614   2.160  0.1485  0.4326  0.0425
 2285TP3     H118674   3.196   1.654   2.091  0.2276  1.0035  0.4224
 2285TP3     H218675   3.176   1.524   2.166  1.6243  0.9716  0.7694
 2286TP3      O18676   4.736   0.711   1.476  0.3221 -0.5047  0.0602
 2286TP3     H118677   4.790   0.632   1.474  0.0131 -0.7034 -0.6862
 2286TP3     H218678   4.771   0.762   1.549  0.4380 -1.3835  0.6292
 2287TP3      O18679   4.885   2.806   8.149  0.0325 -0.4571 -0.0027
 2287TP3     H118680   4.912   2.864   8.221  0.3686 -0.2245 -0.3121
 2287TP3     H218681   4.926   2.722   8.169 -1.0782 -0.8191  0.8516
 2288TP3      O18682   0.247   3.817   2.156 -0.0497  0.0877  0.0005
 2288TP3     H118683   0.331   3.857   2.181  0.1063 -0.1736 -0.1040
 2288TP3     H218684   0.208   3.790   2.238 -0.7096  1.5262  0.1983
 2289TP3      O18685   3.293   3.247   9.834  0.0731 -0.4056 -0.5443
 2289TP3     H118686   3.344   3.181   9.788  0.8041 -0.6551  0.5626
 2289TP3     H218687   3.205   3.212   9.838  0.5715 -1.6082  0.5147
 2290TP3      O18688   5.267   3.192   8.557  0.7348 -0.6056 -0.0844
 2290TP3     H118689   5.211   3.125   8.519  1.0820 -0.2536 -1.2793
 2290TP3     H218690   5.207   3.256   8.594  0.3405 -0.3158 -1.2008
 2291TP3      O18691   0.145   1.702   9.246 -0.7145  0.2639  0.1859
 2291TP3     H118692   0.237   1.708   9.269 -0.8501  0.5067  0.6703
 2291TP3     H218693   0.107   1.785   9.275 -1.2431 -0.1552  0.7172
 2292TP3      O18694   3.945   2.159   1.840  0.3923 -0.2479  0.2599
 2292TP3     H118695   3.938   2.109   1.922  2.2374 -1.0965 -0.0399
 2292TP3     H218696   4.032   2.137   1.806  0.3557  1.4382 -1.0636
 2293TP3      O18697   1.810   0.370   9.282  0.0510 -0.0215 -1.1002
 2293TP3     H118698   1.719   0.381   9.310 -0.3603 -1.4569 -1.7325
 2293TP3     H218699   1.832   0.453   9.240 -0.4559  0.8873  0.3611
 2294TP3      O18700   5.034   2.078   8.281  0.3438 -0.5604 -0.0103
 2294TP3     H118701   4.948   2.110   8.253 -0.3100  0.9117  3.2177
 2294TP3     H218702   5.019   1.987   8.307 -0.4765 -0.0983  1.2291
 2295TP3      O18703   1.817   2.488   8.206  0.1384  0.1813  0.1820
 2295TP3     H118704   1.875   2.460   8.277 -0.0531 -3.8588 -1.0008
 2295TP3     H218705   1.729   2.483   8.243  0.1163 -0.8086  0.0218
 2296TP3      O18706   0.317   5.201   2.044 -0.1551  0.0566 -0.0730
 2296TP3     H118707   0.344   5.120   2.001  0.3932  0.0745  0.2230
 2296TP3     H218708   0.229   5.184   2.075  0.2017 -0.6559  0.5677
 2297TP3      O18709   4.673   5.111   9.563  0.2066 -0.4187 -0.3282
 2297TP3     H118710   4.675   5.203   9.537 -1.4370 -0.0161  0.7676
 2297TP3     H218711   4.590   5.101   9.609  0.7087 -2.2710  0.2869
 2298TP3      O18712   2.523   5.282   3.101  0.0132  0.3825  0.4178
 2298TP3     H118713   2.504   5.337   3.177 -0.4884  1.6535 -0.5778
 2298TP3     H218714   2.443   5.286   3.048  0.4658 -0.2050 -0.3404
 2299TP3      O18715   2.226   5.282   3.734 -0.7700  0.1597  0.3378
 2299TP3     H118716   2.257   5.336   3.806 -1.6438  1.7264 -0.4127
 2299TP3     H218717   2.156   5.333   3.694  0.9786  0.3235 -2.8747
 2300TP3      O18718   3.855   3.902   8.070 -0.3520  0.0322 -0.6168
 2300TP3     H118719   3.832   3.981   8.117 -0.9669 -0.5516  0.0923
 2300TP3     H218720   3.930   3.927   8.015  0.6317  0.6544  0.9312
 2301TP3      O18721   2.799   3.134   8.852  0.3763 -0.7279 -0.1190
 2301TP3     H118722   2.750   3.061   8.891 -0.1473 -0.2178  0.1861
 2301TP3     H218723   2.890   3.115   8.874  0.5604 -2.5306 -2.0318
 2302TP3      O18724   0.812   1.257   0.341 -0.0316 -0.5191 -0.1543
 2302TP3     H118725   0.805   1.353   0.347 -1.5751 -0.6614  0.9092
 2302TP3     H218726   0.899   1.237   0.376 -0.2953  0.4023  1.1031
 2303TP3      O18727   1.949   2.374   7.782 -0.0390 -0.2033 -0.4652
 2303TP3     H118728   1.855   2.391   7.794  0.4079  1.4141  1.3127
 2303TP3     H218729   1.972   2.420   7.702 -0.3401  1.4051  0.3352
 2304TP3      O18730   3.099   3.315   1.983 -0.0002  0.7432 -0.6903
 2304TP3     H118731   3.114   3.409   1.972  0.1914  0.6213 -1.4880
 2304TP3     H218732   3.016   3.298   1.939  0.5044  0.3496 -1.5143
 2305TP3      O18733   5.117   0.940   2.327 -0.1149  0.8096 -0.5031
 2305TP3     H118734   5.118   0.968   2.235  0.8893  1.3826 -0.3359
 2305TP3     H218735   5.066   1.007   2.372  1.1530  1.7012 -0.3251
 2306TP3      O18736   1.004   2.723   2.742  0.2812 -0.0907 -0.3418
 2306TP3     H118737   1.072   2.790   2.734 -0.2859  0.2917 -2.2710
 2306TP3     H218738   0.940   2.761   2.802  1.0067  0.1807  0.2745
 2307TP3      O18739   2.766   0.448   8.934  0.1744 -0.1373 -0.1144
 2307TP3     H118740   2.771   0.386   8.861 -1.1068 -1.3962  0.8181
 2307TP3     H218741   2.707   0.406   8.997  0.0999  1.5775  1.0096
 2308TP3      O18742   1.329   4.562   6.941  0.0603  0.0932  0.3810
 2308TP3     H118743   1.282   4.521   6.868  0.1830 -0.9730  0.8876
 2308TP3     H218744   1.329   4.496   7.009  1.2893  0.5197  0.8121
 2309TP3      O18745   5.133   4.867   2.590 -0.6388 -0.2754  0.3746
 2309TP3     H118746   5.170   4.824   2.514  0.5338  0.5789  0.4370
 2309TP3     H218747   5.053   4.818   2.609 -1.1190 -0.3149 -1.5738
 2310TP3      O18748   3.484   0.815   9.665 -0.5156 -0.1375 -0.4866
 2310TP3     H118749   3.565   0.788   9.709 -0.5169 -1.5883 -1.3107
 2310TP3     H218750   3.486   0.911   9.668  0.7484 -0.1661  0.3511
 2311TP3      O18751   3.834   0.294   0.916  0.0871  0.3146  1.0737
 2311TP3     H118752   3.855   0.201   0.902  1.1258  0.7188 -0.2393
 2311TP3     H218753   3.790   0.321   0.835  1.4402  1.4056  0.6693
 2312TP3      O18754   2.567   4.131   2.451  0.5588 -0.5083 -0.0333
 2312TP3     H118755   2.576   4.120   2.357 -0.7619  1.5906 -0.4622
 2312TP3     H218756   2.619   4.209   2.471 -1.8376  1.0917  0.3486
 2313TP3      O18757   1.174   0.650   9.954 -0.4658 -0.0053 -0.1452
 2313TP3     H118758   1.169   0.740   9.923  0.0482 -0.0914 -0.5009
 2313TP3     H218759   1.166   0.657  10.049 -0.6011  0.4011 -0.1838
 2314TP3      O18760   1.478   1.110   0.843  0.5298  0.2035 -0.5032
 2314TP3     H118761   1.451   1.202   0.848 -0.4434 -0.0082 -1.4104
 2314TP3     H218762   1.498   1.086   0.934 -1.9525  0.5568  0.2347
 2315TP3      O18763   1.909   2.933   9.510 -0.1729 -0.0784  0.3346
 2315TP3     H118764   1.924   3.023   9.481  0.3389 -0.2196  0.1665
 2315TP3     H218765   1.986   2.911   9.561 -0.1419 -0.5484  0.0829
 2316TP3      O18766   2.068   4.163   0.809 -0.3593 -0.1407  0.2415
 2316TP3     H118767   2.126   4.174   0.734  2.2147  0.1952  2.1288
 2316TP3     H218768   2.079   4.244   0.860 -0.8915 -0.9312  1.6750
 2317TP3      O18769   0.928   3.551   7.816 -0.0137  0.2960 -0.1314
 2317TP3     H118770   1.013   3.588   7.792 -0.6610  0.2575 -2.7726
 2317TP3     H218771   0.887   3.618   7.871  1.6516  0.3447  1.1200
 2318TP3      O18772   4.604   0.467   1.087 -0.1302 -0.1460 -0.1634
 2318TP3     H118773   4.582   0.514   1.167  1.2399 -0.5994  0.5063
 2318TP3     H218774   4.665   0.525   1.042 -0.5686 -0.0807 -0.6910
 2319TP3      O18775   4.497   4.935   2.626  0.0909 -0.1348  0.0271
 2319TP3     H118776   4.573   4.951   2.683 -0.5408  0.7972  0.6360
 2319TP3     H218777   4.501   4.841   2.608  1.6551 -0.0228 -0.3499
 2320TP3      O18778   0.490   4.232   2.514 -0.6438 -0.0437 -1.1222
 2320TP3     H118779   0.408   4.280   2.501 -0.3595  0.2481 -1.8680
 2320TP3     H218780   0.503   4.233   2.609 -0.6620  1.3427 -1.1132
 2321TP3      O18781   2.723   4.022   0.680 -0.0212 -0.5740 -0.0196
 2321TP3     H118782   2.634   4.011   0.647  0.2839 -0.5425 -0.8979
 2321TP3     H218783   2.756   3.933   0.691 -0.6679 -0.6226  1.8064
 2322TP3      O18784   1.529   2.760   9.831 -1.0325  0.0269  0.2235
 2322TP3     H118785   1.595   2.784   9.765 -2.9610 -0.7877 -2.1514
 2322TP3     H218786   1.550   2.816   9.906  2.7330 -0.6666 -0.0860
 2323TP3      O18787   3.486   4.241   0.185 -0.5288  0.5796  0.0741
 2323TP3     H118788   3.432   4.167   0.213 -0.4184  0.4653 -0.0134
 2323TP3     H218789   3.455   4.260   0.096 -1.6132  1.6255  0.6508
 2324TP3      O18790   2.444   0.800   2.095 -0.0863  0.3625 -0.0721
 2324TP3     H118791   2.377   0.739   2.125  1.3380 -0.3393  1.9934
 2324TP3     H218792   2.508   0.744   2.050  0.4442  0.5475  0.4341
 2325TP3      O18793   0.291   2.671   9.737 -0.0394 -0.2543 -0.3846
 2325TP3     H118794   0.206   2.697   9.703 -0.9676 -2.7290 -0.1616
 2325TP3     H218795   0.316   2.595   9.685  0.3585 -1.7223  1.7954
 2326TP3      O18796   0.094   4.674   3.084 -0.2349  0.1104  0.0067
 2326TP3     H118797   0.027   4.668   3.015  0.1795  1.9250 -0.6020
 2326TP3     H218798   0.049   4.644   3.163 -0.8407 -1.6456 -0.9472
 2327TP3      O18799   1.740   3.080   9.878  0.3099  0.5759  0.5133
 2327TP3     H118800   1.714   2.988   9.878 -1.4736  0.8478 -3.4701
 2327TP3     H218801   1.835   3.078   9.886  0.4142 -1.7304 -0.4277
 2328TP3      O18802   4.764   3.835   0.039  0.1396 -0.4750  0.5195
 2328TP3     H118803   4.838   3.823  -0.020 -0.2672 -0.8991  0.0848
 2328TP3     H218804   4.800   3.881   0.114  1.2023 -2.0846  1.0456
 2329TP3      O18805   1.896   3.433   2.332 -0.6310  0.6044 -0.4874
 2329TP3     H118806   1.941   3.454   2.414 -1.5988  1.4007 -0.1349
 2329TP3     H218807   1.961   3.386   2.280 -0.3300 -0.9556  1.1941
 2330TP3      O18808   2.004   0.656   8.229  0.0880  0.2037  0.2671
 2330TP3     H118809   1.974   0.566   8.218 -0.6612  0.2686  1.4936
 2330TP3     H218810   1.974   0.701   8.150 -1.8536 -0.0618  0.7958
 2331TP3      O18811   2.354   0.820   8.562 -0.6412 -0.5003 -0.1248
 2331TP3     H118812   2.394   0.854   8.482  1.8158 -0.2940  1.1014
 2331TP3     H218813   2.385   0.730   8.568  0.2315 -0.1545  1.1568
 2332TP3      O18814   3.359   1.899   7.666  0.4072  0.1105  0.0926
 2332TP3     H118815   3.267   1.895   7.693 -0.1046 -1.0312 -1.6893
 2332TP3     H218816   3.370   1.825   7.607  2.9289 -0.8011  1.5301
 2333TP3      O18817   4.842   0.663   0.141 -0.0425  0.3353 -0.2080
 2333TP3     H118818   4.835   0.572   0.114  1.8312  0.3305 -0.7892
 2333TP3     H218819   4.874   0.659   0.231 -1.1077  0.4383  0.1991
 2334TP3      O18820   4.235   0.446   1.112  0.0709 -0.1406  0.4288
 2334TP3     H118821   4.201   0.461   1.200  1.3757  0.7929  0.8114
 2334TP3     H218822   4.160   0.415   1.062 -0.5991 -1.0954  1.9640
 2335TP3      O18823   2.553   1.651   8.631  0.2544  0.1403  0.6925
 2335TP3     H118824   2.502   1.589   8.683  0.2565 -0.7236 -0.3082
 2335TP3     H218825   2.640   1.612   8.626  0.8631  1.2628  1.7940
 2336TP3      O18826   0.948   3.670   0.433  0.0234  0.3742  0.4021
 2336TP3     H118827   0.997   3.596   0.395  2.0434  1.9640 -0.2535
 2336TP3     H218828   1.002   3.697   0.508  1.3300  3.3867 -1.4634
 2337TP3      O18829   2.646   3.849   1.191 -0.2992 -0.1136  0.2443
 2337TP3     H118830   2.598   3.928   1.215 -1.3863 -0.9166  0.7954
 2337TP3     H218831   2.696   3.827   1.270 -0.5501 -0.3594  0.3384
 2338TP3      O18832   4.109   3.201   9.749 -0.1155  0.1458 -0.4248
 2338TP3     H118833   4.128   3.125   9.803 -0.7524  0.2248 -0.0843
 2338TP3     H218834   4.189   3.216   9.699  0.2593 -0.3046  0.0402
 2339TP3      O18835   2.302   3.166   2.671 -0.4909  0.4424 -0.3608
 2339TP3     H118836   2.359   3.243   2.671 -1.3631  1.1815  1.7267
 2339TP3     H218837   2.303   3.136   2.762 -1.2521 -1.1831 -0.8584
 2340TP3      O18838   4.180   0.982   1.285 -0.6422 -0.0806  0.2337
 2340TP3     H118839   4.232   1.025   1.217  1.4354 -2.6288  0.0547
 2340TP3     H218840   4.219   0.895   1.293 -2.6238 -0.8472  2.7424
 2341TP3      O18841   5.289   2.608   0.301  0.0992 -0.0042 -0.1325
 2341TP3     H118842   5.252   2.637   0.384  0.8669  0.9495 -0.1006
 2341TP3     H218843   5.269   2.679   0.239 -2.0976 -1.5162 -1.2697
 2342TP3      O18844   1.119   1.107   2.275 -0.1073  0.0580  0.2511
 2342TP3     H118845   1.195   1.164   2.267 -0.7071  1.3126  2.6063
 2342TP3     H218846   1.044   1.163   2.252 -0.4568 -0.7286 -0.5779
 2343TP3      O18847   3.573   2.938   0.880 -0.7120  0.2748  0.9211
 2343TP3     H118848   3.625   2.860   0.862 -1.7586 -0.7016  2.0107
 2343TP3     H218849   3.624   2.986   0.945 -0.5063  0.0505  0.9271
 2344TP3      O18850   1.844   2.697   0.716 -0.2440  0.1091 -0.8086
 2344TP3     H118851   1.871   2.696   0.808  0.9857  0.7437 -1.1359
 2344TP3     H218852   1.880   2.616   0.680  1.0173  0.7967 -1.1669
 2345TP3      O18853   3.519   2.103   9.506 -0.3945  0.0433  0.0377
 2345TP3     H118854   3.457   2.033   9.486 -0.1203 -1.0241  2.5322
 2345TP3     H218855   3.555   2.129   9.421  0.6835 -3.9824 -0.9510
 2346TP3      O18856   1.936   1.772   7.957 -0.5445 -0.3253 -0.1081
 2346TP3     H118857   1.890   1.698   7.996  0.0715 -1.4224 -1.3495
 2346TP3     H218858   2.028   1.757   7.979 -0.5400  0.7800  0.6943
 2347TP3      O18859   5.192   3.561   2.850 -0.2312  0.5666  0.6184
 2347TP3     H118860   5.275   3.548   2.897 -0.3110  0.9095  0.8641
 2347TP3     H218861   5.140   3.484   2.872  0.8313 -0.7690 -1.3399
 2348TP3      O18862   4.787   0.867   1.690  0.6095  0.2814  0.6926
 2348TP3     H118863   4.739   0.949   1.688  1.8706  1.0389  0.4505
 2348TP3     H218864   4.739   0.812   1.752  0.4589  1.6448  1.8164
 2349TP3      O18865   2.908   4.200   0.980  0.2323 -0.0343  0.3268
 2349TP3     H118866   2.984   4.148   1.006  1.3688  0.8853 -1.0000
 2349TP3     H218867   2.891   4.174   0.889 -1.1475 -0.3259  0.6425
 2350TP3      O18868   2.210   3.471   9.682  0.0479  0.5490  0.7013
 2350TP3     H118869   2.298   3.454   9.649 -0.0199  0.4697  0.5651
 2350TP3     H218870   2.178   3.544   9.629 -0.9024 -0.9736 -0.8890
 2351TP3      O18871   0.538   0.522   1.081 -0.3246  0.6471 -0.1475
 2351TP3     H118872   0.594   0.448   1.104 -0.5097  1.2248  2.4097
 2351TP3     H218873   0.533   0.575   1.161 -2.2306  2.1179 -1.1427
 2352TP3      O18874   2.239   4.885   9.271  0.7750 -0.2023 -0.2832
 2352TP3     H118875   2.275   4.850   9.189 -0.4576 -1.2675 -0.4014
 2352TP3     H218876   2.277   4.972   9.278 -0.9888  0.9660 -3.3272
 2353TP3      O18877   5.025   1.904   7.670 -0.2588  0.5296 -0.6740
 2353TP3     H118878   4.993   1.976   7.616 -1.0856  0.6790 -0.0203
 2353TP3     H218879   5.014   1.935   7.760  2.6139  0.9459 -0.3698
 2354TP3      O18880   0.173   3.288   3.264 -0.3997  0.0527 -0.4618
 2354TP3     H118881   0.227   3.209   3.261 -1.9174 -1.0268 -0.4360
 2354TP3     H218882   0.223   3.353   3.214  1.4229 -0.5533  0.4867
 2355TP3      O18883   3.334   4.767   9.198  0.1463  0.8151 -0.4108
 2355TP3     H118884   3.403   4.803   9.254  0.1058  0.5764 -0.2051
 2355TP3     H218885   3.254   4.777   9.249 -0.2730  2.7368 -1.3620
 2356TP3      O18886   0.795   1.807   2.887 -0.1865  0.0732  0.5222
 2356TP3     H118887   0.767   1.892   2.921 -0.2213  0.0215  0.6225
 2356TP3     H218888   0.814   1.756   2.965  0.3078  0.1489  0.4502
 2357TP3      O18889   0.762   3.906   1.941 -0.1939  0.3721  0.1865
 2357TP3     H118890   0.792   3.996   1.952  1.8006 -0.2176  0.0134
 2357TP3     H218891   0.778   3.866   2.027  2.8969 -0.8284 -0.8157
 2358TP3      O18892   1.375   2.826   8.793  0.3848  0.2071 -0.5772
 2358TP3     H118893   1.445   2.855   8.851  0.1673 -2.6543  1.2904
 2358TP3     H218894   1.421   2.783   8.720  0.6066  2.5714 -1.9388
 2359TP3      O18895   2.718   3.454   0.824  0.2971 -0.1844  0.0927
 2359TP3     H118896   2.780   3.459   0.897  0.1996  0.5243  0.1295
 2359TP3     H218897   2.664   3.377   0.844  0.1562  0.1035  0.8608
 2360TP3      O18898   0.606   4.763   2.330 -0.4956  0.1211  0.1976
 2360TP3     H118899   0.601   4.721   2.244  0.4652 -0.4342  0.4011
 2360TP3     H218900   0.523   4.810   2.339  0.5772  2.8368 -2.3958
 2361TP3      O18901   0.651   4.570   8.202 -0.2588  0.2232 -0.8743
 2361TP3     H118902   0.724   4.631   8.206  0.7345 -0.9843  1.0072
 2361TP3     H218903   0.576   4.623   8.175  0.6539  2.1483  0.2021
 2362TP3      O18904   1.304   3.102   9.208  0.1854  0.2385  0.0413
 2362TP3     H118905   1.358   3.180   9.225  1.3072 -0.4753 -0.1580
 2362TP3     H218906   1.367   3.033   9.187 -0.8511 -0.4716 -0.8211
 2363TP3      O18907   0.096   2.374   3.223  0.0702  0.0356  0.0575
 2363TP3     H118908   0.071   2.378   3.131  1.0940 -1.7295 -0.3445
 2363TP3     H218909   0.146   2.454   3.237 -2.0559  1.4920 -0.2445
 2364TP3      O18910   2.656   1.665   8.999  0.0079  0.4089  0.6530
 2364TP3     H118911   2.615   1.738   8.954  1.6841  0.1098 -1.5011
 2364TP3     H218912   2.604   1.589   8.973  1.0330  0.2221 -0.9554
 2365TP3      O18913   4.276   2.051   7.822 -0.1416 -0.6971 -0.1105
 2365TP3     H118914   4.267   1.957   7.809  0.5673 -0.8044  0.1354
 2365TP3     H218915   4.186   2.083   7.828 -0.4323 -1.7621  2.7695
 2366TP3      O18916   0.960   3.802   1.481  0.2009  0.0774 -0.6864
 2366TP3     H118917   0.956   3.711   1.451 -0.7617 -0.1143 -0.0368
 2366TP3     H218918   0.934   3.854   1.405 -0.0412 -0.2451 -0.8271
 2367TP3      O18919   4.623   1.258   7.624 -0.6060  0.3120  0.0511
 2367TP3     H118920   4.583   1.236   7.708  1.0129 -0.9218  0.5591
 2367TP3     H218921   4.595   1.347   7.606 -1.4885  0.3740  1.5956
 2368TP3      O18922   3.552   4.026   9.550  0.0668 -0.2881  0.3813
 2368TP3     H118923   3.645   4.002   9.556  0.3176  0.2621 -0.9199
 2368TP3     H218924   3.541   4.094   9.616  0.3569 -0.9876  1.1703
 2369TP3      O18925   0.021   0.234   2.694 -0.1327  0.0917 -0.3685
 2369TP3     H118926   0.026   0.156   2.639 -1.6200  1.0390 -1.9360
 2369TP3     H218927   0.004   0.306   2.634 -0.8536  1.3343  1.2239
 2370TP3      O18928   4.854   0.485   2.002  0.3782 -0.1757  0.4176
 2370TP3     H118929   4.812   0.485   2.088  1.6396  1.9170  1.1129
 2370TP3     H218930   4.791   0.441   1.945 -0.9249 -0.7687  2.2061
 2371TP3      O18931   1.214   0.518   0.515  0.3219  0.2986  0.5487
 2371TP3     H118932   1.197   0.439   0.463 -1.9298  0.2884  1.1863
 2371TP3     H218933   1.305   0.509   0.542  0.4097 -1.6090 -0.1732
 2372TP3      O18934   0.035   4.068   0.417  0.2356  0.0030 -0.4610
 2372TP3     H118935   0.125   4.095   0.402  0.2533 -0.3377 -0.9839
 2372TP3     H218936  -0.012   4.095   0.338 -0.4288  1.4953  0.4091
 2373TP3      O18937   1.772   1.992   0.336  0.8328 -0.1816 -0.0981
 2373TP3     H118938   1.711   1.919   0.330  2.5522 -1.5754 -2.0948
 2373TP3     H218939   1.722   2.062   0.379 -1.3134 -2.0310  0.6074
 2374TP3      O18940   4.269   5.051   7.785  0.4405  0.3971  0.4038
 2374TP3     H118941   4.234   5.139   7.770 -0.0349 -0.0097 -1.0540
 2374TP3     H218942   4.354   5.051   7.739  0.2156 -0.0462 -0.0192
 2375TP3      O18943   1.359   3.397   8.022 -0.1307  0.4025 -0.1706
 2375TP3     H118944   1.418   3.387   8.096 -0.8841  3.3125  0.9375
 2375TP3     H218945   1.415   3.389   7.945  1.3440  1.1129  0.8078
 2376TP3      O18946   4.927   4.389   7.660 -0.4390 -0.4963 -0.8089
 2376TP3     H118947   4.919   4.475   7.619 -0.5349 -1.1250 -2.1645
 2376TP3     H218948   5.013   4.356   7.632 -0.7935 -1.2220 -1.0781
 2377TP3      O18949   0.208   1.906   7.476 -1.0086 -0.1639  0.4060
 2377TP3     H118950   0.128   1.859   7.450 -1.3831 -1.4316  3.4381
 2377TP3     H218951   0.267   1.837   7.507  0.0246  1.0155  1.1303
 2378TP3      O18952   5.108   1.880   3.614  0.1632 -0.2514  0.2284
 2378TP3     H118953   5.136   1.971   3.624  0.7122 -0.0314 -2.5104
 2378TP3     H218954   5.182   1.828   3.644  0.5388  0.2233  0.1245
 2379TP3      O18955   1.215   3.200   8.852  0.1787  0.6005  0.1742
 2379TP3     H118956   1.168   3.151   8.919 -0.4486  1.1101  0.1214
 2379TP3     H218957   1.156   3.273   8.830  0.6029  0.7389 -0.5478
 2380TP3      O18958   3.853   1.856   8.857  0.0565  0.2187  0.2937
 2380TP3     H118959   3.763   1.824   8.870  0.0038  0.4352  0.4682
 2380TP3     H218960   3.873   1.835   8.766 -1.4703  3.3614 -0.8892
 2381TP3      O18961   4.462   4.342   0.053 -0.3620 -1.1775  0.1868
 2381TP3     H118962   4.386   4.352   0.109 -0.7219  0.7930 -0.5802
 2381TP3     H218963   4.532   4.314   0.112 -1.1922 -1.0355  1.2588
 2382TP3      O18964   4.063   1.886   0.031  0.0207  0.2853  0.3540
 2382TP3     H118965   4.061   1.836   0.113 -1.1953 -0.1545  0.0811
 2382TP3     H218966   3.975   1.875  -0.006  0.5834  0.3580 -1.0800
 2383TP3      O18967   0.713   2.017   2.478  0.4296  0.3501 -0.6767
 2383TP3     H118968   0.710   2.102   2.433  0.8850  1.6812  1.5952
 2383TP3     H218969   0.804   2.010   2.509  0.4377 -1.0639 -0.9741
 2384TP3      O18970   3.751   0.206   9.210  0.0191 -0.5789 -0.5561
 2384TP3     H118971   3.776   0.149   9.137 -2.0678 -2.0830 -0.1561
 2384TP3     H218972   3.657   0.217   9.201  0.3052  3.0756 -0.7180
 2385TP3      O18973   1.513   3.418   1.142 -0.3315 -0.8668 -0.0223
 2385TP3     H118974   1.447   3.387   1.080 -0.5668 -0.3302 -0.0467
 2385TP3     H218975   1.596   3.388   1.106 -0.4560 -0.4572 -0.6524
 2386TP3      O18976   4.275   0.357   7.136  0.2850  0.4165  0.0591
 2386TP3     H118977   4.302   0.426   7.076  1.0282 -0.2367 -0.3865
 2386TP3     H218978   4.342   0.289   7.125 -0.1314 -0.1399  0.8827
 2387TP3      O18979   0.005   2.006   8.360 -0.6459  0.7723  0.2877
 2387TP3     H118980   0.073   2.072   8.346 -0.3506  0.1698 -1.3143
 2387TP3     H218981  -0.077   2.056   8.363 -0.4520  1.2000 -1.1701
 2388TP3      O18982   3.183   2.504   8.749  0.2306 -0.0452 -0.7422
 2388TP3     H118983   3.254   2.547   8.796  0.6863 -1.8935  0.3336
 2388TP3     H218984   3.216   2.494   8.659  1.3363 -0.8436 -0.2662
 2389TP3      O18985   1.752   4.807   6.935  0.1528  0.3776 -0.0442
 2389TP3     H118986   1.833   4.814   6.884  0.2463  2.2730  0.2797
 2389TP3     H218987   1.699   4.743   6.888  1.8999 -1.0884 -0.1469
 2390TP3      O18988   1.896   2.718   2.558  0.3646 -0.0264 -0.2300
 2390TP3     H118989   1.918   2.789   2.619 -0.5678  1.8333 -1.9419
 2390TP3     H218990   1.801   2.713   2.561  0.2584  0.3995 -1.7772
 2391TP3      O18991   0.774   1.425   7.936 -0.1906 -0.5312 -0.0301
 2391TP3     H118992   0.750   1.510   7.974 -1.9343 -1.4565  1.0801
 2391TP3     H218993   0.818   1.378   8.006 -0.8402 -1.2004 -0.0618
 2392TP3      O18994   4.542   4.039   1.229 -0.1440  0.1440  0.2397
 2392TP3     H118995   4.522   4.133   1.234  2.2959  0.7876 -0.4430
 2392TP3     H218996   4.521   4.015   1.139  1.8732  0.8173 -0.4775
 2393TP3      O18997   5.182   2.969   1.165  0.0184  0.0663  0.3021
 2393TP3     H118998   5.244   3.035   1.133 -1.6195  1.0342 -1.0716
 2393TP3     H218999   5.097   3.012   1.161 -1.1537 -2.1405 -0.7652
 2394TP3      O19000   2.497   5.202   3.460 -0.5236 -0.6334 -0.0051
 2394TP3     H119001   2.422   5.142   3.457 -0.7332 -0.3410 -0.9389
 2394TP3     H219002   2.467   5.280   3.413  0.1594 -0.2760  0.1461
 2395TP3      O19003   2.738   3.974   2.619 -0.2976 -0.4404 -0.0065
 2395TP3     H119004   2.696   4.001   2.537 -3.4313 -1.2215  1.2195
 2395TP3     H219005   2.741   4.054   2.672  2.4889  0.2682 -1.0214
 2396TP3      O19006   2.857   2.158   8.023 -0.0897 -0.0947  0.0874
 2396TP3     H119007   2.827   2.076   8.065 -2.9091  0.8926  0.2491
 2396TP3     H219008   2.879   2.215   8.096 -2.2290  0.6490  0.2255
 2397TP3      O19009   4.993   3.431   1.761 -0.4069 -0.3423 -0.0986
 2397TP3     H119010   4.972   3.484   1.684 -0.7302 -1.2156 -0.6176
 2397TP3     H219011   5.032   3.493   1.822 -2.4489  0.9077  0.0369
 2398TP3      O19012   2.835   0.430   7.307  0.0538 -0.2965 -0.0266
 2398TP3     H119013   2.771   0.447   7.237  1.8502  0.6378 -1.5282
 2398TP3     H219014   2.908   0.387   7.262  0.9004 -0.4464  1.4471
 2399TP3      O19015   3.268   4.722   9.673  0.0713  0.2973 -0.4005
 2399TP3     H119016   3.288   4.657   9.740 -0.1265 -0.5502 -1.1496
 2399TP3     H219017   3.206   4.781   9.716 -1.1351 -1.0273 -0.2563
 2400TP3      O19018   3.097   3.463   0.420 -0.0197  0.1149  0.4654
 2400TP3     H119019   3.102   3.518   0.498  1.5479  0.6324  0.0228
 2400TP3     H219020   3.077   3.524   0.348 -0.4606 -0.2179  0.2979
 2401TP3      O19021   3.182   1.096  10.098 -0.2498  0.3197 -0.0420
 2401TP3     H119022   3.221   1.180  10.074  0.1783 -0.4959 -2.4877
 2401TP3     H219023   3.096   1.120  10.134 -0.4812  1.7982 -1.4381
 2402TP3      O19024   0.688   1.804   8.828 -0.0734 -0.4100  0.1021
 2402TP3     H119025   0.757   1.742   8.850  0.2207 -0.3222 -0.5425
 2402TP3     H219026   0.658   1.838   8.912  0.4583 -0.6818  0.4034
 2403TP3      O19027   2.467   2.604   8.209  0.3324 -0.1981  0.0624
 2403TP3     H119028   2.434   2.515   8.204  0.1693 -0.1108 -0.4843
 2403TP3     H219029   2.561   2.595   8.193  0.1933 -0.1951 -0.8467
 2404TP3      O19030   2.710   2.571   9.801 -0.8894 -0.0278 -0.3101
 2404TP3     H119031   2.739   2.662   9.796  2.7093 -1.0271 -0.2806
 2404TP3     H219032   2.714   2.550   9.894  1.1413 -0.9310 -0.5479
 2405TP3      O19033   1.229   4.525   1.899 -0.6192  0.0532 -0.4213
 2405TP3     H119034   1.234   4.444   1.848 -1.9336 -0.8465  0.8019
 2405TP3     H219035   1.203   4.497   1.986  1.3051  1.5668  0.7393
 2406TP3      O19036   3.267   0.723   9.504  0.2348 -0.1936 -0.4372
 2406TP3     H119037   3.309   0.730   9.419  1.2885  1.4757  0.1695
 2406TP3     H219038   3.330   0.761   9.565 -1.5800  1.1915  0.6981
 2407TP3      O19039   0.334   0.954   7.302 -0.0664  0.0558  0.2762
 2407TP3     H119040   0.420   0.959   7.260 -0.6354  0.6793 -0.8564
 2407TP3     H219041   0.293   0.877   7.262 -0.1817 -0.0161  0.5322
 2408TP3      O19042   0.762   1.159   1.515  0.1237 -0.4033  0.1312
 2408TP3     H119043   0.799   1.203   1.591  1.3838 -0.2329 -0.5395
 2408TP3     H219044   0.715   1.084   1.551 -0.1866  0.2580  1.1339
 2409TP3      O19045   1.074   2.989   0.083 -0.7651  0.1454  0.2382
 2409TP3     H119046   1.020   3.017   0.157  0.1319 -0.4501  1.1323
 2409TP3     H219047   1.054   2.896   0.072  0.5203 -0.2408  0.9911
 2410TP3      O19048   3.872   1.358   0.407 -0.1773 -0.0664 -0.5604
 2410TP3     H119049   3.831   1.412   0.475  1.3354 -1.2814  1.4222
 2410TP3     H219050   3.893   1.420   0.337 -0.0944  1.5996  0.8655
 2411TP3      O19051   1.398   3.810   1.732 -0.0943  0.4119 -0.8943
 2411TP3     H119052   1.393   3.839   1.641 -3.3441 -2.3415 -1.7804
 2411TP3     H219053   1.372   3.887   1.783  1.7331  1.9815 -2.1692
 2412TP3      O19054   3.922   1.174   8.592 -0.1063  0.0536  0.2142
 2412TP3     H119055   3.955   1.084   8.597 -0.6835 -0.1322  0.7374
 2412TP3     H219056   3.984   1.226   8.643  0.8591  0.1477 -1.0127
 2413TP3      O19057   1.641   3.191   9.625  0.4010 -0.1217  0.2760
 2413TP3     H119058   1.651   3.283   9.648  0.8680 -0.1018  0.0074
 2413TP3     H219059   1.688   3.144   9.695 -0.2720 -0.1839  0.6916
 2414TP3      O19060   3.113   2.897   8.615  0.4829 -0.3954 -0.5270
 2414TP3     H119061   3.177   2.851   8.560 -1.3480 -2.2769 -1.2205
 2414TP3     H219062   3.042   2.920   8.554 -0.6599 -0.6679  0.6599
 2415TP3      O19063   2.220   1.831   0.648 -0.2326  0.7067 -0.8124
 2415TP3     H119064   2.178   1.886   0.583  0.2191  0.9629 -0.8931
 2415TP3     H219065   2.259   1.892   0.711 -0.4090  0.4666 -0.4632
 2416TP3      O19066   3.225   0.968   3.343 -0.1542 -0.0076 -0.1590
 2416TP3     H119067   3.286   1.018   3.397  0.6604 -1.0790 -0.0645
 2416TP3     H219068   3.203   1.028   3.271  1.3746  0.2546 -0.4513
 2417TP3      O19069   3.908   0.916   1.783 -0.3296 -0.1587  0.3464
 2417TP3     H119070   3.986   0.874   1.745 -0.2465 -0.1465  0.4995
 2417TP3     H219071   3.902   1.000   1.738 -0.3707 -0.2436  0.1920
 2418TP3      O19072   0.979   3.087   8.501  0.1461 -0.2166  0.0280
 2418TP3     H119073   0.991   3.077   8.407 -0.7702  1.3365 -0.2862
 2418TP3     H219074   1.044   3.029   8.540  1.5572  0.2553 -1.5403
 2419TP3      O19075   0.123   3.310   8.357 -0.2029  0.1346  0.0815
 2419TP3     H119076   0.039   3.289   8.396 -1.4202  0.5352 -2.1671
 2419TP3     H219077   0.165   3.369   8.420 -1.0506 -0.9978  1.7719
 2420TP3      O19078   0.403   5.082   7.584  0.2969  0.3114 -0.3297
 2420TP3     H119079   0.355   5.156   7.547 -0.5575  0.3440  0.7951
 2420TP3     H219080   0.436   5.034   7.508 -0.0710  1.2339 -1.0872
 2421TP3      O19081   4.866   0.353   0.569  0.0463  0.5407 -0.5522
 2421TP3     H119082   4.877   0.448   0.569 -2.2459  0.8719  0.4907
 2421TP3     H219083   4.920   0.323   0.643 -0.1483  1.1795 -0.1418
 2422TP3      O19084   0.557   1.950   9.056 -0.3810  0.1840 -0.3912
 2422TP3     H119085   0.645   1.946   9.095 -0.6875 -0.8363  0.2338
 2422TP3     H219086   0.517   2.026   9.098 -0.0387  0.2371 -0.1503
 2423TP3      O19087   2.108   2.816   9.652  0.5385 -0.0529 -0.0940
 2423TP3     H119088   2.131   2.872   9.726 -0.1898  0.5544 -0.3207
 2423TP3     H219089   2.126   2.727   9.683 -1.7898 -0.0099  1.6331
 2424TP3      O19090   2.820   2.077   9.275 -0.2686 -0.3490 -0.3695
 2424TP3     H119091   2.812   1.984   9.297  0.5705 -0.3833 -0.1780
 2424TP3     H219092   2.769   2.086   9.194 -1.4811 -0.6862  0.3357
 2425TP3      O19093   0.381   0.445   8.380  0.2683  0.2205  0.0486
 2425TP3     H119094   0.453   0.419   8.437 -1.3361 -0.6130  1.8003
 2425TP3     H219095   0.389   0.540   8.374  1.0126  0.2311  0.8959
 2426TP3      O19096   3.497   4.708   2.275  0.0410 -0.0325 -0.4816
 2426TP3     H119097   3.559   4.690   2.204 -1.2628 -0.4356 -1.5601
 2426TP3     H219098   3.429   4.762   2.234  0.1408  1.2020  0.9126
 2427TP3      O19099   5.182   3.305   2.968  0.1869  0.0384 -0.2349
 2427TP3     H119100   5.171   3.275   3.058 -0.1242  0.1635 -0.2279
 2427TP3     H219101   5.094   3.300   2.931  0.0913  1.1250 -0.1764
 2428TP3      O19102   2.937   4.089   8.790  0.2086 -0.3219  0.1548
 2428TP3     H119103   2.850   4.128   8.786  0.2787  0.0543  1.8430
 2428TP3     H219104   2.929   4.008   8.739 -0.4520  0.8615 -1.7358
 2429TP3      O19105   2.887   2.384   9.632 -0.7673  0.4622 -0.6111
 2429TP3     H119106   2.791   2.383   9.634 -0.8170  1.9206 -0.9999
 2429TP3     H219107   2.909   2.374   9.539 -0.4788 -0.9656 -0.4223
 2430TP3      O19108   5.205   1.449   1.170  0.2717 -0.6572 -0.4119
 2430TP3     H119109   5.172   1.420   1.255 -0.1334 -2.4602 -1.1254
 2430TP3     H219110   5.142   1.515   1.141  1.6229  1.6658  1.6111
 2431TP3      O19111   5.035   1.811   2.221 -0.1181  0.1452  0.3729
 2431TP3     H119112   4.997   1.869   2.287 -0.9552 -0.9407  0.8923
 2431TP3     H219113   5.052   1.867   2.146 -2.1191  0.8277  0.3806
 2432TP3      O19114   2.781   1.595   9.243  0.3810 -0.6086  0.8214
 2432TP3     H119115   2.871   1.628   9.248  0.3875 -0.5833  0.5313
 2432TP3     H219116   2.759   1.599   9.150 -0.3960  0.6796  1.0335
 2433TP3      O19117   5.174   4.884   9.442  0.1505 -0.3800  0.2853
 2433TP3     H119118   5.082   4.877   9.417 -0.0856  3.8313 -0.7288
 2433TP3     H219119   5.222   4.853   9.365 -0.5190  1.1119 -0.7854
 2434TP3      O19120   0.256   4.387   2.527 -0.1761  0.0228 -0.2325
 2434TP3     H119121   0.203   4.371   2.605 -0.1491 -0.8449 -0.3845
 2434TP3     H219122   0.193   4.388   2.455 -0.0733 -0.2683 -0.3264
 2435TP3      O19123   3.941   1.810   0.633  0.2962  0.1604  0.4981
 2435TP3     H119124   3.930   1.874   0.703 -0.2912 -0.0152  0.5673
 2435TP3     H219125   4.034   1.815   0.612  0.2987  0.8883  0.6429
 2436TP3      O19126   3.822   4.079   1.566  0.0325  0.3122  0.5498
 2436TP3     H119127   3.753   4.100   1.628  2.2609  0.9664  2.9693
 2436TP3     H219128   3.835   4.160   1.516 -1.8339 -0.2470 -0.9685
 2437TP3      O19129   3.954   2.978   1.438 -0.0137  0.1538 -0.4993
 2437TP3     H119130   3.908   3.029   1.504 -1.7475 -0.3208 -1.2660
 2437TP3     H219131   3.895   2.980   1.362  1.0255 -0.9142 -1.3651
 2438TP3      O19132   4.213   3.435   2.400 -0.2147  0.0287 -0.0673
 2438TP3     H119133   4.198   3.400   2.312  1.4467  2.7635 -1.5710
 2438TP3     H219134   4.303   3.411   2.420 -0.2916  0.1933  0.5007
 2439TP3      O19135   3.334   1.744   0.849  0.7361  0.0060  0.1403
 2439TP3     H119136   3.349   1.737   0.755 -0.3291  1.5005 -0.1740
 2439TP3     H219137   3.396   1.682   0.888  3.4333  1.5707 -1.3743
 2440TP3      O19138   2.884   1.616   2.158  0.2103  0.5653  0.3652
 2440TP3     H119139   2.861   1.639   2.248 -0.6829 -2.0654  0.9040
 2440TP3     H219140   2.979   1.616   2.157  0.2842 -1.1376  1.9056
 2441TP3      O19141   4.602   4.506   9.258 -0.4351  0.1363  0.1523
 2441TP3     H119142   4.671   4.492   9.193  0.0158 -1.1529  0.8594
 2441TP3     H219143   4.646   4.551   9.330 -0.8292  1.1508 -0.2194
 2442TP3      O19144   2.732   2.848   9.875 -0.0502 -0.0864  0.0456
 2442TP3     H119145   2.656   2.901   9.900  1.5736  1.8628  1.0497
 2442TP3     H219146   2.775   2.827   9.957  0.0350 -1.9953 -0.4331
 2443TP3      O19147   1.613   0.973   1.870 -0.6173  0.0136  0.4434
 2443TP3     H119148   1.674   0.985   1.798 -1.7459 -1.6673 -0.8590
 2443TP3     H219149   1.653   0.904   1.924  0.0095  0.9598  1.2248
 2444TP3      O19150   3.444   1.965   8.426  0.8589 -0.4044 -0.0457
 2444TP3     H119151   3.457   1.875   8.456  0.5937  0.1944  2.0554
 2444TP3     H219152   3.513   1.980   8.362  1.9232 -1.5969  0.7838
 2445TP3      O19153   2.280   2.673   7.311  1.0233 -0.3533  0.2599
 2445TP3     H119154   2.272   2.699   7.403  0.3550 -0.8666  0.3573
 2445TP3     H219155   2.193   2.686   7.274  1.4836  0.6029 -0.5169
 2446TP3      O19156   5.157   3.399   7.739 -0.2729  0.5206 -0.0029
 2446TP3     H119157   5.076   3.408   7.688 -2.1015 -1.6251  2.2521
 2446TP3     H219158   5.166   3.304   7.753  1.5969  0.8510  1.4448
 2447TP3      O19159   0.829   0.591   8.072 -0.5973  0.1311  0.4835
 2447TP3     H119160   0.747   0.543   8.073 -1.1696  1.0379 -0.5886
 2447TP3     H219161   0.895   0.527   8.097 -1.6328 -0.5772  1.4811
 2448TP3      O19162   1.613   4.253   1.800 -0.1452 -0.2037  0.1373
 2448TP3     H119163   1.598   4.228   1.891 -0.9778  0.0356  0.0824
 2448TP3     H219164   1.674   4.327   1.805  0.9293 -1.0827  0.4002
 2449TP3      O19165   0.014   3.980   1.585 -0.3809  0.1677  0.4985
 2449TP3     H119166   0.021   4.076   1.582  0.5211  0.1466  1.4218
 2449TP3     H219167   0.104   3.950   1.597 -0.7842 -0.7426  1.3715
 2450TP3      O19168   3.337   1.452   9.217 -0.1112  0.2785  0.2761
 2450TP3     H119169   3.406   1.390   9.239  0.0384  0.0589 -0.7476
 2450TP3     H219170   3.291   1.412   9.144 -0.3625  1.1169 -0.0383
 2451TP3      O19171   4.743   2.185   7.086  0.7656 -0.0058  0.1285
 2451TP3     H119172   4.735   2.095   7.056  0.9075  0.1522 -0.4001
 2451TP3     H219173   4.773   2.233   7.009 -0.7880  0.7734 -0.0348
 2452TP3      O19174   4.813   3.685   2.491 -0.1120  0.0656 -0.1110
 2452TP3     H119175   4.743   3.744   2.464  0.2136  0.7549  0.5184
 2452TP3     H219176   4.889   3.742   2.502  0.6285 -0.7020 -1.0364
 2453TP3      O19177   4.479   1.684   9.008 -0.4522 -0.3167  0.2453
 2453TP3     H119178   4.401   1.668   9.061 -0.4741  1.6723  0.8748
 2453TP3     H219179   4.447   1.680   8.918 -1.0192 -0.7797  0.4599
 2454TP3      O19180   1.050   2.242   1.781  0.1948 -0.2854 -0.3892
 2454TP3     H119181   1.144   2.236   1.764  0.1563  2.0083 -2.0003
 2454TP3     H219182   1.042   2.313   1.845 -0.3815 -1.2828  0.6658
 2455TP3      O19183   4.546   3.242   9.384 -0.8440  0.1290  0.3264
 2455TP3     H119184   4.570   3.163   9.336 -1.3403 -0.1893  0.5918
 2455TP3     H219185   4.629   3.284   9.405 -0.6256  0.9965 -1.9855
 2456TP3      O19186   0.421   2.420   9.638 -0.5271 -0.1307  0.2315
 2456TP3     H119187   0.463   2.468   9.710 -1.1166  0.1695  0.3884
 2456TP3     H219188   0.464   2.335   9.638 -0.9354 -0.3560  1.3438
 2457TP3      O19189   5.220   1.302   2.214  0.0391 -0.0366 -0.2731
 2457TP3     H119190   5.308   1.268   2.231  0.3839  0.8480 -0.1920
 2457TP3     H219191   5.221   1.390   2.254 -1.0062 -0.1634  0.0565
 2458TP3      O19192   3.336   3.431   0.079  0.2272 -0.0870  0.1645
 2458TP3     H119193   3.247   3.426   0.045  0.4913 -0.2640 -0.5069
 2458TP3     H219194   3.359   3.340   0.098  0.7764 -0.2102 -1.0111
 2459TP3      O19195   2.657   5.125   9.438  0.0167  0.4148 -0.0390
 2459TP3     H119196   2.632   5.194   9.377  2.1361  0.2199 -1.2195
 2459TP3     H219197   2.751   5.139   9.453  0.1786 -1.3501  0.8206
 2460TP3      O19198   4.957   4.930   8.633 -0.5457  0.8926  0.3595
 2460TP3     H119199   4.955   4.947   8.727  1.0552  1.3899  0.3419
 2460TP3     H219200   5.049   4.942   8.609 -0.3811 -1.9858 -0.7762
 2461TP3      O19201   2.884   5.111   1.071  0.5074 -0.2490 -0.2939
 2461TP3     H119202   2.809   5.078   1.022 -0.4952 -1.6756  2.0511
 2461TP3     H219203   2.847   5.138   1.155  2.4263  0.4002  0.3883
 2462TP3      O19204   1.913   0.363   8.249 -0.7979 -0.2967  0.1884
 2462TP3     H119205   1.923   0.323   8.335 -0.0194 -0.0809  0.2088
 2462TP3     H219206   1.866   0.298   8.197  0.0376 -1.0537  0.3515
 2463TP3      O19207   3.934   3.853   0.285  0.6840  0.0998 -0.0461
 2463TP3     H119208   3.956   3.781   0.344  0.7637  0.0372 -0.1529
 2463TP3     H219209   3.913   3.810   0.202  0.2457  0.1626  0.0284
 2464TP3      O19210   5.076   2.170   0.378  0.5085  0.0175 -0.1426
 2464TP3     H119211   5.134   2.147   0.306 -1.2614  0.2164 -1.6960
 2464TP3     H219212   5.040   2.255   0.353 -0.6887 -0.2489  0.6195
 2465TP3      O19213   3.795   0.286   2.374  0.5269 -0.7065  0.0881
 2465TP3     H119214   3.891   0.279   2.369  0.6153  0.8528 -1.3864
 2465TP3     H219215   3.772   0.236   2.452  2.6153 -0.4992  0.9199
 2466TP3      O19216   4.264   2.005   8.208 -0.3139 -0.0162 -0.2486
 2466TP3     H119217   4.263   2.016   8.303 -0.3081 -2.6183  0.1258
 2466TP3     H219218   4.354   1.979   8.188 -0.7986 -1.4512 -0.6592
 2467TP3      O19219   5.043   3.916   9.249  0.1001  0.2275  0.3212
 2467TP3     H119220   5.116   3.855   9.261 -0.7393 -0.8436  0.1798
 2467TP3     H219221   5.084   3.994   9.211  1.0355 -0.7416 -0.7738
 2468TP3      O19222   2.341   4.252   9.559 -0.1292 -0.3090 -0.2291
 2468TP3     H119223   2.298   4.255   9.645  2.0910  2.0546  0.9456
 2468TP3     H219224   2.427   4.214   9.577  0.4529  0.4377 -1.3216
 2469TP3      O19225   2.143   4.581   9.302 -0.6500  0.1778  0.4268
 2469TP3     H119226   2.139   4.677   9.309 -1.3496  0.1231  0.9041
 2469TP3     H219227   2.234   4.560   9.323 -1.1053  0.5540  3.1692
 2470TP3      O19228   3.574   3.429   0.305  0.9940  0.0226 -0.0108
 2470TP3     H119229   3.506   3.422   0.238  1.1388  0.8235 -0.2626
 2470TP3     H219230   3.639   3.363   0.280  1.1020  0.3913 -0.7420
 2471TP3      O19231   1.806   3.559   1.194  0.4587 -0.0832 -0.2468
 2471TP3     H119232   1.775   3.649   1.204  2.4133  0.5987  0.1471
 2471TP3     H219233   1.802   3.543   1.100  1.7573  1.0930 -0.5385
 2472TP3      O19234   0.053   1.484   9.943  0.6100 -0.6721 -0.0441
 2472TP3     H119235   0.009   1.521   9.867  0.1171 -0.6107  0.2671
 2472TP3     H219236  -0.018   1.452   9.999  0.8273  1.2426  1.4233
 2473TP3      O19237   2.922   1.685   9.847 -1.0825 -0.0494 -0.2497
 2473TP3     H119238   2.940   1.764   9.796 -0.6141 -0.1077 -0.1745
 2473TP3     H219239   2.885   1.718   9.929  0.7213  0.2029  0.5041
 2474TP3      O19240   1.071   3.749   8.773  0.5432  0.7809  0.2595
 2474TP3     H119241   1.004   3.680   8.778 -0.4068  1.6130 -0.5675
 2474TP3     H219242   1.109   3.739   8.686  0.0737  1.5892 -0.0453
 2475TP3      O19243   2.036   3.494   7.902  0.1290 -0.9881 -0.1735
 2475TP3     H119244   2.055   3.460   7.814  2.4151 -1.5817  0.4799
 2475TP3     H219245   2.019   3.416   7.954  1.1481 -0.8401  0.4061
 2476TP3      O19246   4.277   3.014   8.148 -0.0330  0.1109 -0.6674
 2476TP3     H119247   4.336   2.951   8.106  0.6841  1.0747 -1.1246
 2476TP3     H219248   4.201   3.017   8.090 -0.7827 -1.4973  0.1735
 2477TP3      O19249   3.417   1.570   9.635 -0.3988 -0.4720 -0.3651
 2477TP3     H119250   3.383   1.491   9.677 -1.2840  0.4254  0.6784
 2477TP3     H219251   3.495   1.592   9.686 -0.7112 -0.1367 -0.0223
 2478TP3      O19252   4.038   2.993   0.229  0.2311 -0.4964  0.2710
 2478TP3     H119253   3.960   2.982   0.283  0.5995 -0.7302  0.7626
 2478TP3     H219254   4.107   3.017   0.291  0.1518  1.6059 -0.3708
 2479TP3      O19255   4.025   3.756   3.105  0.0507 -0.3016  0.2448
 2479TP3     H119256   4.091   3.811   3.147  0.1232  0.3666 -0.6969
 2479TP3     H219257   4.075   3.701   3.045  0.1234 -2.3157  2.0373
 2480TP3      O19258   1.558   2.674   3.381  0.8383  0.0272  0.6916
 2480TP3     H119259   1.585   2.640   3.295 -1.1295  0.0698 -0.0005
 2480TP3     H219260   1.470   2.638   3.393  1.0668  0.0610  2.6987
 2481TP3      O19261   0.751   4.894   7.745  0.0685 -0.3848 -0.2224
 2481TP3     H119262   0.784   4.915   7.657  0.6495 -1.2004 -0.2146
 2481TP3     H219263   0.828   4.903   7.802 -0.3218  0.2045  0.2119
 2482TP3      O19264   1.544   1.732   0.783 -0.2337  0.0921 -0.2878
 2482TP3     H119265   1.596   1.806   0.751 -1.6140  1.1069 -0.2459
 2482TP3     H219266   1.550   1.667   0.713  0.2718  0.5814 -0.7121
 2483TP3      O19267   0.394   2.729   3.345 -0.1155 -0.9639  0.1828
 2483TP3     H119268   0.335   2.742   3.420 -0.8581  1.3958 -0.7459
 2483TP3     H219269   0.443   2.810   3.339  0.4274 -1.3848 -1.4852
 2484TP3      O19270   3.138   1.248   2.542  0.0495  0.3624  0.1877
 2484TP3     H119271   3.134   1.298   2.624 -0.8468  0.3221  0.1793
 2484TP3     H219272   3.067   1.184   2.549  1.5912 -1.3757  0.4809
 2485TP3      O19273   0.910   4.694   2.699  0.0161 -0.2286  0.2446
 2485TP3     H119274   0.837   4.749   2.671 -0.5006 -0.3402  1.2905
 2485TP3     H219275   0.879   4.604   2.686 -0.7625 -0.3137  2.3096
 2486TP3      O19276   1.986   0.091   3.672 -0.4116  0.2570 -0.2937
 2486TP3     H119277   1.955   0.038   3.598 -0.9623  0.4407 -0.2017
 2486TP3     H219278   1.908   0.104   3.726 -0.0494  0.2611  0.2397
 2487TP3      O19279   1.121   1.767   9.069  0.6488  0.2722 -0.1592
 2487TP3     H119280   1.129   1.821   9.148 -1.1977 -1.0998  1.0512
 2487TP3     H219281   1.204   1.719   9.065  0.2781 -0.6439  1.7773
 2488TP3      O19282   3.996   1.786   1.761 -0.0997  0.2363  0.6429
 2488TP3     H119283   4.042   1.829   1.689 -1.5018  0.3260 -0.2420
 2488TP3     H219284   3.903   1.790   1.737 -0.5487 -0.4198  2.0905
 2489TP3      O19285   0.456   3.815   9.818 -0.0496  0.0137 -0.8278
 2489TP3     H119286   0.466   3.802   9.912 -0.6238 -1.0985 -0.9120
 2489TP3     H219287   0.543   3.797   9.782  0.7092  2.3056 -0.3638
 2490TP3      O19288   4.110   1.574   2.855  0.2239  0.1992 -0.0539
 2490TP3     H119289   4.072   1.660   2.833  0.5705  0.3493 -0.0753
 2490TP3     H219290   4.110   1.572   2.951 -0.5222 -0.1094 -0.0611
 2491TP3      O19291   3.663   1.865   0.571 -0.2412 -0.4456 -0.5697
 2491TP3     H119292   3.664   1.874   0.475  0.6278 -0.6924 -0.5940
 2491TP3     H219293   3.751   1.834   0.593 -0.7272 -1.3150  0.2260
 2492TP3      O19294   0.257   3.747   9.302 -0.0806  0.4011 -0.2360
 2492TP3     H119295   0.203   3.690   9.357 -0.0840  0.5458 -0.0890
 2492TP3     H219296   0.345   3.739   9.339 -0.4039  1.9342  0.9727
 2493TP3      O19297   3.991   4.108   7.918  0.5737  0.0558 -0.1005
 2493TP3     H119298   3.991   4.174   7.988  1.0234  0.7919 -0.7840
 2493TP3     H219299   3.908   4.120   7.873 -0.6679 -1.7714  1.5115
 2494TP3      O19300   2.924   0.192   9.844 -0.4864  0.1555  0.2102
 2494TP3     H119301   2.845   0.152   9.881 -0.6293 -0.0142 -0.2690
 2494TP3     H219302   2.900   0.283   9.828 -1.3232 -0.3763 -1.9543
 2495TP3      O19303   3.136   4.513   6.878  0.4278  0.4957 -0.5698
 2495TP3     H119304   3.069   4.573   6.908 -0.3046  0.8973 -2.8414
 2495TP3     H219305   3.218   4.549   6.913 -0.2676  1.3361  0.2386
 2496TP3      O19306   4.522   4.686   8.020  0.1586  0.3216  0.2329
 2496TP3     H119307   4.555   4.706   8.108  0.7878 -0.0044  0.0773
 2496TP3     H219308   4.509   4.772   7.979 -0.9071  0.5022  0.9137
 2497TP3      O19309   3.976   2.073   8.941 -0.0366  0.0515  0.3224
 2497TP3     H119310   3.924   1.998   8.911 -1.0668  0.5539  0.7900
 2497TP3     H219311   4.063   2.036   8.958 -0.1104 -0.7260 -0.8732
 2498TP3      O19312   0.835   2.597   1.281  0.2631  0.0982 -0.0650
 2498TP3     H119313   0.818   2.654   1.356 -1.3442 -0.0027 -0.3079
 2498TP3     H219314   0.754   2.547   1.271 -0.8825  2.2655 -3.7369
 2499TP3      O19315   2.180   0.681   8.704  0.5924  0.4515 -0.1780
 2499TP3     H119316   2.106   0.716   8.753  1.2144 -0.1914  1.3068
 2499TP3     H219317   2.234   0.758   8.684  0.8796  0.6400  1.1700
 2500TP3      O19318   3.271   1.401  10.048  0.0882 -0.6903 -0.1805
 2500TP3     H119319   3.240   1.454   9.973  0.2752 -0.4637 -0.0980
 2500TP3     H219320   3.291   1.465  10.116  2.7153 -0.6300 -0.9032
 2501TP3      O19321   3.853   1.089   2.966 -0.1409  0.0827  0.2799
 2501TP3     H119322   3.933   1.036   2.956  0.6527  0.8678  2.0861
 2501TP3     H219323   3.886   1.178   2.977 -1.3546  0.6134 -0.2955
 2502TP3      O19324   3.036   2.278   1.991 -0.4929 -0.0300 -0.1420
 2502TP3     H119325   3.010   2.276   1.899  0.4651 -2.6762 -0.4498
 2502TP3     H219326   3.031   2.187   2.020 -0.7930  0.7167  2.4736
 2503TP3      O19327   1.363   1.993   7.863  0.3090 -0.2116 -0.3195
 2503TP3     H119328   1.440   2.048   7.874 -0.3160  0.1895  2.9080
 2503TP3     H219329   1.397   1.910   7.829  2.1775 -0.0045  0.9082
 2504TP3      O19330   2.567   4.900   0.667  0.2630  0.5369  0.3403
 2504TP3     H119331   2.657   4.883   0.639  0.4183  1.1635  0.4377
 2504TP3     H219332   2.530   4.814   0.684  1.2651  0.3325  1.5753
 2505TP3      O19333   1.667   0.268   3.283  0.0856  0.2013 -0.2248
 2505TP3     H119334   1.644   0.185   3.241 -0.4365  1.2499 -2.0985
 2505TP3     H219335   1.600   0.329   3.254  1.7803  1.8708 -0.8300
 2506TP3      O19336   1.535   1.285   1.153 -0.2571  0.6978  0.5739
 2506TP3     H119337   1.477   1.266   1.226 -1.1186 -1.4561 -0.5806
 2506TP3     H219338   1.623   1.284   1.191 -0.6331 -0.9587  1.5204
 2507TP3      O19339   1.146   3.541   8.125  0.3819  0.2309 -0.4842
 2507TP3     H119340   1.136   3.480   8.198  0.7358  0.3222 -0.3571
 2507TP3     H219341   1.240   3.540   8.106  0.4489  0.9900 -0.2576
 2508TP3      O19342   0.733   5.268   7.419 -0.1311 -0.6355 -0.5529
 2508TP3     H119343   0.718   5.194   7.360 -1.3969 -0.3962 -0.5659
 2508TP3     H219344   0.683   5.246   7.498  0.0512 -0.1124 -0.2873
 2509TP3      O19345   0.915   0.325  10.074  0.0642  0.4544 -0.6760
 2509TP3     H119346   1.006   0.301  10.057 -0.6828 -2.4200 -1.0128
 2509TP3     H219347   0.868   0.299   9.995 -1.1742  1.3325 -0.2608
 2510TP3      O19348   3.835   4.974   2.741 -0.2198  0.4290 -0.3173
 2510TP3     H119349   3.869   5.059   2.768  0.3881  0.1849 -0.2983
 2510TP3     H219350   3.887   4.950   2.665  0.7079 -0.6532  0.6269
 2511TP3      O19351   2.785   5.232   3.383  0.3325  0.2119  0.7874
 2511TP3     H119352   2.691   5.225   3.404  0.0361  0.4420 -0.3702
 2511TP3     H219353   2.829   5.218   3.466 -0.6525 -1.9739  1.0153
 2512TP3      O19354   0.595   4.076   8.692  0.6638  0.2797  0.4730
 2512TP3     H119355   0.647   4.014   8.743 -1.5554 -0.7843  1.6164
 2512TP3     H219356   0.506   4.041   8.696 -0.1652  1.9447 -1.4464
 2513TP3      O19357   0.267   3.490   8.580  0.0697 -0.4244 -0.3894
 2513TP3     H119358   0.304   3.532   8.502 -0.5171 -0.8062 -0.8825
 2513TP3     H219359   0.342   3.477   8.638  0.3214  1.0161 -0.3495
 2514TP3      O19360   3.958   2.476   7.124  0.2673  0.1148  0.4910
 2514TP3     H119361   3.944   2.429   7.206 -0.3484  0.8828  0.8265
 2514TP3     H219362   3.871   2.502   7.095  0.3281 -1.2254 -1.0749
 2515TP3      O19363   2.595   4.125   8.183 -0.1586 -0.6879 -0.5730
 2515TP3     H119364   2.690   4.109   8.179  0.0060 -0.8274  2.2044
 2515TP3     H219365   2.587   4.220   8.193  0.0311 -0.9067  3.1145
 2516TP3      O19366   2.341   1.385   8.257 -0.0405 -0.6941  0.0902
 2516TP3     H119367   2.436   1.395   8.248 -0.2320  2.2559  0.2502
 2516TP3     H219368   2.329   1.348   8.345  0.9675 -0.7716  0.2014
 2517TP3      O19369   4.554   2.283   7.535  0.0086  0.1463  0.0623
 2517TP3     H119370   4.463   2.286   7.565  0.0016  1.0316 -0.0288
 2517TP3     H219371   4.592   2.365   7.566  0.3223  0.5411 -1.3433
 2518TP3      O19372   3.275   2.751   2.720 -0.2640 -0.0601  0.3411
 2518TP3     H119373   3.333   2.787   2.653 -1.1082  1.5627  0.4350
 2518TP3     H219374   3.274   2.657   2.703 -1.6004  0.4113 -2.8987
 2519TP3      O19375   3.937   0.653   2.756  1.0151  0.0616  0.1381
 2519TP3     H119376   4.025   0.690   2.760  0.4520  1.4999 -0.0095
 2519TP3     H219377   3.899   0.675   2.842  0.4754  0.3442 -0.1693
 2520TP3      O19378   2.618   1.871   0.510 -0.0191 -0.4570 -0.1227
 2520TP3     H119379   2.702   1.879   0.465 -0.1256  0.2944 -0.2138
 2520TP3     H219380   2.553   1.881   0.441 -0.2030  1.8537  0.2863
 2521TP3      O19381   0.932   1.890   9.889  0.2917  0.4962  0.2440
 2521TP3     H119382   1.016   1.872   9.847 -0.0786  1.5788 -1.0476
 2521TP3     H219383   0.897   1.964   9.840 -1.0929  0.5241  1.2282
 2522TP3      O19384   4.073   1.358   9.156  0.1546 -0.8650  0.6103
 2522TP3     H119385   4.041   1.346   9.067  1.3191  2.1638 -0.3464
 2522TP3     H219386   4.036   1.285   9.205  0.1155 -3.1029 -2.4792
 2523TP3      O19387   1.472   2.967   3.143 -0.2214 -0.1036 -0.0165
 2523TP3     H119388   1.530   2.899   3.109 -0.5944  0.8095 -2.6594
 2523TP3     H219389   1.385   2.940   3.113 -0.9845 -0.5001  2.3560
 2524TP3      O19390   1.108   2.862   0.517  0.1993 -0.1830 -0.0744
 2524TP3     H119391   1.022   2.884   0.480 -0.0966  1.0052  1.2166
 2524TP3     H219392   1.115   2.767   0.508 -1.2887 -0.3085 -0.1402
 2525TP3      O19393   3.646   0.754   1.331 -0.1671 -0.4790  0.0526
 2525TP3     H119394   3.715   0.813   1.300 -1.7341  1.5866  0.2703
 2525TP3     H219395   3.575   0.813   1.358 -2.2646 -2.5185 -0.7058
 2526TP3      O19396   3.356   2.270   7.934  0.8605 -0.5395 -0.6309
 2526TP3     H119397   3.357   2.181   7.967 -1.0461  0.0436  1.2360
 2526TP3     H219398   3.299   2.266   7.857  1.0296 -0.9766 -0.7343
 2527TP3      O19399   1.721   1.425   1.693  0.0703  0.1220 -0.4150
 2527TP3     H119400   1.643   1.372   1.708 -0.3775  0.7530 -0.4968
 2527TP3     H219401   1.701   1.510   1.732  0.0133  0.8589 -2.0045
 2528TP3      O19402   3.415   2.430   9.245  0.1035  0.0782 -0.2827
 2528TP3     H119403   3.443   2.341   9.225  1.8218  0.5282 -0.1295
 2528TP3     H219404   3.497   2.477   9.260 -0.8202  1.3552  1.0267
 2529TP3      O19405   4.120   0.869   9.743  0.2477 -0.4688  0.0229
 2529TP3     H119406   4.065   0.906   9.812  0.5133  2.2602 -1.1319
 2529TP3     H219407   4.061   0.862   9.667  0.7621 -0.2771 -0.4012
 2530TP3      O19408   4.768   3.413   9.400 -0.6638 -0.5648  0.2229
 2530TP3     H119409   4.816   3.339   9.439 -1.2327 -0.9075  0.2744
 2530TP3     H219410   4.837   3.476   9.377 -0.0980 -1.4040 -0.4721
 2531TP3      O19411   3.090   3.507   1.254 -0.2810 -0.7474  0.3981
 2531TP3     H119412   2.996   3.506   1.232  0.2250  1.1602 -2.3697
 2531TP3     H219413   3.113   3.600   1.253  2.0376 -1.2714 -1.0340
 2532TP3      O19414   2.383   3.896   2.412 -0.1511  0.4855  0.7999
 2532TP3     H119415   2.437   3.929   2.484  1.5157 -1.1181  0.3397
 2532TP3     H219416   2.352   3.811   2.443 -0.1914  0.1977 -0.0187
 2533TP3      O19417   4.134   0.200   8.046  0.1588 -0.5606  0.5220
 2533TP3     H119418   4.111   0.276   8.100  0.1038 -1.2663  1.5051
 2533TP3     H219419   4.107   0.125   8.097 -1.8574 -1.2265 -1.3915
 2534TP3      O19420   3.004   4.436   9.477 -0.6465 -0.5210 -0.0300
 2534TP3     H119421   3.020   4.346   9.505  0.3165 -0.0237  1.0791
 2534TP3     H219422   3.040   4.491   9.547 -0.9633  0.7427 -0.8086
 2535TP3      O19423   1.694   1.982   1.380 -0.0116 -0.2920  0.1176
 2535TP3     H119424   1.681   1.897   1.338  1.9247 -0.0311 -1.1185
 2535TP3     H219425   1.764   1.967   1.444  2.1878  0.8081 -1.8589
 2536TP3      O19426   0.593   2.382  10.102 -0.6465  0.0826 -0.5910
 2536TP3     H119427   0.605   2.400  10.195 -0.9270  0.6492 -0.6663
 2536TP3     H219428   0.682   2.376  10.067 -0.5431  0.0113 -0.3185
 2537TP3      O19429   4.659   2.312   8.737 -0.1536  0.2543  0.0614
 2537TP3     H119430   4.663   2.246   8.806 -0.4831  0.2106  0.0412
 2537TP3     H219431   4.746   2.351   8.736  0.9194 -1.9034 -1.5924
 2538TP3      O19432   2.657   4.668   9.913 -0.1480 -0.5274  0.6401
 2538TP3     H119433   2.738   4.621   9.934 -0.4090 -1.3660 -0.1583
 2538TP3     H219434   2.628   4.704   9.997  0.7053 -0.7637  1.0494
 2539TP3      O19435   2.046   1.389   8.690 -0.1035  0.1075  0.1723
 2539TP3     H119436   1.966   1.335   8.693  0.1546 -0.2966 -0.1438
 2539TP3     H219437   2.014   1.479   8.697 -0.4150 -0.1328  2.7632
 2540TP3      O19438   3.776   0.056   8.606 -0.0205  0.7497 -0.0684
 2540TP3     H119439   3.715   0.091   8.542 -1.1724 -0.0176  0.5628
 2540TP3     H219440   3.742   0.086   8.691  0.7064  0.6365  0.2733
 2541TP3      O19441   1.077   3.030   8.217  0.2699  0.0555  0.1632
 2541TP3     H119442   1.089   3.102   8.154 -0.8858  0.3017  0.2021
 2541TP3     H219443   0.989   2.997   8.199 -0.4213  0.6444  2.1471
 2542TP3      O19444   3.699   5.159  10.040 -0.0811  0.0396 -0.0564
 2542TP3     H119445   3.674   5.208   9.961 -0.8036 -2.6728 -1.6202
 2542TP3     H219446   3.622   5.106  10.061  0.7593 -0.6587  1.4131
 2543TP3      O19447   3.826   1.592   0.893  0.0374  0.5126  0.3630
 2543TP3     H119448   3.797   1.514   0.939 -2.3417  1.0342 -0.1230
 2543TP3     H219449   3.768   1.662   0.924 -0.4789  1.2489 -2.0283
 2544TP3      O19450   2.484   4.851   8.493  0.6190 -0.3691 -0.4029
 2544TP3     H119451   2.576   4.857   8.521  1.3111 -1.0385 -2.3817
 2544TP3     H219452   2.462   4.940   8.465  0.7101 -0.2483 -0.0993
 2545TP3      O19453   3.623   1.203   9.005 -0.2982 -0.9943 -0.0577
 2545TP3     H119454   3.531   1.181   9.019 -0.1600 -1.8473 -0.4750
 2545TP3     H219455   3.670   1.152   9.071  0.0081 -1.8927 -0.9422
 2546TP3      O19456   0.286   2.624   2.575 -0.5912  0.6456 -0.3413
 2546TP3     H119457   0.234   2.659   2.503  1.0534  0.1129 -1.8711
 2546TP3     H219458   0.372   2.607   2.536  0.2301 -0.0809  1.6554
 2547TP3      O19459   0.478   4.649   6.797 -0.1538 -0.2171 -0.1377
 2547TP3     H119460   0.478   4.742   6.821 -0.0943 -0.1993 -0.2050
 2547TP3     H219461   0.566   4.618   6.821  1.0130  0.5043 -2.9769
 2548TP3      O19462   3.185   5.162   8.375  0.4637  0.3455 -0.1625
 2548TP3     H119463   3.222   5.074   8.369  0.3913  0.3125 -0.1366
 2548TP3     H219464   3.243   5.209   8.435 -0.6387 -0.2881  1.4547
 2549TP3      O19465   1.588   2.226   1.873  0.0215  0.3488  0.2262
 2549TP3     H119466   1.682   2.205   1.878 -0.0782 -0.2317 -0.1755
 2549TP3     H219467   1.547   2.143   1.848 -0.5513  0.7129 -0.0472
 2550TP3      O19468   2.731   3.902   7.266  0.0138  0.1541 -0.7497
 2550TP3     H119469   2.766   3.834   7.207  0.6979 -0.4248  0.2892
 2550TP3     H219470   2.636   3.895   7.257  0.1096  0.3280 -2.0508
 2551TP3      O19471   5.254   1.637   2.736  0.2754 -0.6649  0.1874
 2551TP3     H119472   5.263   1.553   2.691 -0.6235 -0.7507  0.1386
 2551TP3     H219473   5.279   1.702   2.671  0.1852 -0.8543 -0.0403
 2552TP3      O19474   1.309   5.025   0.091  0.1197 -0.3232 -0.2418
 2552TP3     H119475   1.400   5.027   0.063  0.1894 -0.1038  0.0060
 2552TP3     H219476   1.265   5.087   0.032  0.2011 -0.1382 -0.1095
 2553TP3      O19477   0.890   3.643   9.573  0.3554  0.2495  0.2598
 2553TP3     H119478   0.926   3.555   9.576  0.7975  0.4383  0.6348
 2553TP3     H219479   0.967   3.701   9.576  0.0321  0.6640  1.4724
 2554TP3      O19480   0.129   5.004   2.606  0.2008 -0.5008 -0.0592
 2554TP3     H119481   0.181   4.933   2.644 -1.4741 -0.5814  2.2895
 2554TP3     H219482   0.041   4.968   2.599 -0.1086  0.4577 -1.5727
 2555TP3      O19483   1.115   2.918   1.369  0.5182 -0.1778  0.2627
 2555TP3     H119484   1.056   2.869   1.312  0.2727  0.7207 -0.2598
 2555TP3     H219485   1.163   2.976   1.310  3.4477 -2.2910  0.3387
 2556TP3      O19486   1.579   1.531   7.909  0.2481  0.0862  0.0380
 2556TP3     H119487   1.494   1.501   7.877 -0.3439  0.8001  0.8606
 2556TP3     H219488   1.566   1.625   7.927  1.2742  0.2547 -0.0385
 2557TP3      O19489   1.609   0.263   8.380  0.3350  0.1436 -0.6097
 2557TP3     H119490   1.597   0.200   8.451  1.8685 -0.0778 -0.5235
 2557TP3     H219491   1.699   0.250   8.351  0.2208  1.3082 -1.5588
 2558TP3      O19492   4.141   3.395   7.905  0.1645  0.2871  0.0069
 2558TP3     H119493   4.123   3.427   7.994  1.9221 -0.1029  0.5580
 2558TP3     H219494   4.077   3.325   7.891  0.8089 -0.7021  1.6141
 2559TP3      O19495   1.864   3.582   9.396  0.1036  0.0084 -0.0321
 2559TP3     H119496   1.837   3.590   9.304 -0.6100 -0.6367  0.1069
 2559TP3     H219497   1.951   3.621   9.399  0.3794 -0.4826 -1.1138
 2560TP3      O19498   0.066   2.924   1.517 -0.0645  0.5664 -0.1810
 2560TP3     H119499  -0.016   2.886   1.486 -1.1517 -0.0849  3.1254
 2560TP3     H219500   0.042   2.970   1.598  2.2732  3.3555 -0.8975
 2561TP3      O19501   2.299   1.098   7.785  0.2579 -0.6168  0.1402
 2561TP3     H119502   2.223   1.043   7.804  0.6066 -0.6981  1.3557
 2561TP3     H219503   2.367   1.067   7.845  0.4491  1.1812  0.9191
 2562TP3      O19504   1.624   4.737   1.437 -0.3352 -0.5719  0.1182
 2562TP3     H119505   1.542   4.688   1.445 -2.1264  2.1001 -0.5306
 2562TP3     H219506   1.662   4.734   1.525 -0.1674 -3.2449  0.0462
 2563TP3      O19507   1.895   2.132   9.103 -0.1495  0.5068 -0.1431
 2563TP3     H119508   1.895   2.047   9.059  0.3727  0.3744  0.1116
 2563TP3     H219509   1.943   2.118   9.184 -0.0131  1.0583 -0.1215
 2564TP3      O19510   2.038   3.811   9.919  0.3347  0.2543  0.4602
 2564TP3     H119511   1.975   3.739   9.913  0.7284 -0.3313  2.5750
 2564TP3     H219512   2.122   3.768   9.935  0.9664  1.1053 -0.4756
 2565TP3      O19513   2.116   3.246   2.324  0.4929 -0.7278  0.6790
 2565TP3     H119514   2.209   3.265   2.314  0.5718 -1.7170 -0.7136
 2565TP3     H219515   2.089   3.212   2.239 -1.4892  0.8617  0.5993
 2566TP3      O19516   1.436   1.421   8.898 -0.3636  0.0376 -0.1011
 2566TP3     H119517   1.391   1.384   8.822 -0.2847 -1.4371  0.5421
 2566TP3     H219518   1.529   1.405   8.881 -0.2141  1.0594 -0.3658
 2567TP3      O19519   2.891   0.229   0.243  0.7658  0.3663 -0.1071
 2567TP3     H119520   2.835   0.159   0.276  0.3812  0.1940 -1.0653
 2567TP3     H219521   2.980   0.198   0.257  0.6006 -0.2842 -0.4330
 2568TP3      O19522   0.973   1.177   7.513  0.3065 -0.5560  0.4176
 2568TP3     H119523   1.009   1.231   7.443 -0.5952 -2.4033 -1.6033
 2568TP3     H219524   0.882   1.206   7.522  0.5039 -0.1205  1.0577
 2569TP3      O19525   5.117   0.756   0.287  0.2418  0.1758  0.4350
 2569TP3     H119526   5.199   0.770   0.240 -0.1586 -0.5833 -0.5257
 2569TP3     H219527   5.070   0.839   0.279  0.6184  0.3871  0.3927
 2570TP3      O19528   2.189   0.636   9.692  0.0673  0.2682  0.5694
 2570TP3     H119529   2.172   0.652   9.599 -0.0152  0.1301  0.5620
 2570TP3     H219530   2.169   0.720   9.734 -2.7039 -0.4436  0.8491
 2571TP3      O19531   4.285   0.487   0.274  0.5262  0.1114  0.3428
 2571TP3     H119532   4.343   0.477   0.198 -0.6094 -2.0471 -0.3028
 2571TP3     H219533   4.340   0.463   0.349  0.3231 -2.8173 -0.3461
 2572TP3      O19534   1.882   4.696   0.042  0.0251  0.1880 -0.6511
 2572TP3     H119535   1.918   4.748  -0.030  2.4113 -0.7557 -0.2500
 2572TP3     H219536   1.955   4.688   0.104 -1.7368  0.4105  1.5893
 2573TP3      O19537   3.254   0.834   7.526 -0.7339  0.0320 -0.0460
 2573TP3     H119538   3.216   0.891   7.458 -2.0915 -0.4400  0.2932
 2573TP3     H219539   3.349   0.840   7.511 -0.9864 -0.4191 -2.2987
 2574TP3      O19540   2.735   3.473   2.189 -0.2955 -0.7442  0.2128
 2574TP3     H119541   2.765   3.436   2.272 -1.5478 -0.0818  0.9973
 2574TP3     H219542   2.640   3.459   2.189 -0.3230 -0.6945 -1.0902
 2575TP3      O19543   1.267   2.851   9.849  0.1548  0.1801 -0.2232
 2575TP3     H119544   1.344   2.810   9.810 -0.4573  0.0823 -1.3946
 2575TP3     H219545   1.195   2.791   9.828 -0.1718 -0.0296  1.3537
 2576TP3      O19546   1.952   3.172   7.838 -0.5679  0.6536 -0.3903
 2576TP3     H119547   1.902   3.110   7.785 -1.6826  1.1488  0.0466
 2576TP3     H219548   1.910   3.170   7.924 -0.1743  1.4883 -0.1664
 2577TP3      O19549   0.117   4.144   9.779 -0.0094  0.0234 -0.0891
 2577TP3     H119550   0.046   4.127   9.841 -0.6365 -1.9133 -1.2460
 2577TP3     H219551   0.087   4.220   9.729 -0.1824  0.6629  0.9644
 2578TP3      O19552   4.277   0.167   9.468 -0.2498 -0.0861 -0.9197
 2578TP3     H119553   4.202   0.195   9.520 -0.5767  1.2537 -2.0298
 2578TP3     H219554   4.348   0.227   9.494  0.2448 -0.8878 -0.3866
 2579TP3      O19555   1.980   4.839   9.220 -0.0666 -0.3699 -0.1732
 2579TP3     H119556   1.987   4.801   9.132 -1.9974  1.4195 -1.1815
 2579TP3     H219557   2.059   4.890   9.231 -0.5064  0.6618 -1.5639
 2580TP3      O19558   0.625   1.025   7.416 -0.2132  0.0707  0.4196
 2580TP3     H119559   0.573   0.984   7.486 -0.3552 -0.4498  0.0122
 2580TP3     H219560   0.599   0.979   7.337  0.5405  0.1154  0.1442
 2581TP3      O19561   1.824   0.886   9.732 -0.8639  0.1385 -0.5285
 2581TP3     H119562   1.812   0.966   9.783 -0.7224  0.6694 -1.3163
 2581TP3     H219563   1.881   0.911   9.660  1.2497 -1.2589  0.5618
 2582TP3      O19564   0.326   4.918   1.933 -0.4814  0.2226  0.0157
 2582TP3     H119565   0.322   4.947   1.842  0.8817  1.0018  0.1735
 2582TP3     H219566   0.349   4.825   1.927  0.0947  0.3841 -0.4457
 2583TP3      O19567   0.235   3.566   0.904  0.9515  0.1759  0.2241
 2583TP3     H119568   0.280   3.649   0.885  2.7048 -0.7074  0.2897
 2583TP3     H219569   0.286   3.527   0.975  0.3387 -1.0961 -0.0054
 2584TP3      O19570   3.985   0.842   7.429 -0.0167  0.0564  0.3927
 2584TP3     H119571   4.011   0.897   7.355  2.8872 -1.6100 -0.0055
 2584TP3     H219572   3.904   0.799   7.401  1.7142 -1.5930 -2.5516
 2585TP3      O19573   5.004   3.501   0.597  0.3811  0.3431 -0.0192
 2585TP3     H119574   5.018   3.567   0.529 -0.9510  0.7950  0.1298
 2585TP3     H219575   4.962   3.548   0.668 -1.1714 -0.7758 -0.1579
 2586TP3      O19576   1.601   1.032   9.465 -0.0352  1.1462  0.0284
 2586TP3     H119577   1.536   1.102   9.456 -0.5300  0.6064 -0.7199
 2586TP3     H219578   1.684   1.077   9.480  0.0399  1.9941 -2.4876
 2587TP3      O19579   1.117   1.076   8.736  0.8890 -0.1359 -0.2859
 2587TP3     H119580   1.127   1.171   8.745 -1.3195  0.2114 -0.7876
 2587TP3     H219581   1.204   1.044   8.712  1.6731  1.7498 -0.1135
 2588TP3      O19582   2.655   4.674   8.711  0.1314 -0.0950  0.0510
 2588TP3     H119583   2.701   4.591   8.713 -1.6154 -1.5039 -4.6017
 2588TP3     H219584   2.725   4.739   8.699  1.3876 -0.9873  2.0005
 2589TP3      O19585   2.762   2.641   8.500  0.2158  0.4303 -0.0214
 2589TP3     H119586   2.855   2.665   8.506  0.3352  0.0770 -0.4376
 2589TP3     H219587   2.757   2.586   8.422 -0.3749  0.5798 -0.0885
 2590TP3      O19588   3.456   2.900   2.538 -0.5427 -0.2813  0.4226
 2590TP3     H119589   3.490   2.898   2.449  0.2910 -0.5616  0.7408
 2590TP3     H219590   3.418   2.987   2.548  1.4741  0.6407  0.5558
 2591TP3      O19591   3.292   0.389   1.024  0.0327  0.4920 -0.2926
 2591TP3     H119592   3.293   0.302   1.063 -1.3424  0.2459 -0.7369
 2591TP3     H219593   3.323   0.375   0.934 -1.6742  0.1489 -0.8697
 2592TP3      O19594   0.640   2.176   0.885 -0.0338 -0.4821  0.6749
 2592TP3     H119595   0.578   2.145   0.951  0.6902 -2.1064  0.6232
 2592TP3     H219596   0.643   2.271   0.898 -0.0641 -0.7274  2.8618
 2593TP3      O19597   4.688   2.686   8.708  0.0151 -0.0167  0.2642
 2593TP3     H119598   4.621   2.655   8.647  2.2572  0.1312 -2.5201
 2593TP3     H219599   4.666   2.646   8.792 -2.3990 -1.5061 -0.9827
 2594TP3      O19600   2.251   2.770   8.549 -0.0447  0.6811 -0.1007
 2594TP3     H119601   2.345   2.758   8.555  0.0530  1.5773  0.3024
 2594TP3     H219602   2.218   2.688   8.511  0.6729 -0.4502  1.6255
 2595TP3      O19603   5.141   2.996   2.461  0.2231 -0.4085 -0.5685
 2595TP3     H119604   5.130   2.976   2.368 -0.5781  1.0506 -0.8101
 2595TP3     H219605   5.224   3.043   2.465  1.6473 -2.7944 -0.1237
 2596TP3      O19606   4.754   3.495   3.002 -0.1230 -0.1513  0.2953
 2596TP3     H119607   4.819   3.564   2.986 -0.5084  0.1906  0.1714
 2596TP3     H219608   4.785   3.450   3.080 -0.5458  1.0163  1.1812
 2597TP3      O19609   1.570   4.806   9.775 -0.8980  0.2309  0.3478
 2597TP3     H119610   1.664   4.789   9.783 -0.7371  0.8721 -0.0690
 2597TP3     H219611   1.529   4.743   9.833 -0.2445 -0.4442  0.0860
 2598TP3      O19612   0.778   3.745   2.254  0.2894  0.2344  0.1382
 2598TP3     H119613   0.867   3.739   2.288  0.6828  1.9858 -0.4441
 2598TP3     H219614   0.757   3.656   2.224  2.9616  0.2851 -2.3499
 2599TP3      O19615   2.438   2.693   2.781 -0.5960 -0.0378 -0.8726
 2599TP3     H119616   2.513   2.651   2.740  0.1357 -0.6993  1.0486
 2599TP3     H219617   2.391   2.622   2.824 -0.1812  0.8488  1.1608
 2600TP3      O19618   3.668   2.162   9.725  0.0444  0.3968 -0.0829
 2600TP3     H119619   3.671   2.257   9.737  0.3960  0.5162 -1.0307
 2600TP3     H219620   3.617   2.149   9.645  2.6955  0.0079 -1.8393
 2601TP3      O19621   0.117   0.720   9.965 -0.0256  0.7148  0.2548
 2601TP3     H119622   0.030   0.680   9.961  0.6278 -0.7091 -2.4458
 2601TP3     H219623   0.108   0.791  10.028 -3.3223  1.0236 -0.3925
 2602TP3      O19624   3.797   2.813   9.369 -0.1469 -0.1724  0.0954
 2602TP3     H119625   3.884   2.808   9.410  0.4623  1.6678 -0.8482
 2602TP3     H219626   3.815   2.844   9.280 -1.9096  3.2266  0.7665
 2603TP3      O19627   0.641   0.461   9.396 -0.2477  0.4101 -0.0531
 2603TP3     H119628   0.692   0.538   9.419  1.0207  0.0661 -1.5414
 2603TP3     H219629   0.639   0.461   9.300 -1.3524 -0.6895 -0.0587
 2604TP3      O19630   3.886   0.618   7.244  0.2688  0.3277 -0.2111
 2604TP3     H119631   3.922   0.635   7.157  1.7071 -0.8336  0.1060
 2604TP3     H219632   3.824   0.547   7.230  0.1400  0.4654 -0.3517
 2605TP3      O19633   0.223   3.774   8.887  0.2188 -0.2028 -0.2056
 2605TP3     H119634   0.271   3.750   8.966  0.8713 -0.5194 -0.6906
 2605TP3     H219635   0.139   3.729   8.896 -0.2816  0.8986  0.9732
 2606TP3      O19636   3.301   3.101   0.692 -0.9995  0.3230  0.2217
 2606TP3     H119637   3.320   3.134   0.780 -0.3434 -0.5340  0.4165
 2606TP3     H219638   3.374   3.131   0.639 -0.6617 -0.3561  0.2895
 2607TP3      O19639   0.610   0.932   1.283 -0.0008 -0.1189 -0.0132
 2607TP3     H119640   0.700   0.949   1.254 -0.2909  0.5732 -0.5475
 2607TP3     H219641   0.597   0.992   1.356 -0.4035  0.6344 -0.6861
 2608TP3      O19642   3.059   4.732   2.169  0.4423  0.2431  0.1416
 2608TP3     H119643   3.078   4.653   2.218  0.4598 -0.0839 -0.3871
 2608TP3     H219644   2.965   4.747   2.182  0.7138  0.9517  1.4221
 2609TP3      O19645   4.239   2.496   9.557  0.4909 -0.5038  0.1793
 2609TP3     H119646   4.213   2.432   9.624 -0.2485  1.7628  2.2267
 2609TP3     H219647   4.202   2.462   9.476 -2.9326 -1.0203  1.7459
 2610TP3      O19648   1.175   4.377   7.573  0.5495 -0.0146 -0.1990
 2610TP3     H119649   1.160   4.410   7.484 -0.6925  1.0754  0.3745
 2610TP3     H219650   1.239   4.438   7.610 -1.4129  1.6537  0.7096
 2611TP3      O19651   4.790   0.075   0.020  0.2670  0.2800 -0.6550
 2611TP3     H119652   4.715   0.077   0.080  0.2710  0.7757 -0.6583
 2611TP3     H219653   4.788  -0.012  -0.019  1.8258 -1.0693  2.0278
 2612TP3      O19654   4.034   2.908   2.205  1.1681 -0.3373 -0.3327
 2612TP3     H119655   4.110   2.961   2.227  0.9909  0.3984 -1.4324
 2612TP3     H219656   3.959   2.967   2.213  0.8255 -0.7555 -0.3618
 2613TP3      O19657   1.440   1.814   3.555  0.0542 -0.2466 -0.5688
 2613TP3     H119658   1.476   1.742   3.608 -0.4023  0.2652  0.4610
 2613TP3     H219659   1.347   1.817   3.581  0.3398  1.5259  0.3625
 2614TP3      O19660   1.691   2.004   0.783 -0.5502 -0.2505  0.0548
 2614TP3     H119661   1.628   2.043   0.722  0.9323  1.2547 -0.6253
 2614TP3     H219662   1.658   2.027   0.870 -0.7187  0.9603 -0.3045
 2615TP3      O19663   4.240   3.228   3.017 -0.1773 -0.1123 -0.0811
 2615TP3     H119664   4.267   3.207   3.107  1.7876  1.3372 -0.2692
 2615TP3     H219665   4.146   3.210   3.016 -0.4828  0.8864  2.5924
 2616TP3      O19666   5.203   4.353   9.997 -0.1699  0.0422 -0.1765
 2616TP3     H119667   5.216   4.259   9.996  1.9929  0.2993 -0.7066
 2616TP3     H219668   5.165   4.373   9.911  0.8300 -0.1937 -0.6898
 2617TP3      O19669   0.736   3.632   2.701 -0.8931 -0.0762  0.1478
 2617TP3     H119670   0.764   3.579   2.626 -0.5372 -1.0392  0.9461
 2617TP3     H219671   0.818   3.654   2.746 -1.1786 -0.3748  0.8240
 2618TP3      O19672   3.965   4.565   7.799  0.1555 -0.6390  0.4121
 2618TP3     H119673   3.892   4.603   7.847 -1.5293 -2.1912 -0.8068
 2618TP3     H219674   4.018   4.640   7.773 -0.5022  0.4590  2.0533
 2619TP3      O19675   4.659   5.177   8.679  0.3723  0.3139 -0.1894
 2619TP3     H119676   4.589   5.171   8.614  0.6542 -1.8310 -0.3581
 2619TP3     H219677   4.624   5.133   8.756  1.7310 -1.4092 -0.5057
 2620TP3      O19678   2.493   4.559   7.959  0.1264 -0.1405 -0.0671
 2620TP3     H119679   2.512   4.650   7.982 -0.9083  0.7045 -2.2841
 2620TP3     H219680   2.538   4.545   7.875 -0.8043 -1.2305 -0.4194
 2621TP3      O19681   2.427   0.931   0.709  0.4089 -0.2803 -0.2750
 2621TP3     H119682   2.506   0.985   0.699  0.8041 -0.5202  1.2831
 2621TP3     H219683   2.386   0.933   0.622  2.3269 -0.4708 -1.2544
 2622TP3      O19684   4.244   1.937   0.776  0.2637 -0.4837 -0.4766
 2622TP3     H119685   4.271   1.891   0.697  0.0041  0.8516 -1.3691
 2622TP3     H219686   4.166   1.985   0.750 -1.2445 -1.8429  1.2309
 2623TP3      O19687   5.052   0.442   8.634  0.1722  0.8099  0.2465
 2623TP3     H119688   5.079   0.359   8.673 -0.8923  0.5710  0.4841
 2623TP3     H219689   5.100   0.446   8.551 -0.8165 -0.7137 -0.4379
 2624TP3      O19690   1.060   1.742   7.647  1.3575 -0.9339  0.3353
 2624TP3     H119691   0.975   1.785   7.659  1.6011 -0.9420  2.4621
 2624TP3     H219692   1.114   1.808   7.603 -0.2204 -1.6077 -2.9749
 2625TP3      O19693   0.830   2.694   8.604  0.3522 -0.0357 -0.1306
 2625TP3     H119694   0.774   2.696   8.682  2.1124  1.0948  1.2083
 2625TP3     H219695   0.838   2.786   8.578  1.3158 -0.1967 -0.4505
 2626TP3      O19696   1.202   0.348   8.846 -0.0127  0.1664  0.0333
 2626TP3     H119697   1.120   0.354   8.797  0.5315 -1.1950 -1.1127
 2626TP3     H219698   1.269   0.373   8.783  0.5564  0.1337  0.6217
 2627TP3      O19699   4.548   1.237   9.330 -0.3545 -0.5006 -0.0899
 2627TP3     H119700   4.548   1.200   9.418 -1.1696 -0.9782 -0.2823
 2627TP3     H219701   4.606   1.179   9.280  1.9671  1.0532  0.6145
 2628TP3      O19702   3.295   1.400   2.363  0.0550  0.1743  0.2139
 2628TP3     H119703   3.244   1.347   2.425 -0.2847  0.1136 -0.1153
 2628TP3     H219704   3.289   1.489   2.398  0.6453 -0.0002  0.7784
 2629TP3      O19705   1.361   2.818   0.333  0.2465  0.2866  0.1361
 2629TP3     H119706   1.302   2.851   0.401  0.0502 -2.0784  1.2174
 2629TP3     H219707   1.430   2.772   0.380  1.4967  0.6829 -1.2148
 2630TP3      O19708   3.571   2.114   8.657 -0.0064  0.1409  0.2886
 2630TP3     H119709   3.532   2.064   8.586  0.3807 -2.5031  1.8191
 2630TP3     H219710   3.661   2.130   8.629 -0.1425  0.0046 -0.2297
 2631TP3      O19711   2.012   1.969  10.005 -0.1037 -0.5132  0.3044
 2631TP3     H119712   1.942   2.001  10.062 -0.2518  1.6645 -0.9783
 2631TP3     H219713   2.069   1.918  10.063 -1.3933 -0.2239  1.9019
 2632TP3      O19714   3.593   4.690   9.599 -0.0184 -0.5903  0.1170
 2632TP3     H119715   3.517   4.658   9.549 -0.4070 -2.4128  1.7681
 2632TP3     H219716   3.664   4.632   9.574  0.3600 -0.0913  0.0233
 2633TP3      O19717   3.037   2.179   1.699  0.3874  0.0129  0.3544
 2633TP3     H119718   3.103   2.228   1.650  1.8610  0.4441  2.6382
 2633TP3     H219719   3.078   2.093   1.714 -0.2655 -0.3003  0.3693
 2634TP3      O19720   0.506   0.501   1.867 -0.3186  0.4378  0.8982
 2634TP3     H119721   0.511   0.456   1.951 -1.6434  0.3262  0.9405
 2634TP3     H219722   0.468   0.587   1.888 -1.7729 -0.0219  0.3077
 2635TP3      O19723   1.332   1.639   7.562  0.3167 -0.4539  0.0095
 2635TP3     H119724   1.389   1.659   7.487  1.1453 -0.3470  0.6575
 2635TP3     H219725   1.247   1.676   7.538  0.8517  0.5161 -0.4171
 2636TP3      O19726   2.076   2.456   7.441  0.6369 -0.6743  0.4621
 2636TP3     H119727   2.091   2.494   7.355  0.5588  0.6304  0.9968
 2636TP3     H219728   2.038   2.370   7.423  1.4995 -0.8182 -0.8032
 2637TP3      O19729   2.641   3.931   9.257 -0.0900  0.0160 -0.5284
 2637TP3     H119730   2.597   3.919   9.173  2.1343  0.8574 -1.9114
 2637TP3     H219731   2.728   3.892   9.244  0.0430 -0.5680  1.6827
 2638TP3      O19732   1.310   3.978   8.004  0.1807 -0.2580  0.6471
 2638TP3     H119733   1.276   4.050   8.056 -0.6727  0.3046 -0.6669
 2638TP3     H219734   1.405   3.983   8.016 -0.0163 -0.9001  3.0954
 2639TP3      O19735   0.276   1.552   2.186  0.9618  0.1738  0.2769
 2639TP3     H119736   0.211   1.552   2.116 -0.1198 -2.5712  1.1581
 2639TP3     H219737   0.251   1.626   2.242  0.6415  1.1752 -1.1326
 2640TP3      O19738   4.537   0.693   7.496 -0.2598 -0.2473 -0.2030
 2640TP3     H119739   4.495   0.748   7.430 -1.7181 -0.1059  0.8109
 2640TP3     H219740   4.487   0.611   7.494 -1.2359  0.2495  1.6444
 2641TP3      O19741   5.260   5.136   9.412 -0.4087 -0.5528  0.3099
 2641TP3     H119742   5.226   5.047   9.418 -0.9326 -0.2618  2.6285
 2641TP3     H219743   5.198   5.182   9.356  0.1738 -1.7408 -1.3709
 2642TP3      O19744   2.855   2.419   9.997  0.2549 -0.9304  0.0323
 2642TP3     H119745   2.808   2.457  10.071 -0.7830  1.9061 -1.9234
 2642TP3     H219746   2.835   2.325  10.002 -1.2194 -0.5816  2.3019
 2643TP3      O19747   5.257   1.627   3.049 -0.0388 -0.3665 -0.2606
 2643TP3     H119748   5.341   1.667   3.071 -0.2516  0.2789 -0.6041
 2643TP3     H219749   5.241   1.653   2.959 -1.2209  0.6141  0.2077
 2644TP3      O19750   1.895   4.122   0.222  0.5816 -0.0356 -0.4885
 2644TP3     H119751   1.816   4.100   0.174  1.0835  2.0318 -2.3892
 2644TP3     H219752   1.864   4.150   0.308 -0.5416 -1.1842 -0.4806
 2645TP3      O19753   4.989   4.611   2.361 -0.0578  0.6195  0.0172
 2645TP3     H119754   4.946   4.602   2.276 -2.4243 -1.8910  1.3183
 2645TP3     H219755   4.962   4.533   2.410  0.0637  2.5953  3.5626
 2646TP3      O19756   0.664   4.456   7.925  0.4756  0.1309 -0.1342
 2646TP3     H119757   0.678   4.481   8.017 -1.6422  0.8742  0.0360
 2646TP3     H219758   0.717   4.377   7.914 -0.1486 -0.6781  2.0838
 2647TP3      O19759   0.869   4.584   9.665 -0.0977  0.0885  0.2093
 2647TP3     H119760   0.955   4.625   9.671 -0.0353  0.0373 -0.2914
 2647TP3     H219761   0.882   4.495   9.698  0.7260 -0.9014 -2.5604
 2648TP3      O19762   3.985   1.400   8.368 -0.7700  0.5727  0.3149
 2648TP3     H119763   4.068   1.388   8.322 -1.3160  0.8040 -0.7667
 2648TP3     H219764   3.983   1.493   8.390 -0.7825  0.5811  0.2773
 2649TP3      O19765   3.636   0.863   0.237 -0.1108  0.0377  0.5068
 2649TP3     H119766   3.588   0.893   0.160  1.6846  0.8067 -0.3659
 2649TP3     H219767   3.612   0.925   0.306 -2.0051 -0.8587  0.7244
 2650TP3      O19768   0.972   4.458   0.105 -0.0326 -0.6106 -0.0002
 2650TP3     H119769   1.059   4.450   0.067 -0.2927  0.3639 -0.8614
 2650TP3     H219770   0.921   4.505   0.039 -0.9630 -0.3575  0.8621
 2651TP3      O19771   0.957   4.392   9.919 -0.0160 -0.3384 -0.8423
 2651TP3     H119772   1.025   4.440   9.966  0.5633 -0.5260 -1.4711
 2651TP3     H219773   0.875   4.426   9.955  0.3781  0.8811 -1.0247
 2652TP3      O19774   4.112   2.652   8.772  0.1458  0.7687  0.2927
 2652TP3     H119775   4.088   2.594   8.700 -1.2714  2.1300 -0.3840
 2652TP3     H219776   4.079   2.738   8.746  0.2671  1.4494  2.2286
 2653TP3      O19777   4.349   3.573   2.053 -0.0682 -0.0501  0.4988
 2653TP3     H119778   4.326   3.493   2.102  2.1651 -0.6173  0.7622
 2653TP3     H219779   4.306   3.644   2.101 -1.6937 -1.0211  0.5548
 2654TP3      O19780   3.889   2.090   9.419  0.3042  0.1123  0.0805
 2654TP3     H119781   3.865   2.047   9.336  2.4045 -1.1023  0.0511
 2654TP3     H219782   3.917   2.019   9.476  1.4261  1.1988  0.9339
 2655TP3      O19783   0.180   4.919   2.159 -0.3203 -0.0771 -0.7207
 2655TP3     H119784   0.245   4.915   2.089 -0.1688  1.0527 -0.6752
 2655TP3     H219785   0.110   4.974   2.124 -1.1182 -1.0378 -0.6552
 2656TP3      O19786   4.530   4.782   1.262  0.1043  0.3341 -0.1462
 2656TP3     H119787   4.504   4.850   1.324 -0.8022  0.7506 -0.9513
 2656TP3     H219788   4.475   4.798   1.184 -0.6841 -1.7581 -0.0888
 2657TP3      O19789   4.791   3.637   7.249 -0.0704  0.9279  0.3936
 2657TP3     H119790   4.732   3.562   7.250  0.7017  0.2959 -0.3267
 2657TP3     H219791   4.771   3.685   7.330 -1.1775  0.4333  0.4192
 2658TP3      O19792   3.552   0.495   9.693  0.2851 -0.4712  0.5033
 2658TP3     H119793   3.499   0.563   9.735  0.5842  0.0005  0.1233
 2658TP3     H219794   3.628   0.484   9.750  0.4260 -0.2150  0.3634
 2659TP3      O19795   2.571   3.256   0.440 -0.0637 -0.0320 -0.0719
 2659TP3     H119796   2.486   3.246   0.484 -1.9272 -1.3750 -3.5841
 2659TP3     H219797   2.567   3.342   0.398 -0.4039 -0.6858 -1.4547
 2660TP3      O19798   4.686   0.113   8.479 -0.5455 -0.1555  0.1585
 2660TP3     H119799   4.680   0.105   8.574 -2.1820  1.0729  0.2013
 2660TP3     H219800   4.598   0.138   8.452 -0.4017 -1.5452 -1.8203
 2661TP3      O19801   3.827   3.723   1.868 -0.3245  0.0077 -0.2594
 2661TP3     H119802   3.867   3.639   1.890  0.8497  0.5513 -0.2509
 2661TP3     H219803   3.840   3.732   1.773  0.0341  0.4264 -0.1726
 2662TP3      O19804   3.563   4.708   8.330 -0.3122 -0.1311  0.3667
 2662TP3     H119805   3.498   4.662   8.278 -0.4924  1.4253 -0.8539
 2662TP3     H219806   3.516   4.735   8.409 -0.9331  0.3150 -0.1555
 2663TP3      O19807   2.870   0.780   9.786  0.0027 -1.2872  0.2991
 2663TP3     H119808   2.827   0.817   9.709 -0.8963 -0.9792  0.9243
 2663TP3     H219809   2.960   0.765   9.759 -0.1335 -0.5656 -0.6043
 2664TP3      O19810   4.804   4.519   3.115  0.0778  0.0638  0.0682
 2664TP3     H119811   4.879   4.483   3.067  0.7141  2.2837 -0.7333
 2664TP3     H219812   4.842   4.590   3.167 -0.9139 -1.0857  2.4977
 2665TP3      O19813   0.655   2.493   6.459  0.1202  0.2425  0.3232
 2665TP3     H119814   0.619   2.579   6.478  0.2413  0.3520  0.0618
 2665TP3     H219815   0.580   2.442   6.428  0.4171  0.8935 -1.6244
 2666TP3      O19816   3.003   0.292   7.947  0.1073  0.0179  0.0195
 2666TP3     H119817   3.065   0.267   8.015  0.9698 -1.1255 -1.1423
 2666TP3     H219818   2.931   0.230   7.956  0.5027 -0.5252 -0.4703
 2667TP3      O19819   3.965   3.776   8.866 -0.0798 -0.3238  0.2759
 2667TP3     H119820   3.926   3.833   8.800 -1.3761  0.4085  1.6059
 2667TP3     H219821   4.040   3.826   8.899  0.3385 -0.5268 -0.3488
 2668TP3      O19822   4.118   0.287   8.704 -0.0355  0.1005  0.1740
 2668TP3     H119823   4.041   0.330   8.741 -0.4222  0.0504 -0.5491
 2668TP3     H219824   4.192   0.325   8.751 -0.5076  0.1135  0.9077
 2669TP3      O19825   3.188   1.211   1.879 -0.2658  0.1016 -0.3680
 2669TP3     H119826   3.242   1.232   1.955  0.8473 -1.7781 -0.5854
 2669TP3     H219827   3.233   1.254   1.806  0.3356 -0.5405 -0.3823
 2670TP3      O19828   1.205   2.143   7.634 -0.3621  0.1973 -0.3761
 2670TP3     H119829   1.183   2.157   7.726  1.0204 -2.3515  0.4548
 2670TP3     H219830   1.300   2.156   7.630 -0.4370  0.4708 -1.4803
 2671TP3      O19831   4.143   1.317   0.689  0.0591 -0.3754 -0.0905
 2671TP3     H119832   4.123   1.225   0.670 -0.1077 -0.3331 -0.1149
 2671TP3     H219833   4.078   1.367   0.641 -0.5852 -0.2760  0.8554
 2672TP3      O19834   4.040   0.015   3.662 -0.1418  0.0573 -0.6574
 2672TP3     H119835   3.966   0.066   3.628 -3.1109 -1.8149  2.2566
 2672TP3     H219836   4.015  -0.076   3.645 -0.0529 -0.7645  2.8832
 2673TP3      O19837   5.005   2.289   2.516  0.2079  0.2018 -0.6524
 2673TP3     H119838   5.014   2.328   2.428 -1.4678 -1.2819 -1.5463
 2673TP3     H219839   5.089   2.247   2.532  1.0335  1.6744 -0.8961
 2674TP3      O19840   4.510   5.073   2.376 -0.0895 -0.2715  0.2977
 2674TP3     H119841   4.591   5.025   2.361 -0.3648 -0.3296 -1.0874
 2674TP3     H219842   4.468   5.026   2.448 -0.6217 -2.5223 -1.3818
 2675TP3      O19843   0.074   3.648   1.568  0.6189  0.3438 -0.0386
 2675TP3     H119844   0.088   3.554   1.565  1.8128  0.5088 -0.2237
 2675TP3     H219845   0.071   3.675   1.477  0.9973  0.5729  0.0131
 2676TP3      O19846   0.927   2.231   6.860 -0.3689 -0.3664 -0.4224
 2676TP3     H119847   0.912   2.296   6.791 -0.1201 -0.2775 -0.3925
 2676TP3     H219848   1.003   2.264   6.907  1.0035 -1.7065 -1.6222
 2677TP3      O19849   2.417   1.503   2.693 -0.3053  0.0771 -0.5939
 2677TP3     H119850   2.439   1.501   2.599 -0.8095  0.9370 -0.7427
 2677TP3     H219851   2.347   1.440   2.702  0.7630 -1.1432 -0.4994
 2678TP3      O19852   1.663   1.135   1.446 -0.1446  0.0511 -0.0101
 2678TP3     H119853   1.574   1.170   1.444  0.3731  1.5551 -3.5339
 2678TP3     H219854   1.720   1.213   1.446  1.1909 -0.8727  1.3883
 2679TP3      O19855   4.727   4.378   0.748 -0.7801 -0.1010 -0.3480
 2679TP3     H119856   4.680   4.336   0.676 -0.6022  1.0529 -1.1623
 2679TP3     H219857   4.794   4.431   0.705  0.9608 -1.2739  0.7501
 2680TP3      O19858   1.498   3.114   1.637 -0.0464 -0.0375  0.1837
 2680TP3     H119859   1.463   3.203   1.642  0.9221  0.9447 -4.9695
 2680TP3     H219860   1.422   3.058   1.621 -0.3656  0.3663  0.2984
 2681TP3      O19861   2.951   3.665   8.501 -0.0898  0.3770 -0.5701
 2681TP3     H119862   3.038   3.674   8.540 -0.6807 -0.2113  0.9589
 2681TP3     H219863   2.902   3.740   8.536 -0.9123 -0.7016  0.6756
 2682TP3      O19864   4.342   3.098   8.382  0.0819 -0.3570 -0.1068
 2682TP3     H119865   4.436   3.087   8.394  0.2607  0.5018 -0.6051
 2682TP3     H219866   4.321   3.042   8.308 -0.0687 -1.6079  0.8424
 2683TP3      O19867   3.647   4.486   2.094  0.1893  0.6986  0.6043
 2683TP3     H119868   3.657   4.498   1.999  0.1082  0.7274  0.5992
 2683TP3     H219869   3.615   4.396   2.104  1.1417  0.3536  0.6646
 2684TP3      O19870   4.632   0.575   8.818 -0.3065  0.4218 -0.1465
 2684TP3     H119871   4.612   0.497   8.766  1.9057 -0.2420 -0.1111
 2684TP3     H219872   4.722   0.597   8.795  0.6741  0.3226  3.0559
 2685TP3      O19873   1.218   1.995   8.540  0.0742 -0.2887 -0.0413
 2685TP3     H119874   1.307   1.992   8.504 -0.2242  1.3925 -1.0505
 2685TP3     H219875   1.230   2.018   8.632  0.7089 -1.1507  0.1054
 2686TP3      O19876   5.040   1.517   9.557 -0.3990 -0.3717  0.1878
 2686TP3     H119877   5.036   1.439   9.503 -0.4170  0.9767 -1.8914
 2686TP3     H219878   5.134   1.537   9.565 -0.4072  1.4765 -2.6817
 2687TP3      O19879   1.627   4.769   7.223 -0.2549  0.3741 -0.1708
 2687TP3     H119880   1.605   4.796   7.133 -1.1713 -0.0722 -0.0896
 2687TP3     H219881   1.603   4.677   7.227 -0.8496  0.5544  0.7311
 2688TP3      O19882   3.232   4.358   8.035 -0.6295 -0.3534 -0.6242
 2688TP3     H119883   3.316   4.352   7.989  0.9741 -0.3222  2.0475
 2688TP3     H219884   3.229   4.278   8.088 -1.6075  0.2973  0.3467
 2689TP3      O19885   0.126   3.061   2.589  0.4338 -0.5365 -0.8470
 2689TP3     H119886   0.197   2.997   2.598  1.3941  0.5439 -0.5364
 2689TP3     H219887   0.068   3.044   2.663  0.7302 -0.9741 -0.7146
 2690TP3      O19888   3.156   5.112   0.252 -0.4400  0.5048  0.0971
 2690TP3     H119889   3.150   5.140   0.343  0.5798  0.5998  0.1472
 2690TP3     H219890   3.140   5.018   0.255  2.7207 -0.1063  0.8361
 2691TP3      O19891   2.755   5.213   9.732  0.0300  1.0126 -0.0127
 2691TP3     H119892   2.693   5.267   9.684 -1.0400  0.1069  0.3113
 2691TP3     H219893   2.797   5.159   9.665  0.8066  1.9208 -0.2846
 2692TP3      O19894   3.682   1.493   1.745  0.2799  0.1537 -0.2459
 2692TP3     H119895   3.639   1.408   1.737  1.3658 -0.4895  0.5049
 2692TP3     H219896   3.773   1.475   1.724  0.7772  0.8604  1.1974
 2693TP3      O19897   3.700   3.292   9.917  0.5795  0.2434 -0.0102
 2693TP3     H119898   3.622   3.241   9.939  1.3742 -0.8239  0.4295
 2693TP3     H219899   3.751   3.235   9.861  0.9691  1.0075 -0.4461
 2694TP3      O19900   0.129   3.710   2.414 -1.0835  0.1175  0.3520
 2694TP3     H119901   0.052   3.731   2.467 -1.3742 -0.0167 -0.0099
 2694TP3     H219902   0.200   3.702   2.477 -1.1849  1.0879  0.6048
 2695TP3      O19903   5.069   5.018   1.398  0.6548 -0.1796 -0.3383
 2695TP3     H119904   5.100   4.986   1.313  0.3698  1.0448 -0.9171
 2695TP3     H219905   4.980   4.983   1.406  0.3027  0.5369 -1.0210
 2696TP3      O19906   5.284   2.362   9.378  0.2241  0.5558  0.7764
 2696TP3     H119907   5.365   2.405   9.402  1.9468 -2.2946  0.5458
 2696TP3     H219908   5.307   2.308   9.303 -1.5867 -1.1147  1.3298
 2697TP3      O19909   3.930   1.687   8.343 -0.1278 -0.2517  0.3269
 2697TP3     H119910   4.010   1.722   8.305 -1.1344  0.8479 -0.8458
 2697TP3     H219911   3.890   1.636   8.273 -0.6701 -0.4322  0.7595
 2698TP3      O19912   2.550   1.145   0.205  0.3663  0.6450 -0.0322
 2698TP3     H119913   2.458   1.121   0.221  0.1008  1.3880 -0.3890
 2698TP3     H219914   2.593   1.062   0.184 -0.3620  0.3645 -0.4761
 2699TP3      O19915   1.791   1.928   1.740  0.2459  0.4461  0.0361
 2699TP3     H119916   1.831   2.012   1.763  1.8764  0.2156 -1.7230
 2699TP3     H219917   1.703   1.951   1.710  0.0483  1.3044  1.1952
 2700TP3      O19918   3.285   4.392   1.132 -0.0160 -0.2571  0.5277
 2700TP3     H119919   3.302   4.400   1.038 -0.3976 -3.9293  0.0016
 2700TP3     H219920   3.194   4.421   1.142  1.1188  3.9584  0.6138
 2701TP3      O19921   1.714   2.326   0.006  0.8574 -0.1895  0.3504
 2701TP3     H119922   1.796   2.375   0.015  0.2332  1.1540 -0.8019
 2701TP3     H219923   1.646   2.394   0.004 -0.3622 -1.2952  1.8397
 2702TP3      O19924   2.064   3.739   2.263 -0.8135 -0.2676  0.4621
 2702TP3     H119925   2.137   3.698   2.309  0.9324  0.1865 -1.7236
 2702TP3     H219926   2.082   3.723   2.170 -2.6004  1.3250 -0.2315
 2703TP3      O19927   4.237   4.735   1.017  0.0300 -0.1707  0.0211
 2703TP3     H119928   4.204   4.674   1.083 -1.6535 -0.8059 -1.3194
 2703TP3     H219929   4.182   4.718   0.940  0.3953  2.1226 -0.8123
 2704TP3      O19930   0.267   4.906   0.894  0.1927 -0.4165  0.6793
 2704TP3     H119931   0.320   4.829   0.874  1.3918  0.7175 -0.7664
 2704TP3     H219932   0.315   4.979   0.855 -1.0317  1.0491  1.7824
 2705TP3      O19933   1.114   2.776   8.664 -0.0195  0.2746 -0.2883
 2705TP3     H119934   1.201   2.811   8.686 -0.3174  1.0070 -0.2425
 2705TP3     H219935   1.132   2.695   8.617  0.7008  0.5835 -0.5608
 2706TP3      O19936   4.159   0.761   2.883 -0.0271  0.7661 -0.0117
 2706TP3     H119937   4.217   0.693   2.848 -1.1692  0.4212 -1.3317
 2706TP3     H219938   4.146   0.737   2.975  1.5754  0.6343  0.1943
 2707TP3      O19939   2.411   3.918   2.993 -0.0372  0.4871  0.1664
 2707TP3     H119940   2.448   3.971   3.064 -0.0101 -0.0870  0.5883
 2707TP3     H219941   2.318   3.912   3.013 -0.5103  2.3705 -1.1786
 2708TP3      O19942   4.272   3.664   0.907 -0.0906 -0.0517 -0.4392
 2708TP3     H119943   4.229   3.748   0.890 -1.0286 -0.2421  0.8373
 2708TP3     H219944   4.361   3.688   0.933 -0.3489  0.5551 -0.0885
 2709TP3      O19945   3.827   3.314   0.163 -0.3155 -0.0522  0.0555
 2709TP3     H119946   3.878   3.261   0.101  0.0909 -0.3814  0.6608
 2709TP3     H219947   3.882   3.318   0.241  0.5189  2.7731 -0.5529
 2710TP3      O19948   5.126   3.151   6.693  0.2251 -0.1102  0.8488
 2710TP3     H119949   5.068   3.080   6.663 -1.2279  1.5088 -0.4212
 2710TP3     H219950   5.207   3.138   6.645 -0.6924  0.1137 -0.8543
 2711TP3      O19951   1.863   4.183   1.652 -0.3111 -0.0113  0.0525
 2711TP3     H119952   1.815   4.121   1.707 -0.5608  2.0298  2.3188
 2711TP3     H219953   1.807   4.260   1.649  0.5734  0.6048 -1.5453
 2712TP3      O19954   3.839   2.479   7.695 -0.4426  0.3367  0.0151
 2712TP3     H119955   3.799   2.414   7.753 -0.5958  0.5329  0.1263
 2712TP3     H219956   3.865   2.550   7.753 -0.1982  0.3390 -0.0973
 2713TP3      O19957   4.185   2.623   1.809  0.0590 -0.2755  0.0631
 2713TP3     H119958   4.265   2.583   1.775 -0.7792 -2.0025  0.0613
 2713TP3     H219959   4.148   2.558   1.868 -1.6649  0.2377 -0.3856
 2714TP3      O19960   4.319   3.483   9.849  1.1535  0.4886  0.7076
 2714TP3     H119961   4.355   3.572   9.837  2.3599  0.2713  2.2230
 2714TP3     H219962   4.325   3.443   9.763 -1.0071  2.3864 -0.4381
 2715TP3      O19963   1.792   1.046   9.128 -0.6031 -0.6024  0.2909
 2715TP3     H119964   1.809   1.140   9.130  1.0226 -0.8249 -1.1830
 2715TP3     H219965   1.736   1.033   9.052  0.2184 -0.9543 -0.2666
 2716TP3      O19966   0.842   2.860   0.408 -0.1787 -0.2401 -0.1879
 2716TP3     H119967   0.815   2.929   0.347  0.2724  0.1001 -0.0093
 2716TP3     H219968   0.791   2.784   0.383 -0.5842  0.1262 -0.4755
 2717TP3      O19969   3.064   2.247   8.743  0.4011  0.0478 -0.0762
 2717TP3     H119970   3.133   2.196   8.702  0.3901 -1.7102  1.9132
 2717TP3     H219971   3.106   2.330   8.767  1.2994 -0.2477 -0.5822
 2718TP3      O19972   1.682   3.552   7.816  0.1260 -0.0355  0.2737
 2718TP3     H119973   1.725   3.611   7.878  1.3586 -0.0782 -0.5058
 2718TP3     H219974   1.726   3.569   7.733 -2.8707  1.5387 -1.1325
 2719TP3      O19975   1.589   4.339   9.300 -0.6576 -0.4436 -0.2279
 2719TP3     H119976   1.684   4.339   9.305 -0.5898 -1.1981 -1.2608
 2719TP3     H219977   1.567   4.420   9.254 -0.5105 -0.3303 -0.0984
 2720TP3      O19978   4.735   0.066   7.344 -0.5308  0.4068  0.1936
 2720TP3     H119979   4.809   0.008   7.361 -0.8442  0.3431  1.5004
 2720TP3     H219980   4.700   0.038   7.260 -0.4162 -1.0116  0.5988
 2721TP3      O19981   5.114   3.435   9.564  0.1322 -0.1778 -0.2810
 2721TP3     H119982   5.113   3.355   9.512 -0.4882 -0.4439  0.1368
 2721TP3     H219983   5.205   3.444   9.592 -0.3198 -2.4924  2.3457
 2722TP3      O19984   1.657   1.676   1.767 -0.7537 -0.7824 -0.3301
 2722TP3     H119985   1.711   1.754   1.781  1.1545 -1.8464 -1.2883
 2722TP3     H219986   1.575   1.710   1.730  0.1180  0.7625 -0.9506
 2723TP3      O19987   4.357   0.555   9.177  0.4092 -0.1058  0.0195
 2723TP3     H119988   4.423   0.499   9.135  1.1591  0.5421  0.3001
 2723TP3     H219989   4.277   0.540   9.127 -0.1043 -3.2507  1.5073
 2724TP3      O19990   4.130   1.629   8.874 -0.2019  0.4601  0.0500
 2724TP3     H119991   4.178   1.600   8.951  1.7500 -1.1665 -1.6526
 2724TP3     H219992   4.163   1.717   8.857  1.5342 -0.2521 -0.5057
 2725TP3      O19993   4.281   0.082   9.896 -0.2539  0.2979  0.7295
 2725TP3     H119994   4.370   0.084   9.930 -0.2840  0.2301  0.8131
 2725TP3     H219995   4.227   0.056   9.971 -0.2464 -0.5045  0.4726
 2726TP3      O19996   3.546   0.390   1.775  0.3252  0.1910  0.9934
 2726TP3     H119997   3.537   0.417   1.867  0.2603 -0.2485  1.1161
 2726TP3     H219998   3.464   0.345   1.756 -0.6278  2.1679  0.0681
 2727TP3      O19999   0.936   1.324   8.118 -0.5509  0.1826  0.1761
 2727TP3     H120000   0.915   1.232   8.100 -1.2854  0.7157 -1.9343
 2727TP3     H220001   0.912   1.336   8.210  0.5669 -1.9856  0.8085
 2728TP3      O20002   4.049   3.618   0.358  0.2374  0.2950  1.0254
 2728TP3     H120003   3.995   3.539   0.351 -0.8618  1.1577 -3.1228
 2728TP3     H220004   4.137   3.590   0.333  0.2350  0.1309  1.1929
 2729TP3      O20005   4.073   1.234   2.016  0.1520  0.5037 -0.3527
 2729TP3     H120006   4.159   1.252   1.979  0.0462  0.1267 -0.8008
 2729TP3     H220007   4.082   1.254   2.109  1.0501 -0.5972 -0.1797
 2730TP3      O20008   0.082   1.507   7.461 -0.0801  0.2808  0.0851
 2730TP3     H120009   0.011   1.551   7.508  0.7182  2.3909 -0.5421
 2730TP3     H220010   0.082   1.548   7.374  1.2687 -0.3847 -0.2549
 2731TP3      O20011   4.662   2.439   7.999 -0.5414  0.0454 -0.7182
 2731TP3     H120012   4.676   2.532   7.982 -2.7277  0.5569  0.0698
 2731TP3     H220013   4.668   2.399   7.912  0.0576  0.9606 -1.1180
 2732TP3      O20014   0.886   1.517   2.793  0.0329  0.5566 -0.5181
 2732TP3     H120015   0.822   1.546   2.857 -0.8334  1.6594 -1.8202
 2732TP3     H220016   0.891   1.589   2.730  2.0274  0.1952 -0.8450
 2733TP3      O20017   3.797   4.171   8.513  0.5028  0.2915  0.5937
 2733TP3     H120018   3.714   4.186   8.559  0.6467  0.4895  0.7899
 2733TP3     H220019   3.844   4.254   8.522 -0.2735  1.0351 -1.6081
 2734TP3      O20020   0.227   2.274   7.252  0.2806  0.2094 -0.0321
 2734TP3     H120021   0.207   2.361   7.217 -5.8596 -0.2908  1.0314
 2734TP3     H220022   0.243   2.220   7.175 -3.0085  1.0911 -1.5180
 2735TP3      O20023   4.364   3.194   1.958 -0.1377 -0.8046 -0.1623
 2735TP3     H120024   4.459   3.189   1.963 -0.0423 -0.0326 -0.9655
 2735TP3     H220025   4.343   3.160   1.871 -0.5951 -1.0116  0.0273
 2736TP3      O20026   4.606   3.560   9.564  0.2176  0.4582 -0.1632
 2736TP3     H120027   4.673   3.523   9.508  0.8863 -0.3310  1.1077
 2736TP3     H220028   4.653   3.615   9.626 -0.6243  2.3283 -1.1000
 2737TP3      O20029   5.135   1.719   8.225 -0.6618 -0.0322 -0.3935
 2737TP3     H120030   5.186   1.797   8.206 -0.7005  0.2208  0.4897
 2737TP3     H220031   5.110   1.684   8.139 -0.6130  0.9013 -0.7942
 2738TP3      O20032   2.073   0.065   8.366 -0.5191 -0.0661 -0.1953
 2738TP3     H120033   2.070   0.065   8.271  0.2994  3.8385 -0.3955
 2738TP3     H220034   2.129  -0.009   8.389 -0.4603 -0.8762 -2.7442
 2739TP3      O20035   0.519   1.999   2.193 -0.4004  0.4343 -0.2209
 2739TP3     H120036   0.498   1.919   2.241 -0.1149 -0.5403 -1.6279
 2739TP3     H220037   0.433   2.037   2.172 -0.5321  0.6950  0.7375
 2740TP3      O20038   1.759   2.986   9.178  0.4757 -0.5208  0.3798
 2740TP3     H120039   1.743   3.028   9.263  0.4795 -1.0721  0.6622
 2740TP3     H220040   1.849   3.008   9.157  0.0032  0.9386 -0.2550
 2741TP3      O20041   2.711   3.725   2.306 -0.1653 -0.0643  0.2845
 2741TP3     H120042   2.721   3.640   2.264 -0.2903 -0.8342  1.7668
 2741TP3     H220043   2.769   3.721   2.382 -1.0005  0.7635  0.9812
 2742TP3      O20044   3.610   3.199   8.124 -0.0197 -0.9245  0.4008
 2742TP3     H120045   3.645   3.287   8.139 -1.7522 -0.3069  1.0200
 2742TP3     H220046   3.678   3.141   8.159  0.8097  0.1692  0.6938
 2743TP3      O20047   4.553   0.654   2.701 -0.3974  0.0677 -0.4607
 2743TP3     H120048   4.638   0.641   2.659 -0.7549 -0.0269 -1.1670
 2743TP3     H220049   4.574   0.670   2.793  0.3573 -0.3677 -0.5524
 2744TP3      O20050   2.785   1.832   9.393  0.0754  0.2912  0.6225
 2744TP3     H120051   2.743   1.757   9.352  0.7612 -0.0422  0.5079
 2744TP3     H220052   2.842   1.793   9.460  3.0278  0.3762 -1.6023
 2745TP3      O20053   2.657   2.847   0.325  0.0872  0.1397 -0.1169
 2745TP3     H120054   2.616   2.932   0.306  0.8992  0.3855 -0.8168
 2745TP3     H220055   2.593   2.783   0.295 -0.5353  0.4975  0.4202
 2746TP3      O20056   4.470   1.235   1.033  0.4595 -0.5655 -0.5521
 2746TP3     H120057   4.502   1.230   0.943 -1.2348  0.9829 -1.3100
 2746TP3     H220058   4.458   1.144   1.059  1.0121 -1.0428 -1.8731
 2747TP3      O20059   1.459   2.565   2.245 -0.5631 -0.9185  0.0826
 2747TP3     H120060   1.479   2.658   2.230 -1.2227 -0.4439  1.7759
 2747TP3     H220061   1.534   2.518   2.210  0.7879  0.4153  1.0194
 2748TP3      O20062   2.160   4.980   1.259 -0.5441  0.0261 -0.2383
 2748TP3     H120063   2.115   4.992   1.343 -2.1480 -0.0650 -1.0530
 2748TP3     H220064   2.090   4.965   1.196  0.5920  0.7068 -1.7237
 2749TP3      O20065   2.503   4.925   9.565  0.6010  0.3782 -0.1431
 2749TP3     H120066   2.555   4.998   9.530  0.7591 -0.0324 -0.7909
 2749TP3     H220067   2.555   4.894   9.639  1.6619 -0.4547 -1.1846
 2750TP3      O20068   2.857   3.314   0.373 -0.5815  0.2395  0.0123
 2750TP3     H120069   2.932   3.374   0.380 -1.8170  2.1322 -1.7341
 2750TP3     H220070   2.787   3.357   0.423 -1.0169 -0.5984  0.1415
 2751TP3      O20071   1.596   2.853   1.037 -0.4308  0.6219  0.2614
 2751TP3     H120072   1.669   2.909   1.064 -1.0400  1.6736 -0.1872
 2751TP3     H220073   1.573   2.884   0.949 -0.3117 -0.8475 -0.3119
 2752TP3      O20074   1.567   0.951   1.107 -0.0556  0.4215  0.3774
 2752TP3     H120075   1.552   0.868   1.061 -1.3505 -0.1828  1.8080
 2752TP3     H220076   1.643   0.934   1.163 -0.6433  0.0222  1.0598
 2753TP3      O20077   2.145   3.573   3.058 -0.3679  0.3155  0.0109
 2753TP3     H120078   2.099   3.502   3.104 -1.0997  1.4501  1.1043
 2753TP3     H220079   2.184   3.625   3.128  2.9147 -0.7423 -0.8833
 2754TP3      O20080   0.174   2.267   0.940  0.3794 -0.2954  0.1121
 2754TP3     H120081   0.241   2.323   0.901 -0.1861  0.2866 -0.0323
 2754TP3     H220082   0.220   2.184   0.957  0.7793 -0.3745 -1.2571
 2755TP3      O20083   1.755   1.217   0.177 -0.6369 -0.0283  0.2325
 2755TP3     H120084   1.785   1.154   0.112  0.5863  0.8102 -0.0506
 2755TP3     H220085   1.664   1.194   0.193 -0.2830 -1.7073 -0.0337
 2756TP3      O20086   5.125   3.271   0.411 -0.6290 -0.6084 -0.5285
 2756TP3     H120087   5.073   3.304   0.484  0.5531 -0.1207  0.1222
 2756TP3     H220088   5.077   3.299   0.333  0.7489  3.7190 -0.1078
 2757TP3      O20089   2.706   0.436   9.897  0.1414  0.2410  0.0236
 2757TP3     H120090   2.668   0.355   9.862 -0.8061 -0.2152  1.9417
 2757TP3     H220091   2.773   0.460   9.833  0.4411 -2.0463 -0.6426
 2758TP3      O20092   0.414   2.125   9.716  0.0193  0.8791 -0.1566
 2758TP3     H120093   0.371   2.040   9.725 -1.1112  1.4527 -0.0518
 2758TP3     H220094   0.482   2.124   9.784  0.5596 -0.2450 -0.6800
 2759TP3      O20095   4.674   3.652   1.472 -0.5965  0.0302  0.3708
 2759TP3     H120096   4.585   3.686   1.472 -1.4951 -2.1263  0.9119
 2759TP3     H220097   4.699   3.648   1.380 -0.9787  0.7779  0.2268
 2760TP3      O20098   3.563   3.794   1.800  0.0074  0.3465 -0.5341
 2760TP3     H120099   3.564   3.882   1.838  3.5037  1.5641 -2.8459
 2760TP3     H220100   3.640   3.751   1.838 -0.8213 -1.2244 -0.5459
 2761TP3      O20101   3.782   3.368   0.609  0.2273  0.3052  0.0754
 2761TP3     H120102   3.828   3.294   0.650  0.7529  0.6652  0.1448
 2761TP3     H220103   3.700   3.375   0.656  1.0875  1.1247  1.5139
 2762TP3      O20104   0.080   4.657   2.052 -0.5365 -0.0400 -0.3022
 2762TP3     H120105   0.066   4.741   2.095 -1.1144 -0.0962 -0.3821
 2762TP3     H220106  -0.007   4.619   2.043 -0.2030 -1.0456  0.5247
 2763TP3      O20107   3.523   2.713   1.971  0.1592 -0.6691  0.4241
 2763TP3     H120108   3.585   2.782   1.992 -1.0689  0.2972  0.9462
 2763TP3     H220109   3.578   2.641   1.940  1.3643  1.3378 -2.5700
 2764TP3      O20110   4.376   1.854   0.125  0.1380 -0.1842  0.1807
 2764TP3     H120111   4.441   1.833   0.058  0.4380 -0.6370  0.6025
 2764TP3     H220112   4.418   1.921   0.178  1.1601 -1.9311  1.7181
 2765TP3      O20113   2.237   2.447   9.538 -0.0948 -0.0279 -0.0513
 2765TP3     H120114   2.200   2.456   9.626 -0.5023  2.0819 -0.3926
 2765TP3     H220115   2.329   2.425   9.553 -0.8426 -3.0259  0.8215
 2766TP3      O20116   2.610   4.800   7.985 -0.3363  0.4346 -0.2919
 2766TP3     H120117   2.654   4.825   8.067  3.1943 -1.9465 -1.2382
 2766TP3     H220118   2.631   4.871   7.924  1.9229 -0.3869 -0.5660
 2767TP3      O20119   0.647   4.057   3.247 -0.2846  0.2893  0.2946
 2767TP3     H120120   0.701   4.089   3.175 -1.9164  2.1585 -0.1756
 2767TP3     H220121   0.624   4.135   3.298 -2.0602 -0.4948  0.7828
 2768TP3      O20122   2.470   3.524   9.529  0.3881 -0.0684  0.0233
 2768TP3     H120123   2.440   3.473   9.454  1.2437  0.4713 -0.7190
 2768TP3     H220124   2.471   3.615   9.497  0.9697  0.1403  0.6084
 2769TP3      O20125   4.985   4.947   8.980 -0.0849 -0.3680 -0.0087
 2769TP3     H120126   4.904   4.905   9.006  1.0017 -3.0360 -0.5953
 2769TP3     H220127   5.048   4.875   8.971  1.2742  1.0046 -3.6139
 2770TP3      O20128   0.062   5.177   2.118  0.3592 -0.0554 -0.3607
 2770TP3     H120129  -0.013   5.226   2.085  1.1101  1.0155 -0.5184
 2770TP3     H220130   0.077   5.211   2.206 -0.2861 -1.3757  0.2992
 2771TP3      O20131   3.494   4.864   1.347  0.5449  0.1998 -0.0738
 2771TP3     H120132   3.587   4.886   1.349  0.8686 -1.1104  0.3033
 2771TP3     H220133   3.485   4.801   1.275  0.1806 -0.5762  0.6240
 2772TP3      O20134   1.357   2.930   7.674 -0.3531  0.7836 -0.7824
 2772TP3     H120135   1.411   2.950   7.751  1.0318  1.8119 -1.9750
 2772TP3     H220136   1.318   3.014   7.649 -0.7959  0.4583 -1.2160
 2773TP3      O20137   4.334   3.030   0.855 -0.5006  0.2297  0.3217
 2773TP3     H120138   4.358   2.947   0.814  0.3323 -1.3312  3.5859
 2773TP3     H220139   4.240   3.022   0.871 -0.6520  0.4588 -0.4165
 2774TP3      O20140   2.250   3.967   0.205 -0.1012  0.3485 -0.0478
 2774TP3     H120141   2.198   3.999   0.131 -0.4177  1.0549  0.4656
 2774TP3     H220142   2.296   3.890   0.171 -0.4334  0.5189 -0.9038
 2775TP3      O20143   3.046   2.592   2.250 -0.9093  0.0536  0.0420
 2775TP3     H120144   2.953   2.615   2.253 -0.5331  1.6034  0.8049
 2775TP3     H220145   3.090   2.663   2.296  0.6445 -0.7947 -0.0570
 2776TP3      O20146   3.815   3.932   8.429  0.0137 -0.6796  0.4005
 2776TP3     H120147   3.815   4.023   8.458 -0.7054 -0.3784 -0.4942
 2776TP3     H220148   3.881   3.889   8.483  0.6665  0.4692  0.5289
 2777TP3      O20149   1.025   3.878   2.412 -0.6948 -0.5970  0.2279
 2777TP3     H120150   1.069   3.917   2.487 -1.0711 -1.0609  0.7018
 2777TP3     H220151   1.044   3.785   2.419  1.2781 -0.4092 -1.6118
 2778TP3      O20152   3.439   4.086   2.492 -0.0504  0.1014  0.1138
 2778TP3     H120153   3.501   4.147   2.531 -0.4601  1.6177 -1.5138
 2778TP3     H220154   3.433   4.112   2.401 -0.0653 -2.5424 -0.7341
 2779TP3      O20155   0.288   1.240   0.291 -0.4838 -0.5848 -0.0720
 2779TP3     H120156   0.358   1.240   0.226  1.1194 -1.3543  1.5561
 2779TP3     H220157   0.316   1.175   0.356 -2.5302 -0.6182  0.8395
 2780TP3      O20158   4.316   1.964   1.942 -0.1915 -0.0348  0.4064
 2780TP3     H120159   4.291   2.056   1.928 -0.4290 -0.0062  1.0002
 2780TP3     H220160   4.318   1.927   1.854 -1.2346  0.2539  0.2407
 2781TP3      O20161   2.983   5.251   1.370 -0.1595 -0.0889 -0.1719
 2781TP3     H120162   3.017   5.276   1.456 -1.0130 -0.3664  0.2554
 2781TP3     H220163   3.055   5.203   1.330  0.2295 -0.0088  0.4100
 2782TP3      O20164   2.135   2.355   3.256  0.0329 -0.1991  0.1354
 2782TP3     H120165   2.115   2.262   3.248 -0.2674 -0.1017 -0.2505
 2782TP3     H220166   2.156   2.383   3.167 -0.9031  0.3355  0.0659
 2783TP3      O20167   4.016   4.369   9.896  0.0688 -0.4575  0.2701
 2783TP3     H120168   4.028   4.386   9.989  0.2192 -0.5832  0.2737
 2783TP3     H220169   4.029   4.455   9.854 -0.5193 -0.2978  0.4107
 2784TP3      O20170   3.002   1.355   7.448  0.2793 -0.1387  0.2296
 2784TP3     H120171   2.932   1.292   7.429  0.6805  0.3955 -4.1085
 2784TP3     H220172   2.971   1.402   7.525 -3.0082 -1.5126 -0.0680
 2785TP3      O20173   3.783   4.714   8.652  0.3868 -0.4804 -0.2003
 2785TP3     H120174   3.725   4.738   8.725 -1.8795 -1.6136 -1.4933
 2785TP3     H220175   3.817   4.628   8.676  1.7121  0.2354  0.6138
 2786TP3      O20176   3.550   0.190   0.632  0.0970  0.3638 -0.7850
 2786TP3     H120177   3.619   0.245   0.670  0.0121  1.3760 -2.0144
 2786TP3     H220178   3.594   0.141   0.563 -0.5084  1.4574 -1.9739
 2787TP3      O20179   2.428   0.562   2.764  1.5408  0.6114 -0.4152
 2787TP3     H120180   2.435   0.474   2.725  0.5700 -0.5864  1.9080
 2787TP3     H220181   2.338   0.589   2.746  0.8913 -0.2094  1.3569
 2788TP3      O20182   2.204   0.602   2.456  0.6811 -0.2895  0.0820
 2788TP3     H120183   2.154   0.647   2.388  0.8740  1.3387  0.9482
 2788TP3     H220184   2.251   0.533   2.410 -0.2359 -0.0964 -1.1981
 2789TP3      O20185   0.019   2.609   8.242 -0.0206 -0.4787 -0.7016
 2789TP3     H120186  -0.016   2.607   8.331  1.8640  0.4787  0.1137
 2789TP3     H220187  -0.010   2.693   8.206 -0.0004 -0.4474 -0.6451
 2790TP3      O20188   1.049   0.283   0.417  0.5341  0.1252 -0.3591
 2790TP3     H120189   1.041   0.322   0.503 -0.3715  1.5723 -1.0618
 2790TP3     H220190   1.034   0.356   0.356 -2.3012 -1.4326 -1.7420
 2791TP3      O20191   3.279   4.202   9.348  0.2795  0.7713 -0.4384
 2791TP3     H120192   3.328   4.120   9.358  0.2503  0.9730  1.8158
 2791TP3     H220193   3.289   4.224   9.255  1.1260 -1.2500 -0.8846
 2792TP3      O20194   0.188   1.576   0.075  0.6426  0.3239 -0.1294
 2792TP3     H120195   0.177   1.568  -0.020 -0.0806  1.8731 -0.2113
 2792TP3     H220196   0.130   1.510   0.112  0.2427  0.3100 -0.7615
 2793TP3      O20197   2.076   2.354   9.350  0.5203 -0.1441  0.2973
 2793TP3     H120198   2.141   2.342   9.280  0.0757  0.0808 -0.1672
 2793TP3     H220199   2.124   2.396   9.421  0.6938  0.7841 -0.3612
 2794TP3      O20200   0.011   4.798   0.652 -0.2678 -0.1144  0.4704
 2794TP3     H120201   0.080   4.864   0.652 -0.0535 -0.3286 -0.3085
 2794TP3     H220202   0.022   4.752   0.735 -0.3115  0.7073  0.9479
 2795TP3      O20203   0.694   2.541   3.109 -0.6940  0.2819 -0.1141
 2795TP3     H120204   0.769   2.484   3.129 -0.5792  0.2337 -0.6739
 2795TP3     H220205   0.691   2.544   3.013 -1.6516 -0.0340 -0.1018
 2796TP3      O20206   0.982   2.749   9.104  0.6360 -0.0800  0.3434
 2796TP3     H120207   0.930   2.828   9.119 -0.8510 -1.3023  2.0001
 2796TP3     H220208   1.073   2.780   9.106  0.0808  1.6736  0.2444
 2797TP3      O20209   4.552   5.076   0.911  0.1146 -0.0920 -0.5829
 2797TP3     H120210   4.518   5.046   0.827 -0.3731 -1.6337  0.1296
 2797TP3     H220211   4.628   5.130   0.888 -0.2623 -0.1380 -2.0197
 2798TP3      O20212   4.104   0.496   1.343 -0.2758 -0.2280 -0.4949
 2798TP3     H120213   4.091   0.417   1.396  2.7289  0.6207  1.8149
 2798TP3     H220214   4.037   0.557   1.373 -1.2446 -1.1551 -0.7241
 2799TP3      O20215   0.803   4.981   7.490 -0.7899  0.3496  0.4205
 2799TP3     H120216   0.754   4.899   7.475  0.4540 -0.3427  0.0121
 2799TP3     H220217   0.783   5.034   7.413  0.2195 -0.5157 -0.4695
 2800TP3      O20218   0.844   2.176   9.848 -0.3385 -0.1996 -0.5081
 2800TP3     H120219   0.866   2.242   9.914 -1.2286 -0.2648 -0.1191
 2800TP3     H220220   0.800   2.107   9.898 -2.0615  0.2631 -1.3077
 2801TP3      O20221   0.765   4.504   1.122  0.6804  0.4125  0.1729
 2801TP3     H120222   0.778   4.546   1.207 -0.8494 -1.2607  1.3059
 2801TP3     H220223   0.761   4.410   1.142 -1.0325  0.0496 -1.5396
 2802TP3      O20224   1.137   0.369   2.546 -0.0477  0.2418  0.2016
 2802TP3     H120225   1.232   0.371   2.538  0.0462 -0.5588  0.9800
 2802TP3     H220226   1.108   0.318   2.470  0.3812 -1.9839  1.4408
 2803TP3      O20227   0.418   1.294   7.459 -0.2873  0.5563 -0.5480
 2803TP3     H120228   0.480   1.357   7.423 -1.5261  2.9105  1.1212
 2803TP3     H220229   0.363   1.346   7.518 -1.9614 -1.9660  0.2897
 2804TP3      O20230   0.127   3.543   7.827 -0.4088 -0.4466  0.2652
 2804TP3     H120231   0.179   3.601   7.772 -1.6818  1.2410  0.7601
 2804TP3     H220232   0.060   3.508   7.769  1.0650 -2.4762 -0.3280
 2805TP3      O20233   0.204   0.665   2.082 -0.3052 -0.3631  0.7264
 2805TP3     H120234   0.246   0.715   2.011  0.1400  0.0993  1.3099
 2805TP3     H220235   0.243   0.700   2.162 -2.4602  0.7212  1.3734
 2806TP3      O20236   2.057   4.494   7.648  0.4041 -0.0876 -0.2436
 2806TP3     H120237   1.978   4.441   7.655  0.3857 -0.2063 -1.1901
 2806TP3     H220238   2.117   4.440   7.597  0.0148  1.2010 -2.1538
 2807TP3      O20239   1.753   3.778   2.945  0.6505  0.6823 -0.4246
 2807TP3     H120240   1.781   3.687   2.942  2.0536  1.0955 -0.8873
 2807TP3     H220241   1.834   3.827   2.959 -0.1298  1.8314  0.2077
 2808TP3      O20242   2.381   4.393   1.480  0.0148  0.0946 -0.0455
 2808TP3     H120243   2.323   4.414   1.553  0.7266 -2.6694  1.4556
 2808TP3     H220244   2.345   4.312   1.443  1.1874  0.0055 -1.0561
 2809TP3      O20245   1.732   4.974   9.144  0.0152 -0.3160  0.3590
 2809TP3     H120246   1.686   4.920   9.080  0.7777  1.1553 -1.5368
 2809TP3     H220247   1.809   4.923   9.168  0.5295 -0.2560 -1.1069
 2810TP3      O20248   3.747   2.340   1.659 -0.8323  0.2879  0.6461
 2810TP3     H120249   3.678   2.349   1.593  1.1257  1.5754 -1.3874
 2810TP3     H220250   3.828   2.351   1.610  0.8091 -0.0095  3.1152
 2811TP3      O20251   4.714   2.676   7.896  0.5523 -0.2323 -0.5845
 2811TP3     H120252   4.792   2.713   7.937 -0.0138 -0.2219  0.5078
 2811TP3     H220253   4.666   2.752   7.864  0.4891 -0.1761 -0.3528
 2812TP3      O20254   1.672   3.911   9.794 -0.2727 -0.4416  0.5067
 2812TP3     H120255   1.707   3.862   9.719 -2.2154  0.6263 -1.2039
 2812TP3     H220256   1.641   3.843   9.854 -0.0363 -1.3304 -0.3441
 2813TP3      O20257   4.142   3.900   2.868  0.1308 -0.5558  0.0670
 2813TP3     H120258   4.137   3.805   2.881 -2.0166 -0.6288 -0.8289
 2813TP3     H220259   4.145   3.937   2.956 -3.0603 -1.3748  0.6485
 2814TP3      O20260   1.029   3.168   9.272  0.4802 -0.4559  0.6004
 2814TP3     H120261   1.036   3.257   9.238 -0.5076 -0.6332 -0.1018
 2814TP3     H220262   1.112   3.127   9.248 -0.2077 -0.6066 -1.7710
 2815TP3      O20263   3.540   2.932   9.501  0.2882 -0.6167  0.1358
 2815TP3     H120264   3.521   2.938   9.407  0.6635 -0.0140  0.0956
 2815TP3     H220265   3.606   2.863   9.507  1.7045  0.6634 -0.2667
 2816TP3      O20266   0.474   2.439   2.034 -0.3661 -0.1823 -0.1677
 2816TP3     H120267   0.452   2.516   2.086 -1.1018  0.3289 -1.2100
 2816TP3     H220268   0.438   2.366   2.085 -2.7326  0.4594 -0.7843
 2817TP3      O20269   4.806   0.067   2.048 -0.2301 -0.3331 -0.3929
 2817TP3     H120270   4.750   0.059   2.125 -0.2649 -1.5377 -0.5251
 2817TP3     H220271   4.745   0.079   1.975 -0.1993  0.7548 -0.2519
 2818TP3      O20272   2.281   2.070   8.790  0.2458 -0.3507  0.0220
 2818TP3     H120273   2.274   2.045   8.883  0.0919  0.0991  0.1321
 2818TP3     H220274   2.288   2.165   8.792  0.0199 -0.3262 -0.4452
 2819TP3      O20275   2.491   3.319   8.041  0.0190 -0.2281 -0.0657
 2819TP3     H120276   2.436   3.396   8.057  0.4830 -0.0415  0.6372
 2819TP3     H220277   2.580   3.349   8.056  0.1820 -0.9941  0.5630
 2820TP3      O20278   2.965   2.671   8.781  0.5932 -0.0091  0.1832
 2820TP3     H120279   3.007   2.752   8.753 -1.5149  1.2854  0.5158
 2820TP3     H220280   3.009   2.602   8.732  1.5627  1.4704 -1.1071
 2821TP3      O20281   0.217   5.025   1.144  0.1203 -0.0750 -0.2124
 2821TP3     H120282   0.301   5.064   1.119  0.3460  0.3234  1.0897
 2821TP3     H220283   0.186   4.981   1.064  1.3380  0.1661 -0.8400
 2822TP3      O20284   3.234   4.467   1.692 -0.0665 -0.5172 -0.4815
 2822TP3     H120285   3.308   4.406   1.683  0.2595 -0.2348  0.1763
 2822TP3     H220286   3.164   4.413   1.729 -0.4709 -0.9787 -1.8520
 2823TP3      O20287   1.776   0.442   1.773 -0.9454  0.2052 -0.0648
 2823TP3     H120288   1.705   0.469   1.831  0.7393  1.0151  1.7436
 2823TP3     H220289   1.853   0.488   1.807  0.7209 -1.6803 -1.0895
 2824TP3      O20290   4.258   1.014   7.743 -0.2301 -0.0267 -0.2956
 2824TP3     H120291   4.227   1.061   7.821  1.0060 -1.2536  0.9668
 2824TP3     H220292   4.182   0.964   7.714 -0.3639 -0.5103  0.8573
 2825TP3      O20293   3.548   0.224   9.650  0.4238  0.3676 -0.4003
 2825TP3     H120294   3.636   0.256   9.669  0.3768  0.9745 -1.1706
 2825TP3     H220295   3.490   0.287   9.692  0.3453 -0.3988  0.6822
 2826TP3      O20296   1.784   2.916   8.270  0.8607  0.1335 -0.0082
 2826TP3     H120297   1.780   2.862   8.191 -0.8540  0.3986 -0.1501
 2826TP3     H220298   1.832   2.863   8.334 -0.2250 -1.2988 -0.3364
 2827TP3      O20299   1.078   0.743   0.110 -0.0975 -0.1593  0.2003
 2827TP3     H120300   1.054   0.835   0.101  0.6495 -0.0458 -0.8404
 2827TP3     H220301   1.036   0.715   0.192 -0.5885  1.0119  0.3701
 2828TP3      O20302   4.572   4.555   1.083 -0.0630 -0.1209 -0.1799
 2828TP3     H120303   4.581   4.635   1.135 -0.6615 -1.8807  2.8415
 2828TP3     H220304   4.660   4.540   1.047  0.5024  0.9031  0.7229
 2829TP3      O20305   5.122   5.010   0.085 -0.1389  0.0929  0.0103
 2829TP3     H120306   5.097   5.097   0.117 -0.1355 -0.1790  0.7596
 2829TP3     H220307   5.059   4.992   0.015 -0.3070  0.5826  0.0284
 2830TP3      O20308   3.819   3.029   9.778 -1.1188  0.1082  0.0648
 2830TP3     H120309   3.787   2.940   9.762  0.1056 -0.1803 -0.9473
 2830TP3     H220310   3.904   3.017   9.820 -1.5824  0.8373  1.2539
 2831TP3      O20311   5.248   4.160   1.290 -0.7400 -0.3108 -0.2447
 2831TP3     H120312   5.218   4.072   1.267 -1.7454 -0.2623  0.8281
 2831TP3     H220313   5.169   4.213   1.289 -0.1525  0.5748 -0.7769
 2832TP3      O20314   2.476   5.039   0.349  0.3672 -0.1641 -0.3307
 2832TP3     H120315   2.506   5.120   0.389 -0.5887 -0.1840  0.4463
 2832TP3     H220316   2.493   5.051   0.256 -0.2531  1.1569 -0.2989
 2833TP3      O20317   3.666   4.606   9.846 -0.0016 -0.0740 -0.0289
 2833TP3     H120318   3.690   4.523   9.807  4.0877  1.3372 -0.9490
 2833TP3     H220319   3.618   4.652   9.778  1.9808  0.1030 -1.3861
 2834TP3      O20320   4.676   3.710   9.798  0.1119 -0.3936 -0.3334
 2834TP3     H120321   4.769   3.714   9.820  0.2739  0.0241 -1.0532
 2834TP3     H220322   4.655   3.797   9.764 -0.3101 -0.7538 -1.0390
 2835TP3      O20323   0.716   4.330   1.515  0.0381 -0.3898 -0.4119
 2835TP3     H120324   0.633   4.293   1.486  0.2055 -0.2714 -1.0557
 2835TP3     H220325   0.696   4.420   1.539 -0.6949 -1.2689  2.6500
 2836TP3      O20326   2.223   1.300   2.506  0.5683  0.1081  0.4615
 2836TP3     H120327   2.257   1.215   2.534  0.8528  0.2722  0.6296
 2836TP3     H220328   2.297   1.341   2.462  1.5328  1.5724  3.1778
 2837TP3      O20329   2.289   5.174   2.462  0.4447 -0.0505 -0.2770
 2837TP3     H120330   2.375   5.133   2.470  0.9043  0.4661 -2.1365
 2837TP3     H220331   2.228   5.108   2.495  1.4860 -0.6954  0.4149
 2838TP3      O20332   2.580   3.635   9.189 -0.2337 -0.3860 -0.2195
 2838TP3     H120333   2.649   3.638   9.256 -0.9447  0.1505  0.5023
 2838TP3     H220334   2.517   3.572   9.222 -1.7162  1.4979  0.7741
 2839TP3      O20335   4.285   0.864   0.666 -0.3485  0.1132 -0.3824
 2839TP3     H120336   4.244   0.781   0.690  0.4554 -0.3959 -0.7001
 2839TP3     H220337   4.379   0.849   0.682 -0.0296  0.4511 -1.8478
 2840TP3      O20338   5.075   4.952   1.924 -0.4737  0.0540  0.2229
 2840TP3     H120339   5.002   4.896   1.901  0.9815 -1.8973  0.0777
 2840TP3     H220340   5.104   4.989   1.841 -1.2043  0.7329  0.2656
 2841TP3      O20341   1.939   2.639   7.583 -0.3585  0.1321  0.0378
 2841TP3     H120342   1.929   2.734   7.590  1.2118  0.3899 -0.7006
 2841TP3     H220343   2.029   2.627   7.551  0.1625 -1.6862  1.9968
 2842TP3      O20344   4.494   0.582   9.756  0.0426  0.3178 -0.2308
 2842TP3     H120345   4.466   0.670   9.732  0.2406  0.3477 -0.3499
 2842TP3     H220346   4.580   0.594   9.797  1.9911 -0.1809 -3.7753
 2843TP3      O20347   4.017   0.887   8.507  0.3337 -0.0103 -0.6451
 2843TP3     H120348   4.040   0.850   8.593  0.4783 -0.8390 -1.0321
 2843TP3     H220349   4.043   0.820   8.444 -1.1607 -0.0672 -1.2532
 2844TP3      O20350   1.111   0.288   1.535 -0.5937 -0.6413  0.2398
 2844TP3     H120351   1.077   0.214   1.585  0.7813  0.0507  2.2893
 2844TP3     H220352   1.045   0.356   1.545 -0.5417 -0.6593  0.7029
 2845TP3      O20353   0.290   2.978   3.046 -0.0623  0.1354 -0.0163
 2845TP3     H120354   0.330   2.971   3.133 -0.1312 -4.5543 -0.0980
 2845TP3     H220355   0.196   2.973   3.063 -0.4103  3.4056 -0.2952
 2846TP3      O20356   1.662   4.104   0.084 -0.0912 -0.7658  0.2818
 2846TP3     H120357   1.684   4.153   0.005  0.5566  0.7454  1.3678
 2846TP3     H220358   1.602   4.036   0.053 -4.0844  2.8352 -0.8642
 2847TP3      O20359   1.681   0.092   8.598  0.3033 -0.1585  0.2981
 2847TP3     H120360   1.770   0.125   8.581 -0.7580  2.4616 -0.6502
 2847TP3     H220361   1.659   0.127   8.684  0.6651 -2.0750  1.2294
 2848TP3      O20362   3.578   1.733   3.518  0.3279  0.5377 -0.2888
 2848TP3     H120363   3.654   1.764   3.567  0.1806  1.3108 -0.5347
 2848TP3     H220364   3.606   1.731   3.427  0.2720  0.1283 -0.3010
 2849TP3      O20365   3.389   4.183   8.199 -0.6902 -0.0749 -0.4343
 2849TP3     H120366   3.438   4.151   8.122  1.1102  1.2665  0.0857
 2849TP3     H220367   3.449   4.245   8.241  0.1333 -3.4621  4.2580
 2850TP3      O20368   2.585   1.766   2.588 -0.1348 -0.2735  0.0596
 2850TP3     H120369   2.526   1.771   2.513  0.0690  1.5771 -0.0011
 2850TP3     H220370   2.533   1.795   2.662  0.0076 -0.9739  0.4442
 2851TP3      O20371   0.239   3.334   2.717 -0.3765 -0.0999 -0.3342
 2851TP3     H120372   0.175   3.263   2.728  0.1165 -0.5432 -0.2554
 2851TP3     H220373   0.260   3.333   2.624 -0.6283  0.1758 -0.3952
 2852TP3      O20374   3.954   2.224   2.966 -0.1282 -0.0244  0.2498
 2852TP3     H120375   4.046   2.200   2.979 -0.4844 -0.6237  1.8700
 2852TP3     H220376   3.945   2.308   3.011  0.4347  1.9926 -3.0178
 2853TP3      O20377   2.390   4.905   2.825 -0.2441  0.8290 -0.0101
 2853TP3     H120378   2.458   4.904   2.758 -0.9098  0.2633 -0.7020
 2853TP3     H220379   2.415   4.835   2.885  0.8732  1.9568  0.9047
 2854TP3      O20380   5.251   2.756   0.563  0.2719 -0.7690 -0.0254
 2854TP3     H120381   5.295   2.760   0.648 -1.9489  0.1325  1.1761
 2854TP3     H220382   5.179   2.694   0.577  0.3303 -1.2172 -1.5205
 2855TP3      O20383   5.158   1.707  10.051  0.0118 -0.3323  0.3046
 2855TP3     H120384   5.113   1.623  10.054  1.8176 -1.3211  0.8097
 2855TP3     H220385   5.207   1.711  10.133 -0.1376  1.2856  0.3495
 2856TP3      O20386   0.668   3.294  10.031  0.2433  0.3791  0.4276
 2856TP3     H120387   0.671   3.293  10.127 -0.3999  2.3526  0.5199
 2856TP3     H220388   0.575   3.303  10.011  0.1322 -2.1167 -0.4989
 2857TP3      O20389   1.802   2.974   1.961  0.3704  0.7325  0.1857
 2857TP3     H120390   1.814   2.964   2.056  2.0787  1.2443  0.0529
 2857TP3     H220391   1.710   2.998   1.951 -0.4578 -1.5625  1.5181
 2858TP3      O20392   2.735   0.662   8.506  0.0485 -0.7978  0.0783
 2858TP3     H120393   2.757   0.664   8.412  0.5346  2.0968  0.1711
 2858TP3     H220394   2.647   0.623   8.508  0.2166 -1.3687 -1.5204
 2859TP3      O20395   1.498   0.619   1.443 -0.2832  0.1506 -0.0577
 2859TP3     H120396   1.492   0.625   1.538 -0.9371  0.2754 -0.1005
 2859TP3     H220397   1.422   0.668   1.411 -1.2737 -1.6568 -0.5872
 2860TP3      O20398   5.215   4.678   8.106  0.1907 -0.5242  0.4592
 2860TP3     H120399   5.226   4.736   8.031 -0.1069 -1.7093 -0.5189
 2860TP3     H220400   5.285   4.614   8.098  0.2300 -0.5987  1.2648
 2861TP3      O20401   1.119   1.992   8.056 -0.3045  0.1306 -0.0193
 2861TP3     H120402   1.212   1.968   8.052 -0.4291 -1.6586  3.8888
 2861TP3     H220403   1.083   1.956   7.975  1.9337 -1.5252 -0.3921
 2862TP3      O20404   1.335   4.704   3.116 -0.0915  0.1045  0.0476
 2862TP3     H120405   1.354   4.676   3.027 -0.2753 -1.5906  0.5108
 2862TP3     H220406   1.348   4.799   3.115  0.0291  0.0900 -1.7358
 2863TP3      O20407   5.111   3.389   8.249 -0.0344  0.1375 -0.1486
 2863TP3     H120408   5.183   3.423   8.197  0.1630  0.4616  0.3363
 2863TP3     H220409   5.097   3.454   8.317  0.5705 -0.8866  0.9932
 2864TP3      O20410   1.976   4.094   7.570 -0.2774  0.2720 -0.0580
 2864TP3     H120411   2.028   4.145   7.509  1.1374  0.5372  1.3070
 2864TP3     H220412   1.991   4.003   7.544 -0.4598  0.4105 -0.6701
 2865TP3      O20413   3.187   4.179   0.850 -0.6199  0.3110  0.3206
 2865TP3     H120414   3.152   4.119   0.785  0.2013 -0.5065  0.6098
 2865TP3     H220415   3.170   4.266   0.815 -2.2943 -0.0672  0.1345
 2866TP3      O20416   4.672   3.332   1.406  0.1358 -0.0663 -0.4867
 2866TP3     H120417   4.583   3.296   1.403  0.5776 -1.3094  0.3136
 2866TP3     H220418   4.665   3.409   1.462 -0.1661 -1.0821  0.9403
 2867TP3      O20419   0.436   4.983   1.408  0.9107  0.2373  0.2532
 2867TP3     H120420   0.475   5.069   1.420 -0.0508  0.7654 -0.2760
 2867TP3     H220421   0.364   4.997   1.347 -0.8371 -0.4568  2.0034
 2868TP3      O20422   3.305   1.772   8.064  0.3367  0.2433  0.5559
 2868TP3     H120423   3.356   1.733   8.135 -0.4347  0.5041  1.2708
 2868TP3     H220424   3.214   1.760   8.090  0.0252  0.0857 -0.5382
 2869TP3      O20425   2.065   4.466   2.214  0.4727  0.3695  0.5670
 2869TP3     H120426   2.018   4.476   2.131  2.0815 -0.0684 -0.4418
 2869TP3     H220427   2.024   4.529   2.272 -1.6418 -0.2947 -0.1120
 2870TP3      O20428   0.110   0.657   8.460  0.0729  0.0192  0.3203
 2870TP3     H120429   0.137   0.684   8.373 -0.3469 -1.4357 -0.2894
 2870TP3     H220430   0.171   0.702   8.519  1.5039 -0.3477 -0.8232
 2871TP3      O20431   3.262   0.843  10.010  0.3594  0.1893  0.3402
 2871TP3     H120432   3.207   0.787  10.066 -1.3389 -0.3584 -1.7208
 2871TP3     H220433   3.220   0.929  10.014 -1.5751 -0.4780 -2.1182
 2872TP3      O20434   2.229   1.349   2.798 -0.6850  0.2270 -0.2682
 2872TP3     H120435   2.199   1.264   2.768 -0.4746 -0.0651  0.3455
 2872TP3     H220436   2.150   1.403   2.801 -0.8475  0.0019 -0.4715
 2873TP3      O20437   1.061   0.050   7.401 -0.0010  0.7575  0.1515
 2873TP3     H120438   1.138   0.049   7.344 -0.7417  1.4317 -0.9254
 2873TP3     H220439   1.009   0.124   7.368 -1.9771 -0.7803 -0.3604
 2874TP3      O20440   2.984   1.163   9.360  0.1715  0.0534  0.0340
 2874TP3     H120441   2.941   1.136   9.441  0.6442 -0.4704  0.1184
 2874TP3     H220442   3.059   1.103   9.352  0.0756  0.0448 -0.8312
 2875TP3      O20443   3.336   3.624   8.858 -0.0321 -0.5146  0.2316
 2875TP3     H120444   3.328   3.529   8.860  0.8381 -0.6162 -0.2715
 2875TP3     H220445   3.279   3.655   8.928 -1.1435 -1.3436 -0.2893
 2876TP3      O20446   3.583   4.371   0.767 -0.3141 -0.5180  0.2871
 2876TP3     H120447   3.633   4.389   0.687 -1.3469  0.9203 -0.0587
 2876TP3     H220448   3.525   4.298   0.743  1.3713 -2.0611  0.6295
 2877TP3      O20449   5.016   2.589   8.254  0.0483  0.4520 -0.3635
 2877TP3     H120450   5.075   2.616   8.324  1.2801  0.1485 -1.2364
 2877TP3     H220451   5.022   2.494   8.252  0.3851  0.4781 -1.1572
 2878TP3      O20452   4.982   3.584   9.324  0.1350  0.8973  0.1844
 2878TP3     H120453   4.951   3.655   9.266 -0.1007  0.5655 -0.0987
 2878TP3     H220454   5.006   3.629   9.405  2.2447  1.6526 -0.7722
 2879TP3      O20455   2.065   0.198   3.343  0.0375 -0.1337  0.0911
 2879TP3     H120456   2.132   0.133   3.364 -0.2245  0.2232  2.2972
 2879TP3     H220457   2.109   0.261   3.285  0.5431 -1.7471 -1.3451
 2880TP3      O20458   0.957   0.901   3.416 -0.4673 -0.1657 -0.2794
 2880TP3     H120459   0.969   0.996   3.424 -0.4290 -0.1114 -0.8720
 2880TP3     H220460   1.046   0.865   3.418 -0.3511 -0.0303 -1.6912
 2881TP3      O20461   4.711   4.644   9.473  0.4314  0.5116  0.4863
 2881TP3     H120462   4.654   4.701   9.524 -0.8119 -0.7923  0.6078
 2881TP3     H220463   4.746   4.582   9.536  0.8793  0.4419  0.1727
 2882TP3      O20464   0.885   1.650   8.971  0.3814  0.0945 -0.5034
 2882TP3     H120465   0.969   1.681   9.006  1.3308 -1.0857 -1.6502
 2882TP3     H220466   0.890   1.555   8.979 -1.6594  0.0507  1.1326
 2883TP3      O20467   2.498   0.462   1.912 -0.3246 -0.5076 -0.1912
 2883TP3     H120468   2.490   0.537   1.854  0.9272  0.5510  0.9581
 2883TP3     H220469   2.418   0.411   1.896 -0.6856  0.4839 -1.7676
 2884TP3      O20470   3.097   0.025   7.107  0.3658 -0.1012 -0.2730
 2884TP3     H120471   3.059  -0.047   7.157 -1.0303 -0.7901 -2.1891
 2884TP3     H220472   3.192   0.013   7.115  0.2164  0.0254  2.3836
 2885TP3      O20473   0.812   3.307   1.481 -0.7511 -0.7382  0.3074
 2885TP3     H120474   0.852   3.378   1.430  0.6925 -1.5143  0.2876
 2885TP3     H220475   0.738   3.279   1.428 -0.0706 -0.6410 -0.7359
 2886TP3      O20476   0.151   3.612   8.220  0.0306 -0.6332 -0.0827
 2886TP3     H120477   0.121   3.531   8.179 -0.3587 -0.2050 -0.6607
 2886TP3     H220478   0.099   3.681   8.179 -0.8397 -0.2399  1.5734
 2887TP3      O20479   4.698   0.041   2.733  0.1459 -0.4395  0.4576
 2887TP3     H120480   4.774   0.027   2.676  1.5382  1.1290  1.8547
 2887TP3     H220481   4.733   0.038   2.822 -1.6209 -0.6688  1.1922
 2888TP3      O20482   0.916   1.293   2.635 -0.2377 -0.5925 -0.5041
 2888TP3     H120483   0.928   1.364   2.699 -0.3960 -0.5555 -0.5141
 2888TP3     H220484   0.982   1.229   2.658 -0.3809 -0.6388 -0.2155
 2889TP3      O20485   0.083   4.318   2.315  0.4311 -0.4946  0.1379
 2889TP3     H120486   0.104   4.245   2.256  1.7206 -1.2696  1.4886
 2889TP3     H220487  -0.011   4.307   2.333  0.0343 -0.2757 -1.6821
 2890TP3      O20488   2.800   1.809   1.992 -0.4839  0.0250 -0.1111
 2890TP3     H120489   2.807   1.750   2.066 -0.9690  1.0407  0.7719
 2890TP3     H220490   2.830   1.758   1.917  0.2663 -0.9373  0.8233
 2891TP3      O20491   3.384   3.500   0.602 -0.4472  0.2189 -0.0424
 2891TP3     H120492   3.370   3.411   0.570  0.1460  0.3304 -0.6136
 2891TP3     H220493   3.446   3.490   0.674 -0.5342  0.1516  0.0241
 2892TP3      O20494   1.396   1.823   2.717 -0.3024 -0.5937  0.0522
 2892TP3     H120495   1.478   1.857   2.754 -1.6772 -0.0090  2.7880
 2892TP3     H220496   1.347   1.901   2.692  0.4914 -0.9562 -3.1248
 2893TP3      O20497   4.173   2.722   8.381  0.3706  0.1818 -0.2784
 2893TP3     H120498   4.137   2.636   8.362  1.6748 -0.4899  0.1484
 2893TP3     H220499   4.258   2.722   8.338  0.4573  1.1896 -0.1285
 2894TP3      O20500   1.689   3.250   0.592  0.1416 -0.4218  0.1326
 2894TP3     H120501   1.647   3.188   0.652 -1.0269 -1.0811 -1.2935
 2894TP3     H220502   1.651   3.229   0.506  2.4136 -0.1347 -1.0234
 2895TP3      O20503   0.836   2.493   8.222 -0.4815  0.3523  0.0499
 2895TP3     H120504   0.799   2.459   8.140 -1.4579  0.9997  0.1949
 2895TP3     H220505   0.864   2.416   8.270 -0.0928 -0.0501 -0.8080
 2896TP3      O20506   0.422   1.823  10.029  0.2769 -0.1762  0.6581
 2896TP3     H120507   0.443   1.731  10.012 -0.5765 -0.8741  3.0066
 2896TP3     H220508   0.368   1.821  10.108 -0.3925  2.3064  0.3422
 2897TP3      O20509   3.228   4.160   2.685  0.3040 -0.5180 -0.0274
 2897TP3     H120510   3.188   4.073   2.679  0.2969 -0.5692  0.7393
 2897TP3     H220511   3.294   4.160   2.615  1.5231 -1.7979  1.0318
 2898TP3      O20512   3.377   1.463   7.460  0.0848 -0.5624 -0.0592
 2898TP3     H120513   3.335   1.395   7.407  1.1996 -0.0096 -1.7316
 2898TP3     H220514   3.469   1.459   7.435  0.5742  0.0343  1.5456
 2899TP3      O20515   0.993   0.693   8.959  0.3439  0.0743  0.5800
 2899TP3     H120516   1.049   0.769   8.950 -1.7389  1.5080 -1.2870
 2899TP3     H220517   0.974   0.665   8.869 -2.9027  0.4971  0.9950
 2900TP3      O20518   0.785   4.179   8.497 -0.3305  0.1228 -0.1967
 2900TP3     H120519   0.709   4.152   8.550 -0.1966  0.6801  0.2881
 2900TP3     H220520   0.750   4.241   8.434 -0.2442  0.5712  0.1884
 2901TP3      O20521   4.901   4.211   2.792  0.1778 -0.2587 -0.2846
 2901TP3     H120522   4.862   4.289   2.832  1.0793 -0.4224  0.9570
 2901TP3     H220523   4.894   4.227   2.698 -1.6615  0.3051 -0.0953
 2902TP3      O20524   3.328   4.032   1.042  0.2154 -0.5402 -0.1626
 2902TP3     H120525   3.328   4.055   1.135  1.2720 -2.8653  0.4759
 2902TP3     H220526   3.276   4.101   1.001 -0.3918  0.4890  2.1519
 2903TP3      O20527   2.963   1.429   7.709 -0.2701  0.1524  0.2318
 2903TP3     H120528   3.055   1.435   7.736 -0.4470  1.3010  0.6352
 2903TP3     H220529   2.925   1.365   7.769  0.0344  0.4459  0.7507
 2904TP3      O20530   1.617   4.277   8.524 -0.7253  0.2722  0.2818
 2904TP3     H120531   1.614   4.255   8.431  0.2784 -0.8940  0.4922
 2904TP3     H220532   1.549   4.222   8.564 -1.2200  0.8410  0.2402
 2905TP3      O20533   4.293   2.060   8.467 -0.3122 -0.3143 -0.0954
 2905TP3     H120534   4.375   2.089   8.508  0.0003  0.1583 -1.0254
 2905TP3     H220535   4.266   1.985   8.519  0.4599 -0.1832  0.5204
 2906TP3      O20536   2.370   3.908   1.732 -0.3995  0.1945 -0.2122
 2906TP3     H120537   2.317   3.876   1.659 -0.5214  1.7968 -0.8768
 2906TP3     H220538   2.420   3.981   1.694  1.2793 -0.4072  0.7359
 2907TP3      O20539   1.367   1.652   9.032  0.3950 -0.1911 -0.0731
 2907TP3     H120540   1.371   1.576   8.974 -0.2908 -0.3460  0.0826
 2907TP3     H220541   1.457   1.663   9.063  0.9995  0.4766 -1.9089
 2908TP3      O20542   0.775   3.328   1.059 -0.6762  0.0367 -0.4036
 2908TP3     H120543   0.686   3.309   1.030 -0.7121 -2.0460  0.8769
 2908TP3     H220544   0.793   3.261   1.125  2.1202 -0.0532 -1.1612
 2909TP3      O20545   1.086   1.040   8.358 -0.2804  1.2041  0.0774
 2909TP3     H120546   1.110   1.018   8.268  0.3129  1.8756  0.0678
 2909TP3     H220547   1.114   1.130   8.370  2.1393  0.3533  1.7729
 2910TP3      O20548   0.190   2.151   8.775  0.2369 -0.0181  0.3628
 2910TP3     H120549   0.214   2.168   8.866  2.0756 -0.0975 -0.0605
 2910TP3     H220550   0.236   2.219   8.726 -1.6211  0.7152 -0.4554
 2911TP3      O20551   3.408   2.451   8.149  0.4006  0.3279  0.3331
 2911TP3     H120552   3.380   2.534   8.110 -2.9427  0.0454  1.7309
 2911TP3     H220553   3.382   2.385   8.085 -3.7514 -0.0149  1.9866
 2912TP3      O20554   1.998   4.804   1.107  0.2068  0.7361 -0.1482
 2912TP3     H120555   1.935   4.735   1.128  1.6558 -1.0089 -1.2335
 2912TP3     H220556   1.958   4.853   1.036 -1.2294  1.6277  1.2251
 2913TP3      O20557   0.021   4.643   2.818  0.9170 -0.1086 -0.2044
 2913TP3     H120558  -0.037   4.584   2.769  0.2492  0.7255 -0.4442
 2913TP3     H220559   0.091   4.665   2.757  0.8128 -0.1322 -0.3322
 2914TP3      O20560   1.083   4.595   2.926  0.2217  0.4484 -0.1933
 2914TP3     H120561   1.019   4.603   2.855  2.1898 -0.0491 -2.1073
 2914TP3     H220562   1.047   4.649   2.996 -1.8900  0.8178 -1.4648
 2915TP3      O20563   2.304   0.182   9.862 -0.3692  0.1359 -1.1783
 2915TP3     H120564   2.236   0.249   9.857 -0.8036 -0.1647  0.1665
 2915TP3     H220565   2.295   0.133   9.780 -0.8261  0.9757 -1.6477
 2916TP3      O20566   3.278   0.106   8.510  0.2449  0.4359 -0.4605
 2916TP3     H120567   3.337   0.035   8.537  0.5131  0.1255 -1.8018
 2916TP3     H220568   3.329   0.186   8.521  0.0400  0.4274  0.7794
 2917TP3      O20569   2.461   1.723   8.371 -0.0474 -0.3875  0.0794
 2917TP3     H120570   2.465   1.720   8.467 -2.8655 -1.0338  0.2575
 2917TP3     H220571   2.368   1.712   8.351  0.3333  0.8853 -2.7212
 2918TP3      O20572   1.504   1.304   9.163  0.4415 -0.0558 -0.7677
 2918TP3     H120573   1.599   1.293   9.171  0.4166 -0.3559 -0.8615
 2918TP3     H220574   1.492   1.342   9.076  0.7417  3.5936  0.6362
 2919TP3      O20575   2.956   1.058   2.497  0.0919  0.3999  0.1751
 2919TP3     H120576   2.990   0.978   2.455  0.7971  0.2741  0.9602
 2919TP3     H220577   2.862   1.045   2.503  0.2870 -0.7351  1.0204
 2920TP3      O20578   4.568   1.829   7.810  0.2604  0.1290 -0.0860
 2920TP3     H120579   4.586   1.893   7.741  1.5812  0.3803  0.4662
 2920TP3     H220580   4.639   1.765   7.803 -0.2084 -0.4491  0.3381
 2921TP3      O20581   0.312   5.206   0.066  0.1460 -0.1548 -0.7028
 2921TP3     H120582   0.227   5.164   0.061  0.0821 -0.0844 -0.2656
 2921TP3     H220583   0.363   5.152   0.126 -0.0789  0.6137  0.2096
 2922TP3      O20584   4.017   4.671   9.503 -0.4290 -0.0433  0.4520
 2922TP3     H120585   4.033   4.756   9.543 -0.5656  1.2553 -2.0299
 2922TP3     H220586   3.962   4.624   9.566 -1.2525  2.1023  1.4175
 2923TP3      O20587   1.300   2.190   7.184  0.0903  0.6596  0.4183
 2923TP3     H120588   1.358   2.265   7.203 -0.6820  1.4181 -0.1533
 2923TP3     H220589   1.224   2.229   7.143  0.1615 -0.5798 -0.9462
 2924TP3      O20590   2.924   4.977   9.709  0.0283 -0.4148 -0.1434
 2924TP3     H120591   2.990   4.919   9.747  0.1904 -0.4881 -0.5287
 2924TP3     H220592   2.917   5.049   9.771  1.1303  0.0483 -0.5378
 2925TP3      O20593   0.494   1.787   2.403 -0.0613  0.7320 -0.1642
 2925TP3     H120594   0.534   1.700   2.410 -1.2811  0.0522 -1.0911
 2925TP3     H220595   0.560   1.847   2.437 -0.0012 -0.7307  2.5230
 2926TP3      O20596   5.185   5.068   7.493  0.4995 -0.6872  0.0271
 2926TP3     H120597   5.243   5.021   7.553 -0.1069 -0.4471  0.8211
 2926TP3     H220598   5.240   5.088   7.417  0.7646 -2.7202 -0.3679
 2927TP3      O20599   4.712   4.095   1.593 -0.1948 -0.2283 -0.7461
 2927TP3     H120600   4.646   4.033   1.625  0.2220  0.4328  1.5745
 2927TP3     H220601   4.692   4.105   1.500 -2.5053 -1.1113 -0.4150
 2928TP3      O20602   1.156   3.623   9.877 -0.2695  0.1019 -0.4568
 2928TP3     H120603   1.247   3.596   9.891  0.6346  3.0167 -0.0365
 2928TP3     H220604   1.132   3.667   9.958 -1.8246  0.0298 -0.8588
 2929TP3      O20605   5.189   2.170   1.546 -0.0706  0.2104 -0.1469
 2929TP3     H120606   5.163   2.135   1.461 -2.5515 -0.8082  0.9464
 2929TP3     H220607   5.155   2.108   1.610  3.3822 -0.0938  1.6366
 2930TP3      O20608   1.453   5.105   1.430  0.0906 -0.0839 -0.0182
 2930TP3     H120609   1.542   5.077   1.410 -0.5160 -1.6245 -0.7967
 2930TP3     H220610   1.447   5.195   1.398  0.7605 -0.6730 -1.9157
 2931TP3      O20611   2.103   1.384   1.440  0.3703  0.2990 -0.1985
 2931TP3     H120612   2.181   1.366   1.388  0.4268  0.0538 -0.0285
 2931TP3     H220613   2.063   1.460   1.398 -0.2662 -0.6423 -1.3543
 2932TP3      O20614   4.743   1.156   9.926  0.3949 -0.1099  0.7087
 2932TP3     H120615   4.833   1.144   9.958  0.0685 -0.0618  1.6767
 2932TP3     H220616   4.697   1.078   9.956  0.2124 -0.3457 -0.1735
 2933TP3      O20617   0.111   0.704   0.469  0.0212 -0.0844 -0.5880
 2933TP3     H120618   0.031   0.661   0.440 -0.0021  0.3449 -1.1569
 2933TP3     H220619   0.170   0.632   0.490 -0.1263 -0.3977 -1.2329
 2934TP3      O20620   4.146   1.204   1.059  0.1769  0.3531 -0.4197
 2934TP3     H120621   4.238   1.222   1.043  0.3165 -0.3462 -0.4211
 2934TP3     H220622   4.110   1.288   1.090  0.3120  1.2415 -2.5150
 2935TP3      O20623   1.427   1.260   1.532 -0.0932 -0.3262 -0.2088
 2935TP3     H120624   1.383   1.184   1.493  2.2442 -1.3419 -0.9983
 2935TP3     H220625   1.355   1.319   1.556 -1.8683 -1.8734 -1.4462
 2936TP3      O20626   3.531   3.127   8.966  0.7057  0.0476  0.4486
 2936TP3     H120627   3.520   3.052   8.907 -2.4201  0.2420  0.6173
 2936TP3     H220628   3.552   3.088   9.051  0.0649 -0.6011  0.3230
 2937TP3      O20629   0.504   3.096   0.881 -0.0612 -0.0050  0.2047
 2937TP3     H120630   0.474   3.043   0.954 -0.1359 -1.6039 -0.9251
 2937TP3     H220631   0.569   3.042   0.837  0.1913  1.0265 -0.7556
 2938TP3      O20632   0.376   0.317   7.637  0.0876  0.5090 -0.5391
 2938TP3     H120633   0.452   0.335   7.692 -1.5018 -2.1906  2.9227
 2938TP3     H220634   0.311   0.381   7.665  0.1706  1.0375 -1.5093
 2939TP3      O20635   2.470   0.544   8.961 -0.1566  0.0474  0.0305
 2939TP3     H120636   2.532   0.486   9.005  0.6040  0.1763 -0.8422
 2939TP3     H220637   2.433   0.491   8.890  1.3608  0.9054 -1.4723
 2940TP3      O20638   1.133   0.875   2.127  0.5403  0.3295 -0.9198
 2940TP3     H120639   1.126   0.967   2.153 -0.2491 -0.0885  0.4517
 2940TP3     H220640   1.212   0.872   2.073  1.6946  1.4791  0.6020
 2941TP3      O20641   0.646   0.620  10.072  0.1068 -0.0479 -0.1771
 2941TP3     H120642   0.702   0.569  10.131  0.1955  0.9308  0.5961
 2941TP3     H220643   0.603   0.553  10.018  0.9338 -0.8952  0.1715
 2942TP3      O20644   3.332   4.018   0.251 -0.3214  0.3705  0.5693
 2942TP3     H120645   3.331   3.964   0.172 -0.3718  0.2701  0.6384
 2942TP3     H220646   3.260   3.984   0.304  0.6666 -0.6089  1.3417
 2943TP3      O20647   0.081   1.177   9.553 -0.3470  0.1975 -0.3057
 2943TP3     H120648   0.007   1.199   9.610 -0.4222 -0.0952 -0.2861
 2943TP3     H220649   0.060   1.089   9.521  0.2595 -0.1029  0.1269
 2944TP3      O20650   0.482   3.046   2.170  0.1522  0.1629 -0.3107
 2944TP3     H120651   0.528   3.012   2.247 -2.1603 -1.5789  0.4011
 2944TP3     H220652   0.434   3.122   2.203  0.5558  0.5023 -0.4879
 2945TP3      O20653   3.164   4.785   2.623 -0.0675 -0.2181 -0.0698
 2945TP3     H120654   3.073   4.763   2.646 -0.3726  0.6978 -0.3532
 2945TP3     H220655   3.157   4.840   2.545  0.4589  2.6373  1.7283
 2946TP3      O20656   3.255   4.506   2.044 -0.0682 -0.9565  0.0872
 2946TP3     H120657   3.282   4.415   2.028 -2.2193 -1.7984  0.8032
 2946TP3     H220658   3.237   4.509   2.138  0.4841  0.3887  0.1696
 2947TP3      O20659   2.107   2.553   9.122 -0.5286 -0.1155  0.3603
 2947TP3     H120660   2.130   2.614   9.192 -0.9207 -1.0209  1.3037
 2947TP3     H220661   2.184   2.497   9.113  0.3141  1.2285 -1.3414
 2948TP3      O20662   0.033   3.433   1.854 -0.5819 -0.5557 -0.3787
 2948TP3     H120663  -0.006   3.520   1.853  0.0034 -0.2741  0.5936
 2948TP3     H220664   0.031   3.405   1.762 -0.1329  0.7690 -0.8122
 2949TP3      O20665   1.118   3.246   0.798  0.0537  0.1036  0.4446
 2949TP3     H120666   1.131   3.292   0.715  1.0898 -0.0337  0.5207
 2949TP3     H220667   1.035   3.198   0.786  0.9442 -1.1431 -1.1057
 2950TP3      O20668   1.916   4.948   1.565  0.0574  0.3615 -0.1531
 2950TP3     H120669   1.914   4.992   1.650 -0.3793  0.3985 -0.1800
 2950TP3     H220670   1.966   4.868   1.580  1.4097  1.1706 -0.2515
 2951TP3      O20671   1.647   2.958   1.422 -0.2848  0.2070  0.0187
 2951TP3     H120672   1.606   2.920   1.500 -0.8547 -0.4173 -0.5767
 2951TP3     H220673   1.631   3.052   1.431 -3.2598 -0.0951 -0.9277
 2952TP3      O20674   3.228   2.823   0.597  0.2131 -0.1237 -0.2153
 2952TP3     H120675   3.196   2.775   0.673 -1.5130  1.1830 -0.0476
 2952TP3     H220676   3.287   2.889   0.634  0.0608 -0.0456 -0.1143
 2953TP3      O20677   3.367   4.522   9.812  0.2490  0.4041 -0.5579
 2953TP3     H120678   3.457   4.489   9.813 -0.2176 -0.9391  1.0512
 2953TP3     H220679   3.322   4.467   9.749  0.4819  0.9296 -1.1956
 2954TP3      O20680   1.076   0.058   0.783 -0.1758  0.5251 -0.8123
 2954TP3     H120681   1.160   0.053   0.736 -0.6284 -3.1921 -1.5100
 2954TP3     H220682   1.010   0.042   0.715 -1.4708  2.6979 -0.1441
 2955TP3      O20683   2.931   1.969   9.990  0.1378 -0.6251 -0.3895
 2955TP3     H120684   2.895   2.045  10.035  0.9184 -0.2806 -0.3277
 2955TP3     H220685   2.896   1.894  10.039  1.8540 -0.2615  1.5653
 2956TP3      O20686   4.143   4.034   0.312 -0.0666 -0.1978 -0.0743
 2956TP3     H120687   4.076   3.971   0.287  0.6905 -1.3693  0.7324
 2956TP3     H220688   4.115   4.067   0.398 -0.3021  0.3470 -0.3551
 2957TP3      O20689   2.586   3.935   0.959  0.1837  0.3236  0.0384
 2957TP3     H120690   2.628   3.867   0.906 -0.0761  1.3267 -1.5072
 2957TP3     H220691   2.616   3.917   1.048  0.0233 -1.8886 -0.2806
 2958TP3      O20692   2.057   3.129   2.588 -0.1960  0.4770 -0.1836
 2958TP3     H120693   2.036   3.167   2.503 -0.6371  1.5211  0.3748
 2958TP3     H220694   2.152   3.119   2.588 -0.2219  0.1680 -0.9112
 2959TP3      O20695   3.208   3.358   9.500  0.3097  0.1931 -0.3757
 2959TP3     H120696   3.196   3.341   9.594 -0.3926  0.6983 -0.3629
 2959TP3     H220697   3.119   3.363   9.466  0.4552  2.8710 -0.5449
 2960TP3      O20698   1.919   1.134   1.009 -0.0924 -0.8754  0.0157
 2960TP3     H120699   1.958   1.052   0.977  0.4177 -0.3143 -0.8410
 2960TP3     H220700   1.850   1.153   0.945  0.7256  0.0984 -0.5870
 2961TP3      O20701   2.103   4.012   9.201  0.4221  0.1427 -0.2462
 2961TP3     H120702   2.169   4.029   9.268 -0.3169  0.3347  0.4487
 2961TP3     H220703   2.063   4.097   9.184  0.0284 -0.0510 -0.3030
 2962TP3      O20704   3.239   3.720   9.072 -0.4549 -0.5341  0.8298
 2962TP3     H120705   3.327   3.713   9.108 -0.3726 -1.3337  0.5003
 2962TP3     H220706   3.183   3.733   9.149 -0.1759 -1.2446  1.1670
 2963TP3      O20707   1.975   3.185   2.071 -0.2992  0.0734  0.1311
 2963TP3     H120708   1.885   3.200   2.042 -0.2249  1.7685  0.6820
 2963TP3     H220709   1.990   3.092   2.054 -2.1718 -0.2644  0.0925
 2964TP3      O20710   0.062   4.656   1.521  0.2939 -0.3652 -0.4802
 2964TP3     H120711   0.072   4.747   1.494  0.3935  0.3730  1.8984
 2964TP3     H220712   0.100   4.651   1.608  1.0219 -2.8968 -0.8382
 2965TP3      O20713   2.312   4.528   8.902 -0.6739  0.5153 -0.1919
 2965TP3     H120714   2.364   4.551   8.979 -0.2054  0.0364 -0.3585
 2965TP3     H220715   2.314   4.607   8.848  1.8313 -0.1601 -1.2599
 2966TP3      O20716   4.024   2.381   7.913 -0.3864 -0.1765  0.2933
 2966TP3     H120717   4.105   2.431   7.900  0.0502 -0.9136  0.1391
 2966TP3     H220718   3.967   2.441   7.961 -0.1746  0.7663 -0.5943
 2967TP3      O20719   1.350   1.466   0.061 -0.1147 -0.1231  0.0681
 2967TP3     H120720   1.303   1.424   0.133  0.8454 -0.8260  0.3064
 2967TP3     H220721   1.431   1.496   0.101 -0.8795  2.2736 -0.0216
 2968TP3      O20722   0.404   4.503   1.668 -0.1442 -0.3279 -0.3762
 2968TP3     H120723   0.368   4.419   1.695 -1.3201  0.6024  1.0708
 2968TP3     H220724   0.445   4.539   1.747 -1.6245  1.4211 -0.3275
 2969TP3      O20725   2.033   0.279   2.283  0.2342  0.4473 -0.2810
 2969TP3     H120726   1.952   0.284   2.333  1.0213 -1.6246  1.3257
 2969TP3     H220727   2.095   0.334   2.331 -0.1041  1.8670 -1.3968
 2970TP3      O20728   4.565   1.574   1.920  0.0200  0.2663 -0.2203
 2970TP3     H120729   4.586   1.486   1.951  0.3846  0.1298 -0.8419
 2970TP3     H220730   4.632   1.630   1.958 -0.3439  0.3168  0.3607
 2971TP3      O20731   0.333   0.529   0.489 -1.0619  0.0635  0.0182
 2971TP3     H120732   0.289   0.444   0.489  2.0953 -1.7290 -0.3846
 2971TP3     H220733   0.350   0.547   0.397  1.4795 -0.7959  0.2369
 2972TP3      O20734   1.078   1.431   2.359  0.5297 -0.4875  0.2563
 2972TP3     H120735   1.032   1.459   2.280  1.0969 -0.7559 -0.1710
 2972TP3     H220736   1.019   1.456   2.430  1.6194  3.2591  0.0600
 2973TP3      O20737   1.093   3.837   1.708  0.1535 -0.1008  0.6262
 2973TP3     H120738   1.039   3.832   1.630  0.3252 -0.1637  0.5097
 2973TP3     H220739   1.175   3.793   1.683  0.4020  0.3272  0.6732
 2974TP3      O20740   0.387   4.462   9.662 -0.3186  0.2508 -0.1450
 2974TP3     H120741   0.437   4.541   9.680 -0.7934  0.2171  1.5179
 2974TP3     H220742   0.308   4.493   9.618 -0.1973  0.6293 -0.0992
 2975TP3      O20743   2.085   2.099   3.184  0.1293  0.3838 -0.4383
 2975TP3     H120744   2.130   2.075   3.265 -0.8792 -0.2618 -0.0352
 2975TP3     H220745   2.049   2.016   3.152 -1.1060  0.9312 -0.5155
 2976TP3      O20746   0.178   2.107   1.230 -0.1955 -0.2914  0.7274
 2976TP3     H120747   0.153   2.018   1.205  1.2360 -0.5498  0.1155
 2976TP3     H220748   0.213   2.098   1.318  0.7186 -0.4929  0.3534
 2977TP3      O20749   4.067   2.850   8.593  0.3754 -0.1385  0.0111
 2977TP3     H120750   4.118   2.784   8.546 -0.6740 -0.4837 -0.6691
 2977TP3     H220751   3.976   2.830   8.572  0.0546  2.2037 -1.1313
 2978TP3      O20752   2.274   2.747  10.060  0.4275  0.0084  0.0389
 2978TP3     H120753   2.361   2.725  10.094  0.9263  0.6989 -0.7491
 2978TP3     H220754   2.218   2.747  10.138  0.7697 -2.0503  0.3605
 2979TP3      O20755   3.662   0.656   2.662  0.0498  0.5410  0.3282
 2979TP3     H120756   3.612   0.578   2.637 -1.2224  1.3517  0.2778
 2979TP3     H220757   3.692   0.637   2.751 -1.1456  0.4116  0.7221
 2980TP3      O20758   5.190   3.556   7.382 -0.0032  0.3954 -0.6829
 2980TP3     H120759   5.154   3.620   7.444  1.2513 -0.4782  1.0408
 2980TP3     H220760   5.283   3.550   7.406 -0.1162 -2.2106 -0.6026
 2981TP3      O20761   3.918   3.876   1.038  0.3503  0.0808 -0.0192
 2981TP3     H120762   3.925   3.784   1.064  1.5459  0.1362 -0.0621
 2981TP3     H220763   3.929   3.875   0.943  0.2436  0.2536 -0.0338
 2982TP3      O20764   3.285   3.610   7.878  0.0865 -0.3907 -0.0677
 2982TP3     H120765   3.271   3.648   7.965  2.5678  0.3300  0.0862
 2982TP3     H220766   3.284   3.685   7.819  0.0352 -0.6824 -0.4407
 2983TP3      O20767   2.640   1.276   8.291  0.2663 -0.2678 -0.1991
 2983TP3     H120768   2.701   1.242   8.357 -1.2170 -0.3940  1.1733
 2983TP3     H220769   2.595   1.199   8.257 -0.4648 -0.0264  0.1984
 2984TP3      O20770   3.631   0.453   6.810  0.0128 -0.1339 -0.1687
 2984TP3     H120771   3.722   0.482   6.804  0.2408 -0.7545  0.1607
 2984TP3     H220772   3.637   0.358   6.821 -0.6941 -0.2437 -0.6721
 2985TP3      O20773   3.296   2.857   2.162  0.2445  0.1693  0.2921
 2985TP3     H120774   3.274   2.766   2.142  0.5381  0.4610 -1.6200
 2985TP3     H220775   3.239   2.881   2.235  0.0201 -1.4691  0.6940
 2986TP3      O20776   3.739   5.238   8.251 -0.2970 -0.0859 -0.2248
 2986TP3     H120777   3.696   5.285   8.323  0.2483 -1.8920  1.3653
 2986TP3     H220778   3.738   5.300   8.179 -1.0691  1.7470  1.2580
 2987TP3      O20779   1.882   2.896   1.142  0.1166  0.9388  0.3014
 2987TP3     H120780   1.908   2.988   1.154  0.1305  0.8927  0.6417
 2987TP3     H220781   1.961   2.854   1.107 -0.0571  1.1655 -0.3709
 2988TP3      O20782   1.719   3.270   0.986 -0.2393  0.1849 -0.5459
 2988TP3     H120783   1.800   3.218   0.984 -1.7331 -2.3789  1.2967
 2988TP3     H220784   1.660   3.224   0.926 -1.2949  0.2576  0.4144
 2989TP3      O20785   1.254   0.170   9.042  0.0703  0.4882 -0.3831
 2989TP3     H120786   1.165   0.169   9.077  0.2227  3.8535  0.4625
 2989TP3     H220787   1.247   0.221   8.961  1.3531  1.8398  0.3089
 2990TP3      O20788   4.402   5.168   8.552 -0.3681 -0.1294  0.1697
 2990TP3     H120789   4.386   5.074   8.542 -0.8829 -0.0500  0.2031
 2990TP3     H220790   4.326   5.199   8.602 -0.2371  0.3156  0.0909
 2991TP3      O20791   2.453   1.654   8.075  0.0304  0.1925  0.3156
 2991TP3     H120792   2.482   1.647   8.166  1.0025 -0.7809 -0.0460
 2991TP3     H220793   2.475   1.569   8.037 -0.7486  0.4410 -0.7247
 2992TP3      O20794   0.023   4.699   0.903  0.3993  0.0662  0.1024
 2992TP3     H120795   0.112   4.696   0.937  0.2523 -0.8911  0.4283
 2992TP3     H220796  -0.030   4.657   0.970 -0.6236  2.3268  0.8010
 2993TP3      O20797   0.864   3.949   9.728 -0.4915  0.1592 -0.4991
 2993TP3     H120798   0.897   4.026   9.682 -0.2026  0.4695  0.2030
 2993TP3     H220799   0.832   3.984   9.812 -0.4883 -0.4639 -0.2324
 2994TP3      O20800   1.179   3.578   9.435 -0.0567  0.5776 -0.1866
 2994TP3     H120801   1.266   3.608   9.463  0.1930 -0.4133  0.1421
 2994TP3     H220802   1.166   3.496   9.482 -0.1082 -0.5768 -2.1040
 2995TP3      O20803   3.852   1.103   0.962 -0.4629  0.4978  0.2823
 2995TP3     H120804   3.942   1.104   0.929 -1.1982 -1.7117 -2.1257
 2995TP3     H220805   3.861   1.074   1.053  1.2776  0.2490  0.0693
 2996TP3      O20806   1.075   3.800   8.017  0.0409  0.0203 -0.0650
 2996TP3     H120807   1.150   3.859   8.016 -0.2104  0.3591  0.3796
 2996TP3     H220808   1.110   3.716   8.046  0.6644 -0.4420 -2.0617
 2997TP3      O20809   1.236   3.001   0.819 -0.0086 -0.2681 -0.0101
 2997TP3     H120810   1.189   3.085   0.817 -0.6452 -0.5962 -2.0516
 2997TP3     H220811   1.328   3.025   0.832 -0.2335  0.7127 -0.1253
 2998TP3      O20812   3.207   2.180   7.584  0.3779 -0.4521  0.0371
 2998TP3     H120813   3.292   2.206   7.618 -1.0456  1.2918  2.5624
 2998TP3     H220814   3.155   2.158   7.661 -1.9080 -0.0190 -1.2749
 2999TP3      O20815   3.258   5.185   9.405 -0.2080  0.1440  0.4903
 2999TP3     H120816   3.290   5.120   9.468  3.4148  0.1492 -1.1217
 2999TP3     H220817   3.265   5.268   9.451 -1.9732 -0.2104  1.5167
 3000TP3      O20818   2.845   1.061   9.913  0.0693  0.3410 -0.3557
 3000TP3     H120819   2.795   1.038   9.835 -0.4343  0.7764 -0.1693
 3000TP3     H220820   2.894   0.981   9.935  1.8862  0.8205 -2.3330
 3001TP3      O20821   0.612   3.247   1.304 -0.3123 -0.2599 -0.0104
 3001TP3     H120822   0.618   3.153   1.321 -1.4554 -0.2416  0.5874
 3001TP3     H220823   0.520   3.269   1.321 -0.2554  0.8082 -0.9731
 3002TP3      O20824   4.026   0.236   1.822  0.4713 -0.0083 -0.0090
 3002TP3     H120825   4.006   0.247   1.729  1.2767  0.3592 -0.1429
 3002TP3     H220826   3.940   0.228   1.863  0.0675  0.8134 -0.6574
 3003TP3      O20827   1.656   0.174   8.875  0.3681  0.3460 -0.1107
 3003TP3     H120828   1.587   0.211   8.930 -0.4176 -0.2116 -0.7092
 3003TP3     H220829   1.682   0.094   8.921  0.4560  0.4337 -0.0066
 3004TP3      O20830   2.479   3.908   2.722  0.1989  0.1493 -0.3287
 3004TP3     H120831   2.432   3.924   2.804  0.8233 -0.6116  0.1897
 3004TP3     H220832   2.570   3.926   2.742  0.5550 -1.4139 -0.4553
 3005TP3      O20833   1.106   4.012   2.170 -0.2482  0.2128  0.2013
 3005TP3     H120834   1.020   4.048   2.148 -0.2045  0.2918  0.1609
 3005TP3     H220835   1.098   3.986   2.262 -0.7007 -0.8869 -0.1309
 3006TP3      O20836   2.268   4.012   7.934  0.6775  0.9703 -0.0459
 3006TP3     H120837   2.196   3.989   7.875  1.0493  1.7887 -0.8349
 3006TP3     H220838   2.302   3.927   7.964 -0.3312  0.5726 -0.0055
 3007TP3      O20839   1.055   1.643   7.052 -0.7336 -0.1425 -0.3030
 3007TP3     H120840   1.009   1.613   6.973 -2.1428 -0.2526  0.5190
 3007TP3     H220841   1.142   1.604   7.045 -1.4423 -1.7279 -0.8795
 3008TP3      O20842   1.735   1.250   8.318  0.7718 -0.5220 -0.0686
 3008TP3     H120843   1.782   1.169   8.337  1.4062 -0.3175 -0.7359
 3008TP3     H220844   1.773   1.281   8.236 -0.5295 -0.3458 -0.6236
 3009TP3      O20845   3.418   2.962   0.319  0.1506  0.1459  0.1928
 3009TP3     H120846   3.457   3.009   0.246 -2.5336  1.7470 -0.3344
 3009TP3     H220847   3.488   2.958   0.385  1.9245  0.6297 -1.5582
 3010TP3      O20848   2.957   0.841   3.205  0.0028 -0.1774 -0.3004
 3010TP3     H120849   2.893   0.912   3.205 -0.4539 -0.5688  0.6845
 3010TP3     H220850   2.971   0.822   3.298 -0.7317 -2.1375 -0.5431
 3011TP3      O20851   1.261   3.856   7.765  0.3644  0.2687  0.5852
 3011TP3     H120852   1.299   3.776   7.801  1.6244 -0.0405 -1.2739
 3011TP3     H220853   1.268   3.921   7.836  0.5941 -0.8840  1.6433
 3012TP3      O20854   2.360   0.219   9.225  0.1797 -0.1188 -0.1975
 3012TP3     H120855   2.340   0.200   9.133  2.0063  0.3930 -0.7537
 3012TP3     H220856   2.305   0.294   9.247 -0.9583 -0.8202 -0.5680
 3013TP3      O20857   4.404   0.081   0.073 -0.6688  0.0148 -0.3852
 3013TP3     H120858   4.392   0.176   0.071  0.6450  0.2350  0.7523
 3013TP3     H220859   4.462   0.065   0.147 -1.0648 -1.7173 -0.3899
 3014TP3      O20860   3.454   4.589   0.882 -0.8898 -0.2199 -0.1292
 3014TP3     H120861   3.523   4.534   0.845 -0.6304  0.7248 -1.0880
 3014TP3     H220862   3.402   4.616   0.806 -0.9246  0.9738  0.2989
 3015TP3      O20863   3.044   1.066   0.322 -0.0048  0.5891  0.4125
 3015TP3     H120864   3.044   1.106   0.235  0.4796 -0.1156  0.0795
 3015TP3     H220865   3.133   1.030   0.331 -0.1056  0.5159  1.1293
 3016TP3      O20866   4.057   0.902   2.028  0.5252  0.2114  0.3089
 3016TP3     H120867   4.074   0.996   2.031 -0.5346  0.4055  0.6048
 3016TP3     H220868   3.984   0.893   1.967  1.7410 -0.6163 -1.0935
 3017TP3      O20869   0.090   0.835   2.415 -0.2918 -0.2088  0.2057
 3017TP3     H120870   0.027   0.870   2.351  1.1605  1.0804 -0.5990
 3017TP3     H220871   0.064   0.874   2.498 -0.0096  1.0914 -0.2950
 3018TP3      O20872   2.406   0.494   8.254 -0.0678 -0.2188  0.3490
 3018TP3     H120873   2.327   0.440   8.257 -0.6240  0.5988  0.6399
 3018TP3     H220874   2.475   0.433   8.225 -0.0025 -1.9116  3.5618
 3019TP3      O20875   2.957   0.387   1.906  0.5352  0.1364 -0.0176
 3019TP3     H120876   2.946   0.296   1.935  0.6472  0.4708  1.0831
 3019TP3     H220877   2.898   0.438   1.962 -1.3484  0.5118 -2.1764
 3020TP3      O20878   3.861   0.490   6.572 -0.1627  0.3774 -0.1174
 3020TP3     H120879   3.805   0.552   6.524  2.0409  1.7663 -1.0724
 3020TP3     H220880   3.878   0.534   6.655 -0.3278  0.0471  0.0904
 3021TP3      O20881   2.457   4.222   0.978  0.0765 -0.0962  0.0667
 3021TP3     H120882   2.491   4.134   0.963  0.9864 -0.3067  2.8109
 3021TP3     H220883   2.522   4.265   1.034 -1.5501  1.4008  0.9451
 3022TP3      O20884   0.556   3.308   1.984  0.3050 -0.1050 -0.2365
 3022TP3     H120885   0.515   3.284   2.067  0.2973  1.8112  0.3507
 3022TP3     H220886   0.627   3.244   1.973 -0.7491 -1.4305  0.3593
 3023TP3      O20887   4.671   4.337   2.933 -0.4187 -0.0974  0.4134
 3023TP3     H120888   4.598   4.300   2.982 -2.3685  1.7553 -0.8979
 3023TP3     H220889   4.719   4.389   2.997  0.3363 -2.0303  1.4929
 3024TP3      O20890   4.415   4.057   9.649 -0.2752 -0.5381  0.2331
 3024TP3     H120891   4.346   4.092   9.705  0.6616 -0.4170  1.3455
 3024TP3     H220892   4.441   4.131   9.594  1.4179  0.5190  2.2940
 3025TP3      O20893   3.168   5.114   0.995  0.3358 -0.2183 -0.0637
 3025TP3     H120894   3.199   5.097   0.906  1.9739 -1.2901  0.6605
 3025TP3     H220895   3.072   5.120   0.986  0.3218 -1.9006 -1.6650
 3026TP3      O20896   3.116   0.150   1.561 -0.1033 -0.4399  0.0112
 3026TP3     H120897   3.188   0.202   1.594 -0.6153 -0.1373  0.6761
 3026TP3     H220898   3.093   0.190   1.477 -0.9956  0.9143  0.8684
 3027TP3      O20899   1.583   2.429   1.698 -0.3074 -0.2965  0.2247
 3027TP3     H120900   1.581   2.354   1.758 -0.5392 -1.0275 -0.6644
 3027TP3     H220901   1.635   2.398   1.624 -0.8024  0.2469 -0.3655
 3028TP3      O20902   4.728   4.288   1.310  0.1119  0.0532  0.2311
 3028TP3     H120903   4.646   4.324   1.346  0.6520  1.3918  0.1882
 3028TP3     H220904   4.791   4.360   1.319  0.6229 -0.0385 -2.0809
 3029TP3      O20905   3.184   1.303   8.206  0.1288  0.0537  0.0980
 3029TP3     H120906   3.181   1.242   8.133  0.9412  0.5586 -0.3762
 3029TP3     H220907   3.220   1.384   8.168  0.9014  0.2170  1.1156
 3030TP3      O20908   5.267   1.409   0.236  0.1145 -0.5943  0.0183
 3030TP3     H120909   5.338   1.427   0.298 -0.5923 -0.1419  0.7247
 3030TP3     H220910   5.196   1.468   0.264 -1.3119 -2.5376  0.6873
 3031TP3      O20911   0.888   4.917   0.556 -0.0501  0.7830  0.3599
 3031TP3     H120912   0.838   4.994   0.582  0.2451  0.9966  0.2979
 3031TP3     H220913   0.979   4.948   0.550  0.3763  0.0159  2.1342
 3032TP3      O20914   2.086   1.961   1.276  0.0275 -0.3460 -0.0074
 3032TP3     H120915   2.082   1.998   1.188  3.6955  1.4861  0.3863
 3032TP3     H220916   2.018   2.006   1.325  0.2846  1.2785 -1.0931
 3033TP3      O20917   4.979   2.929   8.370  0.3845  0.1380 -0.3411
 3033TP3     H120918   4.928   2.975   8.436  1.1376  0.6496 -0.0965
 3033TP3     H220919   5.010   2.850   8.414 -0.8748 -0.6088 -0.7478
 3034TP3      O20920   0.885   4.406   2.636  1.0341  0.3530 -0.1670
 3034TP3     H120921   0.811   4.421   2.578  1.3537  1.1851 -0.3762
 3034TP3     H220922   0.948   4.358   2.582  0.7064 -0.2614 -0.0208
 3035TP3      O20923   3.152   2.445   1.161 -0.7142  0.4136  0.5241
 3035TP3     H120924   3.149   2.538   1.182 -3.1691  0.5408 -0.0921
 3035TP3     H220925   3.244   2.420   1.175 -0.0805  2.8066  1.0724
 3036TP3      O20926   2.484   4.350   7.499  0.0210  0.8187  0.1380
 3036TP3     H120927   2.519   4.279   7.446  0.1107  0.3179  0.8696
 3036TP3     H220928   2.509   4.430   7.451  0.5205  0.3953 -0.3162
 3037TP3      O20929   2.654   2.312   1.200 -0.3416  0.4098  0.2033
 3037TP3     H120930   2.603   2.279   1.126 -1.2468  0.4862  0.7748
 3037TP3     H220931   2.744   2.288   1.180 -0.6477 -0.0528 -0.6596
 3038TP3      O20932   1.310   1.539   1.891 -0.5338 -0.4767 -0.3418
 3038TP3     H120933   1.286   1.486   1.967  0.0661  1.5021  1.3526
 3038TP3     H220934   1.405   1.527   1.883 -0.6739 -1.1048 -1.1574
 3039TP3      O20935   2.973   0.848   8.804 -0.2130 -0.3566 -0.5488
 3039TP3     H120936   3.012   0.926   8.763 -2.3968 -0.5016 -3.2223
 3039TP3     H220937   3.038   0.820   8.868  1.5644  2.4766 -0.9104
 3040TP3      O20938   5.071   1.822   1.841 -0.4944 -0.2129  0.2197
 3040TP3     H120939   5.157   1.823   1.882  0.0170  2.9394 -0.6980
 3040TP3     H220940   5.017   1.879   1.896 -1.4486 -0.5532 -0.3228
 3041TP3      O20941   5.110   3.890   0.045 -0.4170  0.0985 -0.6991
 3041TP3     H120942   5.092   3.894   0.138  0.0361  1.4058 -0.6461
 3041TP3     H220943   5.146   3.802   0.031  1.0494  0.4380  0.6508
 3042TP3      O20944   1.929   0.643   9.831 -0.2029  0.1810 -0.0208
 3042TP3     H120945   1.989   0.687   9.891 -1.0271  0.8471  0.3379
 3042TP3     H220946   1.872   0.713   9.799 -0.8180 -0.4416 -0.3112
 3043TP3      O20947   3.449   2.870   9.975  0.3700  0.6914 -0.5672
 3043TP3     H120948   3.377   2.846  10.032 -0.1059  0.2082 -1.3552
 3043TP3     H220949   3.510   2.917  10.032 -1.4557  2.8826 -0.2783
 3044TP3      O20950   4.778   3.019   2.359  0.1317 -0.0932  0.3993
 3044TP3     H120951   4.818   3.045   2.276  0.2286 -1.5634 -0.0518
 3044TP3     H220952   4.815   3.078   2.424 -0.2817  1.3767 -0.6592
 3045TP3      O20953   4.586   3.507   8.406  0.0785 -0.0813  0.1095
 3045TP3     H120954   4.500   3.469   8.386  0.1932 -0.3315  0.0973
 3045TP3     H220955   4.641   3.481   8.332 -0.0182  0.6825 -0.2442
 3046TP3      O20956   4.885   2.685   0.327 -0.0302  0.3466 -0.4746
 3046TP3     H120957   4.906   2.656   0.415 -0.2236 -1.0990 -0.8662
 3046TP3     H220958   4.789   2.694   0.327 -0.1426 -0.6892 -0.8007
 3047TP3      O20959   3.270   0.319   1.880  0.4532 -0.2853  0.3083
 3047TP3     H120960   3.272   0.368   1.962 -2.7296 -0.6509  0.7529
 3047TP3     H220961   3.177   0.317   1.856  1.1839 -0.8596 -2.9270
 3048TP3      O20962   4.448   0.730   3.056  0.8794  0.4011 -0.2358
 3048TP3     H120963   4.490   0.708   3.140  0.0297 -0.9668 -0.1467
 3048TP3     H220964   4.356   0.742   3.078  0.8989  1.5452 -0.7419
 3049TP3      O20965   4.620   2.637   2.393  0.3011  0.3467 -0.3624
 3049TP3     H120966   4.576   2.575   2.452  1.2494 -0.1796 -0.1863
 3049TP3     H220967   4.627   2.717   2.444  1.6270 -0.2792  0.4771
 3050TP3      O20968   2.992   4.501   2.736  0.2281 -0.1366  0.4977
 3050TP3     H120969   2.959   4.587   2.710 -2.1560 -1.1764 -0.1473
 3050TP3     H220970   2.958   4.487   2.824 -3.1089 -2.0562 -0.9046
 3051TP3      O20971   3.161   1.855   9.122 -0.2239 -0.0179  0.0929
 3051TP3     H120972   3.256   1.843   9.112 -0.1474 -0.1953  0.9694
 3051TP3     H220973   3.150   1.950   9.123  0.0452  0.0167  0.7442
 3052TP3      O20974   5.051   4.008   2.897 -0.3461  0.0936 -0.0934
 3052TP3     H120975   4.994   4.085   2.886 -1.9134 -0.9365  0.5002
 3052TP3     H220976   5.018   3.966   2.976  0.1787 -1.4570 -0.6788
 3053TP3      O20977   1.600   4.291   0.612  0.2133 -0.1657  0.1452
 3053TP3     H120978   1.505   4.277   0.605  0.1859  0.0313  0.1080
 3053TP3     H220979   1.611   4.334   0.697  0.4501 -1.7363  0.9337
 3054TP3      O20980   4.068   3.525   8.871 -0.2354  0.2794  0.1308
 3054TP3     H120981   4.064   3.620   8.888  2.3164  0.5466 -0.3370
 3054TP3     H220982   4.094   3.519   8.779 -0.8370 -0.8957  0.0281
 3055TP3      O20983   0.676   1.308   9.523  0.0292 -0.1582 -0.9240
 3055TP3     H120984   0.764   1.278   9.501 -0.8322 -3.8242 -0.0181
 3055TP3     H220985   0.669   1.295   9.617 -1.2772  0.7718 -0.8714
 3056TP3      O20986   0.759   2.342   7.978 -0.1967 -0.2313  0.5189
 3056TP3     H120987   0.837   2.290   7.959 -0.0720 -0.5421  1.8243
 3056TP3     H220988   0.704   2.330   7.901  1.0002 -0.0732 -0.3871
 3057TP3      O20989   3.662   0.612   1.647  0.9039  0.7040 -0.0460
 3057TP3     H120990   3.752   0.608   1.614  0.7728 -2.9921 -0.3982
 3057TP3     H220991   3.653   0.534   1.702 -2.3910  0.3114 -0.9227
 3058TP3      O20992   1.851   0.075   9.608  0.5769  0.5916  0.4572
 3058TP3     H120993   1.882   0.094   9.519  0.0485  2.8035  0.6682
 3058TP3     H220994   1.909   0.007   9.640  1.6315  0.6968 -1.1235
 3059TP3      O20995   0.205   0.863   2.770 -0.2038 -0.7331 -0.0440
 3059TP3     H120996   0.235   0.832   2.685  0.8407 -0.1847  0.1051
 3059TP3     H220997   0.261   0.817   2.834 -1.0198 -1.1908  0.3590
 3060TP3      O20998   3.222   2.034   8.011  0.3044  0.4144 -0.2253
 3060TP3     H120999   3.242   1.942   7.991 -0.4802  0.3873 -0.9744
 3060TP3     H221000   3.204   2.035   8.105  1.1585 -0.0371 -0.0488
 3061TP3      O21001   5.039   0.863   8.929 -0.8345 -0.0080 -0.1401
 3061TP3     H121002   5.016   0.786   8.877  2.4142 -1.6292  0.5943
 3061TP3     H221003   5.089   0.918   8.868  2.2452 -1.5217  0.8034
 3062TP3      O21004   3.979   4.783   8.908 -0.1857 -0.6894  0.2045
 3062TP3     H121005   3.989   4.829   8.991 -1.7021 -1.9810  1.1688
 3062TP3     H221006   3.885   4.771   8.898 -0.0031 -1.0202 -1.4526
 3063TP3      O21007   3.306   2.007   2.237 -0.3645 -0.2327  0.3000
 3063TP3     H121008   3.219   1.979   2.210  0.1052 -1.2235 -0.2362
 3063TP3     H221009   3.360   2.000   2.158 -0.0726  1.6529  0.2850
 3064TP3      O21010   4.542   2.016   3.095 -0.3441  0.5192 -0.1019
 3064TP3     H121011   4.450   2.018   3.122 -0.3754 -0.4665 -0.1036
 3064TP3     H221012   4.543   1.959   3.018  0.2672  0.5851 -0.1489
 3065TP3      O21013   3.362   2.793   1.485  0.3505 -0.0825  0.3696
 3065TP3     H121014   3.431   2.744   1.529  0.5558  0.0572  0.2041
 3065TP3     H221015   3.356   2.876   1.533  0.1294 -0.1930  0.5353
 3066TP3      O21016   0.814   0.769   0.678 -0.1979 -0.1971 -0.3152
 3066TP3     H121017   0.889   0.828   0.687  0.4290 -0.8546 -1.0392
 3066TP3     H221018   0.770   0.798   0.598 -1.9816  1.5260  1.1971
 3067TP3      O21019   0.207   1.223   2.291 -0.3159 -0.3929  0.4670
 3067TP3     H121020   0.242   1.219   2.380  1.7781 -1.2097 -0.3254
 3067TP3     H221021   0.260   1.290   2.247 -1.0993 -0.2265 -0.2546
 3068TP3      O21022   0.676   0.910   3.312 -0.2979 -0.6834  0.4199
 3068TP3     H121023   0.744   0.966   3.274 -1.9265  0.7859 -0.4449
 3068TP3     H221024   0.720   0.867   3.385  1.7169 -0.2251 -0.4280
 3069TP3      O21025   0.597   3.700   7.197  0.3568  0.1571 -0.1015
 3069TP3     H121026   0.614   3.784   7.155 -1.8449  0.2763 -0.8959
 3069TP3     H221027   0.580   3.640   7.125  0.7733 -0.7162  0.5005
 3070TP3      O21028   0.175   4.474   8.688 -0.0273  0.5202 -0.2695
 3070TP3     H121029   0.253   4.451   8.738 -1.3015 -0.0395  1.6173
 3070TP3     H221030   0.121   4.395   8.689 -0.2039  0.5626 -2.4372
 3071TP3      O21031   3.376   4.233   1.702  0.2031  0.4029 -0.3030
 3071TP3     H121032   3.318   4.156   1.694 -0.0393  0.5119  0.3327
 3071TP3     H221033   3.448   4.203   1.757  0.6290  0.3463 -0.8786
 3072TP3      O21034   0.627   0.194   9.520  0.2890 -0.1041 -0.4407
 3072TP3     H121035   0.607   0.194   9.613  0.3947 -1.8013 -0.3919
 3072TP3     H221036   0.616   0.286   9.493 -2.1272  0.0204  0.7204
 3073TP3      O21037   4.044   5.164   7.254 -0.3330 -0.3985 -0.7838
 3073TP3     H121038   3.995   5.157   7.172 -1.5352 -0.7137 -0.0563
 3073TP3     H221039   4.032   5.079   7.296 -0.9779  0.2657  0.4038
 3074TP3      O21040   0.878   2.577   0.532 -0.3304 -0.0973  0.2247
 3074TP3     H121041   0.789   2.598   0.504 -0.6380  1.5015  2.1325
 3074TP3     H221042   0.868   2.504   0.593 -0.4225  0.4182  0.8378
 3075TP3      O21043   2.753   1.325   1.376 -0.0819  0.5071  0.0734
 3075TP3     H121044   2.786   1.271   1.448 -2.8063 -2.2776 -0.5768
 3075TP3     H221045   2.794   1.289   1.298  0.1601  1.2041 -0.1283
 3076TP3      O21046   1.463   3.258   2.589  0.7964  0.0542 -0.4974
 3076TP3     H121047   1.472   3.299   2.503 -0.3897 -0.0676 -0.6997
 3076TP3     H221048   1.370   3.236   2.596  0.8858 -0.0307  0.7800
 3077TP3      O21049   2.914   5.178   9.458 -0.3872 -0.3751  0.6775
 3077TP3     H121050   2.944   5.262   9.423 -1.9201 -0.9212 -2.2605
 3077TP3     H221051   2.981   5.153   9.521  0.1870  2.9600  1.6033
 3078TP3      O21052   2.942   1.465   0.099 -0.5870  0.0363 -0.3106
 3078TP3     H121053   2.887   1.529   0.143  0.2319 -0.1924  1.1071
 3078TP3     H221054   3.031   1.494   0.115 -0.1107 -2.2925  1.8362
 3079TP3      O21055   4.137   2.931   9.797  0.0217  0.1656 -0.1465
 3079TP3     H121056   4.095   2.887   9.723 -1.6620  2.2165 -0.5099
 3079TP3     H221057   4.104   2.884   9.874  0.8736 -1.2480 -0.5980
 3080TP3      O21058   1.569   1.591   9.942  0.4660 -0.5297 -0.2307
 3080TP3     H121059   1.606   1.656  10.003 -2.1361 -0.8169  1.8356
 3080TP3     H221060   1.486   1.629   9.915  0.1546 -1.8343 -1.1666
 3081TP3      O21061   0.735   4.783   9.245  0.3574  0.1020 -0.0666
 3081TP3     H121062   0.787   4.717   9.292  0.4394  0.0725 -0.2002
 3081TP3     H221063   0.799   4.835   9.198  0.1954 -0.5678 -1.0471
 3082TP3      O21064   0.873   0.890   2.227 -0.1998  0.5643 -0.6652
 3082TP3     H121065   0.957   0.905   2.185  0.4681  1.6058  0.9458
 3082TP3     H221066   0.879   0.801   2.262  0.8516  1.1390  0.7107
 3083TP3      O21067   0.188   2.494   1.935  0.6583  0.4580  0.0497
 3083TP3     H121068   0.226   2.556   1.997  0.7918  1.2027 -0.7559
 3083TP3     H221069   0.228   2.517   1.851  2.0486 -1.8597  0.0152
 3084TP3      O21070   3.590   0.606   3.393  0.0571  0.1377  0.3529
 3084TP3     H121071   3.502   0.643   3.396  0.0540  0.5053 -2.0589
 3084TP3     H221072   3.648   0.682   3.399  0.2548 -0.0884  1.7449
 3085TP3      O21073   2.335   4.938   9.826  0.1546  0.1967  0.1892
 3085TP3     H121074   2.314   5.031   9.827 -1.9050 -0.2158 -0.1387
 3085TP3     H221075   2.293   4.904   9.747  1.3197 -0.9345  0.0127
 3086TP3      O21076   0.814   4.567   9.384 -0.4264 -0.5682 -0.2483
 3086TP3     H121077   0.796   4.474   9.392  2.3071 -1.1936 -0.4818
 3086TP3     H221078   0.837   4.595   9.472 -0.3143 -0.3391 -0.3478
 3087TP3      O21079   0.648   3.347   2.899  0.2873  0.1030 -0.2947
 3087TP3     H121080   0.579   3.298   2.944  1.4550 -0.3685  1.0495
 3087TP3     H221081   0.626   3.439   2.915  0.2269 -0.0502  0.5620
 3088TP3      O21082   2.291   1.958   7.794  0.0203  0.2939 -0.6271
 3088TP3     H121083   2.230   2.021   7.756  0.0125  1.7287  1.5980
 3088TP3     H221084   2.235   1.888   7.828 -0.2911  0.8549  0.0426
 3089TP3      O21085   3.101   0.228   1.303 -0.0966  0.6864  0.3270
 3089TP3     H121086   3.182   0.235   1.251  0.3966  2.3445  1.2241
 3089TP3     H221087   3.053   0.156   1.263  1.6225 -0.0515 -0.5224
 3090TP3      O21088   2.705   3.763   0.161 -0.4813 -0.1964 -0.1677
 3090TP3     H121089   2.704   3.849   0.202  1.8052 -0.4604  0.6180
 3090TP3     H221090   2.677   3.703   0.230  0.8206 -0.3512  0.2687
 3091TP3      O21091   4.776   0.933   7.709 -0.1676 -0.1914 -0.0163
 3091TP3     H121092   4.816   0.936   7.621  0.7337  0.8708  0.4006
 3091TP3     H221093   4.684   0.913   7.693 -0.1548  0.6270 -1.2681
 3092TP3      O21094   1.705   2.194   7.555  0.2850  0.9051 -0.0757
 3092TP3     H121095   1.747   2.263   7.504  2.6346 -1.2952 -1.4230
 3092TP3     H221096   1.616   2.189   7.521  0.8467  1.6146 -1.7723
 3093TP3      O21097   0.077   4.959   1.447  0.1048 -0.0413  0.3093
 3093TP3     H121098  -0.005   4.993   1.412  0.1728  0.4519  0.6092
 3093TP3     H221099   0.080   4.992   1.537  0.6968  0.0695  0.2590
 3094TP3      O21100   2.796   0.291   6.941 -0.4662  0.0056 -0.3439
 3094TP3     H121101   2.763   0.325   7.024  0.4466 -0.2165  0.1225
 3094TP3     H221102   2.772   0.198   6.941  1.2059 -0.4683  0.5776
 3095TP3      O21103   0.915   3.933   1.221 -0.0032  0.2270 -0.4493
 3095TP3     H121104   0.826   3.968   1.233  0.5070  1.4587  0.0007
 3095TP3     H221105   0.971   4.010   1.231  1.1093 -0.5223 -0.8243
 3096TP3      O21106   0.845   1.941   0.201  0.6553  0.5682 -0.5620
 3096TP3     H121107   0.884   1.916   0.284  1.4316 -1.5431 -1.4902
 3096TP3     H221108   0.781   1.871   0.183 -2.6519  3.1212  0.1972
 3097TP3      O21109   4.402   2.901   2.747  0.5662  0.3106  0.0428
 3097TP3     H121110   4.330   2.860   2.795 -0.7448  3.7185  1.2897
 3097TP3     H221111   4.364   2.924   2.662  0.9837 -0.0746 -0.2577
 3098TP3      O21112   3.839   0.953   2.309  0.1038  0.0196  0.1546
 3098TP3     H121113   3.832   0.922   2.218  1.0292 -1.9429  0.6954
 3098TP3     H221114   3.926   0.992   2.314  0.1876 -0.1828  0.2801
 3099TP3      O21115   0.681   4.970   8.815  0.2845  0.2457 -0.4022
 3099TP3     H121116   0.631   4.919   8.879 -0.0787  0.8439 -0.1990
 3099TP3     H221117   0.772   4.940   8.827  0.5062  1.4837  1.5728
 3100TP3      O21118   0.723   5.101   0.360  0.1538 -0.3533 -0.0835
 3100TP3     H121119   0.677   5.103   0.276  0.3574 -2.5424 -0.3161
 3100TP3     H221120   0.802   5.153   0.346 -2.0931  3.5420  0.3428
 3101TP3      O21121   1.265   4.273   1.755  0.1138  0.0356  0.1995
 3101TP3     H121122   1.335   4.234   1.704 -0.5707  0.1764 -0.8713
 3101TP3     H221123   1.184   4.243   1.713 -0.4482  1.4610  0.1972
 3102TP3      O21124   2.919   3.573   1.722  0.0255  0.3192  0.1223
 3102TP3     H121125   2.853   3.642   1.727 -0.3023 -0.0851  1.7453
 3102TP3     H221126   2.874   3.501   1.678 -0.1638  0.5407 -0.0506
 3103TP3      O21127   2.857   4.352   2.259 -0.0562 -0.4806 -0.2132
 3103TP3     H121128   2.825   4.431   2.215 -0.5105 -0.6585 -0.2023
 3103TP3     H221129   2.825   4.359   2.348 -1.3461 -1.3695 -0.5750
 3104TP3      O21130   1.860   5.132   8.263 -0.5914 -0.3657  0.6585
 3104TP3     H121131   1.933   5.081   8.298 -0.5595 -0.4931  0.4096
 3104TP3     H221132   1.810   5.159   8.340 -0.5595 -0.7017  0.7979
 3105TP3      O21133   0.487   3.090   2.773  0.0989 -0.5096  0.2071
 3105TP3     H121134   0.445   3.106   2.857 -0.5825  1.3842 -0.4556
 3105TP3     H221135   0.425   3.035   2.725 -0.6102  0.3846  0.0784
 3106TP3      O21136   0.767   3.733   3.038 -0.0633 -0.0110  0.0059
 3106TP3     H121137   0.810   3.693   2.962  1.8995 -0.5155  1.3215
 3106TP3     H221138   0.687   3.682   3.049  1.3424 -2.2713  0.3531
 3107TP3      O21139   0.487   4.002   7.994 -0.3053 -0.4383 -0.2241
 3107TP3     H121140   0.506   4.065   7.924 -5.3181 -1.0125 -2.5389
 3107TP3     H221141   0.545   3.928   7.976 -0.1926  0.1663 -2.8340
 3108TP3      O21142   1.558   4.290   9.561  0.0833 -0.2634  0.6142
 3108TP3     H121143   1.511   4.210   9.581  2.6861 -1.6718  1.5794
 3108TP3     H221144   1.538   4.308   9.469 -3.0525 -0.1331  1.2032
 3109TP3      O21145   0.558   4.333   9.114 -0.8995 -0.2943  0.2541
 3109TP3     H121146   0.489   4.305   9.054 -0.8492 -1.7968  0.8375
 3109TP3     H221147   0.628   4.269   9.101  0.2563  1.0088 -0.0826
 3110TP3      O21148   2.319   0.669   0.019 -0.5621 -0.1065  0.2472
 3110TP3     H121149   2.257   0.712   0.078 -0.7189  0.2448 -0.1681
 3110TP3     H221150   2.350   0.739  -0.039  1.0689 -0.0291  1.1378
 3111TP3      O21151   4.828   4.724   7.659  0.4113  0.1949  0.3423
 3111TP3     H121152   4.870   4.660   7.602  0.3414  0.2862  0.1863
 3111TP3     H221153   4.856   4.809   7.624  0.0593  0.2573  0.2106
 3112TP3      O21154   3.451   2.674   8.647  0.3070  0.2000 -0.0901
 3112TP3     H121155   3.413   2.635   8.726 -0.0690  1.0758  0.1742
 3112TP3     H221156   3.527   2.619   8.628 -0.2461 -0.6972  0.2218
 3113TP3      O21157   1.496   1.970   1.782  1.0791 -0.1422 -0.6414
 3113TP3     H121158   1.457   1.927   1.858  1.8647 -0.0021 -0.1479
 3113TP3     H221159   1.448   1.935   1.707  1.4322 -1.5727 -0.2241
 3114TP3      O21160   0.258   3.707   2.654 -0.4629 -0.2943  0.3611
 3114TP3     H121161   0.342   3.673   2.686  0.2418 -0.5258 -1.5769
 3114TP3     H221162   0.219   3.751   2.730  2.7001  2.3375  0.6650
 3115TP3      O21163   4.739   0.507   8.298 -0.0743 -0.2818  0.2426
 3115TP3     H121164   4.793   0.435   8.331  0.7690  0.4362  0.4560
 3115TP3     H221165   4.801   0.571   8.265 -0.7524  0.8755  1.1250
 3116TP3      O21166   0.703   2.115   0.626  0.3219  0.2455 -0.2024
 3116TP3     H121167   0.713   2.021   0.612  1.5014  0.4866 -1.1831
 3116TP3     H221168   0.655   2.122   0.708  0.1108 -1.2123 -0.1756
 3117TP3      O21169   4.009   3.205  10.073  0.0121  0.1488  0.3940
 3117TP3     H121170   4.001   3.233   9.981  0.1532  0.8732  0.5920
 3117TP3     H221171   4.062   3.126  10.069  1.7429  1.2632 -0.0139
 3118TP3      O21172   1.505   0.233   9.090 -0.1535 -0.1244 -0.6159
 3118TP3     H121173   1.513   0.188   9.175  0.0990 -0.5081 -0.8391
 3118TP3     H221174   1.417   0.212   9.060 -0.3296  0.2156 -0.3315
 3119TP3      O21175   1.578   2.501   8.303 -0.1890 -0.1451 -0.1908
 3119TP3     H121176   1.504   2.440   8.308 -0.5051  0.3172  1.2832
 3119TP3     H221177   1.538   2.587   8.296  0.1858  0.1160  0.6763
 3120TP3      O21178   2.238   4.545   0.737 -0.1172 -1.5338 -0.4791
 3120TP3     H121179   2.159   4.577   0.780 -0.9597 -2.1023 -1.5645
 3120TP3     H221180   2.243   4.595   0.656  2.1675  0.4698  0.7515
 3121TP3      O21181   3.095   4.919   0.520  0.3461 -0.0159 -0.3803
 3121TP3     H121182   3.133   4.967   0.594  0.8903 -2.4717  1.0590
 3121TP3     H221183   3.159   4.850   0.501 -0.8546 -0.8399 -1.6326
 3122TP3      O21184   2.614   0.396   1.556 -0.1311  0.6977  0.9931
 3122TP3     H121185   2.604   0.370   1.647  2.0013 -0.0039  1.0798
 3122TP3     H221186   2.668   0.476   1.560  3.6448 -1.5632  0.3155
 3123TP3      O21187   4.190   3.442   7.602 -0.3487  0.3383 -0.6882
 3123TP3     H121188   4.181   3.412   7.692 -0.8191 -1.4933 -1.3089
 3123TP3     H221189   4.191   3.537   7.608 -0.5111  0.2438  1.2279
 3124TP3      O21190   1.260   3.789   8.954  0.0135  0.4831 -0.1683
 3124TP3     H121191   1.208   3.771   8.876 -0.2875  0.5025  0.0254
 3124TP3     H221192   1.246   3.713   9.010  0.9474  0.0539 -0.5060
 3125TP3      O21193   5.193   0.493   8.373 -0.2188  0.1162  0.2020
 3125TP3     H121194   5.259   0.556   8.401  1.6170 -2.1007  1.2328
 3125TP3     H221195   5.229   0.455   8.293  1.2742 -2.9500  2.1036
 3126TP3      O21196   2.019   2.905   7.706  0.1147 -0.1788  0.1058
 3126TP3     H121197   1.944   2.950   7.669  1.0091  0.8861 -0.4715
 3126TP3     H221198   1.997   2.893   7.798 -0.5437  0.6073  0.0605
 3127TP3      O21199   1.056   4.576   0.355  0.1450  0.2434  0.1505
 3127TP3     H121200   0.990   4.644   0.340 -2.0480 -2.0207 -1.2098
 3127TP3     H221201   1.047   4.517   0.280  3.5614 -0.3763  0.0760
 3128TP3      O21202   2.607   5.078   0.107  0.0317 -0.1333 -0.3260
 3128TP3     H121203   2.570   5.104   0.023 -0.9247  0.4824  0.2661
 3128TP3     H221204   2.702   5.089   0.096 -0.1894  1.7692 -0.7388
 3129TP3      O21205   3.888   3.449   2.286 -0.1567 -0.0154 -0.7097
 3129TP3     H121206   3.914   3.358   2.272 -1.8468 -0.5537 -0.5337
 3129TP3     H221207   3.849   3.476   2.203 -2.3332 -0.4470  0.0899
 3130TP3      O21208   3.157   4.588   0.155  0.2876  0.4578 -0.6687
 3130TP3     H121209   3.132   4.498   0.171  2.2465 -0.5815 -2.8053
 3130TP3     H221210   3.168   4.594   0.060  1.4568  2.5683 -0.4859
 3131TP3      O21211   0.545   2.752   9.726 -0.0019  0.3235 -0.1897
 3131TP3     H121212   0.580   2.806   9.796  0.7098  0.5208 -0.6873
 3131TP3     H221213   0.455   2.733   9.753 -0.4610  2.1814 -0.2371
 3132TP3      O21214   2.085   0.664   7.671  0.0179 -0.1743 -0.1182
 3132TP3     H121215   2.140   0.592   7.643 -0.3929 -0.1339 -1.0738
 3132TP3     H221216   2.098   0.732   7.605 -1.3285 -0.2547 -0.5135
 3133TP3      O21217   2.100   5.275   7.284 -0.3968  0.3553 -0.2732
 3133TP3     H121218   2.075   5.363   7.258 -0.3136  0.5926  0.4356
 3133TP3     H221219   2.050   5.218   7.224 -0.1480  0.8761 -0.9885
 3134TP3      O21220   0.291   3.883   8.238  0.2083  0.1254  0.5849
 3134TP3     H121221   0.313   3.860   8.148  0.5565 -1.2938  0.9971
 3134TP3     H221222   0.373   3.873   8.286  0.7489  3.6295  0.6532
 3135TP3      O21223   4.966   4.595   7.472  0.6509 -0.0352  0.6030
 3135TP3     H121224   5.055   4.631   7.465  0.7648 -0.4131  0.0352
 3135TP3     H221225   4.924   4.618   7.390  0.5479 -0.7140  0.4594
 3136TP3      O21226   2.338   1.674   1.575 -0.0132 -0.4191 -0.0367
 3136TP3     H121227   2.365   1.659   1.484 -1.4579 -1.2236 -0.3778
 3136TP3     H221228   2.304   1.589   1.604  2.2458 -0.7307  1.9683
 3137TP3      O21229   1.133   1.146   1.585  0.2825  0.5187 -0.1271
 3137TP3     H121230   1.195   1.102   1.643  1.3769  1.3122 -0.6559
 3137TP3     H221231   1.113   1.229   1.630  1.2361  1.1976 -0.9001
 3138TP3      O21232   4.721   4.933   8.480 -0.5318  0.4164  0.1164
 3138TP3     H121233   4.804   4.945   8.528 -0.8025  0.0324  0.6981
 3138TP3     H221234   4.656   4.918   8.549 -0.6380 -1.8736 -0.4020
 3139TP3      O21235   3.648   1.268   9.693  0.1810 -0.6796  0.5159
 3139TP3     H121236   3.701   1.295   9.619  0.7092 -0.7238  0.8719
 3139TP3     H221237   3.660   1.337   9.758 -0.9077 -0.2389  0.2709
 3140TP3      O21238   3.242   3.069   0.074 -0.1138  0.3497 -0.0480
 3140TP3     H121239   3.252   2.974   0.083  1.9131  0.5115 -0.0522
 3140TP3     H221240   3.211   3.098   0.160 -1.1369 -0.3441 -0.1675
 3141TP3      O21241   3.538   4.373   8.309  0.6381 -0.0098  0.5358
 3141TP3     H121242   3.579   4.408   8.388  2.7288  0.2898 -0.6067
 3141TP3     H221243   3.470   4.436   8.287  1.3533  0.9469  0.9983
 3142TP3      O21244   0.109   4.942   7.577  0.1592 -0.1120 -0.6486
 3142TP3     H121245   0.135   4.981   7.494  0.2993  2.4869  0.4980
 3142TP3     H221246   0.184   4.958   7.635 -0.6896 -0.0711  0.4831
 3143TP3      O21247   4.716   3.387   7.874  0.4887  0.7311 -0.0733
 3143TP3     H121248   4.809   3.408   7.886  1.0615  0.1301 -2.7641
 3143TP3     H221249   4.717   3.305   7.826 -1.4889  0.5138  0.1881
 3144TP3      O21250   1.487   2.976   8.164  0.1269  0.2427  0.4971
 3144TP3     H121251   1.473   3.036   8.237 -0.2292 -0.7017  1.2165
 3144TP3     H221252   1.419   3.000   8.101  1.0935  1.7784 -0.0416
 3145TP3      O21253   5.203   3.308   9.828  0.1333  0.0500 -0.5216
 3145TP3     H121254   5.276   3.280   9.884 -0.4026 -0.6232 -0.1512
 3145TP3     H221255   5.128   3.314   9.887  0.2748  2.6989 -0.4870
 3146TP3      O21256   1.697   0.366   2.996  0.4029 -0.4085 -0.3719
 3146TP3     H121257   1.658   0.399   3.077  0.2114 -0.2758 -0.5195
 3146TP3     H221258   1.790   0.389   3.004  0.4217 -0.5722 -0.0993
 3147TP3      O21259   2.584   0.080   9.324  0.5808  0.4666 -0.1294
 3147TP3     H121260   2.627   0.149   9.375  1.0668  0.9222 -1.1264
 3147TP3     H221261   2.503   0.120   9.292 -0.2682 -0.1680  1.1640
 3148TP3      O21262   1.675   2.392   7.840 -0.5575 -0.0181 -0.0666
 3148TP3     H121263   1.628   2.467   7.875  2.1076  1.7040  0.1378
 3148TP3     H221264   1.680   2.408   7.746  0.0575  0.1045 -0.0175
 3149TP3      O21265   2.706   1.796   1.435  0.5190  0.0595  0.0591
 3149TP3     H121266   2.698   1.722   1.376  0.2032 -0.1251  0.3303
 3149TP3     H221267   2.708   1.757   1.523 -0.0378  0.3871  0.2249
 3150TP3      O21268   0.437   2.917   8.484  0.3108 -0.4338 -0.1073
 3150TP3     H121269   0.377   2.846   8.461  0.4183 -1.2339  1.9099
 3150TP3     H221270   0.391   2.997   8.457 -1.3013 -1.0776  0.6011
 3151TP3      O21271   1.359   0.171  10.004 -0.0838  0.3128  0.2954
 3151TP3     H121272   1.404   0.183  10.088  0.7557  0.6182 -0.1932
 3151TP3     H221273   1.428   0.174   9.939 -0.3089 -2.8024 -0.2407
 3152TP3      O21274   4.576   3.444   9.150  0.7282 -0.2657  0.2443
 3152TP3     H121275   4.668   3.427   9.173  1.4518  0.1482 -2.1260
 3152TP3     H221276   4.574   3.537   9.128 -0.6548  0.1077  1.7406
 3153TP3      O21277   1.022   3.427   9.706  0.0197  0.0409  0.0793
 3153TP3     H121278   0.965   3.365   9.751  1.0058 -0.4531  0.6775
 3153TP3     H221279   1.057   3.482   9.776 -0.2644  0.7960 -0.3634
 3154TP3      O21280   1.543   3.821   2.218 -0.1909  0.8884 -0.5424
 3154TP3     H121281   1.509   3.731   2.219 -0.4161  0.9793  0.0611
 3154TP3     H221282   1.630   3.814   2.256 -0.2539  0.9463 -0.3891
 3155TP3      O21283   1.497   3.019   7.886 -0.0837  0.0677  0.2214
 3155TP3     H121284   1.560   2.969   7.938  0.0019  1.3527  1.4044
 3155TP3     H221285   1.531   3.108   7.886 -1.0914  0.4768 -0.4626
 3156TP3      O21286   3.715   0.646   0.725  0.0990 -0.7549 -0.3763
 3156TP3     H121287   3.803   0.664   0.758  0.3192 -1.8404 -0.3639
 3156TP3     H221288   3.690   0.727   0.680  0.9875 -0.3400 -0.1516
 3157TP3      O21289   4.176   3.814   0.125 -0.2767 -0.2387  0.4349
 3157TP3     H121290   4.149   3.766   0.203 -0.1299 -1.3485 -0.1742
 3157TP3     H221291   4.226   3.888   0.159 -0.2027 -0.7070  1.3899
 3158TP3      O21292   1.373   3.111   8.375 -0.0162 -0.6601  0.2153
 3158TP3     H121293   1.459   3.106   8.417 -0.0946  1.2688  0.6986
 3158TP3     H221294   1.311   3.088   8.444 -0.0470  0.9733  0.7670
 3159TP3      O21295   2.064   3.719   2.841 -0.6291  0.1961  0.0741
 3159TP3     H121296   2.060   3.802   2.888  2.4374  0.9270 -0.7656
 3159TP3     H221297   2.064   3.652   2.909 -1.2778  0.9516  0.8416
 3160TP3      O21298   4.592   3.457   0.751  0.4212  0.5616  0.0546
 3160TP3     H121299   4.583   3.534   0.695  1.5123  0.4264 -0.3251
 3160TP3     H221300   4.630   3.390   0.694  0.1800 -0.0377  0.5776
 3161TP3      O21301   3.819   2.330   8.693 -0.0970 -0.4834  0.3121
 3161TP3     H121302   3.769   2.346   8.773 -1.1191 -0.8050 -0.2461
 3161TP3     H221303   3.897   2.283   8.722 -0.0141  0.1948  1.2221
 3162TP3      O21304   4.431   0.565   1.894 -0.0052 -0.0878  0.4431
 3162TP3     H121305   4.426   0.541   1.801 -1.0341 -0.6272  0.6206
 3162TP3     H221306   4.345   0.604   1.913  0.3856  0.5043  1.0451
 3163TP3      O21307   3.028   4.898   8.602 -0.0645 -0.0311  0.7496
 3163TP3     H121308   2.987   4.961   8.661  2.2147  0.8775  1.4704
 3163TP3     H221309   3.061   4.829   8.660  0.9569  0.1515  0.3993
 3164TP3      O21310   2.245   3.932   9.489  0.6498 -0.7338 -0.3123
 3164TP3     H121311   2.328   3.885   9.490  0.9010 -0.3613 -1.5127
 3164TP3     H221312   2.269   4.024   9.477  0.1485 -0.3183  1.6005
 3165TP3      O21313   2.079   3.503   1.193 -0.7651  0.1683  0.0568
 3165TP3     H121314   1.985   3.515   1.178 -0.5591 -0.0123 -1.6894
 3165TP3     H221315   2.117   3.590   1.177 -0.6057  0.1666  0.4220
 3166TP3      O21316   3.550   3.864   0.677 -0.0786  0.4524  0.2235
 3166TP3     H121317   3.556   3.954   0.647  0.1138  0.7009  0.9800
 3166TP3     H221318   3.572   3.811   0.600  3.3730  1.1097  0.6013
 3167TP3      O21319   3.949   4.014   2.476  0.1201 -0.3074  0.3234
 3167TP3     H121320   3.884   3.945   2.487  1.5120 -1.4048  2.4877
 3167TP3     H221321   3.903   4.083   2.428 -1.5877 -2.3487 -1.1796
 3168TP3      O21322   1.001   2.347   1.237  0.4999  0.1298  0.0835
 3168TP3     H121323   1.089   2.381   1.225  0.3535  0.8256  0.9326
 3168TP3     H221324   0.948   2.423   1.261 -0.8269  0.1733 -2.5312
 3169TP3      O21325   2.561   2.263   8.149  0.5946 -0.0078 -0.6723
 3169TP3     H121326   2.626   2.243   8.216 -2.1987  1.4432  2.7472
 3169TP3     H221327   2.534   2.177   8.116  1.3506 -0.8361  0.7761
 3170TP3      O21328   3.161   3.463   7.654  0.1645  0.6319 -0.0688
 3170TP3     H121329   3.207   3.486   7.734  0.2971  1.2086 -0.3079
 3170TP3     H221330   3.203   3.516   7.586 -0.4993  0.7751 -0.3795
 3171TP3      O21331   3.875   3.198   9.543  0.0336  0.1127  0.2913
 3171TP3     H121332   3.872   3.133   9.613 -1.2165  0.7322  0.8556
 3171TP3     H221333   3.964   3.192   9.509 -0.4495 -2.9475 -0.7347
 3172TP3      O21334   2.332   3.057   9.475 -0.0924  0.2706 -0.5252
 3172TP3     H121335   2.412   3.032   9.521  0.5546  0.9055 -1.2728
 3172TP3     H221336   2.331   3.002   9.396 -0.0432  0.7246 -0.8478
 3173TP3      O21337   4.046   2.203   8.442 -0.4573  0.3179 -0.8305
 3173TP3     H121338   4.138   2.178   8.436 -0.8651 -1.1675 -1.1143
 3173TP3     H221339   4.036   2.233   8.532 -0.0904 -1.2120 -0.2521
 3174TP3      O21340   0.142   2.364   0.382  0.2224  0.4920 -0.1473
 3174TP3     H121341   0.113   2.452   0.407 -0.0296  0.9417 -1.8741
 3174TP3     H221342   0.138   2.365   0.286  0.2768 -1.3901 -0.1893
 3175TP3      O21343   0.752   4.529   9.072 -0.0800 -0.0115 -0.2858
 3175TP3     H121344   0.835   4.517   9.118 -0.9039 -0.9799  1.0231
 3175TP3     H221345   0.699   4.454   9.098 -1.2770  0.4305 -1.3317
 3176TP3      O21346   2.328   1.783   1.104 -0.1690  0.3178  0.0033
 3176TP3     H121347   2.246   1.833   1.111  0.0673  0.7891 -0.5034
 3176TP3     H221348   2.395   1.844   1.134  0.1186  0.2939 -0.5809
 3177TP3      O21349   4.898   1.970   0.947  0.1770 -0.1250  0.6658
 3177TP3     H121350   4.882   1.882   0.914  1.3138 -0.5403  1.1807
 3177TP3     H221351   4.894   2.026   0.870 -2.2086 -0.3524  0.5332
 3178TP3      O21352   3.475   0.053   7.961 -0.6786  0.0093 -0.0771
 3178TP3     H121353   3.410   0.105   8.008  0.3221  1.3766 -0.1412
 3178TP3     H221354   3.435   0.039   7.875  0.2133  3.4488 -1.2273
 3179TP3      O21355   2.858   5.009   2.865 -0.0256  0.3766 -0.5400
 3179TP3     H121356   2.770   4.998   2.828 -0.0549  0.4356 -0.4870
 3179TP3     H221357   2.900   5.072   2.806  0.1267  0.0222 -0.8166
 3180TP3      O21358   1.581   2.351   8.546  0.1385 -0.1295  0.5329
 3180TP3     H121359   1.599   2.399   8.465 -2.5749 -1.2490 -0.8563
 3180TP3     H221360   1.520   2.407   8.594 -1.8670 -1.3997 -0.4081
 3181TP3      O21361   2.850   3.761   2.012 -0.5990 -0.1467 -0.2397
 3181TP3     H121362   2.832   3.678   1.970 -0.5488 -0.4159  0.2600
 3181TP3     H221363   2.773   3.778   2.066 -1.2030  0.7956 -1.3552
 3182TP3      O21364   4.701   4.221   7.635  0.0807 -0.3365 -0.1020
 3182TP3     H121365   4.750   4.298   7.663 -1.5082  0.0756  1.7426
 3182TP3     H221366   4.615   4.255   7.609 -1.0787 -1.5329  1.8996
 3183TP3      O21367   4.779   0.692   2.575 -0.3863 -0.3977 -0.5456
 3183TP3     H121368   4.794   0.669   2.483 -1.3708 -1.2900 -0.5035
 3183TP3     H221369   4.865   0.691   2.615 -0.0608 -0.9606 -1.2467
 3184TP3      O21370   1.521   2.446   9.719 -0.7435 -0.3185 -0.1177
 3184TP3     H121371   1.510   2.475   9.810 -2.0440 -2.5435  0.4915
 3184TP3     H221372   1.576   2.368   9.726  1.1961  0.8434 -1.5325
 3185TP3      O21373   0.830   3.335   8.121 -0.5178  0.6775 -0.2876
 3185TP3     H121374   0.920   3.318   8.091 -0.4097 -0.0635  0.4052
 3185TP3     H221375   0.778   3.265   8.080 -0.8248  1.2317 -0.8608
 3186TP3      O21376   1.525   3.820   8.561 -0.0278 -0.7376 -0.0784
 3186TP3     H121377   1.535   3.822   8.656  1.0520  0.8693 -0.1754
 3186TP3     H221378   1.556   3.733   8.535 -0.9559 -1.4375  1.0749
 3187TP3      O21379   5.011   1.020   1.365  0.2372  0.0651  0.2399
 3187TP3     H121380   5.080   1.085   1.380  0.4525 -0.2941  0.8588
 3187TP3     H221381   5.043   0.942   1.409 -0.9237  0.1230  1.2259
 3188TP3      O21382   0.574   1.314   0.791 -0.3140  0.1808  0.0256
 3188TP3     H121383   0.560   1.407   0.773  2.6461  1.4008  2.9307
 3188TP3     H221384   0.617   1.281   0.711 -2.7076  0.8013 -1.6347
 3189TP3      O21385   0.717   0.713   2.661  0.0698 -0.2639  0.2582
 3189TP3     H121386   0.626   0.693   2.684 -0.4777 -2.9374 -3.3126
 3189TP3     H221387   0.760   0.627   2.656  2.4387  0.8257  0.3909
 3190TP3      O21388   5.274   1.579   2.040  0.3279  0.2296  0.0665
 3190TP3     H121389   5.246   1.590   2.131 -0.9865  0.2223 -0.3181
 3190TP3     H221390   5.273   1.668   2.005 -2.0637 -0.0478 -0.7255
 3191TP3      O21391   2.151   5.109   0.838  0.1412 -0.0655 -0.3430
 3191TP3     H121392   2.194   5.144   0.917 -1.1331  0.6038  0.0822
 3191TP3     H221393   2.217   5.116   0.770  0.1862  2.6326 -0.1228
 3192TP3      O21394   0.744   1.095   9.257  0.0173  0.4043  0.6697
 3192TP3     H121395   0.829   1.102   9.300 -0.0262  1.7021  0.5693
 3192TP3     H221396   0.763   1.058   9.171  0.6214  1.5970  0.2681
 3193TP3      O21397   1.958   4.255   2.383  0.2956 -0.1950 -0.0056
 3193TP3     H121398   1.987   4.323   2.322  0.1125 -0.1738 -0.0676
 3193TP3     H221399   2.014   4.180   2.363 -0.4918 -0.5442 -0.9411
 3194TP3      O21400   2.236   4.644   0.488  0.0869 -0.0093  0.1744
 3194TP3     H121401   2.226   4.728   0.443  2.4546  0.0215 -0.4431
 3194TP3     H221402   2.156   4.596   0.466 -0.1155  1.0762 -1.7422
 3195TP3      O21403   2.588   3.113   8.409  0.5788 -0.0148  0.9354
 3195TP3     H121404   2.558   3.185   8.465  0.4714 -0.0790  0.9608
 3195TP3     H221405   2.514   3.095   8.352  0.8412  0.3346  0.4847
 3196TP3      O21406   4.159   1.927   1.595 -0.0625  0.2279  0.0549
 3196TP3     H121407   4.164   2.021   1.608 -0.4548  0.6037 -2.1244
 3196TP3     H221408   4.241   1.893   1.630  0.3047  1.4382  0.4019
 3197TP3      O21409   4.287   4.078   0.651 -0.3231 -0.1392  0.0968
 3197TP3     H121410   4.307   4.132   0.727 -3.4595 -1.5882  2.1565
 3197TP3     H221411   4.245   4.138   0.589  0.2983  0.6273  0.3961
 3198TP3      O21412   4.050   2.403   1.610 -0.0019  0.1071 -0.4434
 3198TP3     H121413   4.076   2.495   1.602 -1.4908  0.5323 -0.8134
 3198TP3     H221414   4.028   2.392   1.703  1.9659 -0.4112 -0.0122
 3199TP3      O21415   0.379   2.875   9.197 -0.2368 -0.7479 -0.4421
 3199TP3     H121416   0.302   2.928   9.215 -0.7279 -1.4111 -0.5308
 3199TP3     H221417   0.421   2.862   9.282  0.6101  0.8373 -0.5879
 3200TP3      O21418   4.292   2.300   8.085  0.1381  0.4460  0.3106
 3200TP3     H121419   4.215   2.321   8.032  0.0316 -0.1956  0.2074
 3200TP3     H221420   4.317   2.212   8.058  1.4202  0.9610 -0.2555
 3201TP3      O21421   1.944   3.316   9.047  0.5036 -0.2516  0.1784
 3201TP3     H121422   1.930   3.224   9.028 -0.6841  0.1734 -1.1181
 3201TP3     H221423   1.877   3.362   8.997  0.9890  1.3156  0.8972
 3202TP3      O21424   3.152   3.287   1.408  0.4982  1.2451 -0.3201
 3202TP3     H121425   3.217   3.240   1.355 -0.0765  0.6016 -0.4621
 3202TP3     H221426   3.143   3.372   1.365  1.0857  1.2602 -0.4251
 3203TP3      O21427   0.268   0.299   9.524  0.6391 -0.1021  0.0680
 3203TP3     H121428   0.274   0.204   9.520  0.3253 -0.0818 -0.9292
 3203TP3     H221429   0.174   0.317   9.529  0.6933  0.1638  0.1345
 3204TP3      O21430   2.034   2.843   7.968 -0.3110 -0.3597 -0.3017
 3204TP3     H121431   2.117   2.807   7.998 -0.8891 -1.5271 -0.0720
 3204TP3     H221432   1.967   2.784   8.003 -1.2688  0.7350 -0.2134
 3205TP3      O21433   2.775   4.301   9.083  0.4882  0.5894 -0.1558
 3205TP3     H121434   2.741   4.327   9.169  1.3289 -1.6491  0.9292
 3205TP3     H221435   2.704   4.253   9.043  0.4759  0.6902 -0.2552
 3206TP3      O21436   3.167   5.095   1.260  0.6336 -0.6470  0.1767
 3206TP3     H121437   3.183   5.130   1.172 -2.0396 -0.0068 -0.1630
 3206TP3     H221438   3.192   5.003   1.254  0.8565 -0.5210 -1.1573
 3207TP3      O21439   1.604   1.402   8.495 -0.4287 -0.2858 -0.4168
 3207TP3     H121440   1.673   1.466   8.508 -1.1787  1.0180 -2.3830
 3207TP3     H221441   1.633   1.351   8.419 -1.4240  0.0335 -1.0282
 3208TP3      O21442   1.379   5.160   8.371 -0.1577  0.3584  0.3869
 3208TP3     H121443   1.305   5.109   8.406  1.7684 -2.7007  0.3935
 3208TP3     H221444   1.401   5.221   8.442 -1.6406  0.1841  1.0336
 3209TP3      O21445   1.856   1.884   3.264 -0.4958  0.3391  0.7830
 3209TP3     H121446   1.880   1.938   3.339  0.1954 -0.4745  1.1683
 3209TP3     H221447   1.905   1.803   3.277 -0.9963 -0.1203 -0.1304
 3210TP3      O21448   4.490   4.364   8.729  0.2331  0.1448 -0.1180
 3210TP3     H121449   4.568   4.321   8.765 -0.7516 -0.9289  0.7978
 3210TP3     H221450   4.521   4.451   8.704  1.7163 -0.2383  0.2654
 3211TP3      O21451   4.226   5.180   0.967  0.3020  0.0050  0.1376
 3211TP3     H121452   4.138   5.188   1.002  0.6343  1.1048  0.7736
 3211TP3     H221453   4.264   5.105   1.014 -0.7588 -1.4711 -1.2369
 3212TP3      O21454   2.605   1.058   7.063  0.1453  0.2179 -0.1521
 3212TP3     H121455   2.694   1.084   7.085 -0.0952  3.3734 -2.2360
 3212TP3     H221456   2.615   0.983   7.004  1.2140 -1.0781  1.5812
 3213TP3      O21457   2.565   0.469   0.779  0.5985 -0.3076  0.1006
 3213TP3     H121458   2.552   0.517   0.860 -0.3044 -0.3857  0.0053
 3213TP3     H221459   2.647   0.420   0.793  1.7923  1.5666  0.0356
 3214TP3      O21460   2.732   0.968   0.105 -0.4231  0.0986  0.3751
 3214TP3     H121461   2.826   0.971   0.121 -0.4619  0.5850  0.5380
 3214TP3     H221462   2.723   0.925   0.020  0.0243  1.2589 -0.2782
 3215TP3      O21463   3.524   0.134   7.356 -0.4232  0.0360 -0.4342
 3215TP3     H121464   3.606   0.123   7.309 -1.0367 -1.4842 -1.2194
 3215TP3     H221465   3.550   0.158   7.445  0.7883  1.6178 -1.1794
 3216TP3      O21466   1.352   2.362   8.705 -0.7700  0.5172  0.0445
 3216TP3     H121467   1.322   2.424   8.771  0.3566  0.8987  0.2199
 3216TP3     H221468   1.284   2.363   8.638 -1.7101  0.4662  0.9758
 3217TP3      O21469   1.142   0.686   0.754 -0.6759  0.0279  0.1584
 3217TP3     H121470   1.131   0.634   0.674 -0.2586 -0.5581  0.4688
 3217TP3     H221471   1.131   0.622   0.825 -2.2715  0.7559  0.6160
 3218TP3      O21472   0.648   4.429   0.634 -0.0314  0.6855 -0.4340
 3218TP3     H121473   0.714   4.362   0.649 -1.0601 -1.1311 -3.2410
 3218TP3     H221474   0.641   4.476   0.718  1.4355 -2.0529  1.3488
 3219TP3      O21475   0.191   1.912   1.726  0.2473 -0.3660 -0.3416
 3219TP3     H121476   0.258   1.882   1.665  1.2301  1.5287 -0.2555
 3219TP3     H221477   0.125   1.954   1.671  0.7015  0.5658 -0.1820
 3220TP3      O21478   2.647   4.849   2.956 -0.1626  0.0505 -0.1031
 3220TP3     H121479   2.586   4.906   3.003  1.0808  0.5725  0.9302
 3220TP3     H221480   2.600   4.766   2.946 -0.5997  0.0405  1.7515
 3221TP3      O21481   4.601   2.931   0.540 -0.4569 -0.0239  0.4063
 3221TP3     H121482   4.553   3.014   0.543 -0.8284 -0.2617  1.3315
 3221TP3     H221483   4.689   2.952   0.570 -0.6494 -0.0235  0.9793
 3222TP3      O21484   3.023   4.284   7.614  0.1440 -0.0241  0.5652
 3222TP3     H121485   3.049   4.302   7.524 -0.6580  0.7477  0.4663
 3222TP3     H221486   2.958   4.214   7.606 -0.8027  0.8361  0.4012
 3223TP3      O21487   3.438   4.231   8.758 -0.2337 -0.1338 -0.0157
 3223TP3     H121488   3.356   4.220   8.806 -0.2429  1.5927  0.4030
 3223TP3     H221489   3.430   4.170   8.684 -1.8614 -0.0482  0.0568
 3224TP3      O21490   3.995   1.511   8.671  0.2947 -0.7064  0.4721
 3224TP3     H121491   4.047   1.562   8.733  1.0515 -1.5555  0.5459
 3224TP3     H221492   4.049   1.506   8.593 -0.5869  0.2177 -0.2192
 3225TP3      O21493   2.085   0.631   0.772  0.0200 -0.3845  0.5155
 3225TP3     H121494   2.035   0.580   0.835 -1.0199  0.0547  0.0662
 3225TP3     H221495   2.070   0.588   0.688 -1.0698  0.7665  0.0903
 3226TP3      O21496   5.263   4.486   9.251 -0.0258  0.3745  0.3356
 3226TP3     H121497   5.270   4.578   9.227  1.6183 -0.0689 -1.1196
 3226TP3     H221498   5.170   4.473   9.270 -0.2844  2.3175  0.5950
 3227TP3      O21499   3.770   1.363   1.005 -0.4028 -0.4571  0.0738
 3227TP3     H121500   3.689   1.351   1.053 -0.4891  0.3192  0.1372
 3227TP3     H221501   3.801   1.274   0.987 -0.5448 -0.7592  1.2591
 3228TP3      O21502   1.572   2.977   8.910 -0.0473 -0.3000 -0.1339
 3228TP3     H121503   1.624   3.015   8.839 -0.4909  1.5770  0.4640
 3228TP3     H221504   1.635   2.963   8.981 -0.1670  1.2510  0.3225
 3229TP3      O21505   0.509   2.403   8.202  0.1004 -0.1104  0.3352
 3229TP3     H121506   0.416   2.393   8.224 -0.2999  1.3707 -0.5754
 3229TP3     H221507   0.537   2.315   8.176 -1.1675 -0.4877  0.1761
 3230TP3      O21508   4.769   4.290   8.667 -0.2461  0.1294  0.4449
 3230TP3     H121509   4.713   4.292   8.589  0.1639 -0.1007  0.1379
 3230TP3     H221510   4.844   4.345   8.644 -0.5664  0.8226  1.0342
 3231TP3      O21511   3.563   1.463   0.573 -0.1027 -0.1093  0.0173
 3231TP3     H121512   3.645   1.482   0.619 -1.0843 -0.7721  2.1478
 3231TP3     H221513   3.576   1.375   0.538  1.0667  0.8143 -2.0746
 3232TP3      O21514   2.390   0.025   0.795 -0.1711 -0.6363 -0.2509
 3232TP3     H121515   2.344   0.099   0.835  1.1685  0.9462 -1.5048
 3232TP3     H221516   2.462   0.065   0.746  1.7859 -2.9098  0.5563
 3233TP3      O21517   1.911   2.649  10.070 -0.4156 -0.0563  0.4705
 3233TP3     H121518   1.953   2.651  10.156  0.0010 -0.7111  0.2968
 3233TP3     H221519   1.946   2.569  10.029 -1.0831 -0.0814 -0.0632
 3234TP3      O21520   1.502   1.234   3.017  0.2582  0.2417  0.1683
 3234TP3     H121521   1.585   1.218   2.972  0.0069 -2.2769  0.4461
 3234TP3     H221522   1.522   1.303   3.080  1.9911  0.0845 -0.1599
 3235TP3      O21523   3.094   4.986   9.235  0.0127 -0.1113 -0.3362
 3235TP3     H121524   3.140   5.070   9.227 -0.4745  0.4243  1.9011
 3235TP3     H221525   3.001   5.010   9.234 -0.3719 -1.0940 -3.8709
 3236TP3      O21526   3.139   0.363   9.081 -0.6297 -0.1258 -0.1606
 3236TP3     H121527   3.186   0.391   9.002 -1.4611  1.3976 -0.1593
 3236TP3     H221528   3.132   0.268   9.072 -0.6203 -0.0018 -1.9040
 3237TP3      O21529   2.669   3.555   8.075 -0.0206  0.1169 -0.1172
 3237TP3     H121530   2.688   3.649   8.068  1.2551 -0.1417 -0.4194
 3237TP3     H221531   2.710   3.528   8.157  0.6937 -0.4004 -0.6275
 3238TP3      O21532   4.279   0.156   9.119 -0.6368 -0.0255  0.2332
 3238TP3     H121533   4.186   0.138   9.109 -0.7396 -0.5583  1.7808
 3238TP3     H221534   4.288   0.183   9.211  1.0366 -2.1966  0.7846
 3239TP3      O21535   1.441   0.271   9.703  0.3149 -0.2383 -0.2970
 3239TP3     H121536   1.362   0.216   9.710 -0.3791  0.6140 -1.0506
 3239TP3     H221537   1.423   0.327   9.627  0.7462  1.4223  0.7788
 3240TP3      O21538   2.781   4.736   2.175  0.6110 -0.0514 -0.2223
 3240TP3     H121539   2.741   4.783   2.102 -0.1690  0.6158  0.6010
 3240TP3     H221540   2.754   4.645   2.163  1.3994 -0.1570 -1.3455
 3241TP3      O21541   4.422   1.483   2.276 -0.0266  0.2027  0.6625
 3241TP3     H121542   4.490   1.426   2.242  0.3636  0.5053  0.9319
 3241TP3     H221543   4.370   1.507   2.199  2.0779  2.5753 -0.1571
 3242TP3      O21544   1.317   4.010   1.901  0.4913  0.1336  0.3793
 3242TP3     H121545   1.276   4.095   1.889  1.1802  0.4387  0.2002
 3242TP3     H221546   1.256   3.963   1.959 -0.2182  0.4997 -0.0586
 3243TP3      O21547   1.505   4.628   1.918 -0.5154  0.0549  0.5953
 3243TP3     H121548   1.413   4.600   1.919 -0.4946 -0.0837 -0.2818
 3243TP3     H221549   1.527   4.644   2.010 -1.9621  1.8754  0.6879
 3244TP3      O21550   1.075   1.617   2.097  0.5337  0.1527  0.7468
 3244TP3     H121551   1.164   1.652   2.092 -0.2855  2.3102 -0.0332
 3244TP3     H221552   1.020   1.689   2.067 -1.4474 -1.3163  0.6849
 3245TP3      O21553   4.570   2.017   1.481  0.4153 -0.1908  0.5939
 3245TP3     H121554   4.657   2.020   1.441  0.2683  0.6657  0.3171
 3245TP3     H221555   4.523   1.952   1.429  1.0090 -0.9705  1.0106
 3246TP3      O21556   3.721   4.262   1.788  0.4493 -0.3527 -0.4236
 3246TP3     H121557   3.813   4.252   1.814  0.0988 -1.0926  0.6022
 3246TP3     H221558   3.706   4.356   1.788  1.4236 -0.1696 -1.4432
 3247TP3      O21559   0.298   4.316   7.862 -0.1943 -0.0408 -0.9594
 3247TP3     H121560   0.387   4.283   7.857  0.4230  1.6394 -2.0225
 3247TP3     H221561   0.299   4.396   7.810 -1.9265  0.8926  0.3068
 3248TP3      O21562   1.948   3.877   1.194 -0.3309  0.3563  0.5277
 3248TP3     H121563   1.991   3.929   1.127  0.0226 -0.2095  0.3086
 3248TP3     H221564   2.012   3.810   1.218 -1.8123 -1.9318 -1.4237
 3249TP3      O21565   1.519   2.818   6.949  0.5867  0.1379 -0.1594
 3249TP3     H121566   1.483   2.828   6.860 -0.6618 -2.0887  0.0241
 3249TP3     H221567   1.540   2.725   6.956  2.3592  0.5898  1.3116
 3250TP3      O21568   3.576   0.227   1.095 -0.1039 -0.2118  0.3146
 3250TP3     H121569   3.552   0.250   1.006 -2.4056 -0.1274  0.9008
 3250TP3     H221570   3.672   0.234   1.097 -0.0906  0.8030 -1.8417
 3251TP3      O21571   3.519   2.585   2.257  0.0655 -0.4455  0.1645
 3251TP3     H121572   3.513   2.629   2.172  1.0008  1.2656  0.9463
 3251TP3     H221573   3.477   2.644   2.318  0.5915 -1.0270  1.1158
 3252TP3      O21574   0.388   2.122   9.200  0.1113  1.3134  0.2238
 3252TP3     H121575   0.432   2.150   9.281 -1.6708  0.9900  1.3509
 3252TP3     H221576   0.322   2.060   9.229 -0.3517  0.9329 -1.5477
 3253TP3      O21577   2.509   0.257   8.449  0.4736  0.1122 -0.0262
 3253TP3     H121578   2.571   0.185   8.463 -0.0158 -0.1746  0.6696
 3253TP3     H221579   2.523   0.282   8.357  1.5530 -0.0101  0.0893
 3254TP3      O21580   0.049   0.424   0.408  0.2950  0.3896  0.4240
 3254TP3     H121581  -0.003   0.344   0.413 -2.2653  1.8640 -0.7086
 3254TP3     H221582   0.049   0.447   0.315  0.6855  1.8699  0.7554
 3255TP3      O21583   3.270   2.271   8.558  0.2724  0.4174 -0.1576
 3255TP3     H121584   3.313   2.192   8.525 -1.1073 -1.0456  1.3295
 3255TP3     H221585   3.266   2.329   8.482 -0.3547 -1.7109 -1.8725
 3256TP3      O21586   5.228   4.734   2.345 -0.1209 -0.0194 -0.2997
 3256TP3     H121587   5.186   4.813   2.310 -0.4564  0.3594  0.9294
 3256TP3     H221588   5.156   4.672   2.354  0.1076 -0.4082 -1.0544
 3257TP3      O21589   2.618   0.981   9.133  0.0889  0.6045 -0.1747
 3257TP3     H121590   2.588   1.067   9.162 -0.4526  0.2918  0.1965
 3257TP3     H221591   2.681   1.000   9.063 -0.2413  1.2895 -0.2881
 3258TP3      O21592   0.074   4.152   8.039  0.3700 -0.6254 -0.5572
 3258TP3     H121593   0.102   4.061   8.033 -2.1996 -1.6395  1.1207
 3258TP3     H221594   0.148   4.197   8.081  0.5289 -2.6281  1.5316
 3259TP3      O21595   1.630   4.053   8.323  0.3030  0.1320 -0.1877
 3259TP3     H121596   1.672   4.054   8.409 -0.8793 -0.4018  0.4331
 3259TP3     H221597   1.572   3.977   8.326  0.5140 -0.1097 -1.6112
 3260TP3      O21598   3.567   0.419   8.757 -0.1781 -0.4509  0.2811
 3260TP3     H121599   3.597   0.329   8.746  1.5397  0.2368 -1.0376
 3260TP3     H221600   3.596   0.444   8.845  0.8801 -0.6525  0.0040
 3261TP3      O21601   0.425   3.312   2.219  0.3301 -0.1124 -0.7076
 3261TP3     H121602   0.453   3.313   2.310  1.0624 -0.1298 -0.9313
 3261TP3     H221603   0.356   3.379   2.214 -0.5392 -0.9127  0.1078
 3262TP3      O21604   4.232   1.379   1.635  0.1797 -0.2570 -0.2194
 3262TP3     H121605   4.322   1.354   1.656 -0.4178 -1.3996  1.2287
 3262TP3     H221606   4.199   1.308   1.580 -0.0860 -0.2919 -0.0225
 3263TP3      O21607   5.027   0.305   2.312 -0.2206  0.9115  0.5632
 3263TP3     H121608   5.062   0.216   2.303 -0.2617  0.9442  0.0459
 3263TP3     H221609   4.935   0.292   2.334 -0.3781  0.8145 -0.1101
 3264TP3      O21610   3.968   4.964   9.124 -0.1577 -0.2074  0.3311
 3264TP3     H121611   3.906   5.028   9.161 -0.0797  0.4487 -0.6385
 3264TP3     H221612   4.051   5.012   9.119 -0.1809 -0.2588 -0.7362
 3265TP3      O21613   3.711   0.790   9.938  0.0834 -0.7147  0.2830
 3265TP3     H121614   3.713   0.856   9.868  0.5899 -0.9425  0.0766
 3265TP3     H221615   3.746   0.711   9.897 -0.1496 -1.0054  0.6428
 3266TP3      O21616   3.614   3.148   3.330  0.3233  0.0770  0.1556
 3266TP3     H121617   3.539   3.197   3.365 -0.9184 -1.7829  0.2456
 3266TP3     H221618   3.602   3.059   3.363 -0.1260 -1.4811 -3.6408
 3267TP3      O21619   2.058   4.682   9.004 -0.0781 -0.1485 -0.2000
 3267TP3     H121620   1.995   4.627   8.958 -0.2697  0.8180 -1.1411
 3267TP3     H221621   2.144   4.643   8.985 -0.3027 -0.9034  0.2898
 3268TP3      O21622   2.383   4.461   9.366  0.0442  0.7884  0.7733
 3268TP3     H121623   2.451   4.511   9.411  0.6218 -0.3571  1.2024
 3268TP3     H221624   2.373   4.381   9.418 -0.2560  0.0604 -0.3713
 3269TP3      O21625   2.263   1.177   9.947  0.4615  0.3314  0.2756
 3269TP3     H121626   2.239   1.149  10.036 -0.5780  0.6809  0.1262
 3269TP3     H221627   2.180   1.208   9.909  0.6379 -0.9101 -1.2299
 3270TP3      O21628   4.990   0.463   7.530 -0.2507 -0.2638  0.6116
 3270TP3     H121629   4.900   0.494   7.532 -0.7527 -1.6852  1.8913
 3270TP3     H221630   4.986   0.375   7.567  1.5028 -0.7993 -0.3474
 3271TP3      O21631   1.612   3.522   8.494  0.4837  0.1886 -0.1223
 3271TP3     H121632   1.630   3.496   8.585  3.8008  1.0042 -0.4388
 3271TP3     H221633   1.694   3.560   8.463 -1.1091  1.6314 -2.9227
 3272TP3      O21634   3.746   2.216   0.794 -0.0132 -0.0351  0.2247
 3272TP3     H121635   3.828   2.260   0.770 -0.2047 -0.0664 -0.5126
 3272TP3     H221636   3.679   2.260   0.742 -0.1668 -1.3815 -0.7690
 3273TP3      O21637   0.585   3.739   1.150 -0.1715  0.1605  0.1701
 3273TP3     H121638   0.502   3.774   1.119  0.1395  0.5541 -0.2337
 3273TP3     H221639   0.601   3.785   1.233 -0.9371 -0.7951  0.8707
 3274TP3      O21640   0.785   0.039   2.618  0.1213 -0.2920 -0.1396
 3274TP3     H121641   0.717   0.089   2.663  0.7935 -0.5187  1.2139
 3274TP3     H221642   0.833  -0.004   2.690  1.1567 -0.7981 -1.1071
 3275TP3      O21643   2.226   5.273   1.388 -0.2141  0.4398 -0.6555
 3275TP3     H121644   2.269   5.202   1.436  1.3960  0.1176 -2.4343
 3275TP3     H221645   2.134   5.268   1.414  0.1215 -1.3860  0.3313
 3276TP3      O21646   0.638   0.243   8.135 -0.3503  0.2313  0.1694
 3276TP3     H121647   0.544   0.239   8.116  0.0087  1.5272 -2.3113
 3276TP3     H221648   0.673   0.162   8.097 -0.0586  1.3752 -2.1589
 3277TP3      O21649   3.862   3.566   7.231 -0.3693 -0.0076  0.3942
 3277TP3     H121650   3.854   3.606   7.145  2.0500 -0.8938 -0.3485
 3277TP3     H221651   3.932   3.501   7.220 -0.1065 -0.2637  2.9838
 3278TP3      O21652   0.461   1.694   9.010 -0.0678 -0.3766  0.0130
 3278TP3     H121653   0.499   1.763   9.064 -0.9381 -0.9548  1.4201
 3278TP3     H221654   0.510   1.615   9.033 -2.0508 -1.1482  1.8981
 3279TP3      O21655   2.407   2.106   6.861  0.0121 -0.0075 -0.1089
 3279TP3     H121656   2.448   2.034   6.909  0.2354 -1.2729 -2.0901
 3279TP3     H221657   2.394   2.175   6.927  0.7459 -1.4538  1.6164
 3280TP3      O21658   2.918   3.451   6.283 -0.3920  0.2576 -0.7464
 3280TP3     H121659   2.891   3.361   6.300 -0.5783  0.2778 -0.9403
 3280TP3     H221660   2.845   3.490   6.235 -0.5604  0.6850 -0.1507
 3281TP3      O21661   1.523   4.264   0.268  0.4962  0.3974 -0.4414
 3281TP3     H121662   1.585   4.215   0.214  0.7732  1.1981 -0.8719
 3281TP3     H221663   1.540   4.235   0.358  0.0000 -0.9828 -0.7742
 3282TP3      O21664   1.631   1.348   2.602 -0.4995  0.1683 -0.2928
 3282TP3     H121665   1.603   1.414   2.539 -2.3089 -1.5846 -1.4440
 3282TP3     H221666   1.562   1.345   2.667 -1.4004 -1.7559 -1.2407
 3283TP3      O21667   2.220   0.844   1.454  0.3233  0.1401 -0.1656
 3283TP3     H121668   2.246   0.812   1.541  2.3208  0.6501 -0.5111
 3283TP3     H221669   2.303   0.863   1.410 -0.6553  0.2346 -2.0736
 3284TP3      O21670   2.865   1.660   8.813 -0.2512 -0.4029  0.3913
 3284TP3     H121671   2.798   1.664   8.881  0.5593 -0.4707  1.2158
 3284TP3     H221672   2.911   1.744   8.821 -1.1023  0.2311 -1.0907
 3285TP3      O21673   2.350   1.338   1.248 -0.0786  0.4932 -0.0222
 3285TP3     H121674   2.406   1.261   1.234  0.4961  1.1239 -1.3800
 3285TP3     H221675   2.288   1.336   1.175 -0.8211  0.6747  0.5938
 3286TP3      O21676   5.254   2.990   7.275  0.0350 -0.0249 -0.4933
 3286TP3     H121677   5.226   2.956   7.360 -0.1354 -1.9943 -1.2679
 3286TP3     H221678   5.254   3.085   7.285 -1.4708 -0.1567  1.2249
 3287TP3      O21679   4.317   3.312   0.554 -0.1245  0.4178 -0.2928
 3287TP3     H121680   4.295   3.405   0.546 -0.9761  0.1601 -1.2278
 3287TP3     H221681   4.402   3.304   0.511  0.3080  0.8861  0.4618
 3288TP3      O21682   4.430   3.247   9.974  0.6973  0.1086  0.4807
 3288TP3     H121683   4.522   3.222   9.961  1.2365  1.7621  0.7429
 3288TP3     H221684   4.415   3.316   9.909 -1.4773 -2.4261 -1.9459
 3289TP3      O21685   3.299   1.340   1.621 -0.7852  0.0318  0.9861
 3289TP3     H121686   3.291   1.333   1.525 -1.7432  1.3883  0.9473
 3289TP3     H221687   3.317   1.432   1.637  2.6313 -0.6617  1.9623
 3290TP3      O21688   2.665   1.625   2.843 -0.2678 -0.3735  0.1380
 3290TP3     H121689   2.612   1.640   2.765 -0.5618  2.3096  0.7605
 3290TP3     H221690   2.616   1.665   2.914  2.1960  1.6454  0.8618
 3291TP3      O21691   4.492   1.147   7.833 -0.1362 -0.1537  0.1701
 3291TP3     H121692   4.401   1.160   7.859 -0.4665  0.8906 -1.3837
 3291TP3     H221693   4.488   1.076   7.768  0.0334  0.4367 -0.4944
 3292TP3      O21694   3.518   2.266   2.277 -0.4353  0.8460 -0.2880
 3292TP3     H121695   3.462   2.200   2.236 -0.8845 -0.1004  1.7501
 3292TP3     H221696   3.485   2.349   2.242  0.3980  0.0777 -3.2154
 3293TP3      O21697   5.130   3.674   0.362  0.1614  0.1332 -0.2416
 3293TP3     H121698   5.137   3.625   0.279 -0.4798  1.3300 -1.0223
 3293TP3     H221699   5.078   3.751   0.340 -0.0754  0.4431  1.3080
 3294TP3      O21700   1.420   4.712   9.104 -0.2218 -0.2763  0.8612
 3294TP3     H121701   1.468   4.778   9.054 -3.3019 -0.3787 -2.5796
 3294TP3     H221702   1.464   4.629   9.083  0.1932  0.0089  0.5973
 3295TP3      O21703   2.017   0.744   3.014 -0.0069  0.4631 -0.2137
 3295TP3     H121704   2.089   0.806   3.030 -0.4526  0.7740  0.6809
 3295TP3     H221705   2.040   0.667   3.066  0.3959 -0.0119 -1.0849
 3296TP3      O21706   4.714   4.959   0.102 -0.3169 -0.4266 -1.1876
 3296TP3     H121707   4.622   4.949   0.123  0.1313 -0.6567  0.8845
 3296TP3     H221708   4.759   4.899   0.162  1.3342  1.7519 -0.0962
 3297TP3      O21709   0.298   0.408   8.108 -0.1131  0.3805 -0.0278
 3297TP3     H121710   0.219   0.462   8.105 -0.5166 -0.2369 -0.9201
 3297TP3     H221711   0.303   0.378   8.199 -0.2713  1.3291  0.3072
 3298TP3      O21712   5.159   4.693   0.292 -0.1573  0.1167 -0.3206
 3298TP3     H121713   5.136   4.750   0.365  1.7222  0.1422  0.2928
 3298TP3     H221714   5.183   4.753   0.221 -2.4113  0.1053 -1.1925
 3299TP3      O21715   2.668   0.709   7.945  0.0005  0.3050  0.2003
 3299TP3     H121716   2.669   0.777   7.878 -1.0612  0.4261  0.2930
 3299TP3     H221717   2.745   0.656   7.926  0.8699  1.5331  0.1341
 3300TP3      O21718   1.921   4.201   9.782  0.0368 -0.5420 -0.4079
 3300TP3     H121719   2.009   4.215   9.818  0.4590  1.0029 -1.8832
 3300TP3     H221720   1.920   4.108   9.757  1.1851 -0.6301 -0.1766
 3301TP3      O21721   2.229   1.961   8.546 -1.0892 -0.8157 -0.4610
 3301TP3     H121722   2.259   2.002   8.627  0.2833 -0.0010 -1.3266
 3301TP3     H221723   2.218   1.868   8.568 -0.2681 -0.6922  0.5360
 3302TP3      O21724   3.827   1.568   0.628  0.3402  0.3289  0.1212
 3302TP3     H121725   3.812   1.574   0.722 -1.4259 -0.3662 -0.0735
 3302TP3     H221726   3.855   1.656   0.602  1.1015  0.4587  1.3076
 3303TP3      O21727   4.926   2.685   9.626 -0.0688 -0.1243  0.0485
 3303TP3     H121728   4.879   2.602   9.637  1.9333 -1.2779  0.4702
 3303TP3     H221729   5.017   2.659   9.611  0.3957  1.9864 -1.1433
 3304TP3      O21730   4.597   0.295   2.669  0.2113 -0.0300 -0.5228
 3304TP3     H121731   4.644   0.213   2.686 -0.1504 -0.0486  0.4586
 3304TP3     H221732   4.666   0.361   2.663  0.3930 -0.0436  0.9822
 3305TP3      O21733   4.385   2.597   7.377  0.1316 -0.2824  0.4960
 3305TP3     H121734   4.448   2.586   7.449  0.4187 -0.9958  0.1430
 3305TP3     H221735   4.404   2.684   7.342  0.5230 -0.2522  0.7719
 3306TP3      O21736   4.949   0.222   2.814  0.2787 -0.0861 -0.0307
 3306TP3     H121737   4.991   0.163   2.877 -0.7817  0.5752  1.3437
 3306TP3     H221738   4.962   0.180   2.730  1.4125 -1.1963  0.6657
 3307TP3      O21739   4.916   2.986   6.626 -0.0593 -0.1076 -0.5133
 3307TP3     H121740   4.892   3.037   6.549  1.5378  0.0886 -0.9191
 3307TP3     H221741   4.833   2.956   6.662 -0.9386  1.3335 -1.2519
 3308TP3      O21742   1.598   4.339   2.516  0.3580  0.4178  0.1785
 3308TP3     H121743   1.522   4.285   2.494  0.9476 -0.5333  0.4084
 3308TP3     H221744   1.561   4.426   2.535 -0.5831  0.1683 -0.4456
 3309TP3      O21745   0.101   5.254   1.265 -0.3343  0.3608  0.0642
 3309TP3     H121746   0.177   5.312   1.261 -0.2820  0.3678  1.0396
 3309TP3     H221747   0.130   5.174   1.221 -0.9020  1.5554 -2.7105
 3310TP3      O21748   0.458   0.128   2.014 -0.6369  0.3650  0.4304
 3310TP3     H121749   0.447   0.216   2.049 -1.4262  0.8350 -0.9127
 3310TP3     H221750   0.376   0.083   2.033 -1.0177  0.5803 -0.6354
 3311TP3      O21751   0.761   4.996   2.287 -0.3183 -0.7514 -0.1474
 3311TP3     H121752   0.687   4.938   2.303  1.6557 -3.6610 -0.6495
 3311TP3     H221753   0.786   4.977   2.196 -0.4993  2.1268 -0.8853
 3312TP3      O21754   4.438   2.686   9.601  0.1381  0.0456  0.6751
 3312TP3     H121755   4.478   2.669   9.686  1.6131 -0.4152 -0.0693
 3312TP3     H221756   4.375   2.615   9.589  1.7242 -1.3763  0.3343
 3313TP3      O21757   5.136   2.789   8.814 -0.1475 -0.2285 -0.1657
 3313TP3     H121758   5.181   2.725   8.760  0.7490  0.4200 -0.1974
 3313TP3     H221759   5.098   2.738   8.886 -2.1687 -1.2621 -1.8348
 3314TP3      O21760   1.424   2.862   6.702  0.3893 -0.8021  0.2575
 3314TP3     H121761   1.338   2.823   6.691  0.0004  0.0835  0.0748
 3314TP3     H221762   1.408   2.956   6.707  1.0849 -0.7202  2.5682
 3315TP3      O21763   0.447   3.738   9.026  0.0266  0.0597 -0.0231
 3315TP3     H121764   0.447   3.826   9.065  1.7096 -0.1110  0.4398
 3315TP3     H221765   0.524   3.695   9.064 -0.2459 -1.3064 -0.9477
 3316TP3      O21766   4.008   1.367   0.090  0.1162 -0.0631  0.2930
 3316TP3     H121767   3.944   1.301   0.064  0.4243 -0.1402 -0.2703
 3316TP3     H221768   4.087   1.317   0.111  0.9532  0.2424 -1.9550
 3317TP3      O21769   2.213   3.322   0.502  0.0251 -0.2276  0.1028
 3317TP3     H121770   2.118   3.331   0.498  0.0400 -0.0743  0.0733
 3317TP3     H221771   2.230   3.231   0.477 -0.0606 -0.0321 -0.7211
 3318TP3      O21772   2.670   1.696   1.697  0.5877  0.4708  0.0238
 3318TP3     H121773   2.741   1.633   1.687  0.6247  0.6664 -1.1453
 3318TP3     H221774   2.624   1.668   1.775  0.5742 -1.0512 -0.4920
 3319TP3      O21775   2.076   2.738   9.310 -0.0644  0.6540  0.2356
 3319TP3     H121776   2.001   2.687   9.278 -0.2287  0.6260  0.6582
 3319TP3     H221777   2.046   2.775   9.393  0.0457  1.4597 -0.0764
 3320TP3      O21778   0.319   2.815   1.426 -0.1800 -0.1585  0.2297
 3320TP3     H121779   0.299   2.732   1.382 -1.0579 -0.6055  1.4092
 3320TP3     H221780   0.240   2.835   1.477 -0.0662  1.5291 -0.1913
 3321TP3      O21781   4.528   5.208   9.917  0.1948 -0.2600  0.6117
 3321TP3     H121782   4.618   5.203   9.951  0.7143  3.4602  0.2508
 3321TP3     H221783   4.525   5.141   9.849  2.4831 -0.9142  1.0418
 3322TP3      O21784   4.445   2.404   1.376 -0.4644  0.3177 -0.8871
 3322TP3     H121785   4.438   2.376   1.285  0.7808  1.2830 -1.3187
 3322TP3     H221786   4.391   2.484   1.380  3.7654  3.6587 -2.3879
 3323TP3      O21787   4.339   2.250   8.726  0.2743  0.3015  0.4131
 3323TP3     H121788   4.408   2.210   8.673 -0.4840 -2.5903  1.4690
 3323TP3     H221789   4.385   2.289   8.800  0.9235 -0.1186  0.2360
 3324TP3      O21790   1.249   2.562   8.855 -0.3692  0.6819  0.5165
 3324TP3     H121791   1.208   2.640   8.818 -1.3478 -0.8072 -1.7598
 3324TP3     H221792   1.177   2.512   8.891 -0.3333 -0.7902 -1.2845
 3325TP3      O21793   1.121   0.573   3.231 -0.3693 -0.0674  0.2399
 3325TP3     H121794   1.150   0.503   3.290 -0.7469  1.1383  1.9618
 3325TP3     H221795   1.200   0.602   3.187 -0.5017 -2.9897 -2.2395
 3326TP3      O21796   5.069   0.149   1.912 -0.6295 -0.0827  0.2117
 3326TP3     H121797   5.026   0.218   1.862 -0.4764 -1.1112 -1.4035
 3326TP3     H221798   5.005   0.078   1.917  0.2473 -0.9927 -0.8170
 3327TP3      O21799   1.539   0.788   8.839  0.1369 -0.0613 -0.1712
 3327TP3     H121800   1.582   0.751   8.762  1.9067  0.7185  0.4052
 3327TP3     H221801   1.605   0.785   8.908 -1.2982 -0.4134  1.2443
 3328TP3      O21802   2.520   4.829   6.743 -0.4417  0.0120  0.4106
 3328TP3     H121803   2.492   4.773   6.816 -1.6338 -1.0465 -0.8214
 3328TP3     H221804   2.589   4.778   6.699 -1.0541 -0.2040 -0.3112
 3329TP3      O21805   3.166   3.660   1.629 -0.3494 -0.8976 -0.2715
 3329TP3     H121806   3.080   3.622   1.649 -0.7208 -0.6202 -1.2328
 3329TP3     H221807   3.148   3.719   1.555  0.1331  1.4420  1.3596
 3330TP3      O21808   2.043   2.371   2.440  0.3370 -0.2308 -0.1128
 3330TP3     H121809   1.960   2.406   2.407  0.0222 -1.2197 -0.4143
 3330TP3     H221810   2.107   2.394   2.372  0.4682  1.1548  0.4511
 3331TP3      O21811   1.574   3.989   2.017 -0.0683 -0.1272  0.2880
 3331TP3     H121812   1.559   3.924   2.085  0.6500 -2.0499 -1.3119
 3331TP3     H221813   1.503   3.975   1.954 -1.5247  2.5252  1.1618
 3332TP3      O21814   1.185   2.358   8.492 -0.0730  0.0355 -0.2823
 3332TP3     H121815   1.103   2.352   8.442 -0.6744  0.4871  0.6206
 3332TP3     H221816   1.214   2.448   8.479 -0.3802  0.2382  0.3912
 3333TP3      O21817   0.589   4.894   0.489 -0.3963  0.0353  0.1462
 3333TP3     H121818   0.620   4.804   0.479 -0.4056 -0.0815  1.0432
 3333TP3     H221819   0.646   4.945   0.431 -0.9501 -0.6384 -1.0313
 3334TP3      O21820   4.684   4.106   7.903  0.0985 -0.5195  0.3571
 3334TP3     H121821   4.591   4.131   7.899  0.4819  0.9883  0.0387
 3334TP3     H221822   4.717   4.127   7.815  1.3776  1.8299  1.3088
 3335TP3      O21823   0.085   2.088   9.585  0.5536  0.0028  0.2491
 3335TP3     H121824  -0.010   2.096   9.588  0.5058 -0.1878 -0.5342
 3335TP3     H221825   0.118   2.161   9.637 -0.0091  0.3543  0.1099
 3336TP3      O21826   1.958   2.582   2.150 -0.8884  0.1563 -0.1589
 3336TP3     H121827   1.971   2.490   2.129 -0.2707  0.5655 -1.7118
 3336TP3     H221828   1.912   2.581   2.234 -0.9199 -1.5541 -0.1594
 3337TP3      O21829   5.288   3.263   9.320  0.0893 -0.0885 -0.3118
 3337TP3     H121830   5.202   3.283   9.283 -0.8082  0.8902  2.1323
 3337TP3     H221831   5.350   3.300   9.257 -1.3562  1.7814 -0.7232
 3338TP3      O21832   0.783   3.895   0.265 -0.1561 -0.2772  0.4566
 3338TP3     H121833   0.698   3.906   0.221  0.3379  1.0316 -0.2093
 3338TP3     H221834   0.804   3.982   0.299  2.0318  0.0289 -1.4716
 3339TP3      O21835   4.584   2.369   1.896 -0.4023 -0.2806  0.1200
 3339TP3     H121836   4.604   2.282   1.930 -1.4898 -0.0627  1.4048
 3339TP3     H221837   4.566   2.354   1.803 -0.8079 -1.4799  0.3699
 3340TP3      O21838   2.319   0.267   1.598 -0.2527 -0.3080  0.1870
 3340TP3     H121839   2.234   0.228   1.622 -1.2384  0.8533 -1.2543
 3340TP3     H221840   2.304   0.305   1.511  2.0571 -0.9891 -0.5784
 3341TP3      O21841   4.663   0.349   1.835  0.6701 -0.1228  0.6013
 3341TP3     H121842   4.613   0.275   1.869 -1.3162 -0.1660 -2.1191
 3341TP3     H221843   4.600   0.421   1.830  1.3800  0.4394 -0.9523
 3342TP3      O21844   3.119   0.840   2.468 -0.4880  0.1113  0.3889
 3342TP3     H121845   3.203   0.885   2.475  1.0056 -2.6842  2.0021
 3342TP3     H221846   3.092   0.826   2.558 -2.2873  0.1625 -0.1015
 3343TP3      O21847   5.049   3.537   2.012  0.0299 -0.5612 -0.0466
 3343TP3     H121848   4.996   3.469   2.053  1.4044 -0.7751  1.4884
 3343TP3     H221849   5.083   3.589   2.085  1.9370 -0.4566 -0.9422
 3344TP3      O21850   3.447   2.582   8.916 -0.2866  0.4033 -0.2149
 3344TP3     H121851   3.472   2.632   8.993 -1.8633 -0.4663  0.9271
 3344TP3     H221852   3.438   2.492   8.947 -1.7960  0.1766 -1.1748
 3345TP3      O21853   3.950   0.311   1.577 -0.3179  0.0197  0.4609
 3345TP3     H121854   3.860   0.301   1.547  0.0883 -1.1502 -0.4484
 3345TP3     H221855   3.963   0.406   1.585 -0.9430  0.3211 -1.5843
 3346TP3      O21856   2.596   2.159   0.585  0.4893 -0.1167 -0.0811
 3346TP3     H121857   2.554   2.075   0.600 -0.5004  0.4186  0.2070
 3346TP3     H221858   2.685   2.148   0.619 -0.0923 -0.5682  1.3500
 3347TP3      O21859   3.205   4.954   8.136  0.1081 -0.2247  0.4704
 3347TP3     H121860   3.239   4.871   8.103 -0.3302  0.1341 -0.9789
 3347TP3     H221861   3.279   5.014   8.128 -0.2289  0.0646 -0.7387
 3348TP3      O21862   0.324   0.033   0.387  0.5965  0.1307 -0.6745
 3348TP3     H121863   0.413   0.048   0.355 -0.6898 -0.0775 -5.0345
 3348TP3     H221864   0.301  -0.054   0.354 -1.6830  0.7848 -0.9788
 3349TP3      O21865   1.354   1.053   1.324  0.4993  0.1703  0.3186
 3349TP3     H121866   1.274   1.013   1.291  0.3365  0.8385 -0.1363
 3349TP3     H221867   1.421   1.031   1.258  0.5740  0.0295  0.4419
 3350TP3      O21868   2.019   4.510   9.616  0.2817 -0.3833 -0.2661
 3350TP3     H121869   2.023   4.604   9.634 -2.5290 -0.1999 -0.1384
 3350TP3     H221870   1.961   4.476   9.684  0.8013 -2.1312 -0.6637
 3351TP3      O21871   2.590   4.134   9.498  0.2284 -0.1171 -0.5179
 3351TP3     H121872   2.641   4.211   9.474  0.2972  0.1428  0.4498
 3351TP3     H221873   2.644   4.060   9.468  0.5978  0.1821 -0.6030
 3352TP3      O21874   3.775   1.895  10.089 -0.1689  0.4770 -0.3644
 3352TP3     H121875   3.774   1.816  10.035 -1.2663 -0.8303  1.4487
 3352TP3     H221876   3.698   1.945  10.061 -1.7540 -1.0317  1.0382
 3353TP3      O21877   0.385   2.415   0.801  0.4009  0.1873 -0.5986
 3353TP3     H121878   0.326   2.490   0.793  0.0132 -0.1222 -0.7233
 3353TP3     H221879   0.462   2.449   0.846  0.3990  0.7496 -1.0139
 3354TP3      O21880   0.015   1.833   1.935 -0.0766 -0.4108  0.4506
 3354TP3     H121881   0.073   1.859   1.863  0.8063  0.1460  1.3452
 3354TP3     H221882   0.051   1.877   2.012 -2.4585  1.0432  0.8301
 3355TP3      O21883   3.632   3.077   0.174 -0.0034 -0.7880  0.3714
 3355TP3     H121884   3.699   3.142   0.152  1.8299 -2.2782  1.2331
 3355TP3     H221885   3.649   3.004   0.115 -0.1280 -1.6388  1.3564
 3356TP3      O21886   0.665   0.561   2.105 -0.2714 -0.3312  0.4441
 3356TP3     H121887   0.720   0.598   2.175  0.3845 -1.0890  0.3419
 3356TP3     H221888   0.707   0.478   2.084  0.3964  0.5351 -1.8822
 3357TP3      O21889   3.806   5.247   2.782  0.1322 -0.4043 -0.0856
 3357TP3     H121890   3.800   5.337   2.751 -1.4819 -1.2791 -2.5671
 3357TP3     H221891   3.811   5.255   2.878  2.6103  2.3474 -0.2946
 3358TP3      O21892   3.352   5.281   2.132  0.1747  0.1446  0.5630
 3358TP3     H121893   3.377   5.367   2.168 -1.5758  1.2636 -0.7767
 3358TP3     H221894   3.356   5.292   2.037 -1.1841 -0.9100  0.3523
 3359TP3      O21895   2.862   1.997   0.681  0.7077  0.4162  0.3619
 3359TP3     H121896   2.814   1.970   0.760  0.4567 -0.1599  0.0193
 3359TP3     H221897   2.943   1.945   0.685 -0.2406 -1.2595 -0.8512
 3360TP3      O21898   3.118   4.276   0.265 -0.0204 -0.3705 -0.0332
 3360TP3     H121899   3.061   4.201   0.247 -0.2117 -0.5606  1.2974
 3360TP3     H221900   3.187   4.269   0.199 -0.1664 -1.5785 -0.0895
 3361TP3      O21901   1.414   0.808   2.955 -0.5171 -1.1443  0.4339
 3361TP3     H121902   1.364   0.889   2.962  1.1087  0.0324 -0.8718
 3361TP3     H221903   1.380   0.753   3.026 -1.8085  0.5688  1.2206
 3362TP3      O21904   3.030   0.692   0.550 -0.2688  0.5724 -0.5667
 3362TP3     H121905   3.088   0.740   0.608  0.4377 -0.4186 -0.4095
 3362TP3     H221906   3.024   0.605   0.590  1.3509 -0.5888 -2.6169
 3363TP3      O21907   0.406   2.078   1.848  0.9100  0.2644 -0.2042
 3363TP3     H121908   0.379   2.049   1.935 -2.2352  2.4527 -0.2802
 3363TP3     H221909   0.338   2.044   1.789  0.1506  2.9615 -1.0102
 3364TP3      O21910   4.540   3.107   8.616  0.2126 -0.4471 -0.0674
 3364TP3     H121911   4.543   3.121   8.711 -0.3532 -0.7243 -0.0017
 3364TP3     H221912   4.488   3.028   8.605  1.1875 -1.0426 -0.5619
 3365TP3      O21913   4.766   0.850   0.662 -0.3277 -0.3978  0.0167
 3365TP3     H121914   4.753   0.901   0.582  0.2778 -0.5747 -0.2025
 3365TP3     H221915   4.798   0.914   0.726  0.7267 -0.5395 -0.3448
 3366TP3      O21916   5.238   2.382   9.058  0.2549 -0.2418  0.0999
 3366TP3     H121917   5.202   2.402   8.972  1.5802  1.9783 -0.0241
 3366TP3     H221918   5.311   2.444   9.068 -0.3426  0.1272  3.1299
 3367TP3      O21919   3.046   4.210   2.159  0.5531 -0.4257 -0.0962
 3367TP3     H121920   2.987   4.284   2.169  2.0662  0.9850 -1.2084
 3367TP3     H221921   3.044   4.166   2.244 -1.4437  0.0379  0.1354
 3368TP3      O21922   4.313   4.409   3.809  0.4430 -0.1612 -0.1639
 3368TP3     H121923   4.282   4.326   3.773  0.3587 -0.4485  0.5715
 3368TP3     H221924   4.403   4.415   3.779  1.1219 -1.5080  1.4320
 3369TP3      O21925   3.854   0.253   1.202 -0.2666 -0.4040 -0.6610
 3369TP3     H121926   3.796   0.298   1.264 -0.9567 -2.0784 -0.0496
 3369TP3     H221927   3.839   0.298   1.118  0.7153  1.9197  0.3340
 3370TP3      O21928   2.811   0.896   1.197  0.3082 -0.3048  0.3478
 3370TP3     H121929   2.827   0.862   1.285  0.6671 -0.9724  0.0344
 3370TP3     H221930   2.796   0.817   1.144 -0.8727  0.1419 -0.0013
 3371TP3      O21931   2.252   4.719   2.049  0.6616 -0.0243  0.0562
 3371TP3     H121932   2.323   4.665   2.012  0.8079  0.6383 -0.6595
 3371TP3     H221933   2.248   4.694   2.141  1.2823 -0.6595 -0.0826
 3372TP3      O21934   5.016   1.077  10.005 -0.4308  0.0217  0.2521
 3372TP3     H121935   5.078   1.126  10.058 -0.1839  0.3363 -0.3169
 3372TP3     H221936   5.070   1.015   9.955 -0.3802  1.2976 -1.3563
 3373TP3      O21937   5.043   4.824   0.891 -0.6635 -0.6277 -0.2395
 3373TP3     H121938   5.132   4.817   0.926 -0.3162 -0.1767 -1.0078
 3373TP3     H221939   5.030   4.743   0.842 -1.1392 -1.2470  0.8846
 3374TP3      O21940   4.973   4.371   0.516  0.2190 -0.6732  0.0789
 3374TP3     H121941   4.889   4.402   0.484  0.1337 -0.2314  0.7008
 3374TP3     H221942   5.028   4.363   0.438  0.3308  1.3359 -0.0981
 3375TP3      O21943   2.186   1.255   1.047  0.3104  0.6835  0.3935
 3375TP3     H121944   2.226   1.187   0.993  0.1371  1.6381 -0.9826
 3375TP3     H221945   2.092   1.243   1.034  0.2693  0.9729  0.4233
 3376TP3      O21946   3.711   0.968   7.779  0.4119 -0.0413  0.1062
 3376TP3     H121947   3.702   0.909   7.855  0.1204  0.7244  0.6816
 3376TP3     H221948   3.648   0.935   7.716 -1.1307  0.7542  1.1607
 3377TP3      O21949   3.783   3.422   8.136 -0.7153  0.3507  0.2332
 3377TP3     H121950   3.716   3.482   8.170  0.6482  2.1660 -0.1581
 3377TP3     H221951   3.850   3.419   8.204 -0.8549 -0.9553  0.3492
 3378TP3      O21952   2.819   0.901   1.787 -0.8365 -0.0694  0.2402
 3378TP3     H121953   2.845   0.969   1.725  0.3444  0.9257  1.7534
 3378TP3     H221954   2.862   0.822   1.755  0.6332  0.6539  0.3065
 3379TP3      O21955   0.997   0.243   2.762 -0.3121  0.1621  0.6971
 3379TP3     H121956   1.068   0.269   2.703 -2.7000  2.3007 -1.4723
 3379TP3     H221957   1.040   0.189   2.828  3.0025 -0.1869 -1.4868
 3380TP3      O21958   2.257   0.433   7.621 -0.2955  0.0507 -0.4995
 3380TP3     H121959   2.250   0.400   7.532 -0.3764  0.5529 -0.6833
 3380TP3     H221960   2.350   0.448   7.634 -0.1076 -1.3811  0.0117
 3381TP3      O21961   1.747   4.641   1.079  0.2688 -1.0417 -0.7656
 3381TP3     H121962   1.753   4.587   1.157  0.0914  0.2605  0.1958
 3381TP3     H221963   1.655   4.637   1.053 -0.2117  0.4226  0.5590
 3382TP3      O21964   4.104   1.573   2.540 -0.2722  0.1739 -0.0431
 3382TP3     H121965   4.089   1.656   2.585 -0.3896  0.4003 -0.4987
 3382TP3     H221966   4.127   1.597   2.451  0.4671 -0.2529  0.0185
 3383TP3      O21967   4.405   2.949   2.116  0.0452  0.2433  0.7838
 3383TP3     H121968   4.449   2.895   2.050  1.4320 -0.1140  1.9496
 3383TP3     H221969   4.384   3.030   2.070  0.7813 -0.0797 -0.1578
 3384TP3      O21970   3.313   3.773   0.098  0.1508 -0.2400 -0.2095
 3384TP3     H121971   3.312   3.715   0.175  0.4961 -1.2303 -0.9277
 3384TP3     H221972   3.368   3.727   0.035 -0.1435  0.5532 -1.0569
 3385TP3      O21973   0.562   4.315   8.278  0.0430  0.2367  0.0768
 3385TP3     H121974   0.598   4.395   8.240  1.1290  0.1424  0.8784
 3385TP3     H221975   0.504   4.345   8.348 -0.5482  0.3520 -0.4549
 3386TP3      O21976   4.455   4.314   9.410 -0.1514 -0.0751 -0.6080
 3386TP3     H121977   4.370   4.313   9.365 -0.4910  2.7916 -0.2350
 3386TP3     H221978   4.515   4.353   9.346  0.2910  0.2394 -0.0098
 3387TP3      O21979   2.431   0.148   1.239  0.0206 -0.2810  0.4027
 3387TP3     H121980   2.384   0.095   1.303  1.0121 -0.9799  0.5851
 3387TP3     H221981   2.488   0.086   1.194  0.6418  0.5079  0.0732
 3388TP3      O21982   4.909   4.896   7.103 -0.4612  0.5299 -0.3571
 3388TP3     H121983   4.822   4.863   7.080 -0.6916  1.3391 -0.7000
 3388TP3     H221984   4.897   4.991   7.112 -0.2260  0.3530  2.5164
 3389TP3      O21985   2.370   5.108   0.627  0.4735 -0.0888  0.4264
 3389TP3     H121986   2.437   5.041   0.615 -0.0999 -0.8342  1.2312
 3389TP3     H221987   2.412   5.174   0.683  0.0093 -1.4235  2.4406
 3390TP3      O21988   3.538   1.052   1.874 -0.0976 -0.6596  0.1516
 3390TP3     H121989   3.522   1.128   1.819  0.3933  1.6631  3.0015
 3390TP3     H221990   3.548   0.979   1.812 -2.2629  1.2046 -2.6379
 3391TP3      O21991   1.564   3.569   9.089 -0.3671 -0.5260  0.1202
 3391TP3     H121992   1.591   3.488   9.131 -0.9810  0.5077  2.7437
 3391TP3     H221993   1.472   3.556   9.068 -0.1465 -0.9313 -0.6076
 3392TP3      O21994   3.875   3.190   2.198 -0.6083 -0.0375 -0.6247
 3392TP3     H121995   3.870   3.200   2.103 -1.5044  1.5066 -0.4513
 3392TP3     H221996   3.785   3.202   2.229 -0.1993  0.4005  0.4737
 3393TP3      O21997   5.064   2.136   6.820 -0.4641  0.1900  0.5352
 3393TP3     H121998   5.140   2.084   6.793  0.8825  1.3428  1.9302
 3393TP3     H221999   4.995   2.110   6.760  1.9396  1.6611 -3.2083
 3394TP3      O22000   3.683   2.690   1.252  0.2371 -0.1798 -0.0532
 3394TP3     H122001   3.677   2.783   1.271 -1.8982 -0.1121 -0.7427
 3394TP3     H222002   3.611   2.673   1.191 -0.8884 -2.6867  1.7966
 3395TP3      O22003   1.155   0.414   1.232  0.2702 -0.2249  0.5115
 3395TP3     H122004   1.110   0.486   1.188  0.1122 -1.3410 -1.2364
 3395TP3     H222005   1.149   0.436   1.325 -2.5222  0.4519  0.2693
 3396TP3      O22006   1.136   3.175   2.130  0.3450  0.0797 -0.2852
 3396TP3     H122007   1.114   3.152   2.040  0.5008 -1.4826  0.0373
 3396TP3     H222008   1.061   3.227   2.160 -0.1187 -0.1286 -1.0489
 3397TP3      O22009   4.016   4.479   2.961  0.5216 -0.0475 -0.2511
 3397TP3     H122010   3.988   4.507   3.049  0.0796  0.0589 -0.4204
 3397TP3     H222011   4.111   4.484   2.964  0.5609 -0.9599  0.5302
 3398TP3      O22012   0.105   4.112   7.739  0.2215 -0.0527  0.9546
 3398TP3     H122013   0.122   4.058   7.817  1.5377 -0.1929  0.5871
 3398TP3     H222014   0.156   4.192   7.753 -0.7340  0.5804  0.9158
 3399TP3      O22015   0.292   0.067   9.672  0.0465 -0.1224  0.1724
 3399TP3     H122016   0.337   0.019   9.742 -1.1403  0.6198  1.4802
 3399TP3     H222017   0.260   0.147   9.714  0.4656  1.0050 -1.5542
 3400TP3      O22018   4.060   3.714   2.424 -0.3221  0.1008  0.2336
 3400TP3     H122019   4.114   3.643   2.388  1.5510  1.3026  0.5118
 3400TP3     H222020   4.069   3.785   2.360  1.1621  1.4589  1.8204
 3401TP3      O22021   1.357   2.219   9.587 -0.6045 -0.6750  0.3872
 3401TP3     H122022   1.437   2.217   9.639 -2.0830 -0.0331  2.8512
 3401TP3     H222023   1.360   2.304   9.542  0.2638 -0.8305  0.1358
 3402TP3      O22024   0.118   0.111   8.010 -0.2747 -0.5135 -0.4364
 3402TP3     H122025   0.130   0.132   7.917 -0.2989 -1.8827 -0.7760
 3402TP3     H222026   0.029   0.140   8.030 -0.1269  0.1567 -0.7231
 3403TP3      O22027   2.360   4.140   3.188 -0.2120  0.2110 -0.7153
 3403TP3     H122028   2.288   4.091   3.149 -1.6650  0.3291  1.5932
 3403TP3     H222029   2.330   4.158   3.278  1.9806  1.7888 -0.2245
 3404TP3      O22030   5.029   1.889   2.571  0.5645 -0.6877  0.5207
 3404TP3     H122031   5.001   1.816   2.627  0.1094 -2.1353 -1.4641
 3404TP3     H222032   4.963   1.892   2.502  1.3918  0.6689 -0.2490
 3405TP3      O22033   4.315   1.736   0.965 -0.7720 -0.1519 -0.4600
 3405TP3     H122034   4.283   1.821   0.936 -0.0161 -0.3882 -2.1245
 3405TP3     H222035   4.255   1.673   0.925 -1.2868 -0.4219  0.7050
 3406TP3      O22036   0.224   1.478   0.396  0.1564  0.1081  0.3859
 3406TP3     H122037   0.218   1.442   0.485  0.0798  1.8577  1.1219
 3406TP3     H222038   0.243   1.402   0.341  1.3721 -0.8502  2.0346
 3407TP3      O22039   1.114   3.241   3.627  0.2824 -0.2540  0.6815
 3407TP3     H122040   1.175   3.249   3.554 -1.0018  0.1448 -0.4000
 3407TP3     H222041   1.070   3.326   3.630 -1.2630 -1.0094  0.4400
 3408TP3      O22042   1.905   1.457   1.057 -0.1625 -0.1044 -0.5281
 3408TP3     H122043   1.963   1.506   0.998 -1.6845  2.5356  0.0136
 3408TP3     H222044   1.835   1.425   1.000 -0.4270  0.4656 -0.5318
 3409TP3      O22045   2.462   0.637   9.775  0.4801  0.8433 -0.1824
 3409TP3     H122046   2.369   0.618   9.767  0.4854  0.8981 -0.3749
 3409TP3     H222047   2.490   0.589   9.854  0.2158  1.1025  0.0712
 3410TP3      O22048   0.699   4.636   8.732 -0.0903  0.5296  0.2561
 3410TP3     H122049   0.785   4.594   8.741  0.4685  1.5553 -0.1055
 3410TP3     H222050   0.715   4.711   8.674 -0.9242  1.6375  1.4147
 3411TP3      O22051   4.981   3.493   7.938  0.2776  0.2846  0.4496
 3411TP3     H122052   4.983   3.582   7.973 -1.2687  1.0492 -1.2579
 3411TP3     H222053   5.047   3.492   7.869 -1.1606  0.8258 -0.9976
 3412TP3      O22054   3.023   1.547   2.591  0.5202  0.6270 -0.1165
 3412TP3     H122055   2.986   1.481   2.533  1.3410  0.1724 -0.1321
 3412TP3     H222056   2.969   1.542   2.670 -0.1880  0.7973 -0.5805
 3413TP3      O22057   5.088   1.058   8.401  0.1032  0.6531 -0.5880
 3413TP3     H122058   5.092   1.128   8.467  1.4192  0.7445 -0.7393
 3413TP3     H222059   5.114   0.979   8.449 -1.1030  0.3024 -0.4856
 3414TP3      O22060   3.152   3.818   9.333  0.8137  0.0951 -0.4997
 3414TP3     H122061   3.139   3.765   9.412 -0.6707  1.9721  0.6051
 3414TP3     H222062   3.232   3.867   9.350  1.2026 -0.4458 -0.7430
 3415TP3      O22063   2.604   4.190   3.038 -0.4784  0.0452  0.0666
 3415TP3     H122064   2.658   4.250   3.090 -0.0655 -1.9089  2.0224
 3415TP3     H222065   2.521   4.187   3.084 -0.7986 -0.2183 -0.5183
 3416TP3      O22066   2.631   1.089   8.509  0.6623 -0.2462 -0.0869
 3416TP3     H122067   2.584   1.041   8.441 -0.1614  0.6638 -0.1782
 3416TP3     H222068   2.666   1.021   8.567 -0.1589 -0.9663 -0.4171
 3417TP3      O22069   2.471   4.581   0.372  0.0198 -0.4087  0.2495
 3417TP3     H122070   2.387   4.595   0.416 -0.2547  2.6187 -0.9720
 3417TP3     H222071   2.533   4.561   0.442 -1.4906 -1.7565  1.2730
 3418TP3      O22072   0.683   4.951   8.129 -0.0709  0.1331  0.0363
 3418TP3     H122073   0.696   5.001   8.210 -1.8736  0.4196  0.1981
 3418TP3     H222074   0.596   4.977   8.098  0.2014 -0.6514 -1.5201
 3419TP3      O22075   1.230   1.649   0.874  0.2189  1.0314 -0.2766
 3419TP3     H122076   1.151   1.639   0.927  0.3567  1.8962  0.1099
 3419TP3     H222077   1.302   1.636   0.935  0.3911 -0.0744 -0.6923
 3420TP3      O22078   0.727   2.817   8.928 -0.5986 -0.0928  0.2193
 3420TP3     H122079   0.792   2.884   8.908  0.7839 -1.5149 -0.2728
 3420TP3     H222080   0.773   2.734   8.915 -2.1779 -1.1538  1.0312
 3421TP3      O22081   1.196   2.518   7.355  0.0133  0.0759 -0.1883
 3421TP3     H122082   1.183   2.590   7.417 -0.5971 -0.7167  0.6425
 3421TP3     H222083   1.289   2.497   7.362  0.3103  1.1083 -0.8229
 3422TP3      O22084   2.535   3.791   8.294  0.2022  0.0562  0.8842
 3422TP3     H122085   2.552   3.877   8.256 -1.5514  1.1732  2.4652
 3422TP3     H222086   2.589   3.731   8.242 -1.1473  1.5912 -2.5771
 3423TP3      O22087   0.237   1.311   9.846  0.1374  0.2416 -0.3136
 3423TP3     H122088   0.237   1.342   9.756  0.2211 -0.2276 -0.4732
 3423TP3     H222089   0.171   1.365   9.890  0.6079  0.9653 -0.4818
 3424TP3      O22090   1.160   0.507   8.340  0.0048  0.5439  0.1634
 3424TP3     H122091   1.131   0.438   8.399 -0.0117  0.1295 -0.3227
 3424TP3     H222092   1.255   0.510   8.352  0.1925 -0.5849 -0.8916
 3425TP3      O22093   2.989   1.967   1.491 -0.5190 -0.1951  0.4351
 3425TP3     H122094   2.956   1.970   1.401  0.5104  0.2809  0.0525
 3425TP3     H222095   2.979   2.057   1.523  2.6005  0.6395 -0.5595
 3426TP3      O22096   1.828   1.300   1.934  0.4239  0.0199  0.0517
 3426TP3     H122097   1.764   1.351   1.883  0.2069 -0.6970 -0.4082
 3426TP3     H222098   1.886   1.261   1.868  1.1895  0.4610  0.4543
 3427TP3      O22099   1.739   2.885   0.263 -0.2075  0.1678 -0.2363
 3427TP3     H122100   1.769   2.973   0.286 -0.8320  0.3643 -0.1439
 3427TP3     H222101   1.807   2.826   0.296 -0.6711  0.4921  1.3647
 3428TP3      O22102   1.750   1.308   0.819 -0.4286 -0.2012  0.0066
 3428TP3     H122103   1.713   1.375   0.761 -0.3218  0.4476  0.6736
 3428TP3     H222104   1.674   1.261   0.853 -0.5578  0.1464  0.2040
 3429TP3      O22105   0.448   5.203   1.126  0.1400 -0.1156  0.0902
 3429TP3     H122106   0.543   5.219   1.128 -0.0510  1.7766 -1.8739
 3429TP3     H222107   0.411   5.271   1.182 -0.1519  0.8965 -1.2580
 3430TP3      O22108   1.233   0.827   3.433 -0.0489  0.8839 -0.2916
 3430TP3     H122109   1.291   0.844   3.507  0.0335  0.5481 -0.2806
 3430TP3     H222110   1.281   0.765   3.378 -0.8439 -0.2703  0.2694
 3431TP3      O22111   2.759   0.286   8.713  0.0655  0.1991 -0.4630
 3431TP3     H122112   2.812   0.206   8.720 -1.9442 -1.1562  0.3099
 3431TP3     H222113   2.757   0.306   8.620  1.6582  0.1149 -0.5339
 3432TP3      O22114   4.316   2.960   9.093 -0.2622 -0.3071  0.7027
 3432TP3     H122115   4.269   2.919   9.021  0.7952  0.7632 -0.6483
 3432TP3     H222116   4.404   2.922   9.089  0.5761  1.5952 -0.2404
 3433TP3      O22117   2.806   2.345   0.850 -0.7060 -0.2957 -0.2756
 3433TP3     H122118   2.804   2.422   0.907 -1.2574  0.3019 -1.0924
 3433TP3     H222119   2.724   2.299   0.870 -0.5025 -0.5392  0.0160
 3434TP3      O22120   2.842   2.086   0.216  0.0126  0.2430  0.1174
 3434TP3     H122121   2.849   2.126   0.129  1.1848  2.4170  1.1028
 3434TP3     H222122   2.761   2.122   0.253 -0.3189 -0.4219  0.0413
 3435TP3      O22123   1.585   2.151   7.912 -0.1282  0.3301  0.0513
 3435TP3     H122124   1.627   2.235   7.893 -0.2161  0.0869 -1.2754
 3435TP3     H222125   1.653   2.086   7.893 -0.7075 -0.0002 -0.9208
 3436TP3      O22126   4.093   3.625   2.860 -0.0381  0.3144 -0.1955
 3436TP3     H122127   4.025   3.565   2.891  0.5106 -0.0330  0.3544
 3436TP3     H222128   4.167   3.568   2.837 -0.4194  0.5359 -2.2440
 3437TP3      O22129   2.203   1.760   7.540  0.5043 -0.5580 -0.1219
 3437TP3     H122130   2.143   1.816   7.491 -0.7253  0.9218  2.8280
 3437TP3     H222131   2.290   1.783   7.506 -0.2950  0.1510 -1.7697
 3438TP3      O22132   4.243   4.627   8.951  0.3539 -0.6433  0.1899
 3438TP3     H122133   4.257   4.666   9.037 -1.1057 -1.6683  0.9341
 3438TP3     H222134   4.191   4.692   8.904  1.2415 -0.0367  0.0231
 3439TP3      O22135   1.724   0.860   7.448  0.1508 -0.1349 -0.2670
 3439TP3     H122136   1.790   0.850   7.380 -0.2664 -0.8724 -0.5681
 3439TP3     H222137   1.643   0.828   7.409 -0.0398 -0.8174  0.6519
 3440TP3      O22138   4.876   2.236   2.241 -0.5926  0.0380 -0.3401
 3440TP3     H122139   4.968   2.212   2.244 -0.5317  0.3633  1.4223
 3440TP3     H222140   4.876   2.332   2.249 -1.0492  0.1533 -1.5352
 3441TP3      O22141   4.198   1.664   7.304 -0.6039  0.0916  0.3004
 3441TP3     H122142   4.110   1.662   7.265 -0.7926  2.3762  0.4656
 3441TP3     H222143   4.186   1.709   7.388  0.6095 -0.2677  0.6897
 3442TP3      O22144   1.097   3.817   0.201  0.1978 -0.2007  0.3465
 3442TP3     H122145   1.096   3.789   0.292  1.6084  1.0624  0.7941
 3442TP3     H222146   1.098   3.913   0.205 -2.7859 -0.0030 -1.0796
 3443TP3      O22147   3.437   3.560   6.380 -0.1691 -0.1494 -0.1047
 3443TP3     H122148   3.344   3.544   6.396 -0.2132  0.6607  0.5305
 3443TP3     H222149   3.475   3.566   6.468  0.5507 -0.8267 -0.3626
 3444TP3      O22150   4.157   1.828   7.524 -0.1745 -0.2228  0.0657
 3444TP3     H122151   4.205   1.816   7.606  1.0292 -0.8188 -0.6912
 3444TP3     H222152   4.088   1.891   7.546  0.9239  0.6563  1.2230
 3445TP3      O22153   4.333   5.191   9.410  0.2247  0.2877 -0.7639
 3445TP3     H122154   4.416   5.205   9.364  1.5192 -1.1665  0.9800
 3445TP3     H222155   4.321   5.271   9.462  0.6183  0.4318 -0.8907
 3446TP3      O22156   4.529   1.300   2.547 -0.1734  0.0523  0.1763
 3446TP3     H122157   4.435   1.318   2.541 -0.6853 -1.8651  1.4242
 3446TP3     H222158   4.541   1.267   2.636  2.0518  1.9987  0.7047
 3447TP3      O22159   2.338   1.902   1.379  0.2451 -0.0218 -0.1556
 3447TP3     H122160   2.250   1.907   1.342  0.0511  2.2415  0.4808
 3447TP3     H222161   2.332   1.835   1.447 -0.5621 -0.9592 -1.1077
 3448TP3      O22162   2.231   5.119   8.294 -0.4290 -0.7048 -0.3965
 3448TP3     H122163   2.182   5.039   8.272  0.1075 -0.8463 -1.1345
 3448TP3     H222164   2.199   5.185   8.233 -1.8676  0.0614  1.1072
 3449TP3      O22165   2.648   2.888   1.084 -1.1372 -0.4105 -0.4896
 3449TP3     H122166   2.661   2.797   1.059 -0.4380 -0.5466  0.3293
 3449TP3     H222167   2.703   2.900   1.161 -0.1884  1.0609 -1.3546
 3450TP3      O22168   3.003   1.696   9.521  0.0344 -0.2453  0.6492
 3450TP3     H122169   2.971   1.606   9.531 -0.1314 -0.2275  0.2686
 3450TP3     H222170   3.072   1.691   9.456 -0.6439  0.0590 -0.1047
 3451TP3      O22171   3.309   0.703   9.234 -0.1576 -0.9036 -0.0614
 3451TP3     H122172   3.352   0.772   9.183 -1.1176  1.2413  1.8089
 3451TP3     H222173   3.220   0.698   9.198 -0.1201 -1.1070 -0.1280
 3452TP3      O22174   4.077   4.158   9.495  0.6641 -0.2031  0.1601
 3452TP3     H122175   4.123   4.074   9.501  0.7928 -0.1241  0.2953
 3452TP3     H222176   4.037   4.168   9.582  0.2645 -0.3450 -0.0059
 3453TP3      O22177   0.353   3.138   0.666 -0.3197  0.3115 -0.1984
 3453TP3     H122178   0.385   3.157   0.755 -0.6684  0.2603 -0.0594
 3453TP3     H222179   0.416   3.074   0.632  0.0081  0.5842 -0.1171
 3454TP3      O22180   5.007   1.167   2.152  0.5671 -0.0375  0.6512
 3454TP3     H122181   5.080   1.229   2.152 -0.2770  1.0895 -1.8779
 3454TP3     H222182   5.025   1.110   2.077 -0.6228 -0.4034  0.6287
 3455TP3      O22183   2.849   1.761   2.430  0.1492  0.3942  0.2928
 3455TP3     H122184   2.761   1.772   2.466  0.6966  1.7110  1.3260
 3455TP3     H222185   2.885   1.686   2.478 -0.7865 -0.9515 -0.9996
 3456TP3      O22186   2.992   2.849   7.761  0.4780 -0.1152  0.1090
 3456TP3     H122187   2.965   2.867   7.851 -1.5581  0.9908 -0.6531
 3456TP3     H222188   2.915   2.810   7.721  1.1729 -0.0959 -1.3052
 3457TP3      O22189   2.464   0.846   1.319 -0.3351  0.6053  0.2605
 3457TP3     H122190   2.522   0.791   1.266 -0.3888 -1.4478  2.1694
 3457TP3     H222191   2.512   0.859   1.401 -1.2338  1.6300  0.6403
 3458TP3      O22192   0.452   1.597   9.636  0.0213 -0.3170 -0.1179
 3458TP3     H122193   0.523   1.599   9.572 -0.7929 -0.0571 -1.0328
 3458TP3     H222194   0.390   1.533   9.601 -0.4766 -0.1109  0.3761
 3459TP3      O22195   0.828   0.248   7.498 -0.5355 -0.2647 -0.4475
 3459TP3     H122196   0.871   0.269   7.415  1.2993 -0.5379  0.3918
 3459TP3     H222197   0.782   0.166   7.482  1.1534 -1.1882 -0.7815
 3460TP3      O22198   0.641   4.061   6.648  0.0023 -0.2078 -0.3298
 3460TP3     H122199   0.707   4.084   6.583 -0.3173 -2.1899 -1.4423
 3460TP3     H222200   0.631   4.140   6.701 -0.6461  1.9690 -3.4314
 3461TP3      O22201   1.748   1.109   2.583  0.8736 -0.3253 -0.0930
 3461TP3     H122202   1.705   1.194   2.576  0.0178 -0.7498 -0.0212
 3461TP3     H222203   1.699   1.062   2.651  2.6947 -0.0800  1.4769
 3462TP3      O22204   4.591   0.721   0.232 -0.0969  0.6497 -0.6699
 3462TP3     H122205   4.597   0.641   0.285  0.2176  0.1526 -1.4407
 3462TP3     H222206   4.659   0.711   0.166  0.6713  2.0480 -0.1459
 3463TP3      O22207   3.793   4.982   8.151  0.0704 -0.0577  0.3112
 3463TP3     H122208   3.802   4.939   8.236  0.4934 -0.6891 -0.0422
 3463TP3     H222209   3.790   5.075   8.172  1.0042 -0.1584  0.9683
 3464TP3      O22210   1.387   4.755   8.225 -0.2477  1.0088  0.0717
 3464TP3     H122211   1.410   4.821   8.160  1.6649  0.1677 -0.1801
 3464TP3     H222212   1.470   4.733   8.268 -1.4739  1.7464  3.0550
 3465TP3      O22213   4.300   3.120   0.259 -0.2705 -0.5694 -0.2076
 3465TP3     H122214   4.285   3.078   0.174 -1.3109 -1.6610  0.4860
 3465TP3     H222215   4.313   3.212   0.238 -0.5190 -0.8166 -1.5443
 3466TP3      O22216   0.568   0.718   9.392  0.1643  0.0518 -0.4454
 3466TP3     H122217   0.640   0.710   9.331 -0.0576 -1.0978 -0.5742
 3466TP3     H222218   0.573   0.808   9.424  1.0179  0.2871 -1.2252
 3467TP3      O22219   0.305   3.070   8.906  0.3248 -0.0513 -0.2653
 3467TP3     H122220   0.227   3.065   8.851  0.2005  1.4154 -0.2630
 3467TP3     H222221   0.312   2.983   8.945 -3.1605  0.5389  2.1995
 3468TP3      O22222   5.248   1.995   0.728 -0.2042 -0.0950 -0.1885
 3468TP3     H122223   5.310   2.019   0.658  1.2677 -1.5612  0.5322
 3468TP3     H222224   5.206   2.077   0.752  2.2461  1.2123 -0.0295
 3469TP3      O22225   4.449   0.892   1.838 -0.7708  0.0271  0.4918
 3469TP3     H122226   4.485   0.808   1.865  1.4376  0.9218  0.6128
 3469TP3     H222227   4.410   0.928   1.918  1.1933  0.4669  1.3145
 3470TP3      O22228   3.671   0.273   1.552 -0.4755  0.4874  0.0421
 3470TP3     H122229   3.645   0.181   1.554 -1.6405  0.8036  1.5068
 3470TP3     H222230   3.608   0.316   1.610  2.4005  1.5618  2.6230
 3471TP3      O22231   5.028   4.420   3.003 -0.1853  0.0524 -0.2293
 3471TP3     H122232   5.108   4.383   3.039 -0.1135  0.7288  0.3264
 3471TP3     H222233   5.051   4.446   2.914  0.0398 -0.3045 -0.2772
 3472TP3      O22234   2.333   3.760   8.020 -0.3694  0.1548 -0.3776
 3472TP3     H122235   2.390   3.751   7.944  1.4880  1.2641  0.8038
 3472TP3     H222236   2.352   3.684   8.074  0.8033  1.0242  0.4859
 3473TP3      O22237   1.611   4.597   7.641 -0.5061  0.4350 -0.1603
 3473TP3     H122238   1.609   4.693   7.642 -1.4734  0.4317 -0.6743
 3473TP3     H222239   1.671   4.575   7.570 -0.4420  0.6680 -0.1798
 3474TP3      O22240   2.574   4.437   9.688 -0.5999 -0.2573 -0.1354
 3474TP3     H122241   2.616   4.521   9.672  0.2894 -0.5669  0.5324
 3474TP3     H222242   2.481   4.459   9.702 -0.4178  0.5736 -0.1853
 3475TP3      O22243   0.568   3.479   8.617 -0.1059 -0.9061  0.1551
 3475TP3     H122244   0.538   3.516   8.700 -0.4615 -0.1930 -0.2809
 3475TP3     H222245   0.522   3.395   8.610  0.6095 -1.3870  1.0950
 3476TP3      O22246   1.578   5.236   3.355  0.5661 -0.0906 -0.1978
 3476TP3     H122247   1.630   5.164   3.317  1.8309  0.7644 -0.1569
 3476TP3     H222248   1.550   5.287   3.280  0.6893  0.0441 -0.1519
 3477TP3      O22249   4.263   1.147   8.006 -0.3171  0.2556  0.0803
 3477TP3     H122250   4.187   1.168   8.059 -0.8879 -1.9283  0.2204
 3477TP3     H222251   4.318   1.093   8.062 -0.7484 -1.7693 -1.3521
 3478TP3      O22252   3.529   5.238   8.840  0.0244  0.6021  0.3783
 3478TP3     H122253   3.504   5.187   8.917  0.9438  1.7270  1.4502
 3478TP3     H222254   3.556   5.173   8.776 -1.6653 -0.4155  0.6247
 3479TP3      O22255   4.913   1.491   2.163 -0.0650 -0.0638 -0.3004
 3479TP3     H122256   4.933   1.534   2.246 -1.0018 -1.0646  0.4749
 3479TP3     H222257   4.961   1.408   2.166  0.7898  0.3671 -1.2692
 3480TP3      O22258   4.028   5.206   2.327 -0.1992  0.3670 -0.5450
 3480TP3     H122259   3.938   5.172   2.322  0.0595 -0.3484 -0.3565
 3480TP3     H222260   4.018   5.290   2.372 -0.8221  0.4767 -0.8686
 3481TP3      O22261   3.132   4.984   7.295  0.0349  0.8240 -0.0112
 3481TP3     H122262   3.213   5.015   7.256 -0.4980  0.5881 -1.3363
 3481TP3     H222263   3.096   4.922   7.232 -1.1548  0.8837  0.5703
 3482TP3      O22264   1.981   2.025   1.536  0.0753 -0.1184 -0.3957
 3482TP3     H122265   1.975   2.102   1.594 -0.7324  0.0912 -0.7399
 3482TP3     H222266   2.041   1.966   1.581 -0.5929  0.0125  0.7060
 3483TP3      O22267   4.106   1.295   2.297 -0.1196  0.2767  0.5783
 3483TP3     H122268   4.048   1.255   2.361 -0.1689  0.8913  0.9360
 3483TP3     H222269   4.194   1.267   2.324 -0.2709 -1.0497 -0.2555
 3484TP3      O22270   3.430   2.067   7.385 -0.6222  0.1338  0.3879
 3484TP3     H122271   3.421   1.997   7.321 -0.9104 -1.9045  2.5121
 3484TP3     H222272   3.340   2.082   7.417 -0.4303  0.8223  0.6278
 3485TP3      O22273   5.227   3.076   2.817 -0.1672  0.1528  0.2953
 3485TP3     H122274   5.227   3.157   2.868  0.9258 -0.4212  1.2699
 3485TP3     H222275   5.240   3.007   2.882 -0.1042 -0.7271 -0.6241
 3486TP3      O22276   0.664   2.393   0.270 -0.4539 -0.8589 -0.1408
 3486TP3     H122277   0.600   2.327   0.299 -0.3357 -1.1766 -0.6061
 3486TP3     H222278   0.747   2.347   0.267  0.3108  0.1151  2.7967
 3487TP3      O22279   0.503   3.327   7.749  0.8864  0.5193  0.0037
 3487TP3     H122280   0.489   3.235   7.769  0.0389  0.6712  0.1534
 3487TP3     H222281   0.416   3.366   7.752  1.2207  1.3088 -0.1536
 3488TP3      O22282   4.340   4.776   1.993 -0.1270  0.1485 -0.1038
 3488TP3     H122283   4.390   4.695   2.002 -1.5919 -0.6548  1.5597
 3488TP3     H222284   4.360   4.825   2.073  0.4484  1.2875 -0.9227
 3489TP3      O22285   4.817   4.040   9.115  0.5764 -0.0821  0.1682
 3489TP3     H122286   4.851   4.122   9.151  0.9149 -0.4617  0.7184
 3489TP3     H222287   4.872   3.972   9.154 -1.3546 -0.8038  1.8067
 3490TP3      O22288   3.749   1.732   1.292 -0.2323  0.1066  0.1572
 3490TP3     H122289   3.812   1.767   1.230 -2.2016  1.4543 -1.2209
 3490TP3     H222290   3.664   1.751   1.253 -1.5253 -1.2594  2.1054
 3491TP3      O22291   3.124   3.791   1.321  0.2207  0.3311 -0.2617
 3491TP3     H122292   3.200   3.811   1.375  0.6383 -0.4558 -0.5375
 3491TP3     H222293   3.088   3.876   1.297  1.6822  0.7525 -1.0570
 3492TP3      O22294   4.357   3.170   2.575  0.8721 -0.0066 -0.6386
 3492TP3     H122295   4.405   3.128   2.503  0.2727 -2.3461  0.2199
 3492TP3     H222296   4.265   3.158   2.551  0.6852  0.6657 -0.2551
 3493TP3      O22297   4.464   2.645   1.600 -0.1973 -1.2361  0.2925
 3493TP3     H122298   4.510   2.725   1.577  0.8285 -1.2001  2.2768
 3493TP3     H222299   4.372   2.663   1.579  0.3085 -0.3458 -1.2575
 3494TP3      O22300   2.616   0.918   1.552 -0.0690 -0.1154 -0.6426
 3494TP3     H122301   2.602   0.863   1.629  0.9993 -1.3126 -1.2686
 3494TP3     H222302   2.701   0.961   1.568  0.2210 -0.4703 -1.1986
 3495TP3      O22303   0.653   4.551   7.027  0.2446  0.2545 -0.0790
 3495TP3     H122304   0.707   4.550   6.948 -1.6639  1.3108 -1.5114
 3495TP3     H222305   0.677   4.632   7.072 -0.6573  1.1744 -1.1675
 3496TP3      O22306   1.663   2.007   2.494 -0.0265  0.1831 -0.2279
 3496TP3     H122307   1.738   1.955   2.465 -0.6721 -0.1767 -1.3088
 3496TP3     H222308   1.635   1.966   2.575  0.5348 -0.0726 -0.1566
 3497TP3      O22309   4.346   1.361   1.235 -0.0798 -0.4688  0.4484
 3497TP3     H122310   4.376   1.298   1.170  0.3136  0.2672 -0.0956
 3497TP3     H222311   4.407   1.434   1.228 -1.4891  0.6952 -0.0960
 3498TP3      O22312   0.230   3.371   7.321 -0.5320 -0.8007  0.6046
 3498TP3     H122313   0.317   3.344   7.293 -0.1926  1.3769 -0.6358
 3498TP3     H222314   0.242   3.460   7.354 -2.5462  0.2687 -1.3188
 3499TP3      O22315   4.017   0.165   9.235  0.3164  0.1826  0.6085
 3499TP3     H122316   4.049   0.194   9.320 -0.5762 -0.1486  1.0598
 3499TP3     H222317   3.929   0.200   9.228 -0.0331 -0.7319  0.3047
 3500TP3      O22318   3.084   5.204   7.817 -0.2453  0.2272 -0.0016
 3500TP3     H122319   3.020   5.134   7.829  0.7487 -0.7146 -0.0215
 3500TP3     H222320   3.163   5.159   7.786  0.4166  1.3592 -0.0031
 3501TP3      O22321   4.026   3.641   8.056 -0.0227 -0.3950 -0.2283
 3501TP3     H122322   3.965   3.701   8.099  1.5890  1.1095  0.0776
 3501TP3     H222323   4.050   3.579   8.125 -1.3623 -1.1840 -0.4278
 3502TP3      O22324   4.792   1.682   7.775 -0.4940 -0.2744  0.4250
 3502TP3     H122325   4.751   1.597   7.792 -0.1047 -0.5741 -0.0888
 3502TP3     H222326   4.833   1.672   7.689 -1.3277  0.7729 -0.1122
 3503TP3      O22327   1.790   3.524   8.130 -0.5629  0.3479 -0.1256
 3503TP3     H122328   1.785   3.610   8.087  0.3702 -0.3640 -1.7879
 3503TP3     H222329   1.876   3.523   8.172 -0.5140  0.1823 -0.2280
 3504TP3      O22330   4.423   4.992   0.653 -0.5901  0.2579 -0.5040
 3504TP3     H122331   4.345   5.028   0.612 -1.9508 -1.6134  0.2985
 3504TP3     H222332   4.401   4.900   0.671  1.0010  0.2219  1.7037
 3505TP3      O22333   3.598   2.114   1.400  0.3609  0.5043  0.3835
 3505TP3     H122334   3.607   2.206   1.427 -0.5766  0.7931 -0.2258
 3505TP3     H222335   3.688   2.084   1.386  0.6858  1.2805  0.7546
 3506TP3      O22336   3.644   2.752   1.551 -0.1511 -0.4688  0.5397
 3506TP3     H122337   3.608   2.673   1.510  0.8856  0.0806 -1.5835
 3506TP3     H222338   3.721   2.721   1.599  1.2879 -0.6210 -1.7032
 3507TP3      O22339   3.349   1.011   1.160  0.5760 -0.5843  0.1298
 3507TP3     H122340   3.393   0.975   1.237 -0.7590 -2.9444 -0.0824
 3507TP3     H222341   3.270   0.958   1.152  0.0253  0.4689 -2.1226
 3508TP3      O22342   0.451   5.130   9.104  0.2906  0.4928  0.1331
 3508TP3     H122343   0.451   5.035   9.110  0.0155  0.4857  0.0494
 3508TP3     H222344   0.490   5.160   9.187 -1.5384  0.3484  1.1060
 3509TP3      O22345   1.371   1.911  10.009  0.0270 -0.3942 -0.2376
 3509TP3     H122346   1.396   1.899   9.918  0.5054  0.0789 -0.1790
 3509TP3     H222347   1.419   1.989  10.037  0.8680 -1.2248  0.7635
 3510TP3      O22348   1.967   1.886   9.526 -1.0901 -0.1510  0.3635
 3510TP3     H122349   1.972   1.816   9.461 -2.1421  0.0637  0.0399
 3510TP3     H222350   1.971   1.841   9.610 -0.5547 -0.4984  0.1556
 3511TP3      O22351   0.494   0.343   8.689 -0.4672  0.0166  0.1202
 3511TP3     H122352   0.491   0.316   8.781  0.0287 -0.6539 -0.0581
 3511TP3     H222353   0.519   0.265   8.641 -1.5138  0.1541 -0.6940
 3512TP3      O22354   3.340   0.047   1.853 -0.4281 -0.2123  0.0829
 3512TP3     H122355   3.432   0.034   1.829 -0.5664  0.2084 -0.7171
 3512TP3     H222356   3.323   0.138   1.830 -1.2998 -0.5452 -0.6113
 3513TP3      O22357   1.697   3.287   2.047  0.3317 -0.7609  0.1026
 3513TP3     H122358   1.622   3.244   2.087  0.5025 -1.4371 -0.2999
 3513TP3     H222359   1.672   3.380   2.044  0.9957 -0.3242  3.4279
 3514TP3      O22360   4.546   2.163   7.867  0.1447  0.5334 -0.0610
 3514TP3     H122361   4.569   2.119   7.948  0.5566 -0.6298 -0.7807
 3514TP3     H222362   4.464   2.124   7.840  1.1197 -0.7425 -1.3404
 3515TP3      O22363   4.874   1.255   0.385 -0.1082 -0.0350  0.2141
 3515TP3     H122364   4.807   1.307   0.429  0.0470  0.4438 -0.1126
 3515TP3     H222365   4.947   1.252   0.447  0.1603  0.7462 -0.0494
 3516TP3      O22366   4.302   0.776   9.928 -0.7387 -0.1825  0.3854
 3516TP3     H122367   4.293   0.857   9.979  0.7495 -0.2247  0.7863
 3516TP3     H222368   4.269   0.798   9.841  1.9958  1.7400 -0.3137
 3517TP3      O22369   4.287   1.530   9.133  0.2816  0.5085 -0.2078
 3517TP3     H122370   4.301   1.464   9.066  2.3498 -0.3507  0.9467
 3517TP3     H222371   4.225   1.490   9.194 -0.3681  0.6467 -0.7746
 3518TP3      O22372   0.163   1.260   8.055  0.2622  0.4859  0.4757
 3518TP3     H122373   0.179   1.218   7.971  1.0501  0.1739  0.7629
 3518TP3     H222374   0.082   1.220   8.087  0.8970 -0.7197  0.6594
 3519TP3      O22375   3.032   4.180   9.537 -0.1946  0.7152  0.3498
 3519TP3     H122376   3.104   4.153   9.479  0.0456  0.1651  0.8854
 3519TP3     H222377   3.075   4.193   9.622 -1.0579 -1.9628  1.2933
 3520TP3      O22378   1.456   2.622   9.044 -0.7192 -0.2379  0.5778
 3520TP3     H122379   1.455   2.534   9.082 -1.1214 -1.3432 -1.8216
 3520TP3     H222380   1.414   2.612   8.959  1.1654  1.8216 -0.6996
 3521TP3      O22381   0.865   2.872   7.476  0.2489  0.1993  0.2073
 3521TP3     H122382   0.954   2.892   7.505  0.3926 -1.8925  1.3267
 3521TP3     H222383   0.840   2.948   7.423  1.9409  1.7406  1.5091
 3522TP3      O22384   5.049   0.651   1.937  0.6423  0.2329 -0.4331
 3522TP3     H122385   4.976   0.590   1.949  0.1714  1.0705  1.4875
 3522TP3     H222386   5.125   0.604   1.972  0.4257  0.4501  0.3484
 3523TP3      O22387   3.649   2.463   9.666  0.0934 -0.1984  0.2477
 3523TP3     H122388   3.686   2.460   9.578 -0.3339 -0.3473  0.0711
 3523TP3     H222389   3.554   2.470   9.653  0.0962  0.9937  0.6939
 3524TP3      O22390   5.290   0.987   7.002 -0.0934  0.3959  0.2690
 3524TP3     H122391   5.260   0.931   6.930  0.5496 -0.2364  0.4798
 3524TP3     H222392   5.272   0.937   7.081 -1.1700  1.2599  0.5903
 3525TP3      O22393   3.270   2.166   2.463  0.1106 -0.0717 -0.5723
 3525TP3     H122394   3.295   2.108   2.392 -0.9358 -0.1557 -0.8825
 3525TP3     H222395   3.262   2.252   2.422  2.3424  0.4899  0.0099
 3526TP3      O22396   3.763   4.058   0.381 -0.1161 -0.0857  0.5133
 3526TP3     H122397   3.710   4.045   0.302  0.2321 -0.3673  0.3222
 3526TP3     H222398   3.835   3.995   0.372  0.3346  0.4004  0.6958
 3527TP3      O22399   5.164   0.934   2.882  0.4334 -0.1590 -0.4363
 3527TP3     H122400   5.109   0.945   2.960  0.3163 -0.7829 -0.4269
 3527TP3     H222401   5.243   0.984   2.901  0.1067  0.2899 -0.2194
 3528TP3      O22402   2.116   1.127   8.477 -0.2062 -0.5481 -0.2549
 3528TP3     H122403   2.189   1.188   8.469  1.3607 -2.1740  0.7068
 3528TP3     H222404   2.109   1.087   8.390  1.6031 -1.9517  0.1659
 3529TP3      O22405   1.248   4.193   2.364 -0.2085  0.1391 -1.0479
 3529TP3     H122406   1.188   4.199   2.290 -0.8343 -2.9172 -0.9064
 3529TP3     H222407   1.324   4.147   2.329  0.4087  0.5545 -0.2795
 3530TP3      O22408   3.132   3.584   1.927  0.2748  0.2351 -0.0717
 3530TP3     H122409   3.081   3.605   1.848 -1.7989 -1.2890  0.7707
 3530TP3     H222410   3.136   3.666   1.975  1.3045  1.1130 -1.5741
 3531TP3      O22411   1.707   4.760   8.249  0.3436 -0.0094  0.5074
 3531TP3     H122412   1.705   4.665   8.244 -0.6303  0.0164  0.1442
 3531TP3     H222413   1.773   4.780   8.315  0.6669 -0.9293  0.4688
 3532TP3      O22414   4.239   4.543   8.189 -0.3704  0.4920 -0.1308
 3532TP3     H122415   4.171   4.559   8.255 -0.0101  1.8381 -0.0550
 3532TP3     H222416   4.217   4.601   8.117  0.8025  1.1105 -0.0202
 3533TP3      O22417   2.919   3.007   0.512 -0.1780 -0.2978  0.8610
 3533TP3     H122418   2.895   2.961   0.431 -2.2120  2.0671 -0.0080
 3533TP3     H222419   3.010   3.033   0.498  0.7536 -3.1106  1.0206
 3534TP3      O22420   0.371   3.592   8.341 -0.0321  0.4243 -0.5905
 3534TP3     H122421   0.282   3.606   8.310 -0.6094 -0.6030  0.4848
 3534TP3     H222422   0.420   3.566   8.263 -0.4795  1.7480 -1.3358
 3535TP3      O22423   0.221   4.893   8.019 -0.2485 -0.5575 -0.0603
 3535TP3     H122424   0.187   4.975   8.055 -2.0111 -1.6250  0.8200
 3535TP3     H222425   0.300   4.919   7.971 -2.3183  2.1496 -2.3869
 3536TP3      O22426   0.578   1.131   1.005 -0.0475  0.0648  0.0872
 3536TP3     H122427   0.495   1.138   1.052 -1.4328 -2.3062 -1.7643
 3536TP3     H222428   0.558   1.165   0.918  1.1613  0.1591 -0.1635
 3537TP3      O22429   0.456   5.121   0.785 -0.1356 -0.5694  0.0679
 3537TP3     H122430   0.461   5.186   0.854  0.5139  0.6086 -1.0406
 3537TP3     H222431   0.494   5.164   0.708  0.1614 -2.1900 -0.7547
 3538TP3      O22432   5.117   0.849   1.068  0.0007  0.4048  0.3370
 3538TP3     H122433   5.158   0.862   1.154  1.8647 -0.9325 -0.2900
 3538TP3     H222434   5.024   0.844   1.087  0.3237  0.7001  2.2111
 3539TP3      O22435   3.733   3.816   2.441  0.0296  0.1147 -0.1584
 3539TP3     H122436   3.688   3.820   2.356 -2.4786  2.1551  1.1240
 3539TP3     H222437   3.665   3.837   2.505  1.7188 -1.7697  2.4748
 3540TP3      O22438   4.923   2.519   8.664  0.5379 -0.5441  0.1324
 3540TP3     H122439   5.003   2.561   8.633  0.6006 -0.3281  0.5904
 3540TP3     H222440   4.856   2.587   8.659 -0.4163 -1.4905 -3.2954
 3541TP3      O22441   0.452   4.498   1.249 -0.3354  0.0528  0.8239
 3541TP3     H122442   0.473   4.560   1.319  0.2244  1.6971 -0.7348
 3541TP3     H222443   0.526   4.503   1.189 -0.6712 -1.5404  0.2164
 3542TP3      O22444   1.357   5.283   1.950  0.0155  0.2522 -0.0816
 3542TP3     H122445   1.333   5.263   1.859  0.0036  1.2695 -0.3119
 3542TP3     H222446   1.362   5.378   1.953 -1.7172  0.3363  1.4490
 3543TP3      O22447   4.263   4.682   9.233 -0.4539  0.2295 -0.5549
 3543TP3     H122448   4.207   4.624   9.284  0.8463  0.2766  1.0096
 3543TP3     H222449   4.271   4.760   9.287  0.7843  0.3710 -0.9211
 3544TP3      O22450   2.010   4.421   0.379  0.0872  0.1893  0.6563
 3544TP3     H122451   1.955   4.499   0.386 -1.0575 -0.5942  0.6787
 3544TP3     H222452   2.031   4.414   0.286 -0.6624 -0.0269  0.4932
 3545TP3      O22453   1.559   1.103   8.526  0.3283 -0.1839 -0.2694
 3545TP3     H122454   1.640   1.066   8.490  1.4735  0.6735  1.2901
 3545TP3     H222455   1.582   1.194   8.547 -0.4240 -0.4266  1.9261
 3546TP3      O22456   2.597   4.615   2.622 -0.1140 -0.1959 -0.1500
 3546TP3     H122457   2.601   4.578   2.710 -0.2154  3.0621  1.3717
 3546TP3     H222458   2.504   4.616   2.601 -0.2052  0.2268  0.2709
 3547TP3      O22459   4.998   1.962   7.947  0.6459 -0.8073  0.4753
 3547TP3     H122460   4.916   2.004   7.922  0.6392 -0.9807  0.1984
 3547TP3     H222461   5.049   2.031   7.990  1.2852 -0.0881 -1.3811
 3548TP3      O22462   1.470   2.076   0.988 -0.5740 -0.7547  0.0341
 3548TP3     H122463   1.439   2.159   1.022  0.4373 -1.2094  2.2224
 3548TP3     H222464   1.401   2.014   1.009  0.1731 -1.0909  1.6622
 3549TP3      O22465   2.044   1.636   2.707  0.1128 -0.3937  0.3889
 3549TP3     H122466   1.981   1.568   2.730  0.9826 -1.1228  0.6870
 3549TP3     H222467   1.990   1.710   2.676 -0.8542 -1.1510  0.2148
 3550TP3      O22468   2.896   4.983   7.851 -0.0589 -0.2100  0.2366
 3550TP3     H122469   2.896   4.889   7.869  2.9783 -0.0923  1.5435
 3550TP3     H222470   2.836   4.994   7.777  1.9043 -3.6307 -2.1330
 3551TP3      O22471   0.200   1.970   0.002  0.0751  0.0124 -0.2210
 3551TP3     H122472   0.151   1.916  -0.061 -2.6880  0.1139  1.6593
 3551TP3     H222473   0.271   2.008  -0.050  1.0567 -3.7921 -2.1032
 3552TP3      O22474   0.646   3.470   1.603 -0.5546 -0.1628 -0.0437
 3552TP3     H122475   0.691   3.530   1.662 -1.4650 -1.7607  2.4493
 3552TP3     H222476   0.715   3.414   1.569 -0.2390 -0.5801  1.2288
 3553TP3      O22477   2.948   2.708   9.135  0.5211 -0.4286  0.0392
 3553TP3     H122478   3.027   2.657   9.118  1.0083 -0.2026  1.5041
 3553TP3     H222479   2.976   2.799   9.126  0.2197 -0.3614 -0.2415
 3554TP3      O22480   1.071   0.151   1.199  0.2140  0.4409  0.0120
 3554TP3     H122481   1.115   0.226   1.240 -0.1400  1.0292 -0.6681
 3554TP3     H222482   1.032   0.187   1.119 -0.9381 -0.2167  0.2635
 3555TP3      O22483   2.286   2.863   9.237 -0.4114  0.1684  0.2501
 3555TP3     H122484   2.266   2.954   9.213 -0.4744  0.2477  0.6039
 3555TP3     H222485   2.202   2.826   9.263 -0.3825  0.0120  0.1193
 3556TP3      O22486   3.710   2.878   0.049 -0.3631  0.3758 -0.1312
 3556TP3     H122487   3.690   2.790   0.079  1.8135  0.6057  2.3042
 3556TP3     H222488   3.788   2.867  -0.006 -0.7473  0.6894 -0.7552
 3557TP3      O22489   0.387   2.113   7.378 -0.3688  0.1396 -0.5723
 3557TP3     H122490   0.326   2.180   7.346 -0.5566  0.4947  0.4777
 3557TP3     H222491   0.331   2.039   7.401 -0.2911  0.0901 -0.5420
 3558TP3      O22492   0.122   1.902   2.900  0.3006 -0.6818 -0.2975
 3558TP3     H122493   0.154   1.837   2.962 -0.6322 -0.2404  0.6784
 3558TP3     H222494   0.198   1.923   2.845  1.2756 -0.7465  0.9858
 3559TP3      O22495   5.216   4.959   1.181 -0.1115 -0.2820  0.2665
 3559TP3     H122496   5.293   5.015   1.192 -0.1731 -0.0908 -0.2215
 3559TP3     H222497   5.187   4.976   1.091 -2.1392  1.4615  1.1686
 3560TP3      O22498   5.134   5.064   1.649 -0.0101  0.4152  0.0972
 3560TP3     H122499   5.129   5.031   1.559  0.9534 -0.4025  0.3179
 3560TP3     H222500   5.055   5.117   1.660 -0.0244  0.7269 -1.3079
 3561TP3      O22501   4.984   3.409   9.996 -0.2328 -0.3353  0.1954
 3561TP3     H122502   4.981   3.463   9.917  1.9324 -0.3434  0.0333
 3561TP3     H222503   4.895   3.411  10.030 -0.7589  1.3390 -1.1285
 3562TP3      O22504   1.133   3.926   9.446  0.0124 -0.1567  0.6403
 3562TP3     H122505   1.135   3.869   9.523 -2.0295 -0.7106  0.3482
 3562TP3     H222506   1.098   3.870   9.377 -0.7456  1.0859 -0.0034
 3563TP3      O22507   0.218   3.303   2.426 -0.2269  0.2766 -0.0670
 3563TP3     H122508   0.203   3.215   2.461  1.2695  0.6833  1.7090
 3563TP3     H222509   0.130   3.334   2.402 -0.9913 -1.0479  0.8627
 3564TP3      O22510   3.591   2.951   8.442  0.5104  0.0068 -0.0189
 3564TP3     H122511   3.544   2.986   8.518  1.1248  1.3229 -0.2166
 3564TP3     H222512   3.642   2.878   8.476  0.6222  0.4603  0.8034
 3565TP3      O22513   0.089   3.768   8.514 -0.1326  0.3438  0.2369
 3565TP3     H122514   0.089   3.721   8.431  0.2570  2.1435 -0.8556
 3565TP3     H222515   0.178   3.758   8.549  0.7438  2.2273 -1.2461
 3566TP3      O22516   4.402   1.250   0.653 -0.2534 -0.7321  0.3906
 3566TP3     H122517   4.390   1.190   0.580 -0.8278 -1.8383  1.3568
 3566TP3     H222518   4.314   1.279   0.675  0.0700  1.1291 -0.5564
 3567TP3      O22519   4.121   3.308   1.441  0.1905 -0.2569 -0.4717
 3567TP3     H122520   4.095   3.317   1.533 -0.1782 -0.1160 -0.5871
 3567TP3     H222521   4.041   3.280   1.397  0.4163 -0.5151 -0.7189
 3568TP3      O22522   0.379   1.218   8.219 -0.6865 -0.2971  0.1605
 3568TP3     H122523   0.371   1.143   8.277 -1.2737 -0.7882 -0.5453
 3568TP3     H222524   0.291   1.230   8.182 -0.7573  1.1354  0.7523
 3569TP3      O22525   0.144   4.629   7.863 -0.2472 -0.5268  0.3937
 3569TP3     H122526   0.182   4.716   7.870  1.1511 -1.1461  1.0882
 3569TP3     H222527   0.197   4.586   7.796 -1.4873 -0.5802 -0.5744
 3570TP3      O22528   3.234   2.340   1.571 -0.0201 -0.1028 -1.1269
 3570TP3     H122529   3.178   2.401   1.524 -0.3663  0.0106 -0.5806
 3570TP3     H222530   3.261   2.276   1.505 -0.2465  0.2232 -1.5404
 3571TP3      O22531   0.567   3.459   7.308 -0.1129 -0.2507 -0.4145
 3571TP3     H122532   0.631   3.418   7.250  0.6320  1.8660 -1.1828
 3571TP3     H222533   0.572   3.552   7.288 -2.3218  0.1812  0.6419
 3572TP3      O22534   1.980   0.101   9.897 -0.2512  0.5861  0.0868
 3572TP3     H122535   1.897   0.130   9.936  0.5753  1.2291  1.4913
 3572TP3     H222536   1.963   0.013   9.866 -2.0627  1.4770 -1.6626
 3573TP3      O22537   4.727   4.929   9.020  0.9964 -0.2277 -0.0124
 3573TP3     H122538   4.696   4.861   8.959  0.0051  1.0548 -0.9832
 3573TP3     H222539   4.665   4.926   9.092 -0.7208  1.4207 -1.3269
 3574TP3      O22540   4.754   4.962   1.103  0.1192  0.2211 -0.1269
 3574TP3     H122541   4.806   4.924   1.033  1.2234  0.4329  0.5516
 3574TP3     H222542   4.663   4.955   1.072  0.3615 -1.8122 -0.5706
 3575TP3      O22543   3.583   4.095   1.367  0.4148 -0.2667  0.4646
 3575TP3     H122544   3.487   4.094   1.375  0.3911  1.8084  0.9768
 3575TP3     H222545   3.601   4.044   1.288 -1.1287 -0.5755  0.2814
 3576TP3      O22546   1.292   1.490   9.359  0.7249 -0.7017 -0.1461
 3576TP3     H122547   1.240   1.550   9.305 -0.5518 -1.1943  0.4865
 3576TP3     H222548   1.381   1.524   9.354  0.0806  1.0923 -0.0329
 3577TP3      O22549   1.528   3.560   1.649 -0.4261 -0.6774 -0.7353
 3577TP3     H122550   1.463   3.490   1.662  0.3029 -1.0200  1.5805
 3577TP3     H222551   1.477   3.640   1.661 -0.9410 -0.8346 -1.7375
 3578TP3      O22552   2.681   2.626   8.799  0.0129  0.1020 -0.0029
 3578TP3     H122553   2.684   2.639   8.705 -0.6091  0.0654 -0.0316
 3578TP3     H222554   2.772   2.636   8.828  0.0537  1.0867 -0.4657
 3579TP3      O22555   0.609   3.395   9.621  0.4310  0.0941 -0.2991
 3579TP3     H122556   0.635   3.414   9.712 -2.1444 -0.5493  0.6393
 3579TP3     H222557   0.632   3.303   9.608  2.5170  0.6587 -1.0040
 3580TP3      O22558   3.325   2.084   1.439 -0.7747  0.2898 -0.0360
 3580TP3     H122559   3.417   2.076   1.413  0.5788  3.5813  2.8612
 3580TP3     H222560   3.312   2.013   1.502 -0.5653 -0.7648 -1.1463
 3581TP3      O22561   3.906   3.150   0.763 -0.3985 -0.5440 -0.4474
 3581TP3     H122562   3.943   3.103   0.837  2.2257  2.4111  0.3452
 3581TP3     H222563   3.972   3.140   0.694  3.3051  5.8311  1.3644
 3582TP3      O22564   3.667   0.162   8.826  0.3323  0.0326  0.0332
 3582TP3     H122565   3.733   0.145   8.894 -0.5141  0.2224  0.9230
 3582TP3     H222566   3.601   0.095   8.839 -0.2908  0.6248 -0.0000
 3583TP3      O22567   1.308   1.849   0.397  0.3123  0.0740  0.2967
 3583TP3     H122568   1.348   1.924   0.441  3.3044 -0.3453 -1.4504
 3583TP3     H222569   1.262   1.888   0.322  1.3328  0.2370 -0.2553
 3584TP3      O22570   1.561   4.074   8.048 -0.3030 -0.1340  0.6551
 3584TP3     H122571   1.655   4.062   8.046 -0.2738  0.0556  0.8413
 3584TP3     H222572   1.541   4.091   8.140 -0.6508 -1.2082  0.7918
 3585TP3      O22573   4.282   3.444   2.846 -0.1776  0.3422 -0.4539
 3585TP3     H122574   4.283   3.373   2.911 -2.0051  0.9961  0.3599
 3585TP3     H222575   4.372   3.451   2.817  0.5061 -0.6837  1.2637
 3586TP3      O22576   4.960   2.496   2.311 -0.8915  0.2435 -0.2675
 3586TP3     H122577   5.047   2.524   2.282 -0.6282 -0.5277 -0.2536
 3586TP3     H222578   4.900   2.555   2.265 -0.3172  1.9194  1.0513
 3587TP3      O22579   1.079   4.564   1.336 -0.4185 -0.0148 -0.1597
 3587TP3     H122580   1.101   4.519   1.417 -0.2551  0.4854  0.0696
 3587TP3     H222581   1.011   4.627   1.360  0.6248  1.1277 -0.1299
 3588TP3      O22582   4.182   3.803   7.910 -1.2036 -0.3235 -0.0166
 3588TP3     H122583   4.243   3.837   7.975  1.7135 -0.7547 -2.2952
 3588TP3     H222584   4.138   3.730   7.954  2.3902 -2.1786  0.8823
 3589TP3      O22585   3.123   0.432   0.262  0.1530 -0.2146 -0.1234
 3589TP3     H122586   3.031   0.453   0.245  0.3585  1.2027  0.4033
 3589TP3     H222587   3.137   0.454   0.354  1.0279 -0.4155 -0.1950
 3590TP3      O22588   5.118   1.926   9.883 -0.0860  0.2016  0.2719
 3590TP3     H122589   5.062   1.855   9.913 -0.5599  0.8632  0.9873
 3590TP3     H222590   5.207   1.897   9.904 -0.3021 -0.0161  0.8932
 3591TP3      O22591   5.075   3.469   1.438  0.4022  0.1401 -0.2216
 3591TP3     H122592   5.022   3.403   1.394  0.1278 -0.0954  0.4635
 3591TP3     H222593   5.127   3.421   1.501  0.2931  0.5589  0.1944
 3592TP3      O22594   3.175   4.803   1.788  0.3059  0.0217  0.0865
 3592TP3     H122595   3.115   4.732   1.764  0.1499  0.2718 -0.2658
 3592TP3     H222596   3.226   4.819   1.708  1.6089 -0.9280  0.6815
 3593TP3      O22597   0.235   3.305   8.106 -0.1061 -0.0631 -0.4872
 3593TP3     H122598   0.245   3.212   8.083  1.7863  0.3479 -1.5995
 3593TP3     H222599   0.209   3.305   8.198  0.6691 -1.6987 -0.2372
 3594TP3      O22600   3.312   3.242   2.778 -0.0267 -0.0984 -0.1661
 3594TP3     H122601   3.295   3.330   2.742 -1.6539 -0.5222 -0.5123
 3594TP3     H222602   3.235   3.222   2.830 -0.8191 -2.2666 -2.0141
 3595TP3      O22603   0.957   3.716   8.416  0.0750  0.2007  0.2204
 3595TP3     H122604   0.954   3.780   8.345 -1.6500  0.7367  0.7337
 3595TP3     H222605   0.870   3.677   8.417  1.2307 -2.6853 -0.4955
 3596TP3      O22606   1.118   4.085   0.225  0.2532  0.5721 -0.3057
 3596TP3     H122607   1.160   4.168   0.248  1.5707  0.2827 -1.4761
 3596TP3     H222608   1.090   4.098   0.134  0.3217 -0.2005 -0.4403
 3597TP3      O22609   3.006   0.307   7.139 -0.1061  0.0896  0.0434
 3597TP3     H122610   3.021   0.213   7.133 -0.5263  0.0467 -0.3509
 3597TP3     H222611   3.048   0.343   7.061  0.6139  0.3081  0.5128
 3598TP3      O22612   2.791   3.789   1.404 -0.5247  0.5179  0.3697
 3598TP3     H122613   2.760   3.790   1.495 -0.4150  0.4197  0.4079
 3598TP3     H222614   2.862   3.854   1.403  1.3476 -1.4140  1.0116
 3599TP3      O22615   2.893   1.183   8.394  0.0066 -0.3028 -0.3632
 3599TP3     H122616   2.984   1.204   8.415  0.3955 -2.1661 -0.0655
 3599TP3     H222617   2.880   1.094   8.426 -2.1885  0.1957  0.3426
 3600TP3      O22618   0.335   4.500   0.873  0.4056 -0.3452 -0.0931
 3600TP3     H122619   0.381   4.420   0.896 -0.5249 -0.6975  0.5775
 3600TP3     H222620   0.253   4.496   0.921  0.3114  0.9793 -0.0931
 3601TP3      O22621   3.286   4.635   0.673 -0.3856  0.0452  0.4463
 3601TP3     H122622   3.204   4.596   0.703 -1.1542  0.1382 -1.4303
 3601TP3     H222623   3.279   4.637   0.578  2.5194 -1.4773  0.1093
 3602TP3      O22624   4.925   3.239   8.923  0.5527  0.2984 -0.0942
 3602TP3     H122625   4.914   3.181   8.847  1.0732  0.0191  0.0386
 3602TP3     H222626   4.874   3.317   8.901  0.3442  0.0403 -0.5443
 3603TP3      O22627   1.916   1.991   8.623  0.0034  0.2751 -0.6254
 3603TP3     H122628   1.982   2.059   8.614 -1.1828  1.2415 -2.9108
 3603TP3     H222629   1.838   2.037   8.654 -0.4413 -0.2905 -0.8843
 3604TP3      O22630   1.522   0.082   6.920  0.1070 -0.1429 -0.0820
 3604TP3     H122631   1.522  -0.014   6.925  0.9803 -0.1799 -0.5729
 3604TP3     H222632   1.533   0.101   6.826 -0.7671  0.4447 -0.0800
 3605TP3      O22633   1.882   0.314   0.087 -0.0598 -0.4515  0.3774
 3605TP3     H122634   1.832   0.335   0.166 -1.0479  0.7534 -0.5344
 3605TP3     H222635   1.816   0.283   0.025  0.5382 -0.2150 -0.3872
 3606TP3      O22636   4.978   4.523   9.242 -0.3821 -0.3741  0.6870
 3606TP3     H122637   4.931   4.515   9.159  1.7095  0.7406 -0.6939
 3606TP3     H222638   4.964   4.438   9.285 -0.6026 -1.4295 -1.3178
 3607TP3      O22639   2.202   4.658   3.352  0.0301  0.1222  0.0516
 3607TP3     H122640   2.273   4.603   3.319 -0.2444 -0.8742  1.0761
 3607TP3     H222641   2.198   4.731   3.290  0.1443 -1.1884 -1.5678
 3608TP3      O22642   2.041   3.945   9.680 -0.4363  0.2256 -0.0735
 3608TP3     H122643   2.033   3.894   9.760 -0.3428 -0.5100 -0.5247
 3608TP3     H222644   2.135   3.951   9.664 -0.4654  0.1140 -0.2919
 3609TP3      O22645   3.405   3.228   9.373 -0.0519  0.0408 -0.2009
 3609TP3     H122646   3.343   3.277   9.428  0.3557 -0.2557  0.5362
 3609TP3     H222647   3.475   3.202   9.433 -0.7268 -2.2803 -0.3203
 3610TP3      O22648   1.097   2.090   9.621  0.1724 -0.3943  0.1648
 3610TP3     H122649   1.133   2.157   9.679 -2.0682  1.4108 -0.3563
 3610TP3     H222650   1.124   2.117   9.533  0.7185 -1.1900  0.0801
 3611TP3      O22651   0.490   3.401   0.376  0.0145  0.3698 -0.4524
 3611TP3     H122652   0.461   3.487   0.406  0.6460  0.9847 -1.5113
 3611TP3     H222653   0.418   3.342   0.397  0.1303  0.8721  1.5438
 3612TP3      O22654   2.666   3.525   7.476 -0.4033  0.1535  0.2321
 3612TP3     H122655   2.760   3.510   7.470 -0.2729 -0.0256  2.0975
 3612TP3     H222656   2.635   3.522   7.386  1.0783 -1.6554 -0.2637
 3613TP3      O22657   3.685   2.339   7.888  0.5812 -0.0031  0.7820
 3613TP3     H122658   3.704   2.253   7.926  0.6775  0.1611  1.1084
 3613TP3     H222659   3.607   2.369   7.935 -1.8934 -1.5793 -1.9487
 3614TP3      O22660   4.704   1.909   7.557 -0.2727 -0.9273  0.6000
 3614TP3     H122661   4.737   1.936   7.471 -1.2909 -0.8562  0.2208
 3614TP3     H222662   4.694   1.814   7.550 -1.3642 -0.8049  0.2603
 3615TP3      O22663   4.414   0.954   0.259 -0.1981  0.2215 -0.1352
 3615TP3     H122664   4.382   0.944   0.169 -0.2799  1.2912 -0.2378
 3615TP3     H222665   4.481   0.885   0.268 -0.3761 -0.0677 -0.9227
 3616TP3      O22666   4.327   2.698   2.194  0.5620 -0.2037  0.3980
 3616TP3     H122667   4.362   2.786   2.183  0.7798 -0.4954 -1.6537
 3616TP3     H222668   4.405   2.642   2.196  0.3739 -0.4652  0.3670
 3617TP3      O22669   4.289   4.565   3.002 -0.6287  0.4042 -0.5537
 3617TP3     H122670   4.357   4.585   3.067  0.1301 -1.6909 -0.6058
 3617TP3     H222671   4.337   4.550   2.921 -1.4782  1.9787 -1.3751
 3618TP3      O22672   2.423   3.084   8.215  0.2905  0.1330 -0.3066
 3618TP3     H122673   2.418   3.137   8.135 -2.6958 -0.1827 -0.4484
 3618TP3     H222674   2.333   3.058   8.232  1.2739 -2.7236  1.2539
 3619TP3      O22675   4.156   4.266   0.516 -0.4015 -0.2097  0.3223
 3619TP3     H122676   4.152   4.361   0.512 -0.0787 -0.1540  1.1913
 3619TP3     H222677   4.085   4.240   0.574 -0.5078 -0.5068  0.0683
 3620TP3      O22678   2.239   4.178   1.315 -0.4907 -0.4206  0.2542
 3620TP3     H122679   2.168   4.159   1.377 -0.1592 -0.5755  0.5943
 3620TP3     H222680   2.195   4.210   1.237 -0.9058 -0.0145  0.6511
 3621TP3      O22681   3.259   1.714   7.444  0.3490 -0.0259 -0.4439
 3621TP3     H122682   3.302   1.629   7.446 -0.1044 -0.2618 -0.6301
 3621TP3     H222683   3.314   1.768   7.387  1.1905  0.1135  0.4739
 3622TP3      O22684   3.191   2.958   7.381  0.4359  0.3376  0.1866
 3622TP3     H122685   3.212   3.052   7.378 -0.9552  0.6697 -0.0250
 3622TP3     H222686   3.221   2.925   7.296 -0.4276  0.9355 -0.3825
 3623TP3      O22687   0.399   0.294   1.695 -0.6109 -0.3672  0.0041
 3623TP3     H122688   0.427   0.348   1.769 -1.2282  1.1965 -0.8645
 3623TP3     H222689   0.407   0.350   1.619 -0.4447 -1.7975 -1.0826
 3624TP3      O22690   4.485   3.848   1.704  0.0901  0.6501 -0.1097
 3624TP3     H122691   4.426   3.909   1.748 -0.2980  0.2773 -0.1098
 3624TP3     H222692   4.435   3.816   1.629  0.9217  1.6481 -1.1201
 3625TP3      O22693   1.465   0.682   9.836  0.0264  0.0838 -0.6314
 3625TP3     H122694   1.377   0.652   9.813 -0.0393  0.0710 -0.3623
 3625TP3     H222695   1.494   0.732   9.759  0.3263 -1.0576 -1.2841
 3626TP3      O22696   2.777   0.409   0.971 -0.2692 -0.8010  0.1028
 3626TP3     H122697   2.754   0.322   1.001  0.1686 -1.4515 -1.3730
 3626TP3     H222698   2.872   0.414   0.982 -0.3506 -0.3202  0.6399
 3627TP3      O22699   4.880   0.576   9.655  0.5083  0.3292  0.1463
 3627TP3     H122700   4.816   0.619   9.599  0.4151  0.2117  0.1616
 3627TP3     H222701   4.839   0.576   9.742  1.0790  1.4384  0.4436
 3628TP3      O22702   4.564   1.577   8.206 -0.1026 -0.1842 -0.4207
 3628TP3     H122703   4.597   1.564   8.295 -0.5991 -0.7215 -0.3096
 3628TP3     H222704   4.637   1.550   8.149  0.0441 -0.2978 -0.1800
 3629TP3      O22705   2.163   3.938   8.904  0.3541  0.3084 -0.5508
 3629TP3     H122706   2.166   3.956   8.998 -2.4079 -1.5714  0.0027
 3629TP3     H222707   2.181   4.023   8.863  0.7968  1.3521  1.6630
 3630TP3      O22708   1.867   2.827   3.023  0.3864  0.0044  0.1723
 3630TP3     H122709   1.945   2.873   2.993  0.1623  1.6308  1.8945
 3630TP3     H222710   1.900   2.744   3.056  1.6571  1.1901  2.1026
 3631TP3      O22711   5.270   0.324   7.493  0.3233  0.4283  0.3122
 3631TP3     H122712   5.176   0.326   7.511  0.0383  0.7573 -1.0859
 3631TP3     H222713   5.284   0.239   7.452  0.2690  1.1336 -1.2254
 3632TP3      O22714   2.600   0.190   0.652 -0.1882 -0.4178 -0.2193
 3632TP3     H122715   2.545   0.259   0.689  1.1045  0.6163 -0.1753
 3632TP3     H222716   2.601   0.208   0.558  0.9197  0.1989 -0.0944
 3633TP3      O22717   0.820   0.902   9.994  0.0318  0.1142 -0.1396
 3633TP3     H122718   0.871   0.922  10.072 -0.5623 -1.1065  0.5856
 3633TP3     H222719   0.864   0.950   9.924 -0.2971  2.4538  1.1677
 3634TP3      O22720   4.956   3.376   2.827 -0.3325  0.0380  0.3295
 3634TP3     H122721   4.911   3.324   2.761 -1.1688 -1.5981  2.1009
 3634TP3     H222722   4.886   3.416   2.878  0.2903  0.4798  0.8589
 3635TP3      O22723   1.948   3.669   0.565 -0.2025  0.1917  0.0957
 3635TP3     H122724   1.988   3.737   0.510  0.4884 -0.6601 -0.4779
 3635TP3     H222725   1.921   3.715   0.644  2.7381  0.6913  0.9253
 3636TP3      O22726   2.748   1.645   8.346 -0.1317 -0.2375  0.7734
 3636TP3     H122727   2.667   1.693   8.328  0.2447  0.7517  1.6250
 3636TP3     H222728   2.734   1.606   8.432  0.1599 -0.3683  0.7623
 3637TP3      O22729   1.178   0.988   3.198  0.1598 -0.4724  0.0678
 3637TP3     H122730   1.154   1.050   3.267  2.7141  0.0220  0.6457
 3637TP3     H222731   1.203   0.908   3.246 -0.0460 -0.8567 -0.4536
 3638TP3      O22732   4.925   3.679   2.943 -0.4724 -0.2741 -0.1391
 3638TP3     H122733   4.996   3.690   2.880 -1.4692  0.4466 -1.1871
 3638TP3     H222734   4.943   3.743   3.012  0.1203 -0.4027 -0.1754
 3639TP3      O22735   2.382   0.842   6.746 -0.0398 -0.8756  0.3673
 3639TP3     H122736   2.350   0.770   6.692  0.9642  0.3248 -2.0084
 3639TP3     H222737   2.477   0.836   6.739  0.0841 -0.0787  1.2043
 3640TP3      O22738   3.493   2.923   8.735 -0.0465 -0.1125 -0.6503
 3640TP3     H122739   3.554   2.860   8.775  0.9393 -0.3640 -2.4305
 3640TP3     H222740   3.438   2.870   8.678  0.1841  0.5039 -1.4635
 3641TP3      O22741   2.503   4.348   9.100  0.1605 -0.2017 -0.6292
 3641TP3     H122742   2.554   4.417   9.057  0.7427  1.5189  2.5107
 3641TP3     H222743   2.451   4.394   9.166 -1.5373 -2.5192 -0.2122
 3642TP3      O22744   1.557   4.063   1.086 -0.1126  0.4742  0.4128
 3642TP3     H122745   1.582   4.150   1.058  1.3180  0.3501  1.2029
 3642TP3     H222746   1.593   4.055   1.174  0.6492 -1.2527 -0.0059
 3643TP3      O22747   0.054   2.668   3.181  0.0022 -0.3105 -0.5586
 3643TP3     H122748   0.132   2.654   3.128  0.5172  0.8036 -0.1306
 3643TP3     H222749   0.082   2.728   3.250 -1.0540 -0.4583  0.0276
 3644TP3      O22750   1.378   0.988   8.696  0.1201 -0.2243  0.0593
 3644TP3     H122751   1.464   1.010   8.660  0.7069  0.2608  1.6845
 3644TP3     H222752   1.394   0.914   8.754 -0.5253 -0.0292  0.5048
 3645TP3      O22753   3.952   0.833   1.395  0.9988 -0.0407  0.3025
 3645TP3     H122754   3.945   0.829   1.300  1.6521  0.0515  0.2444
 3645TP3     H222755   4.045   0.850   1.412  1.0095 -0.7213  0.9775
 3646TP3      O22756   1.144   1.036   8.090  0.7518 -0.4960  0.1873
 3646TP3     H122757   1.089   1.007   8.018 -0.1131  2.4323 -0.4911
 3646TP3     H222758   1.225   1.066   8.048  1.2686 -1.1095  0.7299
 3647TP3      O22759   2.197   0.333   8.172  0.5248  0.3586 -0.0875
 3647TP3     H122760   2.102   0.347   8.183  0.6183  0.3133  0.8615
 3647TP3     H222761   2.207   0.312   8.080 -0.5583 -0.8747  0.0308
 3648TP3      O22762   1.102   2.470   8.026 -0.1937  0.1711 -0.5549
 3648TP3     H122763   1.079   2.477   8.119  1.4409 -1.5933  0.0607
 3648TP3     H222764   1.139   2.555   8.004 -1.6430  0.9856  0.0877
 3649TP3      O22765   0.700   4.400   9.984  0.1335  0.1426 -0.1507
 3649TP3     H122766   0.650   4.384  10.063  1.8980  1.5129  1.3544
 3649TP3     H222767   0.640   4.380   9.912 -1.9825  0.1947  1.5174
 3650TP3      O22768   3.315   4.629   0.388  0.3360  0.0364  0.3910
 3650TP3     H122769   3.380   4.558   0.393  0.5096  0.1883  0.2755
 3650TP3     H222770   3.283   4.626   0.298  0.4819  0.2276  0.3319
 3651TP3      O22771   1.963   3.221   1.620  0.5630  0.5332  0.0111
 3651TP3     H122772   1.964   3.152   1.555  1.5508  1.2777 -0.7915
 3651TP3     H222773   1.870   3.240   1.633  0.2998 -0.6096 -0.0886
 3652TP3      O22774   4.864   4.655   7.231  0.3972  0.0850  0.2845
 3652TP3     H122775   4.802   4.627   7.164  0.0363 -0.2709  0.7597
 3652TP3     H222776   4.884   4.746   7.208 -0.7084  0.3798  0.4060
 3653TP3      O22777   2.072   2.977   0.306 -0.0588  0.3451 -0.0811
 3653TP3     H122778   2.105   2.990   0.394  0.7591 -0.1630 -0.2993
 3653TP3     H222779   1.990   3.027   0.303  0.3142  1.0265  0.7015
 3654TP3      O22780   1.264   0.676   2.412 -0.1243 -0.1014 -0.5784
 3654TP3     H122781   1.201   0.737   2.449  0.5518 -0.2137  0.8065
 3654TP3     H222782   1.341   0.729   2.391 -0.2628 -0.1507 -1.2603
 3655TP3      O22783   0.786   3.823   6.779 -0.0248  0.5997 -0.0605
 3655TP3     H122784   0.800   3.901   6.726 -0.8000  3.5011  3.5794
 3655TP3     H222785   0.874   3.785   6.788  0.3513  0.8924 -2.0090
 3656TP3      O22786   2.612   0.100   7.261 -0.5933  0.9981 -0.1625
 3656TP3     H122787   2.680   0.159   7.292  1.2386 -0.2687 -1.5924
 3656TP3     H222788   2.542   0.158   7.231  0.4514  2.3762 -0.0213
 3657TP3      O22789   3.399   2.252   1.815 -0.3454  0.0392  0.0423
 3657TP3     H122790   3.333   2.257   1.746  0.1819  0.8347 -0.4296
 3657TP3     H222791   3.466   2.194   1.779  0.9203  2.0306 -1.0470
 3658TP3      O22792   4.445   0.253   1.121 -0.1238 -0.4523  0.0952
 3658TP3     H122793   4.504   0.326   1.101 -0.8532  0.1647  0.1866
 3658TP3     H222794   4.360   0.293   1.138 -0.5093 -1.3103  0.2848
 3659TP3      O22795   0.453   2.141  10.093 -0.3757 -0.1707 -0.0181
 3659TP3     H122796   0.512   2.217  10.100 -0.5109 -0.0175 -0.5139
 3659TP3     H222797   0.455   2.102  10.180  0.3967 -0.1148  0.0002
 3660TP3      O22798   3.190   3.889   7.741 -0.3768 -0.0555 -0.0165
 3660TP3     H122799   3.182   3.978   7.775  1.8210  0.0594  0.3675
 3660TP3     H222800   3.114   3.842   7.775 -0.7109  1.2765  1.1177
 3661TP3      O22801   3.054   3.223   7.831  0.6360  0.1725 -0.4884
 3661TP3     H122802   2.992   3.194   7.899 -1.3082  2.3453 -1.1969
 3661TP3     H222803   3.041   3.162   7.759 -0.5427  0.4294 -0.5205
 3662TP3      O22804   3.073   0.704   2.699  0.6745  0.0192  0.0423
 3662TP3     H122805   3.035   0.617   2.686 -1.4632  0.7856  0.6735
 3662TP3     H222806   3.077   0.715   2.794  3.4232 -0.3310  0.0606
 3663TP3      O22807   2.492   3.190   9.175 -0.3096 -0.0549  0.1116
 3663TP3     H122808   2.492   3.104   9.218  2.1066  0.0638  0.4484
 3663TP3     H222809   2.584   3.210   9.161 -0.8800  1.7942 -1.4275
 3664TP3      O22810   1.716   5.235   9.001  0.3498  0.3560  0.0999
 3664TP3     H122811   1.758   5.171   9.059  2.8877  0.0557 -1.9005
 3664TP3     H222812   1.700   5.187   8.920  0.9701  1.8407 -0.9510
 3665TP3      O22813   1.487   4.335   8.819  0.2701 -0.2844  0.2573
 3665TP3     H122814   1.462   4.256   8.771 -0.5373  0.1849 -0.1198
 3665TP3     H222815   1.473   4.407   8.757  2.9717  0.0162 -0.1207
 3666TP3      O22816   0.248   4.626   9.916 -0.0592  0.1728  0.0904
 3666TP3     H122817   0.203   4.575   9.983 -1.9482 -1.0254 -1.9673
 3666TP3     H222818   0.189   4.699   9.897  0.3638  0.3919 -0.4184
 3667TP3      O22819   1.919   1.282   8.077 -0.0380  0.0849  0.0739
 3667TP3     H122820   2.006   1.316   8.058 -1.1330  1.6913 -2.7143
 3667TP3     H222821   1.902   1.218   8.008 -1.2299  0.1478  0.2794
 3668TP3      O22822   2.099   4.016  10.094 -0.1288 -0.1913  0.1466
 3668TP3     H122823   2.075   3.949  10.031  0.7221 -0.1133 -0.2806
 3668TP3     H222824   2.035   4.086  10.081  0.6484  0.2744 -1.3857
 3669TP3      O22825   4.025   1.319   2.766 -0.0586 -0.0784 -0.2116
 3669TP3     H122826   4.090   1.389   2.770  1.3088 -1.3427  0.1596
 3669TP3     H222827   3.967   1.337   2.841 -0.2433  1.1183 -0.6158
 3670TP3      O22828   3.190   5.097   9.965  0.0228  0.3862 -0.0103
 3670TP3     H122829   3.108   5.143   9.950 -1.3422 -2.2481 -1.3505
 3670TP3     H222830   3.256   5.166   9.969 -2.2578  2.6619  1.7998
 3671TP3      O22831   1.042   4.223   8.611  0.9724  0.1674 -0.0318
 3671TP3     H122832   1.077   4.283   8.544  0.4693  1.5731  0.9159
 3671TP3     H222833   0.947   4.223   8.596  0.8895  0.2363  0.4692
 3672TP3      O22834   2.030   4.106   1.443  0.7800  0.1534 -0.6047
 3672TP3     H122835   1.978   4.041   1.397  1.2536 -0.4697 -0.2664
 3672TP3     H222836   1.982   4.123   1.524  1.2143 -0.6068 -0.1758
 3673TP3      O22837   0.675   1.150   0.557  0.6623  0.3449  0.1620
 3673TP3     H122838   0.745   1.104   0.604  0.0536  1.5711  2.4245
 3673TP3     H222839   0.720   1.195   0.486  1.4866 -2.3461 -1.1321
 3674TP3      O22840   3.641   1.308   2.082  0.1884  0.2686 -0.4831
 3674TP3     H122841   3.712   1.321   2.144  0.7484 -0.6404 -0.9248
 3674TP3     H222842   3.684   1.291   1.998 -0.5533  0.4549 -0.9231
 3675TP3      O22843   1.429   4.605   0.687  0.4521  0.2066  0.1708
 3675TP3     H122844   1.361   4.570   0.745  0.3711  1.2052  0.6995
 3675TP3     H222845   1.381   4.629   0.607  0.6171 -1.4868 -0.4902
 3676TP3      O22846   1.124   0.236   7.899  0.4104 -0.5900 -0.0103
 3676TP3     H122847   1.190   0.305   7.893  1.2428 -1.1695  1.6666
 3676TP3     H222848   1.174   0.155   7.893 -0.4280 -1.0570 -0.8646
 3677TP3      O22849   0.728   2.718   1.499 -0.3753 -0.1991  0.0707
 3677TP3     H122850   0.795   2.727   1.567 -0.4377 -0.4965  0.1745
 3677TP3     H222851   0.665   2.656   1.536 -1.0638  0.5925  0.2608
 3678TP3      O22852   4.329   0.951   2.082 -0.4654  0.2407  0.2772
 3678TP3     H122853   4.380   0.884   2.127  0.6972  0.7493 -0.2141
 3678TP3     H222854   4.252   0.965   2.137 -0.7166 -1.4551  0.3894
 3679TP3      O22855   1.565   1.801   0.289  0.0267 -0.3344 -0.7865
 3679TP3     H122856   1.559   1.720   0.237 -0.6533 -0.0964 -1.0813
 3679TP3     H222857   1.476   1.819   0.317  0.0666  0.6417 -1.2335
 3680TP3      O22858   2.823   4.699   9.113  0.4870  0.1579  0.2104
 3680TP3     H122859   2.900   4.644   9.125  0.2875 -0.2824 -0.4598
 3680TP3     H222860   2.800   4.728   9.201  2.1653  1.3458  0.3038
 3681TP3      O22861   1.315   0.190   0.180 -0.2992 -0.4451  0.3774
 3681TP3     H122862   1.231   0.147   0.195  0.1244 -1.1509  0.8106
 3681TP3     H222863   1.293   0.282   0.167 -1.2239 -0.7694 -0.5171
 3682TP3      O22864   3.948   1.892   2.345 -0.1978  0.4399 -0.8985
 3682TP3     H122865   3.978   1.823   2.286  0.3004  0.0408 -0.1932
 3682TP3     H222866   3.853   1.883   2.347 -0.2404  0.5761 -1.7711
 3683TP3      O22867   2.271   2.140   9.754 -0.0637  0.2811 -0.1475
 3683TP3     H122868   2.270   2.049   9.784  0.4733  0.0175 -0.8919
 3683TP3     H222869   2.206   2.143   9.684  0.4368  0.2958 -0.6110
 3684TP3      O22870   0.703   4.838   2.580 -0.0668 -0.0569 -0.6223
 3684TP3     H122871   0.660   4.824   2.496  0.1010  2.3928 -1.1871
 3684TP3     H222872   0.688   4.931   2.600  0.3952 -0.4231  1.7810
 3685TP3      O22873   4.143   4.594   1.844  0.0599 -0.4303  0.1935
 3685TP3     H122874   4.193   4.658   1.895 -0.9410  0.4048  0.1603
 3685TP3     H222875   4.174   4.509   1.875  1.9936  0.0311 -0.3193
 3686TP3      O22876   2.334   5.034   6.771  0.0897 -0.0865  0.7855
 3686TP3     H122877   2.401   4.972   6.742 -0.1385  0.0108  0.0405
 3686TP3     H222878   2.382   5.096   6.826  0.8811  0.7360 -0.7760
 3687TP3      O22879   5.095   1.249   8.609 -0.0525 -0.5927  0.5776
 3687TP3     H122880   5.139   1.294   8.680 -1.6129  1.7274  0.1599
 3687TP3     H222881   5.008   1.228   8.644 -0.6222  0.0459 -0.4079
 3688TP3      O22882   0.016   0.030   9.933 -0.2987 -0.1958  0.0917
 3688TP3     H122883  -0.068  -0.012   9.916 -1.3596  0.5647  2.8242
 3688TP3     H222884   0.014   0.111   9.882 -1.1891 -0.2532  0.0270
 3689TP3      O22885   3.158   0.649   7.691  0.2321 -0.2103 -0.4858
 3689TP3     H122886   3.077   0.605   7.667 -1.0326  2.0664 -0.6832
 3689TP3     H222887   3.181   0.702   7.615  0.5160  1.0515  0.4373
 3690TP3      O22888   0.947   2.648   1.672 -0.0172  0.1009 -0.1786
 3690TP3     H122889   1.031   2.617   1.639 -0.6710 -0.6770 -1.2063
 3690TP3     H222890   0.923   2.584   1.739 -0.9768 -1.2088 -1.7156
 3691TP3      O22891   3.338   4.279   7.649 -0.5983 -0.1655 -0.0694
 3691TP3     H122892   3.267   4.338   7.624 -2.4800 -1.9312  0.8805
 3691TP3     H222893   3.296   4.210   7.699  1.8671 -1.1033  0.8675
 3692TP3      O22894   3.696   3.883   9.908 -0.4424 -0.8765 -0.3750
 3692TP3     H122895   3.777   3.926   9.935 -0.9289  1.0401 -1.7505
 3692TP3     H222896   3.725   3.810   9.853  0.3714 -0.7175 -0.1690
 3693TP3      O22897   2.813   3.540   8.310 -0.0105 -0.0110  0.2463
 3693TP3     H122898   2.838   3.599   8.381  0.1948  1.1557 -0.7620
 3693TP3     H222899   2.892   3.489   8.291  0.9211  1.8667 -1.2094
 3694TP3      O22900   2.137   0.383   2.606  0.1915  0.8212 -0.8595
 3694TP3     H122901   2.169   0.463   2.564  1.3401  0.2782 -1.0601
 3694TP3     H222902   2.211   0.352   2.658 -0.7297  0.6808  0.4009
 3695TP3      O22903   3.825   2.679   0.351 -0.0784  0.1814  0.0306
 3695TP3     H122904   3.822   2.606   0.288 -1.2423  0.5133 -0.3166
 3695TP3     H222905   3.919   2.691   0.368  0.1978 -0.6152 -0.8207
 3696TP3      O22906   3.011   3.145   2.535  0.0260  0.2385 -0.2297
 3696TP3     H122907   2.955   3.204   2.586 -0.6646 -0.4504 -0.1731
 3696TP3     H222908   3.027   3.072   2.594  0.5865  0.2037 -0.4261
 3697TP3      O22909   0.599   1.570   7.722 -0.0481  0.0123  0.1570
 3697TP3     H122910   0.595   1.493   7.778 -0.5790 -0.4298 -0.4710
 3697TP3     H222911   0.600   1.645   7.782 -1.8911 -0.3887  0.7374
 3698TP3      O22912   0.916   4.444   7.212  0.0846 -0.4302  0.2724
 3698TP3     H122913   0.872   4.523   7.242  1.9064  0.1868  1.4789
 3698TP3     H222914   0.929   4.458   7.118  0.0194  0.5105  0.4002
 3699TP3      O22915   4.570   3.429   0.465 -0.1678  0.4572  0.1745
 3699TP3     H122916   4.641   3.365   0.463 -0.8618 -0.4398  1.9961
 3699TP3     H222917   4.549   3.444   0.373  0.8025 -1.0481 -0.3286
 3700TP3      O22918   4.091   4.861   1.198 -0.1137 -0.4899 -0.5099
 3700TP3     H122919   4.155   4.854   1.127 -0.2264 -1.4107 -0.5315
 3700TP3     H222920   4.098   4.777   1.245 -1.8984 -0.9684 -1.0157
 3701TP3      O22921   4.215   1.598   1.398 -0.5188 -0.0429  0.3561
 3701TP3     H122922   4.183   1.550   1.474 -0.2719 -0.1824  0.3718
 3701TP3     H222923   4.258   1.532   1.344  0.3342  0.2562  0.6599
 3702TP3      O22924   1.976   3.095   8.202  0.2501 -0.0639 -0.0748
 3702TP3     H122925   1.900   3.056   8.244  2.1018 -0.4225  3.3677
 3702TP3     H222926   2.029   3.021   8.174  0.4036  0.1352 -0.3199
 3703TP3      O22927   2.941   3.610   7.423  0.3814  0.4940  0.1511
 3703TP3     H122928   2.994   3.546   7.470 -1.7434  0.0039  2.0408
 3703TP3     H222929   2.973   3.605   7.333  1.7109 -1.6663  0.6539
 3704TP3      O22930   1.245   4.553   8.895 -0.4932  0.6356 -0.5424
 3704TP3     H122931   1.178   4.485   8.895  0.1411  0.0008 -0.8015
 3704TP3     H222932   1.311   4.522   8.957 -0.7888  1.6245  0.3031
 3705TP3      O22933   4.941   1.290   8.161  0.0499  0.1231  0.0759
 3705TP3     H122934   4.898   1.222   8.110  1.4325 -1.5398  1.0184
 3705TP3     H222935   5.030   1.258   8.173 -0.2557  0.2841  3.7406
 3706TP3      O22936   1.342   4.068   9.335 -0.5385  0.0882  0.2181
 3706TP3     H122937   1.270   4.021   9.376 -0.8263 -0.6467 -1.0607
 3706TP3     H222938   1.419   4.012   9.351 -0.8767 -0.8687 -1.2837
 3707TP3      O22939   3.303   4.288   0.560 -0.2717 -0.1900  0.4223
 3707TP3     H122940   3.235   4.330   0.612 -1.6497 -0.2510 -1.2444
 3707TP3     H222941   3.279   4.306   0.470  2.7062  0.9860 -0.2633
 3708TP3      O22942   2.917   1.784   6.707 -0.3249 -0.0758 -0.1097
 3708TP3     H122943   2.892   1.866   6.751 -0.3601  0.1171 -0.4872
 3708TP3     H222944   2.874   1.788   6.622 -0.8977 -0.8118  0.1375
 3709TP3      O22945   0.389   0.961   8.307 -0.5079  0.2124 -0.4013
 3709TP3     H122946   0.409   0.942   8.398 -0.7049  1.2204 -0.1319
 3709TP3     H222947   0.467   0.933   8.259  0.6522  1.9126  0.3739
 3710TP3      O22948   0.603   2.488   1.605 -0.2051  0.2700 -0.0953
 3710TP3     H122949   0.535   2.428   1.635 -0.0679  0.6560  1.0479
 3710TP3     H222950   0.682   2.459   1.651  0.1316  0.5851 -0.4670
 3711TP3      O22951   0.147   0.417   2.427  0.4594 -0.3020 -0.0428
 3711TP3     H122952   0.182   0.352   2.367  1.4882  1.0128 -0.9071
 3711TP3     H222953   0.065   0.446   2.386  0.9000  0.2191 -0.5746
 3712TP3      O22954   2.514   3.569   1.318  0.3616 -0.5005  0.3677
 3712TP3     H122955   2.470   3.527   1.244 -2.1786  1.0382  0.8886
 3712TP3     H222956   2.567   3.639   1.278  1.3205 -1.4906 -0.1605
 3713TP3      O22957   0.578   1.579   2.895  0.2737  0.0692 -0.1006
 3713TP3     H122958   0.581   1.673   2.911  0.5485 -0.0291  0.4501
 3713TP3     H222959   0.632   1.541   2.965  0.6715 -0.4498 -0.6724
 3714TP3      O22960   2.264   0.133   9.574 -0.7019 -0.3408 -0.0428
 3714TP3     H122961   2.258   0.227   9.593 -0.0120 -0.3841  0.4133
 3714TP3     H222962   2.205   0.121   9.499 -0.3770  0.5538 -0.4655
 3715TP3      O22963   2.013   4.336   1.182  0.5023  0.2865 -0.0011
 3715TP3     H122964   1.928   4.297   1.202  0.9242 -1.6789 -1.6346
 3715TP3     H222965   2.018   4.333   1.086  1.7159  1.9942 -0.0306
 3716TP3      O22966   1.925   4.992   0.937  0.1409  1.1825  1.0227
 3716TP3     H122967   2.010   5.022   0.905  1.0320 -1.1668  1.0536
 3716TP3     H222968   1.897   5.061   0.997  1.7649  2.2501  0.6266
 3717TP3      O22969   0.856   2.444  10.009 -0.0199  0.1517  0.9532
 3717TP3     H122970   0.950   2.432  10.025  0.2060  0.1969 -0.3069
 3717TP3     H222971   0.846   2.537   9.992  0.1285 -0.2177 -1.4454
 3718TP3      O22972   3.966   0.124   7.307 -0.5337 -0.2681 -0.0051
 3718TP3     H122973   3.876   0.141   7.278  0.2747 -0.1198 -2.6744
 3718TP3     H222974   3.980   0.031   7.290 -0.3965 -0.4643  1.1173
 3719TP3      O22975   4.946   0.600   8.833  0.1262 -0.1369 -0.4766
 3719TP3     H122976   4.991   0.573   8.913  1.2553  0.7589 -0.7794
 3719TP3     H222977   4.976   0.538   8.766 -1.9694 -1.8260  0.0495
 3720TP3      O22978   1.142   3.317   6.840  0.4767 -0.0551  0.3850
 3720TP3     H122979   1.103   3.399   6.871  0.9548 -0.3596  1.8815
 3720TP3     H222980   1.071   3.254   6.845 -0.0901  0.3779 -1.4477
 3721TP3      O22981   3.913   4.909   2.441  0.3192  0.8743  0.8858
 3721TP3     H122982   3.945   4.862   2.364  0.1323 -0.2279  1.4662
 3721TP3     H222983   3.845   4.967   2.407 -0.2906 -0.1532  0.3325
 3722TP3      O22984   2.168   4.458   1.771 -0.2935  0.4776  0.2635
 3722TP3     H122985   2.115   4.405   1.711  0.5804 -0.8495  0.6167
 3722TP3     H222986   2.158   4.416   1.856  0.9030  0.5088  0.4363
 3723TP3      O22987   2.407   1.058   6.448  0.1332  0.0128  0.0624
 3723TP3     H122988   2.362   1.069   6.364  1.8496  2.1732 -0.6691
 3723TP3     H222989   2.349   1.099   6.512 -0.8935 -1.0965 -0.1171
 3724TP3      O22990   2.513   0.894   1.852 -0.1001 -0.2313  0.1877
 3724TP3     H122991   2.477   0.892   1.941  0.6055 -1.0022  0.4636
 3724TP3     H222992   2.545   0.983   1.841  0.2714 -0.2683  0.9030
 3725TP3      O22993   4.042   2.789   9.581 -0.3470 -0.3567 -0.0335
 3725TP3     H122994   4.088   2.802   9.498 -0.0061 -0.8409  0.0738
 3725TP3     H222995   4.055   2.696   9.601 -0.6349 -0.2981  0.4361
 3726TP3      O22996   1.526   2.397   2.494 -0.3810 -0.3377  0.2604
 3726TP3     H122997   1.512   2.473   2.437 -1.1176 -0.1918  0.6188
 3726TP3     H222998   1.534   2.434   2.582 -0.8532 -0.6801  0.4503
 3727TP3      O22999   1.664   1.098   9.790 -0.2449  0.0521  0.1738
 3727TP3     H123000   1.620   1.174   9.752 -0.2924 -0.1183 -0.1102
 3727TP3     H223001   1.605   1.070   9.860  1.1580  2.1085  2.3712
 3728TP3      O23002   3.733   4.986   1.383 -0.9635 -0.3326  0.1021
 3728TP3     H123003   3.808   5.044   1.367 -0.3306 -1.2480 -0.3396
 3728TP3     H223004   3.766   4.923   1.448 -1.7018 -0.1032  0.7145
 3729TP3      O23005   3.714   2.682   0.762  0.2377  0.2805 -0.1747
 3729TP3     H123006   3.803   2.658   0.737 -0.7348 -0.7996 -2.9548
 3729TP3     H223007   3.662   2.667   0.683 -2.2967  1.6376  1.1151
 3730TP3      O23008   2.752   0.891   8.667 -0.0081 -0.7231 -0.0735
 3730TP3     H123009   2.843   0.895   8.694  0.3653 -0.6793 -1.2918
 3730TP3     H223010   2.737   0.799   8.646 -0.1406 -0.6652 -0.2317
 3731TP3      O23011   4.535   1.510   0.501  0.6455  0.6604 -0.2969
 3731TP3     H123012   4.549   1.600   0.470  2.1534  0.0854 -1.3854
 3731TP3     H223013   4.606   1.496   0.564 -0.5567  0.7453  1.1430
 3732TP3      O23014   4.405   1.643   2.527  0.0622  0.0164 -0.1432
 3732TP3     H123015   4.320   1.614   2.560  0.6398 -0.6500  0.8025
 3732TP3     H223016   4.405   1.617   2.435  0.6428 -3.3744  0.6807
 3733TP3      O23017   0.750   4.082   9.948  0.1202  0.5392  0.1953
 3733TP3     H123018   0.716   4.108  10.034 -2.4645 -2.5203  0.2678
 3733TP3     H223019   0.702   4.137   9.886 -0.2607  0.6356  0.5727
 3734TP3      O23020   5.179   0.224   8.057  0.5679 -0.2851  0.2553
 3734TP3     H123021   5.131   0.142   8.049  0.0093  0.1232 -0.8197
 3734TP3     H223022   5.171   0.247   8.150 -0.7751 -0.5593  0.2294
 3735TP3      O23023   0.925   4.693  10.058  0.3016 -0.0774  0.0035
 3735TP3     H123024   0.906   4.732   9.973 -2.6548 -0.0477  0.5688
 3735TP3     H223025   0.922   4.766  10.119 -0.1846 -0.4400  0.4285
 3736TP3      O23026   2.719   2.674   1.435  0.0303  0.2293  0.4158
 3736TP3     H123027   2.704   2.768   1.422  0.9731  0.6103  1.8756
 3736TP3     H223028   2.767   2.669   1.518 -0.3074 -1.5702  0.5319
 3737TP3      O23029   5.173   0.920   2.038 -0.4333  0.1698 -0.9450
 3737TP3     H123030   5.133   0.843   1.998 -0.2221  0.3740 -1.5593
 3737TP3     H223031   5.264   0.895   2.053 -0.3287  0.3456 -1.2760
 3738TP3      O23032   5.246   3.483   8.038  0.3397  0.5149  0.7862
 3738TP3     H123033   5.247   3.577   8.023 -1.6585  0.3789 -0.4825
 3738TP3     H223034   5.283   3.445   7.958  0.2944  0.1910  0.9159
 3739TP3      O23035   0.381   3.001   1.132  0.4794 -0.1562  0.0015
 3739TP3     H123036   0.297   2.999   1.177  0.4664 -0.2694 -0.0254
 3739TP3     H223037   0.427   2.922   1.163 -0.4886 -1.6064 -1.9844
 3740TP3      O23038   1.692   1.346   8.855  0.1314 -0.0329  0.3189
 3740TP3     H123039   1.768   1.332   8.912 -0.0291 -0.9375  0.3205
 3740TP3     H223040   1.721   1.314   8.769 -0.6352 -1.5525  0.5886
 3741TP3      O23041   1.888   1.397   2.740  0.5491  0.3366  0.4790
 3741TP3     H123042   1.801   1.379   2.703  0.5880  0.7454  0.1776
 3741TP3     H223043   1.877   1.386   2.834 -0.1846  1.7315  0.5864
 3742TP3      O23044   4.520   3.334   8.143  0.1767 -0.7994  0.0692
 3742TP3     H123045   4.492   3.388   8.069  0.9299  0.4064  0.6471
 3742TP3     H223046   4.606   3.368   8.166 -0.9578  0.4148  2.9778
 3743TP3      O23047   3.108   1.482   9.786  0.2571 -0.3627 -0.4153
 3743TP3     H123048   3.057   1.416   9.832  2.0415 -1.2038  0.4563
 3743TP3     H223049   3.060   1.563   9.800 -2.5116 -1.5274 -2.3226
 3744TP3      O23050   2.130   1.808   9.111  0.5902 -0.1453 -0.3631
 3744TP3     H123051   2.139   1.767   9.025  1.7084  0.6464 -0.6350
 3744TP3     H223052   2.174   1.892   9.103 -1.3289  0.9831  0.3027
 3745TP3      O23053   4.914   2.374   9.951  0.1336 -0.5244  0.6431
 3745TP3     H123054   4.883   2.462   9.972 -0.2583 -0.6932  0.7970
 3745TP3     H223055   4.881   2.319  10.023 -1.7041 -1.2041 -0.6247
 3746TP3      O23056   0.990   3.054   1.571  0.6826  0.2603  0.1075
 3746TP3     H123057   1.048   3.018   1.503  0.5971  0.4232 -0.0545
 3746TP3     H223058   0.928   3.109   1.522 -0.4881 -1.0009  0.1162
 3747TP3      O23059   0.025   1.846   0.223  0.3842  0.2910  0.3448
 3747TP3     H123060   0.010   1.937   0.197  0.4249  0.9732  2.5365
 3747TP3     H223061   0.120   1.835   0.219  0.5058  0.8087  1.3961
 3748TP3      O23062   3.755   2.863   2.338 -0.4894  0.2938  0.3554
 3748TP3     H123063   3.770   2.911   2.420  0.2617  0.3661  0.1912
 3748TP3     H223064   3.668   2.889   2.310 -1.3470 -0.8260  1.8605
 3749TP3      O23065   3.656   0.032   9.846 -0.0118 -0.0302 -0.2234
 3749TP3     H123066   3.602   0.069   9.776 -0.6490 -0.2316  0.1558
 3749TP3     H223067   3.713   0.104   9.872  0.0260  0.1334 -0.7514
 3750TP3      O23068   1.104   2.135   2.367 -0.5337 -0.7479 -0.0990
 3750TP3     H123069   1.039   2.123   2.298 -2.0523  0.6484  1.0036
 3750TP3     H223070   1.133   2.226   2.357 -0.7611 -0.5245  1.0428
 3751TP3      O23071   2.052   4.849   9.999 -0.5433  0.3258  0.1045
 3751TP3     H123072   2.095   4.922  10.043 -0.2389  0.7518 -0.8667
 3751TP3     H223073   2.118   4.780   9.997 -0.0486  0.8016 -0.9261
 3752TP3      O23074   1.731   1.009   0.748 -0.0943 -0.3547 -0.2240
 3752TP3     H123075   1.664   1.020   0.816 -0.5969  0.1596 -0.7870
 3752TP3     H223076   1.701   1.066   0.677 -0.4180 -2.0737 -1.5203
 3753TP3      O23077   3.005   3.584   9.911  0.7910  0.4933  0.1374
 3753TP3     H123078   2.965   3.498   9.926 -2.9662  1.5130 -2.6413
 3753TP3     H223079   3.095   3.564   9.884 -0.0482 -2.6106 -0.7587
 3754TP3      O23080   4.241   4.706   2.362 -0.0419 -0.3283 -0.2449
 3754TP3     H123081   4.272   4.778   2.307 -1.5095  0.7543  0.2940
 3754TP3     H223082   4.148   4.697   2.341 -0.2069 -1.1310  0.7174
 3755TP3      O23083   3.113   3.907   0.004 -0.0266  0.1142 -0.5824
 3755TP3     H123084   3.072   3.957   0.075 -1.3637  0.5882 -1.6460
 3755TP3     H223085   3.167   3.842   0.048 -1.9288 -0.5345  0.9032
 3756TP3      O23086   2.291   3.696   9.023  0.2331 -0.0710 -0.4052
 3756TP3     H123087   2.288   3.710   9.118  2.1731  0.5646 -0.3929
 3756TP3     H223088   2.272   3.783   8.986 -0.4166 -0.2960 -0.6135
 3757TP3      O23089   4.859   2.741   6.852  0.5280  0.0677  0.1447
 3757TP3     H123090   4.885   2.677   6.918 -0.0875 -0.6044 -0.2590
 3757TP3     H223091   4.802   2.693   6.792  2.0126  0.3545 -1.5742
 3758TP3      O23092   3.498   4.497   8.756  0.1780  0.2152 -0.1105
 3758TP3     H123093   3.489   4.528   8.846 -0.8387  0.8699 -0.4169
 3758TP3     H223094   3.493   4.402   8.763  0.3691  0.2463  0.5482
 3759TP3      O23095   4.263   3.546   9.110  0.4664 -0.3856  0.2964
 3759TP3     H123096   4.170   3.552   9.133  0.6796 -0.5144  1.2176
 3759TP3     H223097   4.309   3.589   9.182  0.9876  2.4735 -1.5857
 3760TP3      O23098   1.830   0.018   3.450 -0.2122 -0.1221 -0.1654
 3760TP3     H123099   1.734   0.017   3.440 -0.2425  1.4425 -0.2361
 3760TP3     H223100   1.862   0.033   3.361  0.0788  0.0567 -0.0283
 3761TP3      O23101   0.046   0.782   9.092  0.0819  0.0772 -0.4833
 3761TP3     H123102   0.051   0.733   9.174 -0.3415 -0.7777 -0.9609
 3761TP3     H223103  -0.047   0.799   9.080  0.0658 -0.5062 -1.1994
 3762TP3      O23104   1.659   4.794   0.181 -0.0442  0.2033  0.0369
 3762TP3     H123105   1.592   4.727   0.193 -1.1851  1.4268  0.6509
 3762TP3     H223106   1.709   4.764   0.105 -1.2781 -0.7232 -0.4431
 3763TP3      O23107   1.442   3.821   7.559  0.1491 -0.3832  0.6656
 3763TP3     H123108   1.402   3.741   7.525  0.2359  0.4394 -1.5016
 3763TP3     H223109   1.388   3.844   7.634 -0.8858 -1.5561  0.3168
 3764TP3      O23110   1.399   4.054   9.644 -0.2948  0.1418 -0.3236
 3764TP3     H123111   1.467   3.993   9.614 -1.9309 -1.0438 -1.8031
 3764TP3     H223112   1.366   4.015   9.725  2.4934  2.1286  2.0342
 3765TP3      O23113   0.208   1.103   8.736  0.0887  0.2097 -0.2427
 3765TP3     H123114   0.196   1.174   8.673  0.3418  0.7029  0.2554
 3765TP3     H223115   0.302   1.100   8.751  0.1890 -0.8461 -0.9457
 3766TP3      O23116   0.710   4.389   7.501  0.2803 -0.1140 -0.0792
 3766TP3     H123117   0.755   4.436   7.571  0.0806 -2.2614  1.6208
 3766TP3     H223118   0.774   4.324   7.471 -0.5983 -1.1622  0.2261
 3767TP3      O23119   3.954   5.008   0.111  0.3170  0.1427 -0.1453
 3767TP3     H123120   3.993   5.096   0.102  1.4200 -0.3731 -0.6544
 3767TP3     H223121   3.861   5.025   0.127  0.4996  1.4096 -0.2724
 3768TP3      O23122   3.780   3.004   8.214  0.2296 -0.4843  0.4959
 3768TP3     H123123   3.738   2.989   8.299  1.4311  0.5024  1.3050
 3768TP3     H223124   3.874   3.007   8.234  0.4334  2.8330 -0.3092
 3769TP3      O23125   1.812   4.210   0.470  0.3645  0.4209 -0.0855
 3769TP3     H123126   1.732   4.243   0.511 -1.3621  2.6828 -4.5538
 3769TP3     H223127   1.867   4.287   0.459  1.5857 -0.4481 -0.2663
 3770TP3      O23128   2.743   5.290   9.014  0.0509  0.2833 -0.3276
 3770TP3     H123129   2.781   5.371   9.050  0.4995  0.4143 -1.0850
 3770TP3     H223130   2.655   5.286   9.052 -0.0928  1.2943 -0.5254
 3771TP3      O23131   4.775   5.124  10.001  0.0082  0.4836  0.0630
 3771TP3     H123132   4.754   5.062  10.071 -1.4166 -0.9949 -1.5678
 3771TP3     H223133   4.868   5.109   9.984  1.0598  2.5497  3.1111
 3772TP3      O23134   4.586   2.567   2.820 -0.1810  0.4304 -0.8576
 3772TP3     H123135   4.643   2.523   2.884 -1.7718 -0.4759  0.0119
 3772TP3     H223136   4.543   2.636   2.870  0.6073  1.5283 -1.6646
 3773TP3      O23137   2.356   0.579   1.545 -0.1706 -0.0584  0.5846
 3773TP3     H123138   2.418   0.506   1.539 -0.3438 -0.1542 -0.2252
 3773TP3     H223139   2.275   0.545   1.508  0.5309  1.3628 -2.6114
 3774TP3      O23140   1.029   3.541   2.087  0.2034  0.6578 -0.2303
 3774TP3     H123141   1.056   3.631   2.070  1.3907  0.1651 -1.1340
 3774TP3     H223142   1.049   3.494   2.006 -4.0576  0.2962 -1.2799
 3775TP3      O23143   4.225   4.478   8.708  0.6631  0.0813  0.2776
 3775TP3     H123144   4.248   4.539   8.777 -0.2136  0.4105  0.3013
 3775TP3     H223145   4.303   4.425   8.695  1.2218  0.7801  0.7096
 3776TP3      O23146   2.972   4.721   2.982  0.4079  0.4081 -0.2332
 3776TP3     H123147   3.054   4.731   3.032  1.1662  1.1981 -1.5993
 3776TP3     H223148   2.954   4.627   2.988  1.8724  0.0695 -0.5922
 3777TP3      O23149   0.483   0.390   9.940  0.0448 -0.2573 -0.4719
 3777TP3     H123150   0.462   0.349  10.024  1.5427 -0.5322 -0.2109
 3777TP3     H223151   0.403   0.437   9.916 -0.7042 -0.9058  0.6661
 3778TP3      O23152   4.211   4.030   1.519  0.3410  0.4077  0.3490
 3778TP3     H123153   4.141   4.003   1.578 -1.4578 -0.4851 -1.9983
 3778TP3     H223154   4.193   3.982   1.438  3.0031  1.1013 -0.7420
 3779TP3      O23155   5.117   0.161   8.342  0.4364  0.2217 -0.0380
 3779TP3     H123156   5.093   0.069   8.335 -0.9041  0.4808  0.8224
 3779TP3     H223157   5.176   0.165   8.418 -1.7106  0.4324  1.6972
 3780TP3      O23158   4.347   3.181   7.823 -0.6678  0.5133 -0.3533
 3780TP3     H123159   4.281   3.241   7.857 -0.9073  0.8813 -1.4144
 3780TP3     H223160   4.345   3.106   7.883  0.1310  1.8295  1.4116
 3781TP3      O23161   4.597   1.856   2.420  0.1406 -0.4905  0.8137
 3781TP3     H123162   4.536   1.869   2.347  0.9136 -3.4501 -0.5229
 3781TP3     H223163   4.542   1.859   2.498 -1.2298 -0.2181 -0.1197
 3782TP3      O23164   2.423   3.437   9.265  1.2879  0.6737 -0.8753
 3782TP3     H123165   2.365   3.455   9.190  1.5816 -1.0702 -1.5562
 3782TP3     H223166   2.453   3.347   9.252  1.6335  0.4441  1.1785
 3783TP3      O23167   4.367   1.476   7.153 -0.1524  0.3183 -0.3604
 3783TP3     H123168   4.313   1.478   7.074 -0.0447  1.3369 -0.4189
 3783TP3     H223169   4.322   1.535   7.214 -1.0236 -1.5201  0.8760
 3784TP3      O23170   3.403   4.570   7.411 -0.4607  0.3239  0.3047
 3784TP3     H123171   3.469   4.512   7.373  0.1913  1.3454 -0.1698
 3784TP3     H223172   3.334   4.574   7.345  0.1328  1.1594 -0.2977
 3785TP3      O23173   1.919   0.443   2.062 -0.0983  0.2611 -0.1566
 3785TP3     H123174   1.935   0.350   2.075 -2.2073 -0.1430 -0.0400
 3785TP3     H223175   1.965   0.486   2.134  1.3790 -0.6105 -0.5494
 3786TP3      O23176   0.284   3.470   0.598 -0.1044  0.2073 -0.0203
 3786TP3     H123177   0.229   3.396   0.574 -0.3023  0.9356 -2.0042
 3786TP3     H223178   0.237   3.512   0.670 -0.9639 -0.4922 -0.1550
 3787TP3      O23179   0.848   3.102   0.231 -0.3043  0.2503 -0.0764
 3787TP3     H123180   0.760   3.140   0.223 -0.6934 -0.8641 -1.4803
 3787TP3     H223181   0.906   3.175   0.210 -0.9600  0.6335 -0.6373
 3788TP3      O23182   5.202   5.115   8.916  0.1064  0.2957 -0.6135
 3788TP3     H123183   5.232   5.072   8.836  0.1627  0.1037 -0.4893
 3788TP3     H223184   5.109   5.094   8.921 -0.3496  1.8710 -1.6281
 3789TP3      O23185   2.215   3.898   0.461 -0.3376  0.1443  0.0336
 3789TP3     H123186   2.190   3.916   0.371  2.1606 -0.8017 -0.9163
 3789TP3     H223187   2.180   3.973   0.511 -1.8331  0.6297 -1.6551
 3790TP3      O23188   2.733   3.120   9.305 -0.3558 -0.2791 -0.0648
 3790TP3     H123189   2.795   3.138   9.376 -1.1170 -0.7250  0.7318
 3790TP3     H223190   2.751   3.187   9.239  0.2949  0.2048  0.5997
 3791TP3      O23191   0.991   0.289   9.228 -0.1459  0.3876 -0.1811
 3791TP3     H123192   1.006   0.384   9.229 -2.4695  0.8283 -0.9954
 3791TP3     H223193   0.918   0.277   9.168  0.6351 -2.0467 -0.7653
 3792TP3      O23194   3.065   2.780   8.290  0.0073  0.1737 -0.3284
 3792TP3     H123195   3.149   2.796   8.334 -0.8681 -0.0423  1.5476
 3792TP3     H223196   3.021   2.865   8.294  0.2590  0.3718 -1.6159
 3793TP3      O23197   1.461   2.743   2.720  0.2991  0.8727  0.3532
 3793TP3     H123198   1.546   2.773   2.753  0.7099 -0.2950  0.4070
 3793TP3     H223199   1.399   2.810   2.750  0.9847  0.9918  1.5863
 3794TP3      O23200   0.120   2.887   3.316 -0.4059  0.4758 -0.0352
 3794TP3     H123201   0.056   2.957   3.307 -1.7937 -0.4416  1.8953
 3794TP3     H223202   0.202   2.932   3.340 -0.6088  1.5638 -1.2496
 3795TP3      O23203   0.217   3.256   7.790  0.4454 -0.3052 -0.5630
 3795TP3     H123204   0.213   3.347   7.821  0.7830  0.0681 -1.5743
 3795TP3     H223205   0.188   3.204   7.865  0.6975  0.6033  0.1847
 3796TP3      O23206   4.176   3.707   7.655 -0.3852  0.2185 -0.2726
 3796TP3     H123207   4.263   3.745   7.647 -0.4082  0.1697 -0.7952
 3796TP3     H223208   4.154   3.716   7.748  0.3634 -0.2038 -0.0554
 3797TP3      O23209   2.164   1.064   0.099 -0.4540  0.3647 -0.4360
 3797TP3     H123210   2.171   0.979   0.142 -0.5213  0.7589  0.3833
 3797TP3     H223211   2.199   1.126   0.163 -2.5030  1.2234 -0.0596
 3798TP3      O23212   3.225   0.404   2.143  0.1993 -0.6870  0.5987
 3798TP3     H123213   3.185   0.468   2.202  1.0187 -0.0436  0.4734
 3798TP3     H223214   3.265   0.340   2.202 -0.2816 -0.8729  0.7263
 3799TP3      O23215   0.533   0.832   9.867  0.7503  0.5548 -0.2001
 3799TP3     H123216   0.497   0.850   9.954  1.2616 -0.1729  0.1723
 3799TP3     H223217   0.457   0.813   9.813  0.5517 -1.0842  0.6006
 3800TP3      O23218   1.356   4.612   9.559 -0.3343  0.0009 -0.4503
 3800TP3     H123219   1.432   4.573   9.600 -0.1499 -1.1818 -1.8480
 3800TP3     H223220   1.301   4.641   9.632  0.7534 -0.4753  0.5771
 3801TP3      O23221   1.970   0.071   9.039  0.0008 -0.5605 -0.0671
 3801TP3     H123222   2.037   0.045   8.975  1.4930 -1.1086  1.6350
 3801TP3     H223223   1.887   0.052   8.996  0.9083  0.1725 -2.2670
 3802TP3      O23224   3.645   0.181   8.417  0.0463  0.0435 -0.1291
 3802TP3     H123225   3.720   0.241   8.413  0.6119 -0.6266  0.1485
 3802TP3     H223226   3.570   0.237   8.436  0.9129  0.4171  2.6619
 3803TP3      O23227   4.851   4.246   8.918  0.4923 -0.1456  0.0791
 3803TP3     H123228   4.877   4.155   8.927  0.0673 -0.7542 -3.3288
 3803TP3     H223229   4.834   4.257   8.824 -1.7467  2.8339  0.6618
 3804TP3      O23230   3.820   1.284   1.891 -0.7781  0.0431  0.1192
 3804TP3     H123231   3.890   1.279   1.957 -0.9615  0.6502  0.3560
 3804TP3     H223232   3.849   1.223   1.822  0.6216  1.2287 -0.3809
 3805TP3      O23233   2.358   0.120   7.033  0.1631  0.0947 -0.1546
 3805TP3     H123234   2.401   0.194   7.075 -0.5268  1.3683 -1.5940
 3805TP3     H223235   2.267   0.148   7.023  0.0106 -0.7172 -1.2358
 3806TP3      O23236   5.184   4.297   7.629 -0.0005  0.0104  0.5452
 3806TP3     H123237   5.260   4.238   7.630  1.3067  1.4201 -2.1954
 3806TP3     H223238   5.204   4.363   7.695  1.0253  0.1421  0.1293
 3807TP3      O23239   2.761   2.260   1.798 -0.1125 -0.0504 -0.2583
 3807TP3     H123240   2.721   2.319   1.734  2.1582  2.3147  0.3306
 3807TP3     H223241   2.824   2.209   1.747  0.3640  0.5028 -0.2317
 3808TP3      O23242   2.120   2.307   7.118  0.1046 -0.2422 -0.3631
 3808TP3     H123243   2.210   2.338   7.106  0.2315 -1.1610 -2.2020
 3808TP3     H223244   2.067   2.376   7.078  0.0816 -0.2956 -0.4245
 3809TP3      O23245   3.242   4.891   8.439 -0.3073 -0.0588 -0.2595
 3809TP3     H123246   3.278   4.808   8.470  0.6970  1.0077  1.6297
 3809TP3     H223247   3.178   4.915   8.506 -0.2021  0.9387 -0.5037
 3810TP3      O23248   4.647   1.935   1.949  0.3905 -0.5768 -0.3283
 3810TP3     H123249   4.696   1.886   2.015  1.0741 -0.9195 -1.0698
 3810TP3     H223250   4.558   1.900   1.954 -0.2123  1.0306  2.0250
 3811TP3      O23251   2.439   1.865   9.333 -0.3176  0.9486  0.0276
 3811TP3     H123252   2.399   1.952   9.326  0.8089  1.6512  1.8566
 3811TP3     H223253   2.528   1.877   9.300 -0.5601  0.1258 -1.0064
 3812TP3      O23254   4.858   0.579   1.008 -0.0118  0.3116  0.0910
 3812TP3     H123255   4.911   0.559   0.931  1.7818  0.9874  1.1010
 3812TP3     H223256   4.874   0.671   1.026  0.3567 -0.0457  1.8032
 3813TP3      O23257   0.380   1.544   0.989 -0.0850 -0.7144  0.1737
 3813TP3     H123258   0.412   1.515   0.903  2.0470  1.5197  0.1111
 3813TP3     H223259   0.286   1.525   0.987 -0.0521 -0.9929 -2.5406
 3814TP3      O23260   3.183   2.877   9.784 -0.0575 -0.0880  0.1059
 3814TP3     H123261   3.264   2.925   9.767  0.1877 -0.6875 -0.5090
 3814TP3     H223262   3.115   2.944   9.792 -0.0871  0.3377 -2.6997
 3815TP3      O23263   3.034   1.842   7.421 -0.4114 -0.7013  0.1012
 3815TP3     H123264   3.110   1.786   7.434 -1.3924 -2.3735 -0.8462
 3815TP3     H223265   2.962   1.793   7.461 -1.0568  0.6647  0.6615
 3816TP3      O23266   4.063   4.719   8.065  0.2639  0.0656  0.2255
 3816TP3     H123267   3.974   4.706   8.098  0.3927  0.8668  0.9336
 3816TP3     H223268   4.054   4.786   7.998  0.1449 -0.8526 -0.6935
 3817TP3      O23269   4.029   0.637   8.391 -0.3144 -0.0795  0.3051
 3817TP3     H123270   4.068   0.651   8.305 -0.7044  1.2237  0.3248
 3817TP3     H223271   3.938   0.615   8.373 -0.5219  0.6761  0.3824
 3818TP3      O23272   4.482   0.443   3.176  0.2053 -0.0231  0.0501
 3818TP3     H123273   4.547   0.499   3.219 -0.2649 -0.1190  0.8985
 3818TP3     H223274   4.471   0.481   3.089  2.2694 -0.6733 -0.5555
 3819TP3      O23275   3.997   0.291   9.503 -0.7095  0.2669 -0.8128
 3819TP3     H123276   3.956   0.376   9.488  1.5761  1.6806  0.3562
 3819TP3     H223277   4.045   0.302   9.586 -1.1072 -2.4828 -0.1157
 3820TP3      O23278   0.748   0.578   0.864 -0.3861  0.1662 -1.0077
 3820TP3     H123279   0.675   0.612   0.916  0.6012 -0.2328  0.7199
 3820TP3     H223280   0.781   0.655   0.816 -0.5760  0.8279 -0.1029
 3821TP3      O23281   3.575   3.443   7.187  0.2762 -0.1907  0.0050
 3821TP3     H123282   3.479   3.444   7.190  0.2035  2.3606 -0.9258
 3821TP3     H223283   3.602   3.441   7.279 -0.7760  2.7890  0.4655
 3822TP3      O23284   0.719   0.126   0.936 -0.0809 -0.1171  0.0677
 3822TP3     H123285   0.737   0.059   1.002 -0.7299  0.5440  0.9413
 3822TP3     H223286   0.636   0.164   0.963 -0.9944 -0.6655 -1.8452
 3823TP3      O23287   3.107   0.024   9.188 -0.3125 -0.3948 -0.4010
 3823TP3     H123288   3.142  -0.030   9.259 -1.0047 -0.6324 -0.2401
 3823TP3     H223289   3.165   0.007   9.114 -1.1303 -2.1736 -0.6703
 3824TP3      O23290   0.006   0.048   7.386 -0.1962 -0.2186  0.3574
 3824TP3     H123291   0.005   0.097   7.304 -0.1014  0.6753  0.8854
 3824TP3     H223292   0.043  -0.037   7.362 -1.5014 -0.4958 -0.8136
 3825TP3      O23293   4.479   5.050   8.857 -0.4083  0.4229  0.2015
 3825TP3     H123294   4.422   5.127   8.869 -1.1811 -0.3782  2.1059
 3825TP3     H223295   4.500   5.022   8.946  0.5176 -1.1196 -0.4608
 3826TP3      O23296   3.158   4.556  10.002 -0.2100  0.2021  0.4102
 3826TP3     H123297   3.093   4.496   9.966 -0.3911  1.9933 -2.5762
 3826TP3     H223298   3.239   4.535   9.956  0.6395 -0.0255  1.9217
 3827TP3      O23299   3.746   3.834   1.446  0.0586  0.0229  0.0773
 3827TP3     H123300   3.735   3.872   1.359 -1.0497  1.0419  0.6347
 3827TP3     H223301   3.787   3.905   1.497 -0.6965 -0.0280  0.7672
 3828TP3      O23302   2.320   0.133   2.396 -0.6783 -0.5408  0.5055
 3828TP3     H123303   2.238   0.175   2.369 -0.0946  0.2672 -0.0316
 3828TP3     H223304   2.299   0.040   2.398 -1.0613 -0.5349 -1.6176
 3829TP3      O23305   4.374   3.367   8.666  0.1618 -0.1389 -0.6051
 3829TP3     H123306   4.453   3.335   8.624 -0.6029 -0.4030 -1.8829
 3829TP3     H223307   4.307   3.303   8.643 -0.5724  0.4076 -0.0526
 3830TP3      O23308   4.621   2.759   9.197  0.2491  0.5005  0.1436
 3830TP3     H123309   4.693   2.732   9.255  0.8709  0.7568 -0.4921
 3830TP3     H223310   4.641   2.850   9.176  0.1102  0.3665 -0.5871
 3831TP3      O23311   5.195   3.746   8.987 -0.4000 -0.0216 -0.0937
 3831TP3     H123312   5.214   3.757   8.894 -1.2289  0.0775 -0.2617
 3831TP3     H223313   5.102   3.723   8.990 -1.4243  3.5082  0.8647
 3832TP3      O23314   4.243   1.532   0.447  0.4959  0.2245  0.1635
 3832TP3     H123315   4.330   1.496   0.462  0.5014 -0.8257 -1.9334
 3832TP3     H223316   4.190   1.457   0.420 -1.0209  0.8842  1.1488
 3833TP3      O23317   2.157   0.411   1.410 -0.0297  0.5589  0.2816
 3833TP3     H123318   2.091   0.348   1.440  0.5940  0.4308  1.4324
 3833TP3     H223319   2.138   0.422   1.317 -1.5257  0.3486  0.5331
 3834TP3      O23320   1.322   1.606   0.502  0.6647  0.2121  0.0147
 3834TP3     H123321   1.330   1.691   0.458  1.1483  0.6865  0.9785
 3834TP3     H223322   1.410   1.588   0.534  0.6576 -0.8711 -0.5358
 3835TP3      O23323   0.055   2.838   9.076  0.0263 -0.5829 -0.3623
 3835TP3     H123324   0.098   2.795   9.003 -0.7535 -0.0772 -1.1352
 3835TP3     H223325   0.024   2.921   9.041  0.4931  0.1085  0.8082
 3836TP3      O23326   3.921   4.909   2.018  0.3636  0.2518  0.4810
 3836TP3     H123327   3.826   4.908   2.015  0.3900  0.1251 -1.4692
 3836TP3     H223328   3.945   4.996   1.985  0.9329  0.3078  1.0184
 3837TP3      O23329   4.147   5.287   0.324  0.1559  0.3224 -0.1974
 3837TP3     H123330   4.126   5.352   0.258  0.8163  0.1431 -0.5959
 3837TP3     H223331   4.069   5.281   0.379 -1.1933 -0.9428 -2.1187
 3838TP3      O23332   4.786   1.840   1.244  0.3112 -0.3525 -0.1377
 3838TP3     H123333   4.788   1.823   1.339  3.3138 -0.2143 -0.0745
 3838TP3     H223334   4.693   1.848   1.223 -0.4424  0.2201  2.9095
 3839TP3      O23335   4.429   4.134   8.036 -0.0612  0.2144  0.0963
 3839TP3     H123336   4.372   4.061   8.058 -0.2467  0.1454 -0.5920
 3839TP3     H223337   4.371   4.199   7.995  0.4651 -0.2114 -1.4061
 3840TP3      O23338   4.921   3.135   9.173 -0.5433  0.3390  0.6127
 3840TP3     H123339   4.972   3.214   9.189  1.1424 -0.7510  0.8894
 3840TP3     H223340   4.904   3.136   9.079 -1.3143  1.4424  0.7397
 3841TP3      O23341   0.287   3.940   1.552  0.0960  0.3185  0.0573
 3841TP3     H123342   0.287   3.845   1.557 -0.3764  0.2959 -0.2932
 3841TP3     H223343   0.345   3.968   1.623  2.4331 -0.3188 -1.4802
 3842TP3      O23344   5.201   1.457   7.965  0.8429  0.1342 -0.3918
 3842TP3     H123345   5.204   1.391   7.895  1.6779  1.4727 -1.6658
 3842TP3     H223346   5.107   1.466   7.984  0.5215  0.2315 -1.8524
 3843TP3      O23347   3.583   2.089   1.720 -0.5420 -0.4210  0.1941
 3843TP3     H123348   3.613   2.019   1.778  0.3006 -0.0105  0.2774
 3843TP3     H223349   3.656   2.151   1.718 -0.1076 -0.9279 -2.1547
 3844TP3      O23350   4.069   1.054   0.137 -0.5490 -0.2039 -0.0170
 3844TP3     H123351   4.026   1.069   0.221  2.6157  1.1416  1.5231
 3844TP3     H223352   4.014   0.989   0.093 -4.4940  1.9120  1.3315
 3845TP3      O23353   0.523   1.604   0.721  0.3540  0.3837 -0.1313
 3845TP3     H123354   0.513   1.689   0.679  0.5337 -0.0595 -1.0892
 3845TP3     H223355   0.537   1.543   0.649 -0.5951 -0.5932  0.4867
 3846TP3      O23356   1.475   2.487   1.272 -0.3855  0.0293 -0.2631
 3846TP3     H123357   1.520   2.566   1.302 -0.4942  0.1640 -0.4460
 3846TP3     H223358   1.519   2.415   1.317  1.2521 -0.0121 -1.8467
 3847TP3      O23359   4.494   2.122   0.196 -0.4823 -0.3056  0.3894
 3847TP3     H123360   4.586   2.098   0.204 -0.8676 -2.1657 -0.3371
 3847TP3     H223361   4.496   2.213   0.165  1.1571 -0.8874 -1.3917
 3848TP3      O23362   3.663   4.800   8.883 -0.2223 -0.1582 -0.6254
 3848TP3     H123363   3.693   4.888   8.906  2.3990 -0.9894 -0.4492
 3848TP3     H223364   3.584   4.787   8.934  0.2205  1.5138  0.5762
 3849TP3      O23365   4.117   5.260   1.424 -0.3533  0.1836  0.4196
 3849TP3     H123366   4.147   5.294   1.508  1.7199 -1.2534  0.3341
 3849TP3     H223367   4.132   5.332   1.362 -0.0982  0.6009  0.9544
 3850TP3      O23368   2.695   4.859   9.298  0.2944 -0.2094 -0.1494
 3850TP3     H123369   2.722   4.908   9.220 -1.1375  2.7215  1.0226
 3850TP3     H223370   2.670   4.927   9.361  1.4807 -2.4351  2.9581
 3851TP3      O23371   3.879   0.540   1.898 -0.0264  0.5291 -0.0488
 3851TP3     H123372   3.908   0.504   1.981 -0.8470  0.3423  0.1664
 3851TP3     H223373   3.827   0.617   1.921 -2.0733 -0.7195 -0.2233
 3852TP3      O23374   1.618   4.177   9.889 -0.0180 -0.1915 -0.6327
 3852TP3     H123375   1.655   4.096   9.856 -0.3795 -0.7669  0.3303
 3852TP3     H223376   1.616   4.235   9.813  0.7537 -0.8910 -1.2077
 3853TP3      O23377   0.202   4.305   1.043 -0.2698 -0.2130 -0.1755
 3853TP3     H123378   0.277   4.291   1.101 -0.4943  1.2944  0.5420
 3853TP3     H223379   0.126   4.282   1.096 -0.4246  0.3837 -0.1224
 3854TP3      O23380   2.207   1.075   7.075 -0.4331  0.0996  0.1574
 3854TP3     H123381   2.203   0.979   7.072 -0.4124  0.1231 -0.9205
 3854TP3     H223382   2.118   1.103   7.056 -0.3362  0.2982 -0.0101
 3855TP3      O23383   3.678   0.533   8.976 -0.2353  0.2703  0.2202
 3855TP3     H123384   3.607   0.506   9.035  0.3931  1.3968  1.5638
 3855TP3     H223385   3.728   0.597   9.027  0.7692  0.7564 -1.3018
 3856TP3      O23386   0.084   4.070   2.182  0.7266  0.4290 -0.1869
 3856TP3     H123387   0.110   4.109   2.098 -0.2187 -0.8387 -1.1058
 3856TP3     H223388   0.112   3.979   2.174 -0.2085  0.0782  0.5158
 3857TP3      O23389   0.779   3.377   7.147 -0.0497 -0.4009 -0.3795
 3857TP3     H123390   0.780   3.397   7.053 -2.2933 -2.0107 -0.8393
 3857TP3     H223391   0.747   3.287   7.151  1.6204 -0.9821  1.9013
 3858TP3      O23392   4.914   4.447   8.466 -0.0410 -0.0360  0.1299
 3858TP3     H123393   4.939   4.485   8.382  0.9460 -0.9223  0.0009
 3858TP3     H223394   4.820   4.428   8.458 -0.0347  0.2536 -0.6241
 3859TP3      O23395   2.826   4.856   8.860  0.3010  0.1911 -0.2274
 3859TP3     H123396   2.877   4.805   8.798 -0.0414 -0.5918  0.1309
 3859TP3     H223397   2.845   4.816   8.945  0.4501  0.9950  0.1291
 3860TP3      O23398   3.764   5.082   2.305  0.3250 -0.6427  0.5153
 3860TP3     H123399   3.684   5.117   2.344 -0.0684 -2.3864  1.3505
 3860TP3     H223400   3.752   5.093   2.211 -1.2085 -1.4418  0.5931
 3861TP3      O23401   4.957   2.194   8.542  0.6147  0.1544  0.0198
 3861TP3     H123402   5.011   2.189   8.463  0.9239 -0.1595  0.2485
 3861TP3     H223403   4.939   2.287   8.553 -0.1504  0.1248 -0.9070
 3862TP3      O23404   2.214   2.068   2.797  0.7242 -0.5776  0.2131
 3862TP3     H123405   2.276   2.141   2.791  1.2201 -0.9655  0.6448
 3862TP3     H223406   2.239   2.020   2.875 -0.7794 -0.1470  1.0150
 3863TP3      O23407   0.001   1.800   8.761  0.5457  0.2269 -0.0408
 3863TP3     H123408   0.036   1.886   8.739 -1.4258  1.1014  0.0708
 3863TP3     H223409   0.061   1.767   8.829  0.5491  2.1419  0.9645
 3864TP3      O23410   2.236   1.585   0.534 -0.1927  0.2939  0.2834
 3864TP3     H123411   2.281   1.523   0.591 -1.9239 -0.2453  1.1375
 3864TP3     H223412   2.213   1.658   0.591  0.0681  0.8085 -0.2605
 3865TP3      O23413   1.432   0.185   0.432  0.2852  0.2703 -0.0903
 3865TP3     H123414   1.402   0.187   0.341 -0.6891 -0.3306  0.2045
 3865TP3     H223415   1.437   0.277   0.457 -0.9589  0.4042 -0.2742
 3866TP3      O23416   4.652   0.917   8.125 -0.0662 -0.3635  0.5318
 3866TP3     H123417   4.705   0.865   8.187  0.9966 -1.0981 -0.9278
 3866TP3     H223418   4.588   0.855   8.091 -0.0376 -0.2034  0.1904
 3867TP3      O23419   1.809   4.627   9.348 -0.2416 -0.1002 -0.2437
 3867TP3     H123420   1.826   4.662   9.261 -0.7137  0.0467 -0.2805
 3867TP3     H223421   1.738   4.682   9.383  0.0516 -0.0499  0.2987
 3868TP3      O23422   1.842   0.411   3.439 -0.5583  0.3190 -0.7670
 3868TP3     H123423   1.792   0.346   3.390 -0.3031  0.0544 -0.6775
 3868TP3     H223424   1.919   0.364   3.470 -0.4497  0.6239 -0.5684
 3869TP3      O23425   1.810   4.466   8.616 -0.2049  0.6475 -0.3990
 3869TP3     H123426   1.735   4.415   8.585 -0.5889  2.0811 -2.0519
 3869TP3     H223427   1.885   4.430   8.569 -0.1443  0.3205 -0.0517
 3870TP3      O23428   4.015   0.756   0.459 -0.4672  0.5321  0.0395
 3870TP3     H123429   4.053   0.695   0.523 -1.0113  0.7415  0.5651
 3870TP3     H223430   4.090   0.807   0.427 -0.0020 -0.4047 -0.4095
 3871TP3      O23431   0.145   0.820   8.250 -0.3055 -0.2024  0.4730
 3871TP3     H123432   0.080   0.877   8.291 -0.1301 -0.3786  1.0047
 3871TP3     H223433   0.225   0.873   8.248 -0.3657 -0.1174  0.1531
 3872TP3      O23434   2.290   1.749   2.749  0.4632 -0.0901  0.8428
 3872TP3     H123435   2.205   1.754   2.705  0.1376  1.5538  1.6069
 3872TP3     H223436   2.331   1.671   2.712 -0.9997 -0.4008 -0.2065
 3873TP3      O23437   4.711   1.033   0.122 -0.3003  0.1012  0.2553
 3873TP3     H123438   4.687   1.007   0.033  0.6079  0.5346 -0.1326
 3873TP3     H223439   4.637   1.005   0.176 -0.4940 -0.9277 -0.5097
 3874TP3      O23440   3.730   1.136   8.289  0.9086  0.3435 -0.1498
 3874TP3     H123441   3.645   1.119   8.250  0.9047 -0.5161  0.2075
 3874TP3     H223442   3.786   1.066   8.256  0.9789 -0.2353  1.1255
 3875TP3      O23443   3.167   5.248   2.371  0.2607 -0.0336  0.0612
 3875TP3     H123444   3.226   5.312   2.332 -0.4646  0.0729 -0.8824
 3875TP3     H223445   3.092   5.299   2.402 -1.0309 -0.5273 -2.0446
 3876TP3      O23446   0.581   0.192   9.789  0.3588 -0.4591  0.1568
 3876TP3     H123447   0.544   0.270   9.831  2.9725  1.0279 -0.0815
 3876TP3     H223448   0.556   0.120   9.846  0.7657  1.0327  2.3353
 3877TP3      O23449   1.610   4.859   7.685 -0.0829  0.1115  0.0006
 3877TP3     H123450   1.583   4.873   7.776 -0.0442  0.4007 -0.0320
 3877TP3     H223451   1.657   4.938   7.662 -0.3206  0.1468 -0.3581
 3878TP3      O23452   1.283   3.077   1.191 -0.5381 -0.4588 -0.2946
 3878TP3     H123453   1.268   3.160   1.145 -1.1633 -0.6413 -0.4174
 3878TP3     H223454   1.355   3.097   1.251  0.0296 -0.1120 -1.0636
 3879TP3      O23455   3.987   1.443   1.140  0.0156  0.3762  0.3446
 3879TP3     H123456   3.908   1.415   1.095  0.5399  0.9433 -0.9715
 3879TP3     H223457   4.017   1.520   1.091  1.3865  0.1591  0.7960
 3880TP3      O23458   2.504   4.276   7.768 -0.0845 -0.1134  0.3896
 3880TP3     H123459   2.494   4.307   7.678 -0.8410 -0.7258  0.2630
 3880TP3     H223460   2.415   4.263   7.800  0.1248 -4.0448 -0.2198
 3881TP3      O23461   0.344   3.171   8.471  0.6075 -0.2730  0.0209
 3881TP3     H123462   0.258   3.191   8.436  0.5452 -1.6640 -0.6718
 3881TP3     H223463   0.340   3.200   8.562 -0.3066  0.4169 -0.2260
 3882TP3      O23464   4.568   1.174   9.633  0.3133  0.0675 -0.3059
 3882TP3     H123465   4.490   1.144   9.679 -1.1317  1.4993 -1.6924
 3882TP3     H223466   4.573   1.268   9.651  1.2850  0.1421 -0.8531
 3883TP3      O23467   0.534   0.857   0.040  0.1147  0.4178 -0.4945
 3883TP3     H123468   0.589   0.926   0.077 -0.0964  0.4202 -0.1820
 3883TP3     H223469   0.590   0.780   0.038  0.4499  0.6735 -1.1385
 3884TP3      O23470   0.280   4.299   9.955  0.0979 -0.2807  0.0196
 3884TP3     H123471   0.207   4.246   9.924  1.9972 -2.4558 -1.0177
 3884TP3     H223472   0.305   4.353   9.880 -0.8907  1.1025  0.6291
 3885TP3      O23473   4.321   1.583   2.056  0.7122 -0.0262 -0.1106
 3885TP3     H123474   4.392   1.551   2.001  0.4277 -2.7265  0.9183
 3885TP3     H223475   4.251   1.604   1.995  1.2293 -0.6211 -0.9285
 3886TP3      O23476   4.871   1.954   2.367 -0.0592  0.2591  0.1132
 3886TP3     H123477   4.779   1.926   2.374  0.0084 -0.1561 -0.5017
 3886TP3     H223478   4.870   2.045   2.394 -0.0768 -0.6096  3.4091
 3887TP3      O23479   4.506   0.609   1.343 -0.2364 -0.1367  0.3190
 3887TP3     H123480   4.497   0.547   1.415  0.3599  2.0702  2.4370
 3887TP3     H223481   4.584   0.661   1.366 -0.6990  1.3706 -1.3229
 3888TP3      O23482   0.292   1.136   2.545 -0.1797  0.8031  0.2120
 3888TP3     H123483   0.213   1.084   2.562  0.1425 -0.6363 -2.1712
 3888TP3     H223484   0.357   1.071   2.517  0.9497  2.2586 -0.6953
 3889TP3      O23485   4.162   0.609   0.647  0.5952 -0.3801  0.3207
 3889TP3     H123486   4.102   0.557   0.700 -0.8727 -1.4689 -2.2152
 3889TP3     H223487   4.240   0.554   0.637 -0.1356 -1.2647 -0.6680
 3890TP3      O23488   2.951   1.734   1.709  0.1684  0.5949  0.0822
 3890TP3     H123489   2.954   1.766   1.619 -1.6566  0.4366 -0.0620
 3890TP3     H223490   3.036   1.691   1.722  0.6625  1.0868 -1.3673
 3891TP3      O23491   3.934   1.990   0.833 -0.0962 -0.0378  0.0339
 3891TP3     H123492   3.919   1.910   0.884  1.9435 -1.4094 -1.3797
 3891TP3     H223493   3.956   2.057   0.899 -1.3318 -0.7144  1.1942
 3892TP3      O23494   3.547   2.417   7.456 -0.0590  0.2264  0.2530
 3892TP3     H123495   3.581   2.370   7.379  3.3990  2.3363  0.2560
 3892TP3     H223496   3.562   2.357   7.529  1.8530  0.2369 -0.0739
 3893TP3      O23497   3.287   4.501   1.429  0.9483  0.2097  0.1592
 3893TP3     H123498   3.309   4.594   1.418  1.9685 -0.0443 -0.0201
 3893TP3     H223499   3.249   4.495   1.516 -0.3280  1.0128 -0.3185
 3894TP3      O23500   0.856   2.081   9.359  0.0787  0.3786  0.1515
 3894TP3     H123501   0.827   2.088   9.450 -1.2592 -0.1583 -0.2120
 3894TP3     H223502   0.947   2.109   9.361 -0.1403  1.0719  1.5352
 3895TP3      O23503   0.446   4.221   1.457 -0.2337  0.1058  0.3644
 3895TP3     H123504   0.427   4.223   1.551 -0.9250 -1.4915  0.2908
 3895TP3     H223505   0.359   4.215   1.416  0.0639  0.7502 -0.3767
 3896TP3      O23506   0.899   2.597   2.287  0.8503  0.4102 -0.4890
 3896TP3     H123507   0.886   2.506   2.261  0.0133  0.7869 -1.4726
 3896TP3     H223508   0.935   2.640   2.209  1.5261  0.8648  0.0574
 3897TP3      O23509   2.958   4.640   0.788 -0.3741 -0.0268  0.1111
 3897TP3     H123510   2.947   4.665   0.880  2.0129  2.4107 -0.1439
 3897TP3     H223511   2.891   4.690   0.742 -0.5598 -0.0427  0.3565
 3898TP3      O23512   0.615   4.957   1.093  0.1659  0.5107  0.5011
 3898TP3     H123513   0.617   5.052   1.095  0.5488  0.4960  1.0895
 3898TP3     H223514   0.570   4.935   1.011 -0.7688  1.1976  0.8118
 3899TP3      O23515   3.280   1.529   7.722 -0.3967  0.3077  0.1914
 3899TP3     H123516   3.299   1.523   7.628 -0.3141 -1.1145  0.2820
 3899TP3     H223517   3.225   1.607   7.730 -0.8249  0.1698 -1.1226
 3900TP3      O23518   0.116   4.577   9.489 -0.2686  0.3470  0.0773
 3900TP3     H123519   0.093   4.526   9.412  1.6141  1.4976 -1.3564
 3900TP3     H223520   0.188   4.633   9.459  0.3030  1.0750  2.5975
 3901TP3      O23521   2.060   3.022   8.686 -0.3202  0.4886 -0.1337
 3901TP3     H123522   2.139   3.018   8.740 -0.0683  1.1262 -0.4434
 3901TP3     H223523   2.092   3.037   8.598 -0.8239  2.0145 -0.0865
 3902TP3      O23524   0.777   5.279   8.547  0.1933 -0.2928 -0.4448
 3902TP3     H123525   0.709   5.339   8.578 -0.1183 -0.7986 -0.1385
 3902TP3     H223526   0.819   5.326   8.475  1.8735  1.5468  1.5476
 3903TP3      O23527   3.722   2.522   8.531  0.0878  0.3520  0.0392
 3903TP3     H123528   3.696   2.477   8.450  0.4422  1.0296 -0.4591
 3903TP3     H223529   3.732   2.451   8.595  0.8601 -0.3088 -0.7863
 3904TP3      O23530   1.949   4.770   8.417  0.0882 -0.4731  0.3526
 3904TP3     H123531   1.969   4.682   8.448 -1.6187 -0.9095  0.3297
 3904TP3     H223532   1.969   4.827   8.492 -0.5578 -1.1058  1.0241
 3905TP3      O23533   4.992   0.862   9.557 -0.0454 -0.6486  0.1733
 3905TP3     H123534   5.052   0.886   9.627  0.2282  1.2715 -0.6484
 3905TP3     H223535   4.930   0.935   9.552 -0.4523 -1.0479 -1.1404
 3906TP3      O23536   3.398   3.312   1.627  0.4879 -0.2661  0.5993
 3906TP3     H123537   3.318   3.350   1.592  0.2803 -2.1330 -1.1523
 3906TP3     H223538   3.368   3.258   1.700  0.2573 -0.2945  0.4858
 3907TP3      O23539   1.236   2.610   8.456 -0.3946 -0.1969  0.1406
 3907TP3     H123540   1.310   2.636   8.401 -0.6434 -0.5907 -0.3952
 3907TP3     H223541   1.160   2.650   8.413 -0.8353 -2.0692 -0.9109
 3908TP3      O23542   1.533   1.609   9.336 -0.4875 -0.6002 -0.6426
 3908TP3     H123543   1.624   1.586   9.318 -0.0646 -0.9647  1.6661
 3908TP3     H223544   1.525   1.700   9.310  1.2614  0.1862  1.3094
 3909TP3      O23545   3.478   3.352   8.797  0.4163  0.1591 -0.3269
 3909TP3     H123546   3.467   3.290   8.869 -1.8437  0.3995 -0.3779
 3909TP3     H223547   3.531   3.306   8.732 -0.1658 -1.2500  0.1684
 3910TP3      O23548   3.878   4.472   9.291 -0.5324  0.1261 -0.4726
 3910TP3     H123549   3.839   4.534   9.229 -4.2016 -1.2960  0.1141
 3910TP3     H223550   3.840   4.388   9.267 -0.1241 -0.8943  2.1457
 3911TP3      O23551   4.746   2.842   1.041 -0.0611 -0.2085  0.1510
 3911TP3     H123552   4.652   2.847   1.057 -0.4254 -0.0190 -1.7690
 3911TP3     H223553   4.755   2.856   0.946  1.8679 -0.5918  0.2308
 3912TP3      O23554   3.662   1.212   0.565 -0.6276  0.2644  0.4824
 3912TP3     H123555   3.710   1.133   0.591 -0.1932  0.0695 -0.8361
 3912TP3     H223556   3.570   1.189   0.575 -0.5034 -0.4158  0.0998
 3913TP3      O23557   4.869   2.012   9.243  0.2355 -0.3459  0.2589
 3913TP3     H123558   4.941   1.951   9.258 -0.9130 -1.9695 -0.6063
 3913TP3     H223559   4.910   2.085   9.196  1.2296 -1.5047 -0.7579
 3914TP3      O23560   0.364   3.773   8.546 -0.2277  0.6618 -0.3026
 3914TP3     H123561   0.429   3.752   8.613  0.0817  2.0558 -0.1267
 3914TP3     H223562   0.397   3.731   8.466 -0.2393 -0.4259  0.2500
 3915TP3      O23563   1.906   3.323   2.705 -0.3346 -0.4867  0.2242
 3915TP3     H123564   1.973   3.255   2.699 -1.1243 -1.1771 -0.9500
 3915TP3     H223565   1.823   3.278   2.691 -0.7535  1.0028 -3.1122
 3916TP3      O23566   1.805   0.060   0.898  0.2590  0.2930  0.2720
 3916TP3     H123567   1.713   0.034   0.893  0.9768 -2.3325 -2.0796
 3916TP3     H223568   1.837   0.021   0.979 -0.3740  0.0693  0.4209
 3917TP3      O23569   1.285   3.042   8.635 -0.2816  0.0843  0.1105
 3917TP3     H123570   1.334   2.981   8.691  0.7247  0.6121 -0.1556
 3917TP3     H223571   1.254   3.109   8.696 -1.0852 -0.4913  0.3500
 3918TP3      O23572   2.238   3.235   1.303  0.5848  0.1127 -0.1874
 3918TP3     H123573   2.218   3.315   1.254  1.9479  0.4590 -0.2138
 3918TP3     H223574   2.320   3.255   1.348 -1.1836  0.2716  3.2821
 3919TP3      O23575   0.801   1.037   8.168  0.2259  0.0601 -0.1245
 3919TP3     H123576   0.739   1.012   8.100  3.4081 -2.7355 -2.3067
 3919TP3     H223577   0.831   0.954   8.205  5.1217  0.8501 -1.6604
 3920TP3      O23578   0.771   5.233   1.382 -0.0309 -0.6520  0.3507
 3920TP3     H123579   0.695   5.243   1.439 -0.9533 -1.3093 -0.7235
 3920TP3     H223580   0.807   5.147   1.403 -0.4938 -0.9831 -0.1721
 3921TP3      O23581   2.684   0.951   0.953 -0.3088 -0.1827  0.3660
 3921TP3     H123582   2.675   1.046   0.940 -1.8192 -0.1741  1.3070
 3921TP3     H223583   2.769   0.942   0.996 -0.4640  0.8211  0.9249
 3922TP3      O23584   3.688   3.910   1.183 -0.4164 -0.2228 -0.2130
 3922TP3     H123585   3.781   3.905   1.158 -0.3315 -1.9499  0.2742
 3922TP3     H223586   3.641   3.877   1.106 -0.7118  1.2680 -0.7072
 3923TP3      O23587   0.654   1.903   1.195 -0.2713  0.2309 -0.3285
 3923TP3     H123588   0.654   1.823   1.143  0.1422 -1.3249  1.9364
 3923TP3     H223589   0.598   1.963   1.146  0.3130 -1.0287 -2.6594
 3924TP3      O23590   4.439   4.221   0.865 -0.0394 -0.4419 -0.2312
 3924TP3     H123591   4.524   4.208   0.907  2.1882 -0.3634 -4.2435
 3924TP3     H223592   4.421   4.314   0.874 -0.1254 -0.5816  1.2587
 3925TP3      O23593   4.721   4.194   2.117 -0.3984  0.3878  0.2822
 3925TP3     H123594   4.744   4.158   2.203 -0.5207  0.3688  0.3072
 3925TP3     H223595   4.775   4.144   2.055  0.9769  1.5638  0.4810
 3926TP3      O23596   4.481   1.181   8.202 -0.3182  0.6630  0.6184
 3926TP3     H123597   4.485   1.092   8.237 -1.5911  0.6396  0.7248
 3926TP3     H223598   4.559   1.188   8.147 -0.6750 -0.8447 -0.1306
 3927TP3      O23599   5.224   2.231   1.054 -0.0347 -0.1218 -0.2857
 3927TP3     H123600   5.311   2.246   1.017 -0.0354 -2.0158 -1.1936
 3927TP3     H223601   5.219   2.292   1.128  0.7475  2.3814 -2.1611
 3928TP3      O23602   2.742   4.403   1.541  0.0072  0.2215  0.5832
 3928TP3     H123603   2.830   4.439   1.554  0.6378 -0.7648 -0.6045
 3928TP3     H223604   2.758   4.319   1.496 -1.5923  0.5897 -0.7769
 3929TP3      O23605   1.925   4.757   7.183  0.6652  0.0846  0.4654
 3929TP3     H123606   1.916   4.662   7.189 -2.0701  0.3010  1.0706
 3929TP3     H223607   1.843   4.786   7.142  1.0472  2.2494  1.1145
 3930TP3      O23608   3.446   0.031   0.842 -0.2031 -0.3682  0.1754
 3930TP3     H123609   3.488   0.100   0.792  0.5159  0.2901  1.6474
 3930TP3     H223610   3.355   0.060   0.852 -0.3808 -0.5539 -0.7901
 3931TP3      O23611   0.612   0.111   2.266  0.0219  0.0707  0.1353
 3931TP3     H123612   0.567   0.127   2.183 -0.8322  0.5954  0.6925
 3931TP3     H223613   0.704   0.098   2.241  0.0610  1.7756 -0.7490
 3932TP3      O23614   3.668   2.737   8.840  0.0139  0.3546 -0.1964
 3932TP3     H123615   3.602   2.673   8.867  1.6089 -2.3742 -2.2142
 3932TP3     H223616   3.746   2.712   8.889  0.7984  0.4026 -1.3956
 3933TP3      O23617   4.192   3.337   9.403 -0.4141 -0.1701 -0.3549
 3933TP3     H123618   4.114   3.389   9.424 -1.6815 -1.8947 -0.5447
 3933TP3     H223619   4.157   3.254   9.369  1.4215 -2.0046  1.8967
 3934TP3      O23620   2.542   2.610   3.063 -0.0234  0.0734  0.1757
 3934TP3     H123621   2.536   2.552   2.987 -0.4036 -0.1121  0.3434
 3934TP3     H223622   2.542   2.698   3.026 -4.2390  0.2309  0.0611
 3935TP3      O23623   1.234   1.461   3.528 -0.3311 -0.4014 -0.0276
 3935TP3     H123624   1.178   1.450   3.604 -0.5048  1.3015  0.1329
 3935TP3     H223625   1.173   1.482   3.457  0.0563  1.3463  0.1222
 3936TP3      O23626   2.027   2.581   3.379  0.1429 -0.1538 -0.2829
 3936TP3     H123627   1.989   2.557   3.463  2.6909  0.1366  1.0595
 3936TP3     H223628   2.081   2.506   3.355  1.7630  0.9213 -0.1345
 3937TP3      O23629   5.164   1.739   1.388 -0.7072 -0.0867 -0.1919
 3937TP3     H123630   5.098   1.679   1.354 -1.0195 -0.5882  1.2240
 3937TP3     H223631   5.218   1.685   1.446 -1.9730  1.2795  2.4054
 3938TP3      O23632   2.759   4.251   9.891  0.0226 -0.3767  0.0655
 3938TP3     H123633   2.748   4.205   9.808  0.4783  0.9489 -0.7645
 3938TP3     H223634   2.682   4.308   9.896  0.2724 -0.0606  0.2848
 3939TP3      O23635   0.281   1.419   1.346  0.8572 -0.7635 -0.6891
 3939TP3     H123636   0.272   1.508   1.311 -1.9613 -1.0203 -0.8214
 3939TP3     H223637   0.366   1.420   1.390  0.5215  2.2886  0.1434
 3940TP3      O23638   3.399   3.557   2.705  0.0816  0.1284 -0.5570
 3940TP3     H123639   3.333   3.595   2.648  0.8913  0.1994 -1.4861
 3940TP3     H223640   3.404   3.617   2.779 -0.7626  0.2117 -0.5634
 3941TP3      O23641   0.154   3.551   9.475 -0.0834 -0.3771 -0.9197
 3941TP3     H123642   0.151   3.465   9.518  1.1374 -0.5126 -1.0857
 3941TP3     H223643   0.145   3.613   9.547 -1.2110 -0.6300 -0.8204
 3942TP3      O23644   0.764   0.937   8.785 -0.4488 -0.1886 -0.3834
 3942TP3     H123645   0.678   0.975   8.766  0.3466  0.9130 -2.0193
 3942TP3     H223646   0.806   0.931   8.699  1.2345 -0.4059  0.4337
 3943TP3      O23647   1.216   4.042   8.803  0.3169 -0.0940 -0.7166
 3943TP3     H123648   1.177   4.072   8.721  0.4379  2.1988 -0.0212
 3943TP3     H223649   1.182   3.954   8.816 -0.3928 -0.1637 -2.7756
 3944TP3      O23650   3.673   0.834   7.305  0.7086 -0.1686  0.0000
 3944TP3     H123651   3.621   0.852   7.226 -0.3336  0.7094  0.8577
 3944TP3     H223652   3.710   0.748   7.289 -1.9091 -1.3638 -0.2237
 3945TP3      O23653   1.487   2.024   9.028 -0.0124 -0.0600  0.3235
 3945TP3     H123654   1.430   2.007   8.953 -0.7683  2.5173  0.1957
 3945TP3     H223655   1.564   2.067   8.991  0.5260 -0.5548  0.8408
 3946TP3      O23656   0.217   1.841   8.419 -0.2588  0.3042 -0.1094
 3946TP3     H123657   0.263   1.852   8.336 -0.9245 -0.4172 -0.5916
 3946TP3     H223658   0.142   1.900   8.412  0.1272  0.8432  0.3148
 3947TP3      O23659   2.842   4.927   0.009 -0.1627  0.0428 -0.3876
 3947TP3     H123660   2.895   4.956   0.083  1.6745 -1.6609 -0.9445
 3947TP3     H223661   2.884   4.967  -0.067  1.1439 -2.2064 -0.9457
 3948TP3      O23662   4.453   0.913   2.852 -0.0316  0.1348  0.6929
 3948TP3     H123663   4.469   0.839   2.910 -0.1639 -0.7919 -0.4084
 3948TP3     H223664   4.521   0.976   2.874  0.9903 -0.9278  0.6698
 3949TP3      O23665   1.398   3.906   0.844  0.3017 -0.5532  0.0010
 3949TP3     H123666   1.465   3.917   0.912 -0.2751 -1.5885  0.7647
 3949TP3     H223667   1.330   3.854   0.886 -0.1860 -0.9967 -1.2997
 3950TP3      O23668   3.740   0.373   0.667 -0.1046  1.1819  0.5411
 3950TP3     H123669   3.720   0.464   0.692 -1.8113  0.8149  0.6888
 3950TP3     H223670   3.749   0.375   0.572 -0.4832  1.4609  0.5079
 3951TP3      O23671   4.269   2.261  10.006  0.3892  0.2731 -0.2196
 3951TP3     H123672   4.363   2.255  10.024  0.2787  0.5304  0.4415
 3951TP3     H223673   4.264   2.316   9.927  0.7687  0.5987 -0.0218
 3952TP3      O23674   0.512   0.774   0.796 -0.4465  0.1862  0.7643
 3952TP3     H123675   0.591   0.801   0.843 -0.3071 -3.1391  2.7823
 3952TP3     H223676   0.543   0.710   0.733 -1.3788 -0.0574  0.5381
 3953TP3      O23677   3.596   0.878   1.600  0.4208  0.1315 -0.3644
 3953TP3     H123678   3.636   0.793   1.618 -0.3075 -0.2788 -0.6748
 3953TP3     H223679   3.671   0.935   1.581  0.9763 -0.2240  0.6621
 3954TP3      O23680   4.152   3.261   8.903  0.2358 -0.3490 -0.0074
 3954TP3     H123681   4.173   3.222   8.818 -2.3179 -0.3552 -0.7374
 3954TP3     H223682   4.112   3.345   8.882 -2.1865 -1.1410  0.9673
 3955TP3      O23683   2.485   2.657   7.689 -0.3758  0.1908  0.2797
 3955TP3     H123684   2.503   2.564   7.673 -0.8077  0.2338 -0.4914
 3955TP3     H223685   2.524   2.674   7.775  1.8968 -0.0917 -0.6294
 3956TP3      O23686   2.923   3.470   8.859 -0.2379 -0.4184 -0.3164
 3956TP3     H123687   2.912   3.563   8.876  0.6789 -0.6262  1.7172
 3956TP3     H223688   2.988   3.441   8.923 -1.6362 -2.7613  0.1876
 3957TP3      O23689   1.990   1.802   8.815 -0.3529 -0.1755  0.1412
 3957TP3     H123690   2.082   1.775   8.816 -0.4504 -0.5125  0.1921
 3957TP3     H223691   1.980   1.848   8.732 -0.3794 -1.0225 -0.3462
 3958TP3      O23692   4.423   0.771   9.547  0.2501 -0.0536  0.3478
 3958TP3     H123693   4.503   0.726   9.518  0.2617 -1.6085  2.5221
 3958TP3     H223694   4.352   0.722   9.505  0.3682  0.7052 -0.7845
 3959TP3      O23695   2.263   1.195   0.322  0.8159 -0.1154  0.5697
 3959TP3     H123696   2.171   1.213   0.344  0.3364 -1.3994 -0.2835
 3959TP3     H223697   2.313   1.246   0.386 -0.4924 -0.4890  1.9442
 3960TP3      O23698   4.454   2.366   8.954  0.1909 -0.1371  0.2351
 3960TP3     H123699   4.374   2.418   8.949 -0.0153 -0.3517  1.0228
 3960TP3     H223700   4.525   2.431   8.960  0.2751  0.0919 -2.2202
 3961TP3      O23701   2.459   1.402   7.947 -0.0805 -0.1389 -0.3388
 3961TP3     H123702   2.553   1.419   7.935 -0.3127  0.6762 -1.1314
 3961TP3     H223703   2.449   1.309   7.924  0.7036 -0.5400  0.8785
 3962TP3      O23704   0.640   4.227   1.999  0.1269  0.0423  0.1523
 3962TP3     H123705   0.603   4.294   2.056 -1.7519 -0.9757  0.2072
 3962TP3     H223706   0.565   4.192   1.950  1.2991 -0.8757 -1.0816
 3963TP3      O23707   4.666   3.677   7.833 -0.0925  0.5266  0.2777
 3963TP3     H123708   4.658   3.594   7.880 -0.5342 -0.4131 -1.3842
 3963TP3     H223709   4.758   3.701   7.841  0.0900 -0.2492  0.5496
 3964TP3      O23710   4.128   2.099   0.314  0.2541  0.2682  0.3415
 3964TP3     H123711   4.134   2.177   0.259 -3.2065 -0.6599 -1.6661
 3964TP3     H223712   4.178   2.032   0.267 -0.4019  0.2037 -0.2906
 3965TP3      O23713   0.742   1.720   7.132 -0.2781 -0.1886  0.0524
 3965TP3     H123714   0.669   1.767   7.173 -0.4754 -0.1630 -0.3283
 3965TP3     H223715   0.706   1.685   7.051 -0.6437 -2.4663  1.1028
 3966TP3      O23716   4.643   5.088   1.853 -0.1308 -0.3072 -0.4165
 3966TP3     H123717   4.674   5.020   1.913 -1.4867 -1.5026 -0.9964
 3966TP3     H223718   4.559   5.055   1.821  0.2829  0.5189 -2.5648
 3967TP3      O23719   5.062   2.219   1.866 -0.2207 -0.0932  0.0264
 3967TP3     H123720   5.063   2.314   1.877 -1.0524 -0.2149  1.4037
 3967TP3     H223721   5.154   2.193   1.868 -0.0509  0.5527  1.0917
 3968TP3      O23722   0.017   1.779   2.491 -0.3025 -0.1676  0.0798
 3968TP3     H123723  -0.041   1.841   2.446  0.2136  0.0664 -0.2734
 3968TP3     H223724   0.105   1.806   2.466 -0.0516 -0.7418  0.3234
 3969TP3      O23725   1.794   1.517   9.641  0.4236 -0.1782  0.4748
 3969TP3     H123726   1.809   1.612   9.638 -0.3932 -0.0202  1.0459
 3969TP3     H223727   1.882   1.480   9.654  0.6295  0.5725  1.3658
 3970TP3      O23728   3.332   2.841   8.431  0.4398  0.2069  0.5888
 3970TP3     H123729   3.389   2.887   8.369  0.9413  1.4870  1.9296
 3970TP3     H223730   3.380   2.762   8.454 -0.1691 -0.7844 -1.3022
 3971TP3      O23731   3.137   2.553   7.839 -0.1446  0.6769  0.3817
 3971TP3     H123732   3.062   2.545   7.898 -0.8035  1.8431 -0.2545
 3971TP3     H223733   3.099   2.567   7.753  0.8005 -1.3633 -0.4391
 3972TP3      O23734   1.462   3.850   7.211  0.1018 -0.3699  0.4800
 3972TP3     H123735   1.466   3.754   7.204  2.2614 -0.4415  1.7431
 3972TP3     H223736   1.378   3.866   7.254  0.8005 -1.9760  2.6978
 3973TP3      O23737   3.977   1.868   9.547 -0.2496  0.1166 -0.3186
 3973TP3     H123738   4.031   1.814   9.489 -0.1435  0.7957 -0.8635
 3973TP3     H223739   4.011   1.849   9.635 -0.7190 -1.2630 -0.4164
 3974TP3      O23740   2.287   3.006   2.412  0.1987 -0.5109 -0.5776
 3974TP3     H123741   2.300   2.954   2.492  1.7428  0.2973 -0.2609
 3974TP3     H223742   2.198   2.985   2.384 -0.2504 -1.1031  1.1481
 3975TP3      O23743   3.497   4.601   9.022  0.2267 -0.3753  0.0654
 3975TP3     H123744   3.512   4.531   9.085 -0.9821  0.1016  0.9248
 3975TP3     H223745   3.451   4.669   9.072 -0.9482 -0.0607 -1.3701
 3976TP3      O23746   2.303   3.239   8.884 -0.3417 -0.0761  0.1875
 3976TP3     H123747   2.312   3.320   8.934 -0.9318 -0.1090  0.3522
 3976TP3     H223748   2.257   3.179   8.943  2.6850 -1.5801  1.2371
 3977TP3      O23749   2.712   0.623   1.692 -0.9051  0.2178 -0.0237
 3977TP3     H123750   2.728   0.608   1.785 -0.3257  0.1142 -0.1335
 3977TP3     H223751   2.788   0.585   1.648 -1.5416 -0.4210 -0.5973
 3978TP3      O23752   1.222   2.565   1.204  0.3819  0.3930 -0.3901
 3978TP3     H123753   1.236   2.657   1.184  0.8236  0.7331  1.3214
 3978TP3     H223754   1.306   2.534   1.237  0.0380 -0.4200 -0.2488
 3979TP3      O23755   0.335   0.843   2.298  0.0642 -0.0508  0.3132
 3979TP3     H123756   0.302   0.894   2.225 -0.8282 -1.0932 -0.0464
 3979TP3     H223757   0.259   0.829   2.354  0.1153 -1.5542  0.0476
 3980TP3      O23758   0.719   3.618   8.452  0.5057 -0.5507 -0.2410
 3980TP3     H123759   0.661   3.659   8.388  1.1252 -1.4040 -1.3853
 3980TP3     H223760   0.663   3.561   8.503 -0.4494  1.8602  1.6066
 3981TP3      O23761   3.159   2.802   2.429 -0.0180 -0.2729  0.2949
 3981TP3     H123762   3.246   2.770   2.453  0.2415  0.4587  0.3539
 3981TP3     H223763   3.120   2.830   2.512  0.5206  1.3879  0.0171
 3982TP3      O23764   4.341   5.282   8.191 -0.1482  0.1635  0.2009
 3982TP3     H123765   4.352   5.358   8.248  0.4473 -0.2325  0.6291
 3982TP3     H223766   4.409   5.292   8.124 -1.8737  1.4884 -1.4538
 3983TP3      O23767   3.413   3.466   2.010  0.3350  0.4171  0.1992
 3983TP3     H123768   3.490   3.480   1.954 -0.7584 -0.1215 -1.5185
 3983TP3     H223769   3.352   3.535   1.985 -0.8311 -0.8206 -0.5079
 3984TP3      O23770   2.902   0.163   0.652 -0.0574  0.5563 -0.2839
 3984TP3     H123771   2.906   0.134   0.743 -3.3899 -0.3373 -0.3024
 3984TP3     H223772   2.817   0.134   0.621  0.6328  1.5349 -3.4969
 3985TP3      O23773   3.935   5.215   7.911 -0.9818 -0.3786  0.3283
 3985TP3     H123774   4.004   5.215   7.978 -1.1197 -1.3463  0.4871
 3985TP3     H223775   3.867   5.272   7.947 -0.4441  0.2537  0.3549
 3986TP3      O23776   2.141   4.946   2.631 -0.0454 -0.0189  0.3775
 3986TP3     H123777   2.069   4.887   2.653 -0.0410  0.1789  0.9274
 3986TP3     H223778   2.186   4.961   2.714 -0.6791  1.5989  0.4499
 3987TP3      O23779   0.482   0.697   1.344  0.2551  0.2353  0.4808
 3987TP3     H123780   0.536   0.771   1.316  0.1775  0.4955  1.0118
 3987TP3     H223781   0.418   0.735   1.404  0.1627 -0.2498  0.6967
 3988TP3      O23782   1.811   1.024   1.699 -0.1006 -0.5872  0.1540
 3988TP3     H123783   1.892   0.973   1.702  0.8053  0.8383  1.1809
 3988TP3     H223784   1.832   1.098   1.641  0.0125  0.8066  1.8805
 3989TP3      O23785   3.027   4.019   0.641  0.2378  0.5671 -0.3898
 3989TP3     H123786   3.041   3.948   0.579 -0.8272 -1.3328  1.4330
 3989TP3     H223787   2.940   4.052   0.621 -0.4366 -0.5776  0.5294
 3990TP3      O23788   0.457   3.766   0.766  0.3520 -0.2421 -0.5704
 3990TP3     H123789   0.460   3.671   0.757 -0.3333 -0.3950  0.6816
 3990TP3     H223790   0.404   3.795   0.691  0.0995 -0.8897 -0.6501
 3991TP3      O23791   0.946   4.692   0.759 -0.4015 -0.4419  0.3075
 3991TP3     H123792   0.896   4.746   0.699  1.5089 -0.4455 -1.3783
 3991TP3     H223793   0.996   4.754   0.813 -1.6275 -0.4591  1.5251
 3992TP3      O23794   2.451   4.981   1.328  0.3804  0.3426  0.3468
 3992TP3     H123795   2.363   4.972   1.293 -0.4688 -2.8712  2.8305
 3992TP3     H223796   2.439   5.003   1.420  2.2375  1.1167  0.4595
 3993TP3      O23797   3.219   1.322   1.135 -0.8014  0.2416 -0.0403
 3993TP3     H123798   3.131   1.343   1.102 -0.2831  1.4084 -0.7564
 3993TP3     H223799   3.275   1.328   1.058  0.2645  1.8604  0.8011
 3994TP3      O23800   4.158   4.757   7.541 -0.5965  0.3145 -0.4684
 3994TP3     H123801   4.251   4.756   7.519 -0.6987  0.9868 -0.9400
 3994TP3     H223802   4.157   4.747   7.636  0.0314  1.6067 -0.2915
 3995TP3      O23803   0.187   1.405   1.700 -0.0390 -0.4142  0.3173
 3995TP3     H123804   0.136   1.396   1.780 -0.4878  1.0526  0.2201
 3995TP3     H223805   0.222   1.494   1.703  0.0412 -0.3724 -1.0572
 3996TP3      O23806   1.470   3.676   1.035 -0.3581 -0.3822 -0.1442
 3996TP3     H123807   1.543   3.718   1.080  0.5728 -1.3640 -0.6933
 3996TP3     H223808   1.454   3.596   1.086 -2.4485  0.7902  1.2033
 3997TP3      O23809   0.656   4.167   0.074  0.4485  0.6210  0.1729
 3997TP3     H123810   0.575   4.131   0.109  1.1815 -0.6131  0.6964
 3997TP3     H223811   0.695   4.213   0.149  0.4783  0.7751  0.0632
 3998TP3      O23812   3.426   2.350   3.082 -0.2615  0.0611 -0.2010
 3998TP3     H123813   3.375   2.401   3.146  0.6008  0.9599 -0.1897
 3998TP3     H223814   3.509   2.397   3.077 -0.3579  0.0732 -2.0864
 3999TP3      O23815   5.080   0.822   2.636 -0.6569 -0.3768 -0.3555
 3999TP3     H123816   5.114   0.884   2.571 -0.9704  1.2852  1.0098
 3999TP3     H223817   5.098   0.862   2.720  0.2910 -2.7903  0.6718
 4000TP3      O23818   4.993   1.687   2.753  0.3921  0.5199  0.4036
 4000TP3     H123819   4.976   1.668   2.845 -0.0446 -2.1902 -0.1359
 4000TP3     H223820   5.083   1.659   2.738  0.1149 -0.0885 -0.2081
 4001TP3      O23821   1.976   1.392   2.486  0.6531 -0.4957 -0.7751
 4001TP3     H123822   1.955   1.409   2.578  1.2572  4.2257 -1.2347
 4001TP3     H223823   2.064   1.355   2.488  0.5324 -0.7506  0.5426
 4002TP3      O23824   5.078   4.830   0.510 -0.1815 -0.0811 -0.1713
 4002TP3     H123825   5.044   4.909   0.550  1.4653  0.2666  0.6147
 4002TP3     H223826   5.152   4.804   0.565  1.0991 -0.5466 -1.9861
 4003TP3      O23827   1.516   3.158   2.207 -0.1973 -0.2307  0.8343
 4003TP3     H123828   1.494   3.245   2.241  2.1274  0.1514  1.5203
 4003TP3     H223829   1.525   3.103   2.285  0.5760 -0.5196  0.5524
 4004TP3      O23830   2.735   1.920   0.908  0.1400 -0.1517 -0.1880
 4004TP3     H123831   2.722   2.005   0.950  2.1188 -0.5367  1.3611
 4004TP3     H223832   2.755   1.860   0.980 -1.5405 -2.0520 -1.2007
 4005TP3      O23833   4.587   0.936   2.561 -0.0115  0.2527 -0.0994
 4005TP3     H123834   4.572   0.972   2.648 -0.1541  0.1171 -0.0676
 4005TP3     H223835   4.645   0.861   2.575 -0.2372  0.0764 -0.0901
 4006TP3      O23836   5.080   4.173   1.692  0.1466 -0.1031 -0.0077
 4006TP3     H123837   5.166   4.208   1.667 -1.0470  1.5187 -2.2239
 4006TP3     H223838   5.064   4.103   1.628  0.4258 -1.4746  1.3689
 4007TP3      O23839   0.852   3.218   2.264 -0.5543 -0.3107 -0.3372
 4007TP3     H123840   0.820   3.249   2.349  0.7155  0.3370 -0.0706
 4007TP3     H223841   0.898   3.136   2.285 -0.7599 -0.4665 -0.4940
 4008TP3      O23842   3.234   0.807   1.798  0.4325 -0.2281  0.0443
 4008TP3     H123843   3.178   0.885   1.794  1.1276  0.2334 -1.3761
 4008TP3     H223844   3.275   0.812   1.884  0.8581  1.2811 -0.2101
 4009TP3      O23845   4.917   3.066   1.121  0.2711  0.0668 -0.3199
 4009TP3     H123846   4.827   3.049   1.146 -0.6897  0.9808 -2.8525
 4009TP3     H223847   4.934   3.006   1.049  1.2795  0.7460 -0.6726
 4010TP3      O23848   3.408   4.194   2.261 -0.2992  0.3795  0.1203
 4010TP3     H123849   3.405   4.280   2.302  0.0878  1.3935 -1.8746
 4010TP3     H223850   3.348   4.201   2.186  1.8109 -0.1228 -1.7354
 4011TP3      O23851   0.807   2.452   2.855  0.7646 -0.4585 -0.5236
 4011TP3     H123852   0.835   2.387   2.920 -0.2024  0.0067  0.3822
 4011TP3     H223853   0.853   2.427   2.775 -0.8568 -3.2916 -0.6832
 4012TP3      O23854   3.951   4.545   8.798  0.5705  0.2876  0.3959
 4012TP3     H123855   3.969   4.614   8.862  0.6878 -0.1864  0.8789
 4012TP3     H223856   4.019   4.479   8.813  2.1231  1.2268 -1.8191
 4013TP3      O23857   3.507   0.819   8.149  0.2905 -0.5367  0.1901
 4013TP3     H123858   3.488   0.911   8.167 -0.3716 -0.6403  0.0495
 4013TP3     H223859   3.529   0.817   8.056 -0.4588 -0.6366  0.0147
 4014TP3      O23860   0.271   3.783   0.214  0.0145  0.0990 -0.7217
 4014TP3     H123861   0.227   3.701   0.190 -0.4490 -0.1251  0.7829
 4014TP3     H223862   0.208   3.851   0.189 -1.1102 -0.2038  1.1137
 4015TP3      O23863   3.973   4.736   2.223 -0.5844 -0.4398 -0.4505
 4015TP3     H123864   3.947   4.654   2.181 -0.0607 -0.8105 -0.0529
 4015TP3     H223865   3.949   4.804   2.159 -2.6572 -0.7364 -0.0614
 4016TP3      O23866   3.709   2.510   6.996 -0.1674 -0.0099 -0.8785
 4016TP3     H123867   3.696   2.550   7.082  1.2628 -0.5362 -0.3798
 4016TP3     H223868   3.644   2.440   6.992  0.6789 -0.9185  0.4128
 4017TP3      O23869   2.141   2.051   0.204 -0.4468 -0.6296  0.0423
 4017TP3     H123870   2.056   2.084   0.174  0.2108  0.9882 -0.1315
 4017TP3     H223871   2.149   2.084   0.293 -0.3817 -1.5620  0.3931
 4018TP3      O23872   0.741   2.546   8.840 -0.0079 -0.4429  0.0695
 4018TP3     H123873   0.662   2.511   8.879 -1.2528  1.3120 -0.7080
 4018TP3     H223874   0.802   2.472   8.836  0.0881 -0.8738  4.7617
 4019TP3      O23875   0.685   1.836   9.703 -0.1034 -0.4275 -0.3642
 4019TP3     H123876   0.722   1.772   9.641  0.6140  1.2940 -1.7869
 4019TP3     H223877   0.671   1.915   9.651  1.7200  1.5297  1.8726
 4020TP3      O23878   3.798   0.952   3.195  0.4462  0.0245  0.1799
 4020TP3     H123879   3.860   0.879   3.195  0.1451 -0.2325 -0.0226
 4020TP3     H223880   3.808   0.991   3.108 -0.3390 -0.5880 -0.1966
 4021TP3      O23881   0.364   2.441   3.427  0.2276 -0.8024  0.2055
 4021TP3     H123882   0.310   2.520   3.418  0.2588 -0.7553  0.4309
 4021TP3     H223883   0.454   2.473   3.424  0.2512 -0.9326 -0.6422
 4022TP3      O23884   1.166   1.437   0.661 -0.4158 -0.2739 -0.8702
 4022TP3     H123885   1.184   1.492   0.738 -0.0923 -0.6659 -0.6589
 4022TP3     H223886   1.213   1.480   0.590 -2.2058  1.1304 -1.2822
 4023TP3      O23887   1.659   0.290   2.143 -0.7396  0.0770 -0.0572
 4023TP3     H123888   1.696   0.366   2.099 -0.6176 -0.3759 -0.7401
 4023TP3     H223889   1.599   0.327   2.208 -1.0123  0.7458 -0.6824
 4024TP3      O23890   3.664   4.286   9.385  0.5249  0.0452  0.0286
 4024TP3     H123891   3.638   4.225   9.454  0.3315  1.6838  1.4640
 4024TP3     H223892   3.740   4.244   9.344  2.3862  0.1880  3.0367
 4025TP3      O23893   4.106   1.768   9.810  0.8952 -0.0263  0.2631
 4025TP3     H123894   4.174   1.711   9.774 -0.4253 -1.6703  0.2838
 4025TP3     H223895   4.155   1.835   9.859  2.4725 -2.0804  1.6613
 4026TP3      O23896   1.833   4.586   2.792  0.1470 -0.2196 -0.4208
 4026TP3     H123897   1.865   4.524   2.726 -1.1147 -1.3201 -0.0318
 4026TP3     H223898   1.909   4.641   2.812  0.7495 -0.3631 -2.2173
 4027TP3      O23899   0.853   4.102   2.092 -0.2168  0.1790 -0.6458
 4027TP3     H123900   0.809   4.073   2.172  2.0668 -2.2518 -0.1205
 4027TP3     H223901   0.789   4.159   2.049 -2.5509 -0.5506  1.5765
 4028TP3      O23902   1.366   2.622   1.811 -0.1961 -0.1083 -0.6647
 4028TP3     H123903   1.304   2.619   1.738 -0.6879 -0.1977 -0.2506
 4028TP3     H223904   1.357   2.536   1.853 -0.2544  0.1039 -0.2301
 4029TP3      O23905   5.231   3.277   0.107 -0.1164  0.4990  0.2466
 4029TP3     H123906   5.321   3.281   0.139 -0.3229  0.6097  0.8236
 4029TP3     H223907   5.225   3.193   0.061  0.7285  1.1753 -1.1742
 4030TP3      O23908   4.798   1.041   0.866  0.6130  0.0429  0.3399
 4030TP3     H123909   4.742   1.115   0.843 -0.1245 -0.7667 -0.6083
 4030TP3     H223910   4.887   1.075   0.863  0.2821  0.8950 -0.0195
 4031TP3      O23911   5.273   4.481   8.449  0.1498  0.6382 -0.2074
 4031TP3     H123912   5.341   4.470   8.515 -1.4561 -1.3199  1.2787
 4031TP3     H223913   5.281   4.404   8.393 -0.0485  1.0333 -0.7916
 4032TP3      O23914   2.146   1.113   2.701  0.2510  0.2986 -0.1947
 4032TP3     H123915   2.169   1.020   2.708  0.1089  0.2349 -0.5408
 4032TP3     H223916   2.088   1.118   2.625 -0.9580  0.4443  0.7148
 4033TP3      O23917   1.707   3.665   0.377  0.3067  0.0315  1.3658
 4033TP3     H123918   1.661   3.586   0.405 -2.7475  1.1453 -0.0202
 4033TP3     H223919   1.736   3.706   0.458 -3.0640  0.2613  2.6118
 4034TP3      O23920   5.098   0.014   7.783 -0.5494  0.3094 -0.2092
 4034TP3     H123921   5.046   0.089   7.754 -0.3163  0.6399  0.2207
 4034TP3     H223922   5.053  -0.018   7.861 -0.1269  0.5760  0.1439
 4035TP3      O23923   0.651   4.113   2.732  0.0608  0.2447 -0.0148
 4035TP3     H123924   0.744   4.092   2.734  0.4089  1.5380 -1.1604
 4035TP3     H223925   0.613   4.052   2.669  0.3754  0.5933 -0.5395
 4036TP3      O23926   1.829   4.074   8.013 -0.1840  0.0894 -0.2883
 4036TP3     H123927   1.817   4.166   8.036  1.1977  0.0125  0.9659
 4036TP3     H223928   1.909   4.073   7.961 -0.7866 -0.2950 -1.2261
 4037TP3      O23929   2.475   1.428   2.424  0.0342  0.2780 -0.2052
 4037TP3     H123930   2.536   1.354   2.430 -0.1968  0.0984 -0.0860
 4037TP3     H223931   2.470   1.447   2.330 -0.7853 -0.5918 -0.3565
 4038TP3      O23932   1.259   0.568   2.904 -0.1293 -0.4510  0.4594
 4038TP3     H123933   1.269   0.523   2.988  1.4133  0.2905  0.7093
 4038TP3     H223934   1.325   0.637   2.906 -0.7897  0.2613 -0.9328
 4039TP3      O23935   1.337   2.802   1.099  0.0200 -0.2435 -0.2477
 4039TP3     H123936   1.308   2.887   1.132  0.6326  0.1010 -0.5857
 4039TP3     H223937   1.418   2.821   1.052 -0.7320 -0.7529 -1.8188
 4040TP3      O23938   1.618   2.293   9.373  0.7230 -0.0351  0.0444
 4040TP3     H123939   1.556   2.352   9.415  0.5166  0.4615 -0.9155
 4040TP3     H223940   1.695   2.348   9.355 -0.0777  0.4612 -2.3308
 4041TP3      O23941   0.003   3.498   0.756 -0.9585  0.4863 -0.0425
 4041TP3     H123942   0.067   3.528   0.820 -0.8869 -1.9603  1.1648
 4041TP3     H223943  -0.028   3.577   0.713  0.4471  2.0307  1.6467
 4042TP3      O23944   1.577   1.070   7.739 -0.4708  0.0968 -0.7864
 4042TP3     H123945   1.543   0.987   7.774  1.3162 -0.4809 -0.2608
 4042TP3     H223946   1.507   1.133   7.754 -1.5428 -1.1316 -0.3791
 4043TP3      O23947   2.206   3.701   2.018  0.2096 -0.7173  0.0800
 4043TP3     H123948   2.293   3.728   2.046  0.3956 -0.9083 -0.3034
 4043TP3     H223949   2.222   3.647   1.940 -0.3934  1.1943 -1.4450
 4044TP3      O23950   2.262   2.768   7.577  0.5388  0.1714 -0.9052
 4044TP3     H123951   2.343   2.733   7.612 -0.6642 -2.7608 -0.6773
 4044TP3     H223952   2.202   2.771   7.651  0.0098  0.7813 -1.3441
 4045TP3      O23953   4.001   4.518   0.557 -0.4653  0.1121  0.3106
 4045TP3     H123954   4.065   4.536   0.625 -0.2213 -1.9458  0.6875
 4045TP3     H223955   4.045   4.542   0.475  1.4913 -2.6776  0.4063
 4046TP3      O23956   2.030   1.028   8.871  0.0378  0.2640  0.6779
 4046TP3     H123957   2.086   1.050   8.797 -0.4790  3.2729  1.0552
 4046TP3     H223958   2.029   0.932   8.872 -0.0331  0.0408 -3.2422
 4047TP3      O23959   2.315   4.193   8.959 -0.3111 -0.1454 -0.1741
 4047TP3     H123960   2.379   4.257   8.989 -0.7124 -0.2197  0.9090
 4047TP3     H223961   2.362   4.138   8.896 -0.0543  1.4041 -1.3823
 4048TP3      O23962   5.097   2.918   9.835  0.0041  0.2463 -0.3289
 4048TP3     H123963   5.128   2.965   9.757  0.8626  0.3293  0.0604
 4048TP3     H223964   5.138   2.832   9.829  0.9844  0.6303  0.6065
 4049TP3      O23965   1.947   5.134   9.718  0.2680 -0.1341  0.6036
 4049TP3     H123966   1.920   5.068   9.654 -0.7534  1.2562 -0.4634
 4049TP3     H223967   2.038   5.112   9.738  1.1498  0.1977 -2.4556
 4050TP3      O23968   2.320   4.670   2.598 -0.0031  0.0203  0.2437
 4050TP3     H123969   2.346   4.749   2.646  3.0591 -0.5755 -0.2164
 4050TP3     H223970   2.290   4.702   2.513 -2.3995  0.8576  1.3183
 4051TP3      O23971   4.100   3.395   2.643 -0.0732 -0.2274  0.1243
 4051TP3     H123972   4.171   3.411   2.706  0.1386 -0.2616 -0.1012
 4051TP3     H223973   4.140   3.414   2.558 -0.7872  1.2687  0.1084
 4052TP3      O23974   2.710   3.083   0.649 -0.1747 -0.1968 -0.2191
 4052TP3     H123975   2.788   3.078   0.594 -1.2637  0.0947 -1.8625
 4052TP3     H223976   2.639   3.101   0.588 -1.3923  0.5888  1.3547
 4053TP3      O23977   0.652   4.865   3.359 -0.5212 -0.7255 -0.3507
 4053TP3     H123978   0.616   4.796   3.414 -1.3824 -0.2362 -0.2880
 4053TP3     H223979   0.604   4.943   3.384  0.8053  0.0284 -0.0449
 4054TP3      O23980   3.109   5.233   1.743  0.2837  0.2720  0.5770
 4054TP3     H123981   3.169   5.264   1.810 -0.2164  1.9781  0.2760
 4054TP3     H223982   3.119   5.295   1.671 -1.7455  0.5513  0.4870
 4055TP3      O23983   0.593   2.135   8.178  0.7529  0.1132  0.2243
 4055TP3     H123984   0.650   2.136   8.101  0.0626  3.5396 -0.4001
 4055TP3     H223985   0.654   2.135   8.252  1.4271 -2.4905 -0.2290
 4056TP3      O23986   3.178   5.050   3.398  0.2159 -0.5687 -0.1530
 4056TP3     H123987   3.255   5.105   3.406 -1.1799  1.9862 -2.4193
 4056TP3     H223988   3.115   5.088   3.460 -0.2475 -0.4854 -0.6541
 4057TP3      O23989   0.280   2.012   3.688  0.3809  0.3070 -0.5216
 4057TP3     H123990   0.249   2.037   3.775 -0.4926  1.2841 -1.0991
 4057TP3     H223991   0.353   2.071   3.671 -2.3838  3.5186 -2.3587
 4058TP3      O23992   1.955   1.619   1.663  0.5738  0.5817  0.0311
 4058TP3     H123993   1.868   1.657   1.670  0.2957  0.0741 -0.6281
 4058TP3     H223994   1.966   1.568   1.744  0.0002  0.1138 -0.1840
 4059TP3      O23995   1.693   4.745   1.704  0.0756 -0.3670 -0.2350
 4059TP3     H123996   1.696   4.837   1.730 -1.6048 -0.1178 -0.8140
 4059TP3     H223997   1.621   4.708   1.755  1.9651 -1.8874  1.4607
 4060TP3      O23998   4.031   4.538   8.355 -0.1382 -0.1941 -0.3037
 4060TP3     H123999   4.026   4.480   8.432  0.4464 -1.7117 -1.3668
 4060TP3     H224000   3.945   4.531   8.314  0.1171 -0.7645 -0.7462
 4061TP3      O24001   1.639   1.254   2.267 -0.1555  0.6688  0.0252
 4061TP3     H124002   1.729   1.251   2.236 -0.0196  0.1771  0.4573
 4061TP3     H224003   1.633   1.337   2.315 -0.7487  2.1175 -2.3981
 4062TP3      O24004   1.233   4.253   1.120 -0.1844 -0.2798  0.5615
 4062TP3     H124005   1.294   4.265   1.047  0.0469 -0.8454  0.6570
 4062TP3     H224006   1.213   4.342   1.149 -1.7771  0.0641 -1.4161
 4063TP3      O24007   4.958   0.194   0.750 -0.2327  0.4473 -0.6916
 4063TP3     H124008   4.929   0.104   0.738 -1.3555  0.3362  1.9569
 4063TP3     H224009   4.911   0.223   0.829  0.5919  3.1316 -1.0944
 4064TP3      O24010   2.846   0.236   3.249  0.1007 -0.2028  0.1946
 4064TP3     H124011   2.873   0.254   3.159  1.8877 -0.6560  0.6014
 4064TP3     H224012   2.850   0.141   3.257 -0.9387 -0.2381  0.5187
 4065TP3      O24013   2.841   4.808   0.599  0.0164 -0.0226  0.3553
 4065TP3     H124014   2.809   4.751   0.530 -0.2883 -1.1964  1.4199
 4065TP3     H224015   2.917   4.852   0.561 -1.7501  1.4937 -1.6310
 4066TP3      O24016   4.600   2.662   0.025  0.7769  0.0703  0.0567
 4066TP3     H124017   4.602   2.757   0.029 -0.3090  0.1184 -0.2867
 4066TP3     H224018   4.571   2.635   0.112  0.8100  0.0669  0.0667
 4067TP3      O24019   4.824   4.728   9.986  0.4094  0.1451  0.4689
 4067TP3     H124020   4.909   4.764   9.962 -0.6617  1.7463 -1.1978
 4067TP3     H224021   4.781   4.798  10.035 -1.9687  1.7049 -3.3775
 4068TP3      O24022   0.021   3.122   8.017  0.0215 -0.4917 -0.0003
 4068TP3     H124023   0.100   3.069   8.027  0.2357 -0.1890 -0.1122
 4068TP3     H224024  -0.015   3.129   8.105  0.9328  0.6439  0.2970
 4069TP3      O24025   3.722   1.142   1.452  0.1868  0.8557  0.0022
 4069TP3     H124026   3.725   1.110   1.362  1.2385  1.6453 -0.2666
 4069TP3     H224027   3.810   1.126   1.486 -0.2395  0.4289  0.9534
 4070TP3      O24028   2.248   1.476   3.265  0.4674 -0.1228  0.1227
 4070TP3     H124029   2.234   1.519   3.181 -2.7013  0.9586  1.0615
 4070TP3     H224030   2.209   1.389   3.255 -0.9201  0.4033  0.7449
 4071TP3      O24031   4.615   4.760   8.270 -0.6883  0.0378 -0.2071
 4071TP3     H124032   4.690   4.702   8.256 -1.6009 -1.2662  0.1158
 4071TP3     H224033   4.638   4.811   8.347 -0.3263 -0.7129  0.1948
 4072TP3      O24034   2.238   0.667   9.052 -0.1962 -0.5516  0.8737
 4072TP3     H124035   2.316   0.621   9.023 -0.8170 -0.8552 -0.3483
 4072TP3     H224036   2.258   0.760   9.037  0.1597 -0.5747  1.1760
 4073TP3      O24037   3.619   4.848   2.004  0.2231 -0.2774  0.0341
 4073TP3     H124038   3.558   4.774   2.006  0.7413 -0.7599 -0.9743
 4073TP3     H224039   3.615   4.879   1.913 -0.0419  0.9917  0.4620
 4074TP3      O24040   3.300   2.226   7.156 -0.5762 -0.0296  0.2136
 4074TP3     H124041   3.305   2.147   7.102 -0.3295 -0.5882  1.0229
 4074TP3     H224042   3.239   2.202   7.226  2.8322 -1.2395  3.1230
 4075TP3      O24043   0.649   2.363   7.721 -0.4407  0.4477 -0.0527
 4075TP3     H124044   0.561   2.333   7.701 -0.3011 -0.2027  0.2760
 4075TP3     H224045   0.691   2.374   7.636  0.1839 -2.3862 -0.2123
 4076TP3      O24046   4.637   0.606   2.169 -0.2507 -0.2737  0.0916
 4076TP3     H124047   4.599   0.534   2.118 -0.1896  0.4324 -0.9631
 4076TP3     H224048   4.592   0.601   2.253 -1.1212 -0.7878 -0.3911
 4077TP3      O24049   0.779   1.321   2.416 -0.1815  0.1420 -0.0813
 4077TP3     H124050   0.848   1.315   2.482  0.0417  1.2053 -0.2079
 4077TP3     H224051   0.823   1.306   2.333 -0.0807  0.9466 -0.1733
 4078TP3      O24052   3.507   2.655   2.924 -0.0254  0.2182  0.4218
 4078TP3     H124053   3.509   2.639   2.829  1.8917  1.8188  0.1267
 4078TP3     H224054   3.546   2.576   2.962 -2.1336 -1.0841  0.0582
 4079TP3      O24055   1.746   4.814   2.487 -0.8314  0.1923  0.1056
 4079TP3     H124056   1.705   4.901   2.491  2.0084  1.5871  1.3946
 4079TP3     H224057   1.762   4.791   2.578 -0.6215 -1.2566 -0.2770
 4080TP3      O24058   3.291   1.070   8.537  0.6859 -0.4840 -0.1304
 4080TP3     H124059   3.211   1.111   8.502  0.7949  2.2942  2.4337
 4080TP3     H224060   3.359   1.092   8.474  0.1059  0.5802 -0.4069
 4081TP3      O24061   4.070   3.012   0.915 -0.3248  0.2664  1.0653
 4081TP3     H124062   4.065   3.078   0.985  0.1578  0.0256  1.3330
 4081TP3     H224063   4.011   2.942   0.943  0.2634 -0.0664  1.4954
 4082TP3      O24064   1.958   4.895   2.146 -0.1258  0.2266 -0.1668
 4082TP3     H124065   1.871   4.932   2.131 -1.4435 -2.1029  1.2125
 4082TP3     H224066   1.969   4.831   2.076 -0.8724 -1.6163  1.3323
 4083TP3      O24067   4.838   4.066   1.873  0.0283  0.5955  0.6918
 4083TP3     H124068   4.761   4.008   1.876  0.9862 -0.8903 -1.1040
 4083TP3     H224069   4.836   4.102   1.784  1.6982  0.0726  0.4169
 4084TP3      O24070   0.772   3.380   0.667  0.2226 -0.2613 -0.1773
 4084TP3     H124071   0.822   3.438   0.725  0.3532  0.1364 -0.6781
 4084TP3     H224072   0.683   3.415   0.669  0.1192 -0.5368  0.1530
 4085TP3      O24073   2.275   3.519   1.805  0.3272 -0.0884  0.6015
 4085TP3     H124074   2.354   3.530   1.751 -0.7801  1.3746 -0.8407
 4085TP3     H224075   2.209   3.487   1.743 -0.7388  0.7271  1.2841
 4086TP3      O24076   1.532   5.248   7.286 -0.1938  0.2994  0.1413
 4086TP3     H124077   1.546   5.174   7.345 -1.6926  0.5958  0.9134
 4086TP3     H224078   1.509   5.208   7.202  1.4824 -0.1167 -0.1509
 4087TP3      O24079   1.484   0.459   0.483  0.7054  0.3909  0.1999
 4087TP3     H124080   1.475   0.474   0.577  1.4135  0.4106  0.2711
 4087TP3     H224081   1.485   0.547   0.445  0.0455  0.3724  0.1338
 4088TP3      O24082   0.641   5.253   8.923  0.0782 -0.4828 -0.2780
 4088TP3     H124083   0.715   5.205   8.961  1.1858  0.1043 -1.6020
 4088TP3     H224084   0.564   5.211   8.961  1.0724 -0.9416  1.3664
 4089TP3      O24085   1.862   4.372   2.617 -0.2352 -0.3687  0.0727
 4089TP3     H124086   1.898   4.316   2.548 -0.3441  1.3568 -1.4433
 4089TP3     H224087   1.768   4.356   2.613 -0.2807  0.0084 -0.4502
 4090TP3      O24088   0.710   4.493   8.475 -0.0489  0.3060  0.6424
 4090TP3     H124089   0.660   4.484   8.556  1.3331  3.1120  1.9677
 4090TP3     H224090   0.649   4.534   8.414 -0.6450 -0.3968  0.7481
 4091TP3      O24091   0.639   3.986   1.370  0.2531  0.3013 -0.5911
 4091TP3     H124092   0.567   4.044   1.394  1.5742  1.5428  0.4703
 4091TP3     H224093   0.617   3.903   1.412 -1.5318  0.0336 -1.9286
 4092TP3      O24094   4.245   3.057  10.065 -0.1786  0.4887 -0.0050
 4092TP3     H124095   4.300   3.116  10.013  0.4784  0.2938  0.4505
 4092TP3     H224096   4.248   2.974  10.016  1.0805  0.0759  0.7124
 4093TP3      O24097   0.672   0.487   9.080  0.4352 -0.1255  0.2560
 4093TP3     H124098   0.596   0.437   9.052 -0.1899 -0.1883  1.9852
 4093TP3     H224099   0.677   0.560   9.017 -1.1445 -0.0364  0.2124
 4094TP3      O24100   4.728   0.473   7.927  0.4619 -0.1656  0.1227
 4094TP3     H124101   4.766   0.558   7.949 -1.2769  0.8037 -0.3516
 4094TP3     H224102   4.770   0.411   7.986  0.5632  1.2989  1.6748
 4095TP3      O24103   5.277   0.656   1.194  0.2184 -0.2812 -0.1486
 4095TP3     H124104   5.233   0.710   1.259 -1.4463 -0.8330 -0.7729
 4095TP3     H224105   5.324   0.719   1.138 -3.3840  0.8747 -2.1788
 4096TP3      O24106   2.988   4.424   7.853 -0.3473 -0.5791  0.2680
 4096TP3     H124107   2.906   4.384   7.882 -0.7248 -0.6819 -0.8881
 4096TP3     H224108   3.012   4.375   7.775  0.8429 -0.5612  0.6094
 4097TP3      O24109   3.769   0.677   8.245  0.2608  0.1108 -0.2389
 4097TP3     H124110   3.787   0.677   8.151  0.7899  1.1021 -0.1552
 4097TP3     H224111   3.682   0.717   8.252 -0.0360 -0.5090 -0.3413
 4098TP3      O24112   0.457   1.004   1.876 -0.1426  0.1988 -0.4439
 4098TP3     H124113   0.434   1.094   1.852 -1.1559 -0.2500 -1.2042
 4098TP3     H224114   0.486   1.010   1.967 -0.3595  1.2641 -0.4358
 4099TP3      O24115   1.992   1.654   9.995  0.4260  0.3753  0.1189
 4099TP3     H124116   2.012   1.669  10.087  1.3610 -2.2589  0.4491
 4099TP3     H224117   1.899   1.631   9.995  0.5156 -0.0052  0.4816
 4100TP3      O24118   1.510   5.152   2.812 -0.1768 -0.3945  0.0515
 4100TP3     H124119   1.435   5.169   2.870 -0.6563  1.7212 -1.0775
 4100TP3     H224120   1.577   5.116   2.870 -0.7624  1.2666  1.8724
 4101TP3      O24121   3.221   1.270   7.821  0.1937 -1.2908  0.0357
 4101TP3     H124122   3.252   1.360   7.808 -1.3006 -0.6409  0.6890
 4101TP3     H224123   3.268   1.219   7.755  1.2811 -0.0869 -0.1669
 4102TP3      O24124   3.295   1.178   8.784  0.3468  0.3701 -0.1062
 4102TP3     H124125   3.321   1.118   8.713  1.7035  1.1166 -0.2833
 4102TP3     H224126   3.326   1.263   8.754 -0.6666  0.9927  0.6006
 4103TP3      O24127   1.108   4.729   9.153 -0.3031  0.5434  0.5854
 4103TP3     H124128   1.124   4.729   9.058 -1.1396  0.8192  0.4313
 4103TP3     H224129   1.174   4.669   9.188  0.4882  1.0068 -0.0827
 4104TP3      O24130   1.722   5.031   2.129  0.1349  0.1507  0.0910
 4104TP3     H124131   1.632   5.001   2.144  0.7304 -0.8170  2.0653
 4104TP3     H224132   1.725   5.119   2.165  0.3432 -0.4186  1.5523
 4105TP3      O24133   0.809   1.699   3.137 -0.2535 -0.3885 -0.2872
 4105TP3     H124134   0.775   1.615   3.109 -0.4496 -0.5051  0.2904
 4105TP3     H224135   0.739   1.737   3.191 -1.2997  1.3189 -2.6367
 4106TP3      O24136   4.706   3.900   8.096 -0.2377  0.1307 -0.6280
 4106TP3     H124137   4.719   3.937   8.009 -0.3017 -1.3125 -1.2814
 4106TP3     H224138   4.715   3.974   8.155 -0.7176  1.2375 -1.8980
 4107TP3      O24139   4.477   4.197   3.102  0.1180 -0.5991  0.1526
 4107TP3     H124140   4.396   4.236   3.135 -0.5944 -2.6489  0.9918
 4107TP3     H224141   4.474   4.106   3.133  3.9250 -0.1639  2.4958
 4108TP3      O24142   1.872   3.157   0.346 -0.7163  0.5792  0.3845
 4108TP3     H124143   1.843   3.198   0.264  1.4953  1.1880 -0.1568
 4108TP3     H224144   1.881   3.230   0.407 -1.6064  0.2233  0.9496
 4109TP3      O24145   0.675   0.293   1.209  0.0026 -0.4435  0.1829
 4109TP3     H124146   0.628   0.241   1.274  1.7772 -2.5902 -0.1189
 4109TP3     H224147   0.767   0.276   1.228  0.5866  0.0580 -1.9578
 4110TP3      O24148   1.526   3.255   0.311  0.0871 -0.6427 -0.1675
 4110TP3     H124149   1.457   3.190   0.298  0.7748 -1.7176  1.2553
 4110TP3     H224150   1.542   3.292   0.224 -3.3903  0.8344 -0.3348
 4111TP3      O24151   4.077   3.564   8.602  0.0901  0.1672 -0.4689
 4111TP3     H124152   4.006   3.555   8.539  0.6371 -0.3154 -1.0252
 4111TP3     H224153   4.156   3.572   8.548  0.4947  0.3861  0.1444
 4112TP3      O24154   5.260   4.131   3.430  0.3684  0.0639  1.0508
 4112TP3     H124155   5.245   4.224   3.411  2.5283  0.1681 -0.4450
 4112TP3     H224156   5.207   4.084   3.366  0.7863  0.2952  0.5340
 4113TP3      O24157   2.954   4.067   0.225 -0.0322  0.2143  0.0922
 4113TP3     H124158   2.889   4.104   0.164 -1.6841 -0.1033  1.5697
 4113TP3     H224159   2.901   4.022   0.291  1.7014  0.1896  1.5368
 4114TP3      O24160   1.003   1.213   9.340  0.3125  0.1203 -0.1392
 4114TP3     H124161   1.056   1.248   9.412  0.9824 -2.7258  0.8811
 4114TP3     H224162   1.060   1.216   9.264  0.7962  0.1009  0.2173
 4115TP3      O24163   1.885   4.281   7.722  0.2075  0.2343  0.0906
 4115TP3     H124164   1.792   4.261   7.732 -0.2976  1.6012 -1.5255
 4115TP3     H224165   1.923   4.200   7.687 -0.3878 -0.2954  0.6583
 4116TP3      O24166   4.485   3.186   7.318  0.2416  0.3813 -0.6724
 4116TP3     H124167   4.524   3.162   7.403 -0.6813 -0.3004 -0.4310
 4116TP3     H224168   4.507   3.113   7.261 -0.4125  0.1451 -0.6213
 4117TP3      O24169   4.619   2.802   0.297  0.6875 -0.1353  0.5642
 4117TP3     H124170   4.622   2.858   0.375  0.9741  1.1778 -0.3437
 4117TP3     H224171   4.626   2.864   0.224  0.8047 -1.3680 -0.4949
 4118TP3      O24172   2.747   2.354   2.066  0.3650 -0.5857  0.5741
 4118TP3     H124173   2.842   2.353   2.052  0.2069 -1.1141 -0.5651
 4118TP3     H224174   2.711   2.316   1.986 -0.8146 -0.3706  0.9909
 4119TP3      O24175   5.093   5.265   0.159  0.4894  0.2105 -0.5204
 4119TP3     H124176   5.079   5.314   0.078  2.6019 -0.4984 -1.3825
 4119TP3     H224177   5.167   5.308   0.201  1.0819 -0.9752 -0.2924
 4120TP3      O24178   2.503   4.261   0.092  0.5265 -0.8601 -0.0571
 4120TP3     H124179   2.498   4.229   0.182 -1.6886 -0.0066  0.1914
 4120TP3     H224180   2.488   4.355   0.099 -2.6375 -1.1079 -1.4269
 4121TP3      O24181   4.550   2.766   1.869 -0.2534 -0.4914  0.2450
 4121TP3     H124182   4.514   2.852   1.847  2.3025  0.7475  0.4373
 4121TP3     H224183   4.493   2.703   1.825 -0.5918  1.4417 -2.2906
 4122TP3      O24184   4.175   1.856   1.331 -0.5270  0.2090 -0.0441
 4122TP3     H124185   4.197   1.765   1.346  2.1819  0.8905  0.5987
 4122TP3     H224186   4.143   1.887   1.416  2.2197  0.7377  0.8937
 4123TP3      O24187   2.559   2.510   9.572  0.2285  0.0538  0.3247
 4123TP3     H124188   2.600   2.515   9.658  4.0707  0.2958 -1.3216
 4123TP3     H224189   2.569   2.418   9.546 -3.4272 -0.7186  1.0727
 4124TP3      O24190   3.722   4.807   0.871 -0.7031  0.1604  0.0520
 4124TP3     H124191   3.747   4.790   0.962 -0.2213 -0.3657 -0.1708
 4124TP3     H224192   3.660   4.737   0.850  1.4221 -1.5359 -0.9267
 4125TP3      O24193   3.785   2.613   2.448  0.1886 -0.0030  0.5536
 4125TP3     H124194   3.734   2.686   2.411  1.2487 -0.6257 -2.4816
 4125TP3     H224195   3.790   2.550   2.376  1.6514 -1.8465  2.1741
 4126TP3      O24196   4.973   2.362   7.796 -0.1169 -0.1158  0.2822
 4126TP3     H124197   5.060   2.351   7.756 -0.5671  0.1315 -0.8134
 4126TP3     H224198   4.953   2.275   7.832  0.0940 -0.5044 -0.5052
 4127TP3      O24199   3.989   1.323   9.887  0.2897 -0.0006  0.8335
 4127TP3     H124200   3.958   1.357   9.971  0.7410  0.3807  0.8477
 4127TP3     H224201   3.979   1.395   9.826  0.3666 -0.1385  0.6551
 4128TP3      O24202   4.184   2.179   1.678  0.0030  0.5809  0.3233
 4128TP3     H124203   4.251   2.230   1.725 -0.3948  0.3415  1.1618
 4128TP3     H224204   4.138   2.244   1.624  1.5458  0.5980 -1.0465
 4129TP3      O24205   0.055   3.551   1.121  0.0095  0.1941  0.3020
 4129TP3     H124206   0.094   3.606   1.054  0.3322  0.3514  0.6167
 4129TP3     H224207   0.113   3.560   1.197  0.0179 -0.5003  0.3892
 4130TP3      O24208   1.998   0.579   1.606 -0.5480 -0.0738  0.6045
 4130TP3     H124209   1.913   0.604   1.568 -0.7250 -2.0126 -0.4248
 4130TP3     H224210   2.054   0.564   1.531 -0.1795 -1.6494  1.1503
 4131TP3      O24211   4.130   0.993   2.286  0.5309 -0.1510  0.1139
 4131TP3     H124212   4.106   0.901   2.286  0.4041 -0.1186  0.5285
 4131TP3     H224213   4.187   1.004   2.362 -0.7065  0.4320  0.9799
 4132TP3      O24214   1.790   1.831   8.412  0.6415  0.0449 -0.5538
 4132TP3     H124215   1.777   1.905   8.353 -1.5033  0.8867  0.8264
 4132TP3     H224216   1.817   1.871   8.494 -2.2223 -0.3851  0.7349
 4133TP3      O24217   0.495   2.734   1.220  0.5130 -0.4952 -0.5551
 4133TP3     H124218   0.426   2.673   1.245  0.7717 -1.0385 -1.1332
 4133TP3     H224219   0.555   2.735   1.294  0.5027 -0.9471 -0.5367
 4134TP3      O24220   2.783   3.154  10.011 -0.5172  0.0258  0.0060
 4134TP3     H124221   2.745   3.113  10.089 -2.0507  0.9162 -0.2286
 4134TP3     H224222   2.877   3.140  10.020 -0.7667 -0.9612  1.3901
 4135TP3      O24223   2.237   5.206   1.088 -0.2461  0.1200 -0.1751
 4135TP3     H124224   2.237   5.264   1.164  0.1608 -0.4395  0.2606
 4135TP3     H224225   2.225   5.118   1.125  0.4140 -0.2065 -0.7126
 4136TP3      O24226   2.920   2.253   1.190 -0.6731  0.3610 -0.3107
 4136TP3     H124227   2.909   2.216   1.277 -2.1739  0.6618 -0.3387
 4136TP3     H224228   2.991   2.316   1.199  1.6974 -2.1773 -0.1815
 4137TP3      O24229   0.786   2.071   8.377 -0.0689 -0.6429  0.2005
 4137TP3     H124230   0.756   2.022   8.453 -0.8407 -0.3919  0.0619
 4137TP3     H224231   0.869   2.029   8.353 -1.1093 -2.4452 -0.4373
 4138TP3      O24232   3.282   0.627   3.117  0.1254 -0.1308 -0.1216
 4138TP3     H124233   3.187   0.625   3.109  0.0139 -0.4109  0.9959
 4138TP3     H224234   3.312   0.546   3.076 -0.0716  0.1709 -0.8769
 4139TP3      O24235   4.077   2.627   2.278  0.2014  0.1113 -0.7094
 4139TP3     H124236   4.168   2.629   2.250  0.7359  0.3399  0.9619
 4139TP3     H224237   4.047   2.717   2.268  0.2151  0.0761 -1.0747
 4140TP3      O24238   0.996   4.105  10.067 -0.2471 -0.2504  0.2155
 4140TP3     H124239   0.910   4.079  10.035 -0.0625 -1.9035  0.9407
 4140TP3     H224240   1.004   4.197  10.042 -2.5119  0.1620  0.7616
 4141TP3      O24241   3.942   4.195   2.179 -0.0022 -0.4721 -0.4244
 4141TP3     H124242   3.925   4.285   2.152  2.3789  1.4056  3.4396
 4141TP3     H224243   3.889   4.184   2.259  1.3927 -1.6765  0.3852
 4142TP3      O24244   1.272   1.886   1.958  0.0327  0.3227  0.7289
 4142TP3     H124245   1.294   1.813   2.017  2.0635 -0.2225 -0.5870
 4142TP3     H224246   1.177   1.894   1.964  0.0853 -0.2162  3.4459
 4143TP3      O24247   5.203   3.625   9.907  0.5065  0.0235 -0.1615
 4143TP3     H124248   5.189   3.706   9.858  0.9304 -0.2988 -0.8404
 4143TP3     H224249   5.228   3.561   9.840  1.7038 -0.2837  0.5601
 4144TP3      O24250   4.025   2.410   1.883  0.1434  0.5302  0.2691
 4144TP3     H124251   3.964   2.339   1.864  0.3156 -0.0644  1.7733
 4144TP3     H224252   4.004   2.435   1.973  1.9874  0.4306  0.7595
 4145TP3      O24253   1.610   2.237   0.349  0.0661  0.6199 -0.2826
 4145TP3     H124254   1.580   2.325   0.326 -2.8306  0.6670  2.8941
 4145TP3     H224255   1.540   2.180   0.319 -2.3021  0.4098  4.6899
 4146TP3      O24256   1.161   1.423   9.976 -0.5109 -0.4732  0.3693
 4146TP3     H124257   1.224   1.438  10.046 -0.2468  1.3204 -0.2164
 4146TP3     H224258   1.119   1.508   9.962 -0.9300 -0.9067 -1.2858
 4147TP3      O24259   3.462   4.119   0.689 -0.1713 -0.2751  0.2630
 4147TP3     H124260   3.394   4.054   0.707  0.3743 -0.5533  1.3713
 4147TP3     H224261   3.415   4.190   0.645 -0.7231 -1.5449 -1.3019
 4148TP3      O24262   0.276   4.876   6.931 -0.5538  0.2320  0.2130
 4148TP3     H124263   0.249   4.933   7.003  0.8000 -0.4180  1.2744
 4148TP3     H224264   0.372   4.880   6.932 -0.4731 -1.0674 -0.4928
 4149TP3      O24265   4.454   0.462   1.619  0.0273  0.4386 -0.4188
 4149TP3     H124266   4.547   0.465   1.596  0.5670 -1.0942  1.3581
 4149TP3     H224267   4.425   0.376   1.589 -0.9305  1.0284 -1.2416
 4150TP3      O24268   1.337   0.482   0.161  0.1552  0.4431  0.0422
 4150TP3     H124269   1.355   0.565   0.205  0.1652  0.3476  0.2208
 4150TP3     H224270   1.383   0.488   0.078  1.3582  0.0463  0.6572
 4151TP3      O24271   3.030   2.000   2.258 -1.1785 -0.1024  0.3115
 4151TP3     H124272   3.013   2.011   2.164 -1.5169  1.6529  0.5364
 4151TP3     H224273   2.942   1.997   2.297 -1.0361 -0.8485  0.5750
 4152TP3      O24274   2.999   2.013   1.064  0.4983  0.2478 -0.1405
 4152TP3     H124275   3.012   2.101   1.099  0.9579  0.1039  0.0530
 4152TP3     H224276   2.949   1.968   1.132  2.7776 -0.5309  1.1182
 4153TP3      O24277   3.440   5.117   0.180  0.6364  0.0724 -0.4213
 4153TP3     H124278   3.426   5.068   0.099 -2.3715 -0.3857  0.2791
 4153TP3     H224279   3.353   5.146   0.207  1.7712  1.9672  1.6154
 4154TP3      O24280   3.672   4.896   0.116 -0.4096 -0.1640  0.1223
 4154TP3     H124281   3.581   4.914   0.095 -0.5709 -0.8222  0.2138
 4154TP3     H224282   3.670   4.810   0.159  0.0073  0.7282  2.0472
 4155TP3      O24283   3.320   3.119   1.277  0.7706  0.0165 -0.2582
 4155TP3     H124284   3.344   3.067   1.201 -1.1443 -1.2720 -0.0567
 4155TP3     H224285   3.360   3.074   1.352  1.5170  0.4974 -0.3685
 4156TP3      O24286   5.210   2.710   1.986 -0.4120  0.0627  0.0740
 4156TP3     H124287   5.169   2.661   1.915  1.1077 -0.3473 -0.5466
 4156TP3     H224288   5.162   2.683   2.065 -0.8471 -0.9399 -0.5205
 4157TP3      O24289   4.234   3.147   7.570 -0.2164 -0.1421  0.4551
 4157TP3     H124290   4.275   3.166   7.654 -0.2636  1.0715  0.2253
 4157TP3     H224291   4.214   3.233   7.533 -2.1760 -0.6530  0.1759
 4158TP3      O24292   3.290   2.108   2.970  0.5772 -0.0341  0.4107
 4158TP3     H124293   3.283   2.185   3.027  1.3696  0.3269  0.0363
 4158TP3     H224294   3.332   2.141   2.891 -0.9167 -0.4256 -0.5933
 4159TP3      O24295   0.800   0.508   0.434  0.1200  0.5007 -0.3255
 4159TP3     H124296   0.736   0.579   0.433  1.5150  1.8531  1.2594
 4159TP3     H224297   0.806   0.482   0.525 -0.7742 -2.1120 -0.9478
 4160TP3      O24298   4.716   1.359   1.133  0.3441  0.3216  0.2414
 4160TP3     H124299   4.714   1.318   1.219 -0.9778  1.1850  0.6695
 4160TP3     H224300   4.630   1.340   1.095  0.5827  0.6862 -0.5219
 4161TP3      O24301   4.109   0.558   9.033  0.0625 -0.6321  0.4174
 4161TP3     H124302   4.042   0.513   8.981  0.7028  0.3192 -1.3176
 4161TP3     H224303   4.064   0.634   9.069  0.3560  0.5068 -1.4853
 4162TP3      O24304   4.518   3.818   2.227  0.5781  0.4943  0.3417
 4162TP3     H124305   4.584   3.784   2.166 -1.0112 -1.3577 -0.4709
 4162TP3     H224306   4.477   3.890   2.180  2.7688  2.5457  1.3585
 4163TP3      O24307   2.477   3.659   2.618  0.0711  0.1986 -0.2503
 4163TP3     H124308   2.545   3.712   2.575 -2.1668  3.2956 -0.3190
 4163TP3     H224309   2.468   3.698   2.705 -0.3372 -1.4420  0.4808
 4164TP3      O24310   3.817   5.043   1.731  0.3482 -0.2741 -0.1904
 4164TP3     H124311   3.885   4.995   1.684 -0.2363 -1.3688  0.0367
 4164TP3     H224312   3.744   4.981   1.736  0.0684  0.1422  1.3301
 4165TP3      O24313   1.332   4.234   0.626 -0.0675  0.7101 -0.3799
 4165TP3     H124314   1.357   4.143   0.609  0.8735  0.5802  1.4514
 4165TP3     H224315   1.248   4.245   0.582 -0.0750 -0.9691 -0.8415
 4166TP3      O24316   3.055   0.914   7.777  0.1154 -0.3327  0.2345
 4166TP3     H124317   3.115   0.848   7.743 -1.3553 -1.5455 -0.1238
 4166TP3     H224318   3.057   0.983   7.710  0.7172 -0.5905 -0.0249
 4167TP3      O24319   4.387   1.206   1.934 -0.1282  0.3604 -0.1741
 4167TP3     H124320   4.462   1.245   1.979 -0.1335  1.4032 -1.0367
 4167TP3     H224321   4.369   1.125   1.983 -1.8115  2.6544  3.3965
 4168TP3      O24322   0.865   1.243   1.280 -0.0140 -0.1059  0.1606
 4168TP3     H124323   0.821   1.328   1.291 -0.4385 -0.3899  0.6944
 4168TP3     H224324   0.842   1.194   1.359 -0.3364 -0.9670 -0.4579
 4169TP3      O24325   3.470   0.999   3.498 -0.0633  0.4042  0.1630
 4169TP3     H124326   3.502   1.082   3.534  0.1191  0.3440  0.1422
 4169TP3     H224327   3.550   0.950   3.477 -0.1574  0.5509 -0.5826
 4170TP3      O24328   0.016   0.846   0.134 -0.0444  0.1682  0.0474
 4170TP3     H124329  -0.027   0.931   0.140  1.5835  1.0401  0.0276
 4170TP3     H224330   0.099   0.858   0.179  1.7427 -0.3709 -2.8518
 4171TP3      O24331   0.078   2.329   2.938  0.3372 -0.2463 -0.0975
 4171TP3     H124332   0.037   2.255   2.892  2.4142 -1.1727 -0.5652
 4171TP3     H224333   0.094   2.393   2.869  0.0104 -0.0320  0.0237
 4172TP3      O24334   3.621   0.199   2.174  0.0598  0.1778 -0.4739
 4172TP3     H124335   3.670   0.226   2.251 -0.9429 -1.2559  0.7322
 4172TP3     H224336   3.530   0.204   2.201 -0.2638 -3.6680 -0.2427
 4173TP3      O24337   4.099   3.701   2.117  0.3669  0.3618 -0.4209
 4173TP3     H124338   4.051   3.628   2.078  1.0719  0.0142 -0.6505
 4173TP3     H224339   4.065   3.779   2.073 -1.6220  0.3742  1.0180
 4174TP3      O24340   1.678   4.529   0.815 -0.3261 -0.4522 -0.2502
 4174TP3     H124341   1.723   4.602   0.771  0.6343 -0.4998  0.6362
 4174TP3     H224342   1.585   4.546   0.798 -0.0334 -0.0745 -1.6766
 4175TP3      O24343   3.132   5.250   9.693 -0.0729 -0.2508  0.7800
 4175TP3     H124344   3.088   5.286   9.770 -0.7835 -1.3139  0.8998
 4175TP3     H224345   3.173   5.325   9.651 -2.7953  1.0134  0.1447
 4176TP3      O24346   1.589   2.783   0.667  0.2294 -0.2972  0.0220
 4176TP3     H124347   1.565   2.870   0.698  1.9286  0.7496 -1.3545
 4176TP3     H224348   1.683   2.776   0.687  0.6558 -0.8347 -1.9215
 4177TP3      O24349   0.988   2.429   9.391 -0.0280 -0.2911 -0.3077
 4177TP3     H124350   0.978   2.442   9.486  0.7678  2.0832 -0.4864
 4177TP3     H224351   0.908   2.465   9.354 -0.7297 -2.0048 -0.5434
 4178TP3      O24352   1.723   0.301   0.829 -0.3614  0.1736  0.1803
 4178TP3     H124353   1.630   0.289   0.851  0.0463  0.0086  1.9839
 4178TP3     H224354   1.764   0.220   0.858  0.4062  0.4097 -0.2472
 4179TP3      O24355   0.872   0.357   1.770 -0.5611 -0.3333  1.3485
 4179TP3     H124356   0.928   0.408   1.828 -1.2091  0.5026  1.2573
 4179TP3     H224357   0.800   0.326   1.825 -1.2459  0.5714  0.9788
 4180TP3      O24358   3.123   3.263   2.275 -0.5299  0.3425 -0.5668
 4180TP3     H124359   3.130   3.248   2.181 -0.5991  1.9367 -0.8640
 4180TP3     H224360   3.066   3.193   2.307 -0.5865 -0.1589 -1.7212
 4181TP3      O24361   2.005   2.466   0.716  0.2316  0.4999  0.6313
 4181TP3     H124362   2.024   2.405   0.787 -1.6309  1.4145  2.0027
 4181TP3     H224363   2.090   2.483   0.675  1.1795 -0.9179  1.9066
 4182TP3      O24364   2.981   4.722   1.033 -0.5248  1.0403 -0.4349
 4182TP3     H124365   2.917   4.787   1.061 -0.4808  0.6371  0.6981
 4182TP3     H224366   3.061   4.771   1.020 -0.3469  1.1669  0.9533
 4183TP3      O24367   1.690   1.887   8.076 -0.3193  0.1946  0.3716
 4183TP3     H124368   1.733   1.951   8.133 -0.2160 -0.3805  0.9495
 4183TP3     H224369   1.750   1.878   8.001 -1.9239  3.3617 -1.5230
 4184TP3      O24370   2.043   0.688   2.680 -0.7937 -0.6415 -0.5027
 4184TP3     H124371   2.079   0.751   2.743 -0.8261 -1.2238  0.1021
 4184TP3     H224372   2.101   0.695   2.604 -0.4142 -0.3502 -0.1917
 4185TP3      O24373   2.768   5.100   3.160  0.0253  0.0318  0.5891
 4185TP3     H124374   2.775   5.164   3.231 -1.5899  0.1859  0.6496
 4185TP3     H224375   2.683   5.119   3.120  1.3703  0.7403 -2.1643
 4186TP3      O24376   2.947   3.122   0.169  0.2134 -0.0282 -0.4053
 4186TP3     H124377   3.007   3.053   0.197 -1.2600 -1.6034 -0.9309
 4186TP3     H224378   2.923   3.168   0.249  0.3189 -0.8936  0.1293
 4187TP3      O24379   2.032   1.605   3.458 -0.1017  0.4742 -0.7134
 4187TP3     H124380   2.099   1.566   3.401 -0.5726 -0.0870 -0.8923
 4187TP3     H224381   1.961   1.542   3.457 -0.5822  1.0066 -0.4146
 4188TP3      O24382   1.645   5.002   1.786 -0.1259 -0.0101  0.0661
 4188TP3     H124383   1.603   5.027   1.704  1.1024  0.1519 -0.5435
 4188TP3     H224384   1.575   5.002   1.851 -0.8312  1.3599 -0.6709
 4189TP3      O24385   4.532   3.819   6.876 -0.0654  0.3295  0.5997
 4189TP3     H124386   4.564   3.729   6.870 -1.8302 -0.2291 -1.4051
 4189TP3     H224387   4.572   3.864   6.802  0.0508  0.9752  1.0437
 4190TP3      O24388   0.418   3.235   3.009 -0.0527  0.1391  0.0343
 4190TP3     H124389   0.390   3.306   3.066  0.2323 -1.3763  2.1500
 4190TP3     H224390   0.368   3.159   3.038 -0.2011 -0.6302 -2.0270
 4191TP3      O24391   5.242   1.726   0.487  0.1556  0.3281  0.5123
 4191TP3     H124392   5.300   1.747   0.560 -0.6419 -0.2872  1.3531
 4191TP3     H224393   5.293   1.746   0.409  2.7539 -3.0292  1.0800
 4192TP3      O24394   3.450   2.086   0.999 -0.1884 -0.3620 -0.2557
 4192TP3     H124395   3.478   2.063   0.911  0.3615  2.7634 -1.0199
 4192TP3     H224396   3.532   2.107   1.046 -0.5822 -0.4938  0.5143
 4193TP3      O24397   4.595   1.325   2.054 -0.0857  0.5743 -0.1375
 4193TP3     H124398   4.593   1.292   2.144 -0.1174  0.1446 -0.2956
 4193TP3     H224399   4.685   1.310   2.026 -0.3687 -0.3556 -0.5725
 4194TP3      O24400   0.621   1.388   8.631 -0.0239 -0.4210 -0.5017
 4194TP3     H124401   0.582   1.385   8.718 -0.3492  2.7362 -0.4155
 4194TP3     H224402   0.706   1.430   8.645  0.9886 -2.0532 -1.4458
 4195TP3      O24403   1.105   2.490   9.968  0.6150  0.6465 -0.0125
 4195TP3     H124404   1.157   2.510   9.890 -0.1072  0.6817 -0.4932
 4195TP3     H224405   1.143   2.409  10.002  0.6345  0.3707 -0.6776
 4196TP3      O24406   1.377   0.767   0.018  0.0818  0.2772  0.1859
 4196TP3     H124407   1.456   0.767   0.072  0.4592 -0.5237 -0.3342
 4196TP3     H224408   1.377   0.681  -0.024 -1.8733 -0.3402  1.3144
 4197TP3      O24409   1.252   0.769   1.443 -0.2780  0.7178 -0.1034
 4197TP3     H124410   1.236   0.840   1.505 -0.9197 -0.0478  0.6304
 4197TP3     H224411   1.167   0.752   1.402  0.1602  1.2907 -1.3071
 4198TP3      O24412   0.626   4.661   2.080  0.3271  0.1646 -0.4714
 4198TP3     H124413   0.695   4.606   2.044  0.8766  1.0478 -0.7919
 4198TP3     H224414   0.629   4.741   2.028  0.0515  0.8179  0.4868
 4199TP3      O24415   0.941   1.333   9.730  0.5769  0.1654  0.0247
 4199TP3     H124416   0.926   1.238   9.732 -1.1569  0.4029 -0.3277
 4199TP3     H224417   1.006   1.345   9.660 -0.2801 -0.6521 -0.9532
 4200TP3      O24418   1.208   1.695  10.089  0.1643 -0.1410 -0.0846
 4200TP3     H124419   1.244   1.776  10.053  1.8707 -0.5179  0.6724
 4200TP3     H224420   1.282   1.634  10.089 -1.0007 -1.6005 -0.3162
 4201TP3      O24421   3.517   2.329   7.034 -0.4295 -0.6340 -0.8341
 4201TP3     H124422   3.492   2.329   6.941 -1.7182 -1.2455 -0.5165
 4201TP3     H224423   3.444   2.286   7.078  1.0919 -2.2550  0.2371
 4202TP3      O24424   0.941   0.735   1.087 -0.5374 -0.3131 -0.4911
 4202TP3     H124425   0.864   0.766   1.040  0.0613  0.1961 -1.1663
 4202TP3     H224426   0.974   0.662   1.035  0.9683  1.1638 -1.7386
 4203TP3      O24427   2.401   4.555   1.849  0.1018  0.2793 -0.0182
 4203TP3     H124428   2.324   4.501   1.827  0.6481  0.3158 -2.3151
 4203TP3     H224429   2.475   4.507   1.812  1.1023  0.6788  1.4000
 4204TP3      O24430   3.178   2.976   8.877  0.3334  0.2680 -0.5526
 4204TP3     H124431   3.166   2.945   8.787  0.0700 -2.5251  0.3430
 4204TP3     H224432   3.272   2.994   8.884  0.3384  0.5910 -1.4187
 4205TP3      O24433   1.131   4.890   2.074  0.2118 -0.0682 -0.1383
 4205TP3     H124434   1.077   4.812   2.058  1.2256 -0.8706  0.2663
 4205TP3     H224435   1.211   4.856   2.114  0.6643  1.1915  0.0630
 4206TP3      O24436   5.083   0.390   0.094 -0.5309 -0.2631  0.3581
 4206TP3     H124437   5.125   0.456   0.040 -0.5182  0.2232  0.9634
 4206TP3     H224438   5.093   0.309   0.044 -0.6973  0.2131 -0.4685
 4207TP3      O24439   3.604   0.154   2.515 -0.5085  1.1800 -0.7374
 4207TP3     H124440   3.580   0.062   2.527  0.4052  1.0870  0.5287
 4207TP3     H224441   3.541   0.187   2.450 -1.5597 -0.0320 -0.3668
 4208TP3      O24442   4.393   3.498   1.196 -0.1531  0.2828 -0.3796
 4208TP3     H124443   4.310   3.471   1.157  0.0311  1.8557 -2.0241
 4208TP3     H224444   4.409   3.435   1.266 -1.7893 -1.1869 -1.2549
 4209TP3      O24445   4.372   1.693   3.174 -0.5221  0.3140 -0.2434
 4209TP3     H124446   4.356   1.786   3.163  0.2693  0.3709 -1.0373
 4209TP3     H224447   4.351   1.676   3.266 -2.3604  0.8976 -0.5054
 4210TP3      O24448   3.742   4.492   1.432 -0.1405 -0.2799  0.0744
 4210TP3     H124449   3.681   4.445   1.489 -0.5011  1.9899  1.6759
 4210TP3     H224450   3.703   4.485   1.345 -1.3799 -0.9558  0.6534
 4211TP3      O24451   4.164   4.393   9.345 -0.2311  0.3032 -0.3094
 4211TP3     H124452   4.081   4.439   9.339  0.1043  0.8791 -0.6305
 4211TP3     H224453   4.158   4.341   9.425 -0.8538  0.4257 -0.2778
 4212TP3      O24454   2.157   4.010   2.299 -0.0601 -0.4984 -0.3236
 4212TP3     H124455   2.237   3.990   2.348  0.2662 -1.4185 -1.1966
 4212TP3     H224456   2.112   3.927   2.291  0.3835 -0.5980 -2.4067
 4213TP3      O24457   0.818   5.105   0.764  0.3111 -0.3251  0.3932
 4213TP3     H124458   0.733   5.149   0.759  1.0940  1.2380  0.1143
 4213TP3     H224459   0.875   5.158   0.709  1.8439 -0.3918  1.8430
 4214TP3      O24460   2.741   0.632   8.203 -0.3984 -0.1080 -0.5156
 4214TP3     H124461   2.791   0.551   8.208  3.2636  2.0134  0.8107
 4214TP3     H224462   2.715   0.639   8.111  0.2243 -2.1423 -0.8904
 4215TP3      O24463   2.011   0.542   0.528  0.0451  0.0739 -0.0670
 4215TP3     H124464   1.960   0.471   0.566  1.2102 -0.0505  1.3682
 4215TP3     H224465   2.082   0.498   0.480  0.8459  0.2438  0.9343
 4216TP3      O24466   0.158   3.488   2.952  0.1095  0.0908  0.6392
 4216TP3     H124467   0.188   3.458   2.866  1.7415  2.9830  0.0858
 4216TP3     H224468   0.234   3.479   3.009 -0.2302  0.4865  1.1669
 4217TP3      O24469   3.848   0.543   1.086 -0.0115 -0.5661 -0.4610
 4217TP3     H124470   3.832   0.523   1.179  0.8433 -0.0463 -0.1919
 4217TP3     H224471   3.771   0.508   1.041  0.3161 -2.3130  0.2532
 4218TP3      O24472   3.961   1.213   8.093  0.2752  0.1597 -0.1953
 4218TP3     H124473   3.938   1.124   8.120  1.9323 -0.6341 -1.2147
 4218TP3     H224474   3.973   1.261   8.175 -2.3052 -0.0230  0.3923
 4219TP3      O24475   4.696   3.766   7.474  0.1127  0.4432 -0.2489
 4219TP3     H124476   4.740   3.841   7.515 -0.8812  1.2748 -0.6568
 4219TP3     H224477   4.627   3.742   7.535 -0.1276  0.4317 -0.5216
 4220TP3      O24478   4.145   1.308   9.568  0.0310 -0.1945 -0.0851
 4220TP3     H124479   4.072   1.283   9.625  1.3987 -0.5776  1.5865
 4220TP3     H224480   4.147   1.240   9.500 -1.6227  0.2700 -0.6355
 4221TP3      O24481   3.159   0.079   0.127 -0.0231 -0.4714  0.7862
 4221TP3     H124482   3.162  -0.007   0.169  1.1251 -1.6362 -1.5124
 4221TP3     H224483   3.226   0.130   0.173  1.5933 -1.8845  0.1172
 4222TP3      O24484   3.507   2.996   2.271  0.1178  0.6254  0.5232
 4222TP3     H124485   3.544   3.060   2.210  0.6851 -1.0707 -0.9667
 4222TP3     H224486   3.432   2.959   2.224 -0.5762  0.5821  1.6158
 4223TP3      O24487   3.466   4.629   1.665 -0.2020  0.1159 -0.0478
 4223TP3     H124488   3.452   4.721   1.640 -0.1352 -0.3379 -1.8587
 4223TP3     H224489   3.379   4.590   1.659  0.1699 -0.5326 -2.0046
 4224TP3      O24490   2.711   4.666   1.854  0.6404 -0.3181  0.3935
 4224TP3     H124491   2.660   4.585   1.848 -0.2453  0.1572  1.2955
 4224TP3     H224492   2.795   4.640   1.892  1.5327 -1.2843 -2.0443
 4225TP3      O24493   2.415   2.008   2.092 -0.2428  0.3535  0.0012
 4225TP3     H124494   2.444   2.034   2.179  0.4092  0.9159 -0.3678
 4225TP3     H224495   2.495   2.010   2.039  0.0940 -3.3958  0.1260
 4226TP3      O24496   3.867   2.817   0.990  0.2672  0.0434 -0.7060
 4226TP3     H124497   3.835   2.789   0.904  0.7548 -0.3634 -0.7613
 4226TP3     H224498   3.810   2.889   1.014  1.0648  1.1892 -2.0665
 4227TP3      O24499   3.312   0.340   1.557 -0.1009  0.3154 -0.2852
 4227TP3     H124500   3.310   0.385   1.473  1.0284  0.2610 -0.3568
 4227TP3     H224501   3.309   0.410   1.622 -0.4982  0.3805 -0.3724
 4228TP3      O24502   4.930   2.410   1.075 -0.4643 -0.3675  0.1062
 4228TP3     H124503   4.993   2.446   1.137 -3.0295  2.1776  1.4503
 4228TP3     H224504   4.915   2.321   1.105  1.1993 -0.4743  0.7470
 4229TP3      O24505   2.393   0.184   0.025  0.0181 -0.3475  0.5460
 4229TP3     H124506   2.307   0.208   0.058 -0.1085 -0.8912  0.6245
 4229TP3     H224507   2.384   0.186  -0.070 -0.0617 -0.3352  0.5540
 4230TP3      O24508   4.937   3.569   9.779  0.0113  0.1798  0.1869
 4230TP3     H124509   4.940   3.649   9.727 -0.6705  0.3566  0.4170
 4230TP3     H224510   4.949   3.499   9.715  1.8925  0.4964  0.1340
 4231TP3      O24511   3.548   2.042   2.728  0.0426  0.2514 -0.1981
 4231TP3     H124512   3.625   2.056   2.784  0.1542  0.4070 -0.3909
 4231TP3     H224513   3.505   1.966   2.766  0.8990 -0.5227 -0.7563
 4232TP3      O24514   1.040   1.395   2.985 -0.2104  0.1921  0.1085
 4232TP3     H124515   0.972   1.435   2.931 -1.0481 -2.4688 -0.9537
 4232TP3     H224516   0.997   1.373   3.067 -0.3543 -0.4708 -0.1382
 4233TP3      O24517   2.896   0.892   9.219 -0.3917 -0.2738 -0.5338
 4233TP3     H124518   2.873   0.848   9.137 -0.0252 -1.0375 -0.2336
 4233TP3     H224519   2.829   0.960   9.229 -0.7381 -0.5061 -1.1987
 4234TP3      O24520   0.333   3.477   1.875  0.2744  0.1176  0.3143
 4234TP3     H124521   0.412   3.428   1.896  0.4267 -0.2497 -1.0375
 4234TP3     H224522   0.268   3.444   1.937  0.2925 -2.0574 -0.7121
 4235TP3      O24523   0.750   0.329   0.737 -0.0018 -0.4442  0.2811
 4235TP3     H124524   0.726   0.259   0.798 -0.7884  0.4951  1.1028
 4235TP3     H224525   0.739   0.409   0.789 -1.2195  0.4323 -1.2418
 4236TP3      O24526   0.131   2.280   3.512  0.3144  0.0475 -0.5559
 4236TP3     H124527   0.119   2.293   3.418  1.0425  0.6968 -0.5769
 4236TP3     H224528   0.208   2.333   3.533  1.7224 -2.0660 -0.0621
 4237TP3      O24529   2.090   2.721   1.077 -0.9687  0.2892  0.6518
 4237TP3     H124530   2.169   2.690   1.033 -1.6154 -0.6125  0.0833
 4237TP3     H224531   2.023   2.656   1.054 -2.4897  2.2728 -0.8698
 4238TP3      O24532   2.962   0.297   2.286 -0.8077 -0.4826 -0.4390
 4238TP3     H124533   3.002   0.233   2.226 -0.7739 -0.4707 -0.4294
 4238TP3     H224534   3.020   0.298   2.362 -0.0911  0.4914 -0.9723
 4239TP3      O24535   2.695   2.598   1.878 -0.3698  0.4008  0.5032
 4239TP3     H124536   2.650   2.607   1.962 -0.6855 -0.0157  0.3773
 4239TP3     H224537   2.787   2.585   1.902 -0.0420  2.6481  0.7388
 4240TP3      O24538   4.328   3.227   9.098 -0.1406  0.2229  0.3923
 4240TP3     H124539   4.303   3.134   9.097 -1.2602  0.4805  1.9131
 4240TP3     H224540   4.281   3.264   9.024  0.0557 -0.3503 -0.0327
 4241TP3      O24541   1.864   3.005   0.625  0.2282  0.3961 -0.0258
 4241TP3     H124542   1.857   2.985   0.718  1.1544  0.7767  0.1383
 4241TP3     H224543   1.781   3.046   0.603  0.2423  0.8851  0.7909
 4242TP3      O24544   0.896   2.540   9.606  0.5143  0.0100 -0.7136
 4242TP3     H124545   0.923   2.582   9.687  0.2138 -0.0437 -0.5864
 4242TP3     H224546   0.864   2.612   9.551  0.7086  0.0449 -0.7822
 4243TP3      O24547   1.191   4.374   8.419  0.2319 -0.1295 -0.3117
 4243TP3     H124548   1.147   4.459   8.417  0.5275  0.0480  0.5815
 4243TP3     H224549   1.284   4.396   8.433  0.1586 -0.6347  1.1009
 4244TP3      O24550   2.658   1.220   2.405  0.1502 -0.2073  0.4703
 4244TP3     H124551   2.695   1.192   2.321  1.7321  0.1001  1.0350
 4244TP3     H224552   2.634   1.139   2.449 -1.5339 -0.3519 -0.5935
 4245TP3      O24553   5.253   3.925   9.487  0.0942  0.3898  0.0326
 4245TP3     H124554   5.252   4.017   9.460  0.9875  0.0525 -1.2390
 4245TP3     H224555   5.297   3.879   9.415  2.6809 -0.5806  2.0441
 4246TP3      O24556   1.308   1.066   2.984  0.6190  0.2545  0.3259
 4246TP3     H124557   1.258   1.045   3.063 -0.6652  0.9962 -0.2665
 4246TP3     H224558   1.365   1.138   3.011 -1.1990  1.8453  0.1335
 4247TP3      O24559   2.021   1.099   2.969  0.6873  0.6730  0.1810
 4247TP3     H124560   2.079   1.025   2.989 -2.3356 -1.9172  0.1784
 4247TP3     H224561   2.014   1.098   2.873 -1.1015 -0.6018  0.2810
 4248TP3      O24562   2.012   1.692   9.729 -0.2770 -0.1507 -0.3905
 4248TP3     H124563   2.001   1.680   9.823 -0.8634 -0.0939 -0.4504
 4248TP3     H224564   2.087   1.636   9.706 -0.7789 -0.9766 -0.0671
 4249TP3      O24565   0.588   4.898   1.673 -0.1391 -0.4285 -0.0200
 4249TP3     H124566   0.492   4.897   1.673 -0.1675  0.6757  0.4175
 4249TP3     H224567   0.611   4.989   1.657  0.8120 -0.3706  1.4171
 4250TP3      O24568   0.473   4.030   0.259  0.0002  0.4796  0.0122
 4250TP3     H124569   0.433   3.951   0.223  1.9356 -0.6082  0.1155
 4250TP3     H224570   0.401   4.074   0.305 -1.7192  0.1360 -2.1521
 4251TP3      O24571   4.722   0.214   0.956  0.0641 -0.5700  0.2803
 4251TP3     H124572   4.660   0.284   0.935  0.1109 -0.8768 -0.9527
 4251TP3     H224573   4.715   0.204   1.051 -1.2157 -0.0730  0.2685
 4252TP3      O24574   1.969   0.549   3.818 -0.3778 -0.0617  0.0296
 4252TP3     H124575   2.041   0.594   3.862 -0.0667 -0.0550 -0.4746
 4252TP3     H224576   2.009   0.473   3.777 -0.7021 -0.1938 -0.0449
 4253TP3      O24577   2.464   1.939   3.664  0.2622  0.6259  0.3594
 4253TP3     H124578   2.415   2.018   3.640  0.0588  0.2980 -0.3337
 4253TP3     H224579   2.555   1.960   3.645  0.1632  0.5581 -0.2065
 4254TP3      O24580   2.456   0.018   2.187 -0.2668  0.0914  0.1911
 4254TP3     H124581   2.419   0.076   2.253 -1.3450 -0.8375  0.4137
 4254TP3     H224582   2.549   0.012   2.210 -0.3549  0.8726  0.7841
 4255TP3      O24583   1.428   2.110   2.941  0.1939  0.5167 -0.3743
 4255TP3     H124584   1.349   2.109   2.995 -0.4857 -0.5219 -1.3311
 4255TP3     H224585   1.459   2.200   2.946 -2.3923  1.5983 -1.8392
 4256TP3      O24586   0.130   4.345   2.786 -0.6826  0.1912 -0.3878
 4256TP3     H124587   0.101   4.254   2.794 -1.1585  0.4617  1.5124
 4256TP3     H224588   0.169   4.365   2.871 -0.3281  1.6909 -0.8758
 4257TP3      O24589   4.755   2.371   9.196 -0.1629  0.0687  0.5231
 4257TP3     H124590   4.767   2.319   9.275  0.3049 -0.3284  0.1921
 4257TP3     H224591   4.825   2.436   9.199  0.6826 -0.7803 -0.2246
 4258TP3      O24592   2.125   0.326   3.614 -0.3390  0.2384  0.0706
 4258TP3     H124593   2.082   0.246   3.641  1.6699 -0.6065  0.9526
 4258TP3     H224594   2.190   0.298   3.549  1.4967  0.8509  1.5472
 4259TP3      O24595   2.994   4.408   8.953 -0.3263  0.6512  0.4242
 4259TP3     H124596   3.018   4.469   9.022  0.2235  0.4776  0.3973
 4259TP3     H224597   2.923   4.356   8.990  1.3160 -0.8330  1.6630
 4260TP3      O24598   3.864   0.636   9.153  0.2086 -0.4349  0.6126
 4260TP3     H124599   3.810   0.695   9.205 -1.1062 -0.0259 -1.1036
 4260TP3     H224600   3.880   0.561   9.210  1.3151  1.2193  2.5978
 4261TP3      O24601   1.197   1.523   1.508 -0.3789  0.3722  0.0286
 4261TP3     H124602   1.119   1.578   1.502  0.3049  1.3825  0.1078
 4261TP3     H224603   1.248   1.546   1.430 -0.7651 -1.2810 -0.7589
 4262TP3      O24604   1.770   1.226   2.952 -0.5383  0.3916  0.2424
 4262TP3     H124605   1.838   1.159   2.958 -0.7929  0.1253  0.1602
 4262TP3     H224606   1.781   1.278   3.032  2.3680  2.8556 -1.5364
 4263TP3      O24607   0.569   2.471   1.328 -0.3535  0.1915  0.0817
 4263TP3     H124608   0.572   2.461   1.423 -0.7547  0.2458  0.1023
 4263TP3     H224609   0.520   2.394   1.297  0.3907 -0.2036 -0.1477
 4264TP3      O24610   2.247   2.648   9.802  0.7943  0.2898 -0.4591
 4264TP3     H124611   2.217   2.681   9.887  0.2147 -0.2532 -0.4472
 4264TP3     H224612   2.322   2.591   9.823  1.3873  1.0685 -0.4242
 4265TP3      O24613   3.460   2.474   1.174 -1.1793 -0.6021  0.2097
 4265TP3     H124614   3.409   2.548   1.207  0.3187  0.5030  0.1441
 4265TP3     H224615   3.477   2.497   1.082 -0.6310 -0.9988  0.2138
 4266TP3      O24616   0.320   0.174   1.185 -0.0209  0.2176  0.5412
 4266TP3     H124617   0.280   0.255   1.217  0.3607  0.0236  1.5700
 4266TP3     H224618   0.380   0.202   1.116 -0.0941  0.7876  0.7072
 4267TP3      O24619   3.689   3.559   2.093  0.6692 -0.1928  0.1300
 4267TP3     H124620   3.705   3.542   2.000  0.6915  1.6280 -0.2453
 4267TP3     H224621   3.610   3.508   2.113 -0.8476  1.3144 -1.5939
 4268TP3      O24622   4.383   4.937   1.087  0.2348 -0.4638  0.0181
 4268TP3     H124623   4.442   4.953   1.013 -3.1361 -0.8509 -3.0427
 4268TP3     H224624   4.338   4.855   1.065 -1.4249 -0.2284  2.1512
 4269TP3      O24625   3.899   2.191   2.520  0.1638 -0.2300 -0.1776
 4269TP3     H124626   3.804   2.200   2.521  0.1954  2.7559  4.0390
 4269TP3     H224627   3.918   2.135   2.595  1.6853  2.0161  1.2502
 4270TP3      O24628   3.037   1.808   3.375  0.1666 -0.1688  0.2953
 4270TP3     H124629   2.951   1.771   3.396  0.4439 -0.7149  0.4990
 4270TP3     H224630   3.099   1.741   3.403  0.5764 -1.3071 -2.8441
 4271TP3      O24631   1.816   2.686   9.187 -0.1314 -0.3127  0.6554
 4271TP3     H124632   1.827   2.642   9.102  2.3822  0.5451  0.4615
 4271TP3     H224633   1.804   2.778   9.164  1.2283  0.0249  1.1955
 4272TP3      O24634   4.767   1.616   8.416 -0.0442  0.1554  0.0041
 4272TP3     H124635   4.820   1.546   8.377  0.7880  0.4400  0.5923
 4272TP3     H224636   4.738   1.580   8.500 -1.0153 -0.0932 -0.4240
 4273TP3      O24637   2.262   2.243   2.575  0.0081 -0.2493  0.4983
 4273TP3     H124638   2.313   2.290   2.641 -0.1180 -0.4024  0.7052
 4273TP3     H224639   2.188   2.300   2.556 -0.1503 -0.3696  0.7571
 4274TP3      O24640   2.138   0.886   2.374  0.1776 -0.0723 -0.4619
 4274TP3     H124641   2.136   0.906   2.280 -2.3875 -1.3688 -0.7814
 4274TP3     H224642   2.076   0.949   2.413 -0.6808 -1.1414 -0.0570
 4275TP3      O24643   3.054   5.092   2.125  0.1504  0.0018 -0.1199
 4275TP3     H124644   3.126   5.040   2.090  0.8773  1.3573 -0.7077
 4275TP3     H224645   3.097   5.163   2.173 -0.7959  0.5792 -0.0959
 4276TP3      O24646   2.197   4.635   0.141 -1.1921  0.8209 -0.0994
 4276TP3     H124647   2.227   4.688   0.215  1.0016 -2.6461  1.7586
 4276TP3     H224648   2.270   4.640   0.078 -2.1523  2.0602 -1.1707
 4277TP3      O24649   4.626   0.921   1.326 -0.2815  0.2955 -0.3588
 4277TP3     H124650   4.640   0.856   1.394 -2.1870 -1.1720 -1.2568
 4277TP3     H224651   4.688   0.991   1.346  0.1488 -0.6841  2.0600
 4278TP3      O24652   5.281   0.994   9.393  0.8260 -0.0436  0.0532
 4278TP3     H124653   5.214   1.015   9.328  0.5916  1.3538  0.7086
 4278TP3     H224654   5.247   0.916   9.438 -0.0118  0.2170 -0.1068
 4279TP3      O24655   0.262   0.556   8.960  0.5811  0.2835  0.1097
 4279TP3     H124656   0.216   0.599   9.032  1.7046 -0.3669  1.2486
 4279TP3     H224657   0.241   0.610   8.883 -0.2846  1.2438  0.9882
 4280TP3      O24658   1.329   4.246   7.794 -0.7267 -0.3930 -0.1295
 4280TP3     H124659   1.296   4.244   7.884 -0.5426 -1.1431 -0.0691
 4280TP3     H224660   1.254   4.275   7.742 -0.6828  0.5685  0.3208
 4281TP3      O24661   1.579   3.797   8.838 -0.0431  0.1542  0.0826
 4281TP3     H124662   1.499   3.747   8.856 -1.1937  2.0884  0.6350
 4281TP3     H224663   1.605   3.831   8.923  1.7785 -0.9556  0.0108
 4282TP3      O24664   4.874   0.607   0.683  0.5950  0.0689 -0.2551
 4282TP3     H124665   4.819   0.685   0.689 -0.4282 -0.5521 -1.1854
 4282TP3     H224666   4.943   0.621   0.748  0.5800  1.8564 -0.5693
 4283TP3      O24667   0.501   1.800   2.997  0.1749 -0.1725  0.6644
 4283TP3     H124668   0.424   1.743   2.996 -0.1223  0.2135 -0.8645
 4283TP3     H224669   0.484   1.863   3.066 -0.4076 -0.7131  1.0243
 4284TP3      O24670   5.103   1.202   0.557 -0.3664 -0.6884 -0.3339
 4284TP3     H124671   5.073   1.174   0.644  2.2342 -0.9632  0.5448
 4284TP3     H224672   5.160   1.277   0.574  0.7149 -1.1499 -1.7242
 4285TP3      O24673   4.471   1.884   9.523  0.2378  0.0442 -1.0484
 4285TP3     H124674   4.405   1.937   9.567 -0.6119 -0.4049 -1.7476
 4285TP3     H224675   4.475   1.919   9.434 -0.5396 -1.2060 -1.6099
 4286TP3      O24676   3.911   1.092   1.232 -0.2389  0.1797  0.6631
 4286TP3     H124677   3.947   1.006   1.249  0.2720  0.7218  2.6607
 4286TP3     H224678   3.987   1.150   1.225 -0.4416  0.2510 -2.7889
 4287TP3      O24679   3.589   1.208   9.425 -0.2076 -0.6239  0.0366
 4287TP3     H124680   3.598   1.145   9.353 -1.1203 -0.7572  0.0278
 4287TP3     H224681   3.518   1.173   9.479 -0.0377 -0.1298  0.5928
 4288TP3      O24682   1.814   3.702   9.118  0.1049 -0.2876 -0.6619
 4288TP3     H124683   1.800   3.796   9.128  0.5286 -0.4114  1.6227
 4288TP3     H224684   1.726   3.666   9.103 -0.1868  0.3848 -0.5865
 4289TP3      O24685   2.320   4.456   2.253 -0.3877  0.3144 -0.3380
 4289TP3     H124686   2.334   4.362   2.242 -0.8143  0.4518 -2.6153
 4289TP3     H224687   2.225   4.466   2.247 -0.2846  0.9654 -0.8955
 4290TP3      O24688   0.881   0.711   3.230 -0.1378  0.3533  0.2164
 4290TP3     H124689   0.962   0.662   3.222  0.1905  1.1690 -2.0182
 4290TP3     H224690   0.899   0.777   3.296  0.9534  0.3875 -0.1052
 4291TP3      O24691   3.038   0.297   9.520 -0.5257  0.3913  0.1943
 4291TP3     H124692   3.115   0.330   9.473 -0.2100 -1.1226 -0.4094
 4291TP3     H224693   3.071   0.227   9.575 -1.3639  0.2409  0.5238
 4292TP3      O24694   1.654   0.030   9.247  0.5755  0.3776 -0.4259
 4292TP3     H124695   1.731   0.070   9.288 -0.7497  2.9781 -0.2605
 4292TP3     H224696   1.672   0.032   9.154  1.9191 -1.8442 -0.2708
 4293TP3      O24697   3.032   1.151   8.757 -0.0016  0.4877 -0.2846
 4293TP3     H124698   3.020   1.226   8.700  0.7857  1.8495  1.2662
 4293TP3     H224699   3.124   1.155   8.783  0.0088 -0.9037 -0.0150
 4294TP3      O24700   2.214   2.475   3.681 -0.7328  0.1886 -0.1502
 4294TP3     H124701   2.128   2.488   3.643 -0.0070  1.7731 -1.3670
 4294TP3     H224702   2.259   2.559   3.669  1.4066 -0.9573 -0.7486
 4295TP3      O24703   3.107   0.054   2.810  0.0578 -0.0467 -0.2868
 4295TP3     H124704   3.097   0.035   2.903 -1.0561 -0.8901 -0.5539
 4295TP3     H224705   3.063  -0.019   2.766 -0.8696  1.1419 -1.4366
 4296TP3      O24706   0.240   3.212   0.099 -0.5406 -0.0876 -0.2848
 4296TP3     H124707   0.315   3.256   0.060 -0.0515 -0.3467  0.3507
 4296TP3     H224708   0.275   3.167   0.176 -1.4181  0.1388  0.2679
 4297TP3      O24709   0.764   2.888   0.064  0.0990  0.5260  0.4202
 4297TP3     H124710   0.804   2.956   0.118 -0.5078  0.8788  0.4418
 4297TP3     H224711   0.670   2.902   0.075 -0.0544 -0.9860  1.2713
 4298TP3      O24712   4.622   3.129   2.707  0.1872  0.5232 -0.0287
 4298TP3     H124713   4.528   3.121   2.690  0.0674  0.8780  0.4346
 4298TP3     H224714   4.645   3.216   2.675 -0.5825  2.3515  3.7419
 4299TP3      O24715   0.666   2.882   2.671  0.2788 -0.1400  0.1852
 4299TP3     H124716   0.604   2.949   2.699  0.0192  0.4265 -1.6323
 4299TP3     H224717   0.702   2.847   2.753 -0.8340  1.0184  1.2091
 4300TP3      O24718   2.860   1.033   7.968 -0.2615  0.3756  0.4874
 4300TP3     H124719   2.923   0.989   7.910  0.0800  0.3299  0.8825
 4300TP3     H224720   2.862   0.981   8.049 -0.1722  0.8669  0.8053
 4301TP3      O24721   2.398   3.384   1.487 -0.3835  0.1484 -0.2044
 4301TP3     H124722   2.313   3.411   1.522  0.2214  2.0057 -0.0654
 4301TP3     H224723   2.424   3.456   1.430  1.2437 -0.2349  0.0119
 4302TP3      O24724   4.411   0.153   3.136 -0.5205  0.3081  0.3943
 4302TP3     H124725   4.382   0.171   3.046  1.4686 -1.3064 -0.6547
 4302TP3     H224726   4.470   0.226   3.156 -0.7243  0.5070  0.2849
 4303TP3      O24727   3.955   4.648   9.814  0.4215 -0.0360 -0.0972
 4303TP3     H124728   3.882   4.646   9.753 -0.1553 -0.4541  0.5818
 4303TP3     H224729   3.922   4.696   9.890  0.8707 -0.1730  0.1914
 4304TP3      O24730   3.952   4.000   9.045  0.2863 -0.5006  0.1089
 4304TP3     H124731   3.899   3.940   9.097  0.7618  0.4667  1.7650
 4304TP3     H224732   3.891   4.034   8.979 -0.8810 -0.2258  1.2940
 4305TP3      O24733   5.236   4.611   1.155 -0.6381 -0.6350  0.4690
 4305TP3     H124734   5.310   4.584   1.209 -0.0786  1.5511  0.8954
 4305TP3     H224735   5.216   4.700   1.184 -1.1017  0.1714 -2.1061
 4306TP3      O24736   2.192   1.589   8.503 -0.2004 -0.2208 -0.4297
 4306TP3     H124737   2.097   1.589   8.515 -0.0432 -0.4674  1.0694
 4306TP3     H224738   2.205   1.606   8.410 -1.6565  2.3410 -0.2473
 4307TP3      O24739   1.274   2.899   2.197  0.4864 -0.4723 -0.0917
 4307TP3     H124740   1.234   2.863   2.276  0.8451  1.5353  1.0441
 4307TP3     H224741   1.215   2.969   2.170 -0.7278 -2.3576 -2.8412
 4308TP3      O24742   0.662   3.699   0.542 -0.1263 -0.4719 -0.4992
 4308TP3     H124743   0.718   3.751   0.601 -1.2601  0.2195  0.0127
 4308TP3     H224744   0.612   3.642   0.600  0.0146 -1.0657 -0.9486
 4309TP3      O24745   0.926   0.825   7.599  0.1334 -0.0639  0.1725
 4309TP3     H124746   0.962   0.736   7.600 -0.2694 -0.2272  0.2922
 4309TP3     H224747   0.998   0.879   7.632  0.6299 -0.2456 -0.5777
 4310TP3      O24748   3.247   5.114   2.589  0.0294  0.1949  0.5522
 4310TP3     H124749   3.226   5.035   2.539  1.4031 -0.7684  1.4371
 4310TP3     H224750   3.278   5.177   2.523  2.5403 -1.3064  0.1597
 4311TP3      O24751   1.094   1.988   2.861 -0.4119 -0.4542  0.3107
 4311TP3     H124752   1.026   1.981   2.927  0.1577 -1.9162  0.7851
 4311TP3     H224753   1.152   1.914   2.878  1.0720  0.5051 -0.3359
 4312TP3      O24754   0.056   3.251   0.553 -0.2415  0.2787 -0.2918
 4312TP3     H124755   0.015   3.256   0.639 -0.1345 -0.4824 -0.1910
 4312TP3     H224756  -0.017   3.240   0.492 -0.2092 -1.0896 -0.1116
 4313TP3      O24757   2.855   5.282   2.437 -0.2725 -0.2960  0.3225
 4313TP3     H124758   2.850   5.265   2.343  1.0644  1.5133 -0.1151
 4313TP3     H224759   2.794   5.354   2.451 -3.0530 -2.6405  1.5215
 4314TP3      O24760   2.914   5.160   9.934 -0.5305 -0.1072 -0.1565
 4314TP3     H124761   2.861   5.209   9.871  1.0914  1.4878 -0.3796
 4314TP3     H224762   2.882   5.189  10.020 -0.4042  0.4209 -0.2846
 4315TP3      O24763   3.975   5.094   1.260  0.1703  0.0159 -0.0728
 4315TP3     H124764   4.012   5.124   1.343 -1.1487  0.8271  0.2565
 4315TP3     H224765   4.013   5.007   1.247  0.6890  0.0335  1.1921
 4316TP3      O24766   2.651   4.294   0.716  0.3114 -0.3461 -0.3592
 4316TP3     H124767   2.706   4.216   0.713  1.2020  0.2552 -0.1450
 4316TP3     H224768   2.620   4.298   0.807  1.9285  0.6373  0.1964
 4317TP3      O24769   0.567   1.574   9.899 -0.2669 -0.7567 -0.4906
 4317TP3     H124770   0.537   1.486   9.922 -3.5193  0.3514 -0.0280
 4317TP3     H224771   0.545   1.584   9.807  0.5040 -0.5349 -0.6622
 4318TP3      O24772   0.989   4.217   0.714  0.3834  0.1287  0.1009
 4318TP3     H124773   1.028   4.186   0.632  0.0429  2.1408 -0.8815
 4318TP3     H224774   0.985   4.312   0.704 -0.5220  0.3455  2.0923
 4319TP3      O24775   3.868   3.619   0.583 -0.1467  0.3130 -0.0561
 4319TP3     H124776   3.961   3.607   0.599  0.1843  2.1287 -0.3400
 4319TP3     H224777   3.831   3.531   0.583  1.6246 -0.4559 -0.3126
 4320TP3      O24778   2.656   2.892   9.195 -0.0916 -0.2086  0.0295
 4320TP3     H124779   2.712   2.881   9.118 -0.6744 -1.3578 -0.2615
 4320TP3     H224780   2.694   2.966   9.242  0.7967 -0.0394 -0.9077
 4321TP3      O24781   0.114   4.866   9.929 -1.0726  0.1160  0.8929
 4321TP3     H124782   0.107   4.902   9.840  3.3230  0.1598  0.3015
 4321TP3     H224783   0.133   4.942   9.984  0.5802 -0.3129  0.9898
 4322TP3      O24784   2.609   4.492   2.128 -0.0000  0.2110  0.2162
 4322TP3     H124785   2.562   4.416   2.094  0.9343 -1.3957  2.2390
 4322TP3     H224786   2.545   4.536   2.185  0.3417 -0.9747  1.5863
 4323TP3      O24787   2.338   2.560   9.315  0.6684  0.5851 -0.1246
 4323TP3     H124788   2.299   2.537   9.400  0.3160 -1.0499 -0.6813
 4323TP3     H224789   2.351   2.476   9.272  1.7697  1.3286 -1.3049
 4324TP3      O24790   4.888   3.672   9.017  0.1503 -0.2448  0.0970
 4324TP3     H124791   4.890   3.761   8.982  1.3662 -0.0048  0.7077
 4324TP3     H224792   4.796   3.656   9.036 -0.4035  0.0110 -2.1468
 4325TP3      O24793   1.218   0.005   1.023  0.2565 -0.2434 -0.2441
 4325TP3     H124794   1.145   0.007   0.960  0.5905 -0.7107 -0.6568
 4325TP3     H224795   1.183   0.046   1.102 -1.3174 -2.7600  0.4882
 4326TP3      O24796   4.732   1.505   0.687 -0.0577 -0.1560  0.5439
 4326TP3     H124797   4.721   1.572   0.753 -1.4079  0.0400  0.1601
 4326TP3     H224798   4.816   1.525   0.645  0.5845 -0.0165  1.8607
 4327TP3      O24799   4.173   5.177   2.117  0.0867  0.8022 -0.0024
 4327TP3     H124800   4.128   5.164   2.201 -0.2197  1.0375 -0.1281
 4327TP3     H224801   4.102   5.181   2.052  0.3485  0.0019 -0.3577
 4328TP3      O24802   4.785   2.197   1.713  0.2268  0.2826  0.0052
 4328TP3     H124803   4.850   2.264   1.737  0.0250  1.0462 -1.4798
 4328TP3     H224804   4.713   2.246   1.675 -0.5109 -0.6977  0.0972
 4329TP3      O24805   3.610   1.430   8.377 -0.5239  0.4215 -0.5185
 4329TP3     H124806   3.569   1.413   8.292 -1.5479 -1.7155  0.3164
 4329TP3     H224807   3.543   1.477   8.427 -0.0849  1.2837 -0.7162
 4330TP3      O24808   5.246   4.197   8.766  0.2099  0.3468 -0.1775
 4330TP3     H124809   5.173   4.215   8.708  0.2251 -2.4318 -1.2404
 4330TP3     H224810   5.310   4.152   8.710  1.1635 -0.4628  1.4853
 4331TP3      O24811   4.963   0.093   2.576  0.1569  0.1041  0.6887
 4331TP3     H124812   4.914   0.106   2.495  0.3050  0.7826  0.7008
 4331TP3     H224813   5.019   0.017   2.559 -0.6661 -0.4928  0.5740
 4332TP3      O24814   5.192   4.070   9.968 -0.1937  0.4294 -0.5542
 4332TP3     H124815   5.100   4.089   9.954 -0.4217 -1.5284 -2.2389
 4332TP3     H224816   5.194   4.013  10.045 -0.2625  1.3716  0.1491
 4333TP3      O24817   0.197   1.758   0.625 -0.0896 -0.5567  0.2670
 4333TP3     H124818   0.255   1.760   0.549 -0.8289 -1.7448 -0.3739
 4333TP3     H224819   0.207   1.669   0.659 -1.2105 -0.6578  0.3730
 4334TP3      O24820   0.139   2.585   2.802  0.0537 -0.1576 -0.4759
 4334TP3     H124821   0.181   2.631   2.730 -0.5173  0.2600 -0.5439
 4334TP3     H224822   0.194   2.605   2.878  0.3006 -0.0852 -0.6725
 4335TP3      O24823   5.178   3.870   9.766  0.4226  0.1891 -0.4412
 4335TP3     H124824   5.200   3.886   9.674  1.2364  1.2198 -0.0938
 4335TP3     H224825   5.210   3.948   9.812  2.2413 -1.3595  1.0562
 4336TP3      O24826   2.260   3.511   2.802 -0.4947  0.1067  0.0644
 4336TP3     H124827   2.342   3.553   2.827 -0.0936  0.0818 -1.1386
 4336TP3     H224828   2.192   3.570   2.836  0.0325  0.7030  0.1131
 4337TP3      O24829   2.148   5.139   0.257 -0.0427  0.5442  0.3650
 4337TP3     H124830   2.068   5.191   0.266 -0.6257 -0.4389  1.1543
 4337TP3     H224831   2.211   5.181   0.316 -0.8559 -0.2506  1.8576
 4338TP3      O24832   0.888   4.584   7.632 -0.6126 -0.5289  0.8261
 4338TP3     H124833   0.829   4.616   7.701 -0.5785  2.1824 -0.2695
 4338TP3     H224834   0.975   4.610   7.662 -0.7219  1.9362 -0.7770
 4339TP3      O24835   3.214   3.770   2.926 -0.0739 -0.3036  0.3584
 4339TP3     H124836   3.171   3.767   2.840  0.0715  3.6609 -0.0450
 4339TP3     H224837   3.306   3.755   2.906 -0.1172  0.0182 -0.1210
 4340TP3      O24838   4.081   3.160   1.123 -0.2360  0.4694 -0.1846
 4340TP3     H124839   4.105   3.252   1.133  1.6376 -0.1926  2.1400
 4340TP3     H224840   4.003   3.150   1.178 -0.7918  0.7617 -0.9019
 4341TP3      O24841   0.117   2.697   2.345 -0.6865  0.0488  0.0259
 4341TP3     H124842   0.036   2.685   2.295  0.1122 -0.7929 -1.1278
 4341TP3     H224843   0.161   2.771   2.303 -0.1864 -0.4251 -0.3042
 4342TP3      O24844   4.424   4.497   0.837  0.1995  0.1343 -0.1775
 4342TP3     H124845   4.379   4.559   0.779 -0.1458  1.3004  1.2858
 4342TP3     H224846   4.498   4.546   0.872  0.8122 -0.7822 -0.1616
 4343TP3      O24847   0.428   4.191   1.177  0.6733 -0.7582 -0.0930
 4343TP3     H124848   0.472   4.235   1.250 -0.7002 -3.0796  2.3076
 4343TP3     H224849   0.350   4.152   1.216  0.8538 -3.7510 -2.3850
 4344TP3      O24850   3.655   5.016   0.680 -0.1868  0.4591 -0.3597
 4344TP3     H124851   3.644   4.971   0.763  2.3834  0.7269  0.2053
 4344TP3     H224852   3.625   4.953   0.614 -4.1513  0.9328  0.7044
 4345TP3      O24853   1.838   3.785   0.813  0.5328  0.2658 -0.0922
 4345TP3     H124854   1.770   3.852   0.816  1.0770  0.7944  1.1052
 4345TP3     H224855   1.807   3.717   0.872  0.8488  0.3319  0.1547
 4346TP3      O24856   4.745   2.028  10.047  0.4952  0.1951  0.1283
 4346TP3     H124857   4.827   2.063  10.081  0.2985  0.5665  0.2183
 4346TP3     H224858   4.772   1.974   9.972  0.7544  0.9335 -0.3189
 4347TP3      O24859   0.403   4.978   9.848 -0.0139  0.0182  0.2582
 4347TP3     H124860   0.398   4.949   9.939 -1.4341 -1.1306 -0.1489
 4347TP3     H224861   0.326   5.035   9.837  0.1724  0.1799 -0.2205
 4348TP3      O24862   1.186   1.717   2.560  0.3368 -0.6184  0.4008
 4348TP3     H124863   1.205   1.774   2.484 -0.2548  0.4027  0.9969
 4348TP3     H224864   1.219   1.767   2.635  0.0899 -1.2150  0.9064
 4349TP3      O24865   1.678   1.926   7.510 -0.0979 -0.5063 -0.1613
 4349TP3     H124866   1.688   2.008   7.559 -1.8012 -0.9474  1.0104
 4349TP3     H224867   1.762   1.882   7.519  0.4221  0.5315  0.2701
 4350TP3      O24868   3.082   3.002   1.714 -0.9086 -0.5290  0.2011
 4350TP3     H124869   3.056   2.914   1.687  0.4895 -1.1166  0.6522
 4350TP3     H224870   3.105   2.993   1.806  0.2093  0.0820  0.0020
 4351TP3      O24871   0.591   3.019   8.726  0.1486 -0.0380 -0.5680
 4351TP3     H124872   0.551   3.001   8.641 -2.6698  1.2116  0.4093
 4351TP3     H224873   0.553   2.953   8.785 -0.8718  1.4472  0.4831
 4352TP3      O24874   4.930   1.370   8.429 -0.0167 -0.1107 -0.3802
 4352TP3     H124875   5.000   1.379   8.494 -1.0424  1.5003  0.5899
 4352TP3     H224876   4.974   1.340   8.350  1.6540  0.1314  0.4184
 4353TP3      O24877   3.079   2.373   0.904 -0.6685 -0.1215  0.2254
 4353TP3     H124878   2.989   2.344   0.891 -0.5451  0.4627 -2.5001
 4353TP3     H224879   3.086   2.387   0.998 -2.3310 -3.4837  0.9999
 4354TP3      O24880   4.266   2.284   9.724 -0.1128 -0.2543  0.1079
 4354TP3     H124881   4.197   2.238   9.677 -0.1711 -0.0608  0.0033
 4354TP3     H224882   4.328   2.215   9.749  0.8468 -0.1532 -1.8304
 4355TP3      O24883   4.620   2.078   0.853  0.0929  0.4752 -0.5491
 4355TP3     H124884   4.555   2.028   0.804  0.2466  1.6474 -2.0194
 4355TP3     H224885   4.688   2.014   0.875 -0.5494 -0.3186 -0.8334
 4356TP3      O24886   4.073   5.054   3.354 -0.1791 -0.3133 -0.7446
 4356TP3     H124887   4.055   5.147   3.342 -2.8095 -0.6654 -0.1464
 4356TP3     H224888   4.032   5.012   3.278  2.1463 -0.9615 -1.7414
 4357TP3      O24889   4.218   2.630   7.615 -0.2528  0.3688  0.7087
 4357TP3     H124890   4.209   2.722   7.640 -2.0147  0.8617 -1.4392
 4357TP3     H224891   4.263   2.632   7.530  2.0518 -0.9846  1.7824
 4358TP3      O24892   3.561   3.030   1.804 -0.5902  0.1369 -0.0320
 4358TP3     H124893   3.508   3.090   1.856 -0.0312  0.0404  0.6690
 4358TP3     H224894   3.593   2.965   1.867  1.0799  0.7100 -0.2289
 4359TP3      O24895   1.322   1.831   1.294  0.1911  0.1412 -0.0923
 4359TP3     H124896   1.372   1.754   1.319 -1.2100 -0.3040  1.5309
 4359TP3     H224897   1.235   1.798   1.274 -0.6315  1.3572  1.3378
 4360TP3      O24898   1.025   0.003   8.771  0.3880  0.1633  0.0201
 4360TP3     H124899   0.978   0.065   8.827  0.6746  0.2314  0.1869
 4360TP3     H224900   1.006   0.033   8.682 -0.3740 -0.1662  0.0652
 4361TP3      O24901   4.659   2.169   2.077 -0.1456 -0.6063  0.1987
 4361TP3     H124902   4.728   2.162   2.142  0.3734  0.9962 -0.1323
 4361TP3     H224903   4.673   2.093   2.019  0.8896 -0.6881  0.5402
 4362TP3      O24904   0.354   2.919   2.601 -0.5794  0.0866 -0.9636
 4362TP3     H124905   0.358   2.824   2.612  0.9776  0.2356  0.0945
 4362TP3     H224906   0.405   2.937   2.522  2.8118  0.2798  1.0525
 4363TP3      O24907   2.369   2.166   0.112  0.9009  0.3854 -0.8015
 4363TP3     H124908   2.283   2.125   0.104  1.0929  0.1292 -1.5994
 4363TP3     H224909   2.422   2.103   0.160 -0.0518  1.6219  2.0763
 4364TP3      O24910   5.205   1.553   2.335 -0.0254 -0.2846  0.4894
 4364TP3     H124911   5.115   1.578   2.355 -0.5119 -1.7434  0.3053
 4364TP3     H224912   5.259   1.609   2.389 -1.0960 -0.1048  1.3984
 4365TP3      O24913   2.754   3.650   2.920  0.0129 -0.0630  0.1198
 4365TP3     H124914   2.794   3.594   2.986 -0.3859 -2.8857 -1.8789
 4365TP3     H224915   2.828   3.681   2.866 -0.0341 -1.9447 -1.1066
 4366TP3      O24916   4.824   1.746   3.256 -0.0589  0.2518  0.5626
 4366TP3     H124917   4.840   1.751   3.161 -1.0520  2.2045  0.4471
 4366TP3     H224918   4.892   1.687   3.288  0.0301 -0.8353 -1.4094
 4367TP3      O24919   1.517   1.274   1.793 -0.1372  0.2291  0.7326
 4367TP3     H124920   1.508   1.209   1.862  0.8200  0.9025  1.5277
 4367TP3     H224921   1.513   1.225   1.712  0.4818 -0.8007  1.3138
 4368TP3      O24922   1.579   2.854   1.690  0.1299 -0.0949 -0.3851
 4368TP3     H124923   1.492   2.821   1.712 -0.5490  0.5487 -2.0012
 4368TP3     H224924   1.574   2.948   1.708  0.9810 -0.2698  0.9148
 4369TP3      O24925   3.796   4.229   2.398  0.1557  0.3284 -0.4272
 4369TP3     H124926   3.836   4.316   2.390 -2.1526  1.7469  2.0317
 4369TP3     H224927   3.747   4.233   2.480  1.4785 -3.9751  0.8437
 4370TP3      O24928   4.623   2.113   2.730  0.2193  0.1225 -0.1395
 4370TP3     H124929   4.647   2.165   2.653 -2.4665  1.6510 -0.0465
 4370TP3     H224930   4.581   2.035   2.693 -0.8787  0.7549 -0.2470
 4371TP3      O24931   2.157   4.292   9.368 -0.3045  0.1798  0.7636
 4371TP3     H124932   2.213   4.249   9.433  1.3371 -2.4322 -2.1017
 4371TP3     H224933   2.218   4.329   9.304 -1.8602  2.0032  0.2204
 4372TP3      O24934   4.524   3.120   1.033  0.1938  0.1935 -0.2937
 4372TP3     H124935   4.464   3.089   0.965  1.8907 -2.1643 -0.8128
 4372TP3     H224936   4.469   3.127   1.111 -0.7543 -2.2919 -0.6475
 4373TP3      O24937   0.936   3.901   9.225  0.1645 -0.1358  0.3558
 4373TP3     H124938   0.907   3.863   9.142  0.8936 -0.3686  0.2011
 4373TP3     H224939   0.861   3.951   9.256 -0.3794 -0.6769 -0.0622
 4374TP3      O24940   4.025   4.990   1.572  0.0942 -0.7080 -0.2892
 4374TP3     H124941   4.106   5.038   1.586  0.2026 -0.1111 -2.6528
 4374TP3     H224942   4.053   4.907   1.533 -0.3483 -1.2457  0.4916
 4375TP3      O24943   2.524   1.864   8.824 -0.2955 -0.2540  0.4773
 4375TP3     H124944   2.536   1.809   8.747 -3.6689 -0.0751 -0.3237
 4375TP3     H224945   2.555   1.950   8.797 -2.8936  0.2043 -1.3695
 4376TP3      O24946   1.261   0.520   7.812 -0.7977 -0.7227 -0.0967
 4376TP3     H124947   1.347   0.497   7.849 -0.6328 -0.8987 -0.5630
 4376TP3     H224948   1.235   0.599   7.857  1.0222  1.1188 -2.0150
 4377TP3      O24949   4.011   3.934   9.902  0.1796 -0.2655  0.0234
 4377TP3     H124950   3.983   3.978   9.982 -1.5395 -0.3800 -0.4632
 4377TP3     H224951   4.028   3.844   9.929 -0.2070 -0.2600  0.2922
 4378TP3      O24952   3.578   1.466   9.401 -0.2976 -0.2099 -0.5252
 4378TP3     H124953   3.587   1.372   9.420  1.1072 -0.0291 -0.1298
 4378TP3     H224954   3.534   1.502   9.478 -1.5697 -0.6501 -1.0243
 4379TP3      O24955   1.620   2.334   2.158  0.1368 -0.0989 -0.1375
 4379TP3     H124956   1.712   2.319   2.181  0.4940 -1.6592 -2.3384
 4379TP3     H224957   1.602   2.271   2.089 -3.9541 -3.2922  3.2587
 4380TP3      O24958   1.099   4.930   9.514 -0.4848 -0.2177  0.3644
 4380TP3     H124959   1.046   4.987   9.569  0.6885  0.1236  1.1920
 4380TP3     H224960   1.081   4.842   9.547 -1.9429 -0.3026 -0.6077
 4381TP3      O24961   0.610   1.815   3.313  0.7354  0.2597  0.2323
 4381TP3     H124962   0.597   1.768   3.395 -0.2101 -1.1460 -0.6885
 4381TP3     H224963   0.546   1.886   3.315  3.6239  3.1347  2.6381
 4382TP3      O24964   1.579   1.530   0.276  0.0622 -0.2989  0.4438
 4382TP3     H124965   1.659   1.555   0.229  0.3461 -0.8858  0.6060
 4382TP3     H224966   1.606   1.520   0.367  0.1876 -2.1684  0.2261
 4383TP3      O24967   1.428   0.713   7.140  0.3194  0.4624 -0.4385
 4383TP3     H124968   1.396   0.684   7.055  0.3213 -0.2531 -0.2101
 4383TP3     H224969   1.505   0.765   7.121  1.1636 -0.8768 -0.8137
 4384TP3      O24970   3.783   5.265   7.682 -0.3636 -0.0255  0.7259
 4384TP3     H124971   3.825   5.273   7.767 -0.0886  0.5614  0.5373
 4384TP3     H224972   3.820   5.185   7.644 -0.7280 -0.4666  1.2839
 4385TP3      O24973   1.429   0.398   1.146  0.4767 -0.2663 -0.5230
 4385TP3     H124974   1.460   0.487   1.168 -0.3209 -0.1016 -0.0370
 4385TP3     H224975   1.334   0.405   1.148  0.3195 -1.7425  2.1999
 4386TP3      O24976   3.118   3.369   1.004 -0.8130 -0.7284 -0.1171
 4386TP3     H124977   3.125   3.398   1.095 -0.8004  0.9026 -0.5996
 4386TP3     H224978   3.024   3.362   0.988 -1.4183  5.4738 -1.7363
 4387TP3      O24979   4.445   3.558   1.760 -0.4987  0.5479  0.3268
 4387TP3     H124980   4.485   3.644   1.747 -0.6660  0.4042 -1.4301
 4387TP3     H224981   4.399   3.565   1.844  0.4403  1.7808  0.7646
 4388TP3      O24982   1.245   2.983   9.472  0.4650  0.4785 -0.3685
 4388TP3     H124983   1.261   3.019   9.385 -0.4534  1.0410 -0.3213
 4388TP3     H224984   1.278   3.049   9.532  1.5793 -0.1398 -0.2702
 4389TP3      O24985   4.575   4.495   3.754  0.5136  0.0284 -0.3022
 4389TP3     H124986   4.547   4.494   3.846 -1.7181  0.0772 -0.9244
 4389TP3     H224987   4.636   4.568   3.748 -0.8195  1.2700  0.7538
 4390TP3      O24988   5.279   0.239   2.079 -0.1788  0.3395  0.3406
 4390TP3     H124989   5.193   0.202   2.061 -0.7622  0.4838  2.4880
 4390TP3     H224990   5.265   0.333   2.081  0.2349  0.4135 -0.2392
 4391TP3      O24991   1.396   0.488   2.559  0.4315  0.0836  0.0227
 4391TP3     H124992   1.349   0.568   2.534 -1.2008 -0.2842  1.7011
 4391TP3     H224993   1.488   0.515   2.563  0.4548  0.8630 -3.2209
 4392TP3      O24994   5.153   0.706   1.450  0.6609 -0.2263  0.2463
 4392TP3     H124995   5.107   0.748   1.522 -0.0562  0.2089 -0.4549
 4392TP3     H224996   5.116   0.617   1.446  0.9491 -0.3662  0.6272
 4393TP3      O24997   0.035   3.371   1.587 -0.0232  0.0828  0.0184
 4393TP3     H124998   0.091   3.373   1.509  2.7262 -1.6070  1.7878
 4393TP3     H224999  -0.002   3.283   1.589 -1.6711  0.7266 -0.3398
 4394TP3      O25000   0.145   2.914   0.422  0.7252  0.1253 -0.0551
 4394TP3     H125001   0.144   2.999   0.467  2.6502  0.1087  0.0672
 4394TP3     H225002   0.083   2.860   0.473  1.8706  0.5033  1.8296
 4395TP3      O25003   1.406   0.561   0.725 -0.2047 -0.0383  0.2467
 4395TP3     H125004   1.354   0.641   0.719  1.6000  1.1071 -1.8369
 4395TP3     H225005   1.492   0.591   0.755  0.1391 -1.4117  0.7108
 4396TP3      O25006   1.764   4.970   1.337  0.6441 -0.1160 -0.7115
 4396TP3     H125007   1.727   4.882   1.328  0.6447 -0.1074 -0.7983
 4396TP3     H225008   1.788   4.977   1.430 -2.3357  0.9642  0.0897
 4397TP3      O25009   4.367   3.840  10.016 -0.3054  0.0324  0.4346
 4397TP3     H125010   4.384   3.934  10.023 -3.0104  0.9132 -2.4847
 4397TP3     H225011   4.297   3.824  10.078  0.3091 -0.1426  1.0960
 4398TP3      O25012   1.054   1.763   1.179  0.5469 -0.0996  0.3245
 4398TP3     H125013   1.019   1.796   1.096  0.0504 -0.2161  0.4839
 4398TP3     H225014   1.079   1.673   1.160 -2.4475 -1.2146  1.0375
 4399TP3      O25015   2.754   4.095   1.943  0.8155  0.1467  0.0143
 4399TP3     H125016   2.715   4.012   1.969  1.5494 -0.1711  0.1238
 4399TP3     H225017   2.792   4.079   1.857 -0.8846  0.9704 -0.9379
 4400TP3      O25018   3.272   2.867   9.239  0.8467 -0.2819 -0.0602
 4400TP3     H125019   3.246   2.775   9.232 -1.6167  0.3422 -0.1889
 4400TP3     H225020   3.196   2.916   9.206  1.3402  1.8339  1.6771
 4401TP3      O25021   1.851   0.171   1.795  0.1512 -0.3246 -0.1721
 4401TP3     H125022   1.806   0.137   1.873 -2.0658  1.7369 -0.4216
 4401TP3     H225023   1.849   0.266   1.806 -0.2678  0.0234 -2.7417
 4402TP3      O25024   3.046   2.233   3.120 -0.2845 -0.1043 -0.0001
 4402TP3     H125025   3.099   2.278   3.054  0.6676 -1.2270 -0.0381
 4402TP3     H225026   3.105   2.225   3.196  0.2463 -2.8412 -0.6031
 4403TP3      O25027   3.349   1.412   2.701 -0.4030 -0.1311  0.3021
 4403TP3     H125028   3.302   1.495   2.702 -1.0450 -0.4806 -0.1641
 4403TP3     H225029   3.339   1.378   2.790  2.3193  1.6052  1.4164
 4404TP3      O25030   0.945   3.935   8.238 -0.0800 -0.4564  0.0852
 4404TP3     H125031   0.864   3.978   8.212  0.3773  1.3359  1.4273
 4404TP3     H225032   0.980   3.897   8.157 -0.0308  2.5871 -1.4467
 4405TP3      O25033   3.710   1.553   8.671 -0.4359 -0.3945 -0.0495
 4405TP3     H125034   3.800   1.585   8.671 -0.5327  0.0324  2.2308
 4405TP3     H225035   3.660   1.622   8.628  0.1067  0.0823  0.0790
 4406TP3      O25036   0.963   4.133   9.460  0.8272 -0.0685  0.4886
 4406TP3     H125037   1.017   4.054   9.453 -0.3218 -1.0852  2.3327
 4406TP3     H225038   1.013   4.191   9.518  0.3972 -0.6370  1.4513
 4407TP3      O25039   4.877   2.373   1.402 -0.1332 -0.0236 -0.2660
 4407TP3     H125040   4.837   2.286   1.396 -1.8291  0.5066  1.9712
 4407TP3     H225041   4.803   2.432   1.417  1.1855  1.4879  0.5771
 4408TP3      O25042   3.771   0.445   8.417 -0.3063 -0.1994 -0.0609
 4408TP3     H125043   3.756   0.519   8.358 -0.1818 -0.2382 -0.1410
 4408TP3     H225044   3.765   0.483   8.505  0.4300  0.0358 -0.1072
 4409TP3      O25045   5.042   2.823   0.994  0.4103  0.1006 -0.2227
 4409TP3     H125046   5.117   2.855   1.044  0.6058 -1.5486  0.5963
 4409TP3     H225047   4.992   2.770   1.057  0.0702 -1.1164 -1.4816
 4410TP3      O25048   5.055   1.450  10.014  0.2024  0.0457 -0.1472
 4410TP3     H125049   4.990   1.454   9.943 -0.7536  2.9962  0.7160
 4410TP3     H225050   5.012   1.400  10.083 -0.8280  1.1587  0.0517
 4411TP3      O25051   5.268   4.356   9.650 -0.0520  0.0074 -0.4348
 4411TP3     H125052   5.191   4.388   9.697  0.8409 -0.7933  1.7263
 4411TP3     H225053   5.312   4.435   9.619 -0.0130  0.6814  1.2331
 4412TP3      O25054   3.675   1.167   8.680 -0.2602 -0.1407  0.3080
 4412TP3     H125055   3.645   1.114   8.754 -1.2763 -1.0444 -0.7253
 4412TP3     H225056   3.763   1.134   8.661 -0.6538 -1.0688  0.0558
 4413TP3      O25057   0.084   5.119  10.084  0.2236  0.2203 -0.1378
 4413TP3     H125058   0.065   5.212  10.069  1.1892  0.5453  0.5167
 4413TP3     H225059  -0.002   5.078  10.093 -0.2558  0.8130 -1.6987
 4414TP3      O25060   2.811   3.521   0.568 -0.0436  0.0730 -0.2806
 4414TP3     H125061   2.784   3.491   0.655  0.0766 -1.0031 -0.5999
 4414TP3     H225062   2.889   3.574   0.585  0.2272 -0.4674  0.2524
 4415TP3      O25063   5.214   1.901   1.616  0.0273  0.1653  0.5808
 4415TP3     H125064   5.155   1.874   1.686 -2.9936  1.1748 -1.3474
 4415TP3     H225065   5.230   1.821   1.565 -0.2062  0.0006  0.7691
 4416TP3      O25066   3.811   4.779   3.272  0.3286 -0.1330  0.1099
 4416TP3     H125067   3.853   4.836   3.207 -0.7477 -0.0687 -0.5635
 4416TP3     H225068   3.839   4.691   3.248  1.7234  0.0700  0.9437
 4417TP3      O25069   0.266   2.047   1.471 -0.2865 -0.2261 -0.1097
 4417TP3     H125070   0.361   2.047   1.485 -0.2665  0.3730 -0.2076
 4417TP3     H225071   0.230   2.081   1.553 -0.5777 -2.4589  0.7708
 4418TP3      O25072   0.565   3.710   1.465 -0.3482 -0.3095  0.0131
 4418TP3     H125073   0.511   3.748   1.534 -0.7859 -1.4512  0.3164
 4418TP3     H225074   0.602   3.631   1.504  1.1343  0.1568 -0.3641
 4419TP3      O25075   0.194   1.231   1.517 -0.2188  0.2069  0.3681
 4419TP3     H125076   0.208   1.291   1.444 -0.6253  0.0485  0.1597
 4419TP3     H225077   0.182   1.289   1.593 -0.4026  0.3810  0.2064
 4420TP3      O25078   0.840   0.136   9.049  0.1764 -0.1589 -0.0215
 4420TP3     H125079   0.866   0.064   9.106  0.8391  1.1625  1.4564
 4420TP3     H225080   0.757   0.108   9.010  0.9990 -2.1700 -0.4343
 4421TP3      O25081   0.256   4.682   9.271 -0.0977 -0.1045  0.0674
 4421TP3     H125082   0.309   4.761   9.268  0.3053 -0.3795 -0.0274
 4421TP3     H225083   0.261   4.645   9.183  2.0542 -1.7645  0.8108
 4422TP3      O25084   1.754   0.192   8.121 -0.2020  0.4258 -0.2113
 4422TP3     H125085   1.691   0.242   8.069 -0.2003 -0.0267 -0.6593
 4422TP3     H225086   1.735   0.100   8.098  1.7610  0.3273 -1.7159
 4423TP3      O25087   4.708   3.303   1.129 -0.3852  0.5881 -0.4615
 4423TP3     H125088   4.655   3.232   1.092  0.7574 -0.5135 -0.0132
 4423TP3     H225089   4.680   3.308   1.220 -0.5728  0.8236 -0.5308
 4424TP3      O25090   3.803   3.578   8.668 -0.2990 -0.0404  0.0036
 4424TP3     H125091   3.890   3.614   8.688 -0.1224 -0.7036  0.4833
 4424TP3     H225092   3.742   3.640   8.708 -0.1011  1.0894 -1.4001
 4425TP3      O25093   2.895   4.733   2.694  0.0846 -0.5599 -0.3610
 4425TP3     H125094   2.827   4.753   2.631 -1.2025 -0.1720  1.0840
 4425TP3     H225095   2.871   4.784   2.772  1.4933 -1.1610  0.5079
 4426TP3      O25096   1.808   3.813   2.250 -0.5181 -0.5515  0.2863
 4426TP3     H125097   1.806   3.819   2.154  1.0881  0.0998  0.2552
 4426TP3     H225098   1.897   3.784   2.270 -0.3936  0.6184  1.6180
 4427TP3      O25099   4.185   4.850   8.288  0.6705 -0.0940 -0.2980
 4427TP3     H125100   4.125   4.787   8.248  1.2993 -0.6360 -0.4110
 4427TP3     H225101   4.129   4.911   8.335  0.1126 -1.8920  1.5071
 4428TP3      O25102   3.940   1.136   1.646 -0.1284  0.1569  0.1742
 4428TP3     H125103   3.919   1.228   1.628  2.0623  0.6230 -0.3066
 4428TP3     H225104   4.033   1.128   1.623  0.3330 -1.6332  2.3483
 4429TP3      O25105   2.600   5.184   8.717  0.1573  0.5685  0.6594
 4429TP3     H125106   2.552   5.158   8.638  1.5948  1.4809 -0.5639
 4429TP3     H225107   2.563   5.128   8.786 -1.9296  0.5354 -0.3949
 4430TP3      O25108   3.555   3.716   9.179 -0.2451 -0.2371  0.0021
 4430TP3     H125109   3.605   3.661   9.119 -0.6164 -1.3979  0.7222
 4430TP3     H225110   3.607   3.718   9.259 -0.3358  0.2931  0.0498
 4431TP3      O25111   0.402   2.825   0.341 -0.2977 -0.3762 -0.6214
 4431TP3     H125112   0.321   2.856   0.384 -0.1438 -1.5308  0.5717
 4431TP3     H225113   0.383   2.735   0.316  0.6200 -0.6591 -0.3350
 4432TP3      O25114   3.739   4.332   0.004 -0.2550  0.5164  0.2082
 4432TP3     H125115   3.788   4.337  -0.078  2.1895 -0.8821  1.4811
 4432TP3     H225116   3.657   4.288  -0.021  1.2632 -1.7287 -1.2398
 4433TP3      O25117   5.235   5.190   3.436 -0.2548 -0.2578 -0.2307
 4433TP3     H125118   5.218   5.279   3.405  3.4468  0.2370 -1.2999
 4433TP3     H225119   5.184   5.183   3.517 -1.7836  2.2790 -0.8525
 4434TP3      O25120   1.001   1.666   0.158  0.0511 -0.3117 -1.0356
 4434TP3     H125121   0.934   1.671   0.089 -0.4314 -2.9592 -0.8479
 4434TP3     H225122   1.084   1.673   0.112 -0.2756 -1.6434 -1.8735
 4435TP3      O25123   3.627   2.888   3.369 -0.4917 -0.2493 -0.6346
 4435TP3     H125124   3.706   2.873   3.421 -0.7039  2.1289  0.5006
 4435TP3     H225125   3.576   2.809   3.381 -0.6040  0.1985  3.0390
 4436TP3      O25126   0.709   1.947   1.758  0.6562  0.0152 -0.0371
 4436TP3     H125127   0.804   1.960   1.753  0.9132 -1.3261  0.7533
 4436TP3     H225128   0.694   1.924   1.850 -0.8266  2.8908  0.5516
 4437TP3      O25129   0.487   4.388   2.215  0.4800  0.0436 -0.1349
 4437TP3     H125130   0.399   4.425   2.211  0.6787  0.4470 -1.4274
 4437TP3     H225131   0.528   4.430   2.290 -0.0585  0.7227 -0.2119
 4438TP3      O25132   1.401   3.316   7.375 -0.6354 -0.1179  0.0804
 4438TP3     H125133   1.340   3.349   7.309  0.8741 -0.9333 -1.8476
 4438TP3     H225134   1.487   3.346   7.344  0.3197 -2.1762  0.5922
 4439TP3      O25135   0.882   3.527   0.874  0.4354  0.9780 -0.1381
 4439TP3     H125136   0.864   3.595   0.939 -3.4892 -0.5105  0.6384
 4439TP3     H225137   0.851   3.446   0.916 -1.3172 -0.2159 -3.3630
 4440TP3      O25138   1.296   1.976   9.430 -0.1163  0.6554 -0.4599
 4440TP3     H125139   1.388   1.975   9.404  0.2808 -2.8428  0.5484
 4440TP3     H225140   1.290   2.043   9.498  2.3616 -0.7974  1.3544
 4441TP3      O25141   5.234   3.325   2.270 -0.0917 -0.4189  0.1395
 4441TP3     H125142   5.160   3.298   2.216 -0.3455 -2.3802  1.3681
 4441TP3     H225143   5.195   3.363   2.348  0.2727  1.8875 -0.7400
 4442TP3      O25144   1.381   4.796   9.367 -0.0418  0.0032 -0.1398
 4442TP3     H125145   1.391   4.751   9.283 -0.8457 -0.4397  0.0006
 4442TP3     H225146   1.351   4.728   9.427 -1.3182  0.7214  0.0646
 4443TP3      O25147   3.788   4.870   2.991  0.2047  0.0530 -0.3562
 4443TP3     H125148   3.792   4.886   2.897 -2.7599  0.2027 -0.5640
 4443TP3     H225149   3.811   4.953   3.031  1.3639  0.0218 -0.9093
 4444TP3      O25150   1.878   1.696   2.160  0.3534 -0.1901  0.5088
 4444TP3     H125151   1.879   1.750   2.240 -1.3157  0.3039  0.2461
 4444TP3     H225152   1.867   1.760   2.089 -2.1278 -0.8142  0.2217
 4445TP3      O25153   2.424   2.482   9.920  0.0407 -0.1606  0.1669
 4445TP3     H125154   2.460   2.430   9.848  1.5396  1.8332 -0.5917
 4445TP3     H225155   2.364   2.421   9.965  0.1154 -1.8824 -1.8898
 4446TP3      O25156   4.347   2.863   0.346 -0.0004  0.0648  0.4402
 4446TP3     H125157   4.360   2.957   0.338  1.4290 -0.0716  0.9464
 4446TP3     H225158   4.423   2.824   0.304 -0.3206 -0.8624  0.6928
 4447TP3      O25159   1.677   3.153   2.731 -0.5230 -0.3320  0.3661
 4447TP3     H125160   1.598   3.197   2.699 -2.2421 -3.2821  0.1665
 4447TP3     H225161   1.675   3.166   2.826  1.3857  3.4423  0.0831
 4448TP3      O25162   0.817   1.100   8.980  0.0686 -0.5448  0.3249
 4448TP3     H125163   0.907   1.073   8.961  0.4120  1.2714 -0.9313
 4448TP3     H225164   0.763   1.040   8.929  0.6237 -0.9290  0.1750
 4449TP3      O25165   3.428   1.384   0.296  0.0275  0.4511 -0.0077
 4449TP3     H125166   3.478   1.307   0.270 -1.1601 -0.6803  0.9143
 4449TP3     H225167   3.492   1.454   0.303  0.8144  0.2468 -3.4342
 4450TP3      O25168   0.785   2.277   2.571  0.0540  0.6704  0.3620
 4450TP3     H125169   0.826   2.361   2.547  1.2577  0.0812  0.2963
 4450TP3     H225170   0.836   2.246   2.646  1.1031 -1.0748 -0.9935
 4451TP3      O25171   1.395   1.137   2.295  0.3254 -0.1647  0.0351
 4451TP3     H125172   1.406   1.131   2.389 -2.1498  0.0686  0.4071
 4451TP3     H225173   1.470   1.188   2.265  0.5134  0.8222  2.0416
 4452TP3      O25174   0.730   4.743   9.843  0.2386  0.1145 -0.7465
 4452TP3     H125175   0.769   4.686   9.777 -0.7852 -2.3260  0.6438
 4452TP3     H225176   0.636   4.731   9.834 -0.0728  2.1284 -0.7978
 4453TP3      O25177   1.995   1.088   2.458  0.6784 -0.2418 -0.1471
 4453TP3     H125178   1.958   1.136   2.384 -0.1691  0.4012  0.6752
 4453TP3     H225179   1.923   1.081   2.521  1.3412 -0.9034  0.5597
 4454TP3      O25180   1.997   1.981   2.699  0.0937  0.1155  0.4198
 4454TP3     H125181   2.079   2.011   2.737  0.4401 -0.3037  0.0159
 4454TP3     H225182   1.990   2.027   2.615  0.1818 -0.2401  0.2128
 4455TP3      O25183   4.735   0.562   9.897  0.1790  0.5389  0.3428
 4455TP3     H125184   4.787   0.639   9.919  0.0968  0.5481  0.5113
 4455TP3     H225185   4.727   0.515   9.980  1.3549 -0.3490 -0.0143
 4456TP3      O25186   0.505   1.704   1.453  0.5120 -0.2018  0.1405
 4456TP3     H125187   0.444   1.688   1.382 -2.0875  0.0969  2.1733
 4456TP3     H225188   0.516   1.800   1.455 -1.5244  0.0593  1.6817
 4457TP3      O25189   0.517   2.424   0.545  0.7617 -0.0903 -0.1524
 4457TP3     H125190   0.479   2.348   0.502 -1.3403  0.9754 -0.3527
 4457TP3     H225191   0.480   2.423   0.633 -1.4049  1.9774 -0.9168
 4458TP3      O25192   4.716   2.138   8.931  0.1362  0.4692  0.8513
 4458TP3     H125193   4.810   2.151   8.943  0.3766 -0.4329  0.0526
 4458TP3     H225194   4.683   2.125   9.020  0.8832  0.1186  1.0945
 4459TP3      O25195   2.620   2.033   1.917 -0.0600  0.4019 -0.6312
 4459TP3     H125196   2.658   2.113   1.883  0.5080  1.6968  2.6387
 4459TP3     H225197   2.691   1.969   1.914 -0.0683  0.4323 -1.8567
 4460TP3      O25198   3.512   0.893   0.949  0.7049 -0.0197  0.2653
 4460TP3     H125199   3.498   0.806   0.987 -0.5834  0.5141  1.0842
 4460TP3     H225200   3.445   0.948   0.990  0.9924  1.1895 -0.8283
 4461TP3      O25201   2.144   3.411   1.601 -0.1046  0.3348 -0.5326
 4461TP3     H125202   2.092   3.454   1.533  0.4484 -0.6922 -1.6347
 4461TP3     H225203   2.097   3.330   1.621 -0.1356  0.5118  0.1406
 4462TP3      O25204   0.845   4.237   7.820 -1.1308  0.3131 -0.5618
 4462TP3     H125205   0.787   4.165   7.795 -2.9244  2.0333 -1.6743
 4462TP3     H225206   0.900   4.252   7.743 -1.8320  1.0847 -0.9343
 4463TP3      O25207   1.593   4.652   2.208  0.1123  0.4115 -0.1161
 4463TP3     H125208   1.629   4.567   2.182  0.5895  0.2120  1.1346
 4463TP3     H225209   1.634   4.671   2.292 -0.6254  1.4936  0.0209
 4464TP3      O25210   4.888   0.714   9.353  0.0536 -0.0918 -0.2938
 4464TP3     H125211   4.959   0.664   9.312  0.4434  0.6190 -0.4900
 4464TP3     H225212   4.925   0.746   9.434  0.0739  0.5845 -0.5677
 4465TP3      O25213   4.842   1.580   0.111 -0.2461 -0.5561  0.1520
 4465TP3     H125214   4.777   1.513   0.092  1.4318 -1.9438 -1.0416
 4465TP3     H225215   4.841   1.638   0.035 -2.3056  1.4204  1.5488
 4466TP3      O25216   3.828   2.526   1.020  0.0239  1.1163  0.1981
 4466TP3     H125217   3.829   2.533   1.116  1.9249  3.0054  0.1067
 4466TP3     H225218   3.800   2.613   0.990 -0.1069  0.6807 -0.9849
 4467TP3      O25219   0.843   2.716   7.237 -0.1535 -0.9639 -0.0304
 4467TP3     H125220   0.893   2.640   7.268 -0.4388 -0.7256  1.0686
 4467TP3     H225221   0.790   2.741   7.313  0.4110  0.7271 -0.1552
 4468TP3      O25222   5.090   4.391   0.827  0.2918  0.2774  0.0308
 4468TP3     H125223   5.165   4.332   0.834  2.6050  2.9130 -0.7468
 4468TP3     H225224   5.055   4.375   0.740 -0.4304 -1.2656  0.5489
 4469TP3      O25225   4.740   1.871   0.657 -0.3006 -0.1758 -0.1411
 4469TP3     H125226   4.796   1.794   0.664 -0.3993 -0.1658  0.8535
 4469TP3     H225227   4.799   1.940   0.626  0.0674 -0.3474  0.1700
 4470TP3      O25228   2.069   0.959   8.264 -0.0026 -0.3440 -0.1393
 4470TP3     H125229   2.102   0.873   8.291  1.7179  0.2587 -0.1944
 4470TP3     H225230   2.008   0.940   8.192  2.2491 -1.4143 -1.8840
 4471TP3      O25231   3.990   5.285   1.057  0.3345  0.2143 -0.3065
 4471TP3     H125232   3.919   5.291   0.993  0.8630 -1.8170 -1.1603
 4471TP3     H225233   3.960   5.220   1.120  1.2527 -0.4278 -0.4958
 4472TP3      O25234   2.031   4.309   8.537 -0.0034 -0.1545  0.8192
 4472TP3     H125235   2.076   4.307   8.621  0.0980  0.2202  0.7769
 4472TP3     H225236   2.098   4.286   8.473 -0.0517 -0.3234  0.8297
 4473TP3      O25237   3.313   0.845   2.058 -0.1554 -0.7626 -0.5253
 4473TP3     H125238   3.381   0.853   2.125 -0.2841 -0.0514 -0.4668
 4473TP3     H225239   3.231   0.848   2.108 -0.2402 -2.4559 -0.5119
 4474TP3      O25240   0.591   2.989   9.916 -0.1897  0.0183  0.4233
 4474TP3     H125241   0.543   3.071   9.904 -0.9224 -0.4982 -0.2979
 4474TP3     H225242   0.626   2.994  10.005  0.5456  1.5028  0.0815
 4475TP3      O25243   1.019   2.729   0.789 -0.0085 -0.1249  0.5062
 4475TP3     H125244   0.999   2.707   0.698  1.5242 -1.4212  0.4362
 4475TP3     H225245   1.099   2.782   0.784  1.2430 -1.8630  1.1608
 4476TP3      O25246   1.248   2.546   0.497  0.2762  0.1389 -0.2735
 4476TP3     H125247   1.322   2.522   0.554 -1.5776 -0.6080  1.9735
 4476TP3     H225248   1.190   2.470   0.500 -1.9832  1.7652  0.5106
 4477TP3      O25249   2.168   0.899   9.813  0.0420  0.3238 -0.6059
 4477TP3     H125250   2.257   0.907   9.845 -0.5829  1.1383  1.0503
 4477TP3     H225251   2.159   0.971   9.750  0.6256  0.0527 -1.0050
 4478TP3      O25252   4.625   1.556   3.230  0.4721 -0.1012 -0.3228
 4478TP3     H125253   4.555   1.607   3.189  2.0684  0.9745 -1.8458
 4478TP3     H225254   4.675   1.619   3.281 -0.0759 -1.0123  1.4465
 4479TP3      O25255   4.201   4.185   9.928 -0.2315 -0.2335 -0.1875
 4479TP3     H125256   4.112   4.155   9.947 -0.3236  0.0419 -0.1857
 4479TP3     H225257   4.189   4.269   9.884  0.0670  0.7009  1.4434
 4480TP3      O25258   2.735   4.221   3.489  0.0585  0.0762  0.0602
 4480TP3     H125259   2.725   4.296   3.547  1.8795 -0.4621  1.1553
 4480TP3     H225260   2.761   4.258   3.406 -0.8314  0.7426  0.0585
 4481TP3      O25261   0.037   0.997   2.614 -0.1113  0.2618 -0.3346
 4481TP3     H125262  -0.043   1.024   2.660  0.0845  1.6834 -0.7867
 4481TP3     H225263   0.097   0.973   2.684 -0.0311  1.7941  0.1376
 4482TP3      O25264   0.199   2.479   9.502  0.2911  1.1436  0.1462
 4482TP3     H125265   0.291   2.471   9.527  0.7127  0.3112 -1.5706
 4482TP3     H225266   0.200   2.528   9.420 -0.6078 -0.4383 -0.8651
 4483TP3      O25267   1.024   4.719   1.820 -0.1540  0.7228  0.3687
 4483TP3     H125268   1.102   4.670   1.844 -1.1394 -1.7207 -0.9835
 4483TP3     H225269   1.042   4.752   1.732 -1.1698 -1.3361 -0.6883
 4484TP3      O25270   3.991   2.735   0.655  0.0155  0.1730 -0.1791
 4484TP3     H125271   3.987   2.649   0.695 -2.7258  0.5662  0.6125
 4484TP3     H225272   4.041   2.722   0.575  2.8210 -1.3249  1.6475
 4485TP3      O25273   2.958   5.172   2.654  0.1385  0.4611  0.3699
 4485TP3     H125274   3.032   5.140   2.604  0.7269  0.8219  0.9845
 4485TP3     H225275   2.905   5.220   2.591 -0.1036 -0.6464 -0.2869
 4486TP3      O25276   3.706   5.113   0.349  0.1673  0.4059 -0.4426
 4486TP3     H125277   3.677   5.030   0.388  1.0637  0.2057 -0.1882
 4486TP3     H225278   3.653   5.122   0.270 -1.0961  0.4050  0.3733
 4487TP3      O25279   0.538   0.951   0.434 -0.0563  0.7276 -0.6641
 4487TP3     H125280   0.580   0.980   0.353  1.2736 -1.7256 -0.9567
 4487TP3     H225281   0.563   1.017   0.498  3.0872  0.2384 -1.2075
 4488TP3      O25282   0.526   1.898   6.882  0.5445 -0.2349  0.8781
 4488TP3     H125283   0.560   1.933   6.800 -0.2608  0.4024  0.8102
 4488TP3     H225284   0.576   1.817   6.895 -0.1415 -0.9918 -0.8491
 4489TP3      O25285   3.377   1.985   0.348 -0.1683  0.0904  0.5978
 4489TP3     H125286   3.379   2.035   0.430  0.4103  0.9687  0.0632
 4489TP3     H225287   3.313   2.031   0.293  1.7706  1.4624 -0.6260
 4490TP3      O25288   3.710   0.250   2.961  0.6958  0.2335  0.0756
 4490TP3     H125289   3.643   0.260   3.029  2.1578  0.1852  1.5626
 4490TP3     H225290   3.752   0.167   2.979 -0.0199 -0.6483 -1.9804
 4491TP3      O25291   5.146   3.490   2.458  0.2052  0.3029 -0.0655
 4491TP3     H125292   5.094   3.448   2.526  0.6223 -0.0920  0.0154
 4491TP3     H225293   5.193   3.560   2.503  0.3167  0.1800  0.0070
 4492TP3      O25294   0.022   3.490   8.766 -0.0469  0.0756  0.4569
 4492TP3     H125295   0.097   3.454   8.719  1.1125  0.3861  1.9961
 4492TP3     H225296   0.009   3.577   8.729 -0.7405 -0.5779 -0.9513
 4493TP3      O25297   4.200   1.899   8.885 -0.1242  0.0656  0.1510
 4493TP3     H125298   4.271   1.954   8.917 -1.0493  0.3395  1.8299
 4493TP3     H225299   4.202   1.910   8.790  3.2707 -1.4190 -0.0833
 4494TP3      O25300   4.285   1.600  10.101 -0.0268  0.2086  1.0176
 4494TP3     H125301   4.232   1.677  10.123  1.3271  0.9326  1.8604
 4494TP3     H225302   4.359   1.635  10.052 -1.8280 -1.1303 -3.0631
 4495TP3      O25303   0.665   1.952   8.623  0.4809 -0.0715 -0.1058
 4495TP3     H125304   0.571   1.938   8.626  0.5298 -1.3124 -2.1782
 4495TP3     H225305   0.701   1.886   8.683  0.0542  0.3677  0.6477
 4496TP3      O25306   4.496   3.056   2.366 -0.0939  0.3434 -0.2279
 4496TP3     H125307   4.587   3.041   2.392 -0.3983 -0.2583  0.5142
 4496TP3     H225308   4.489   3.015   2.280  0.5564  1.1625 -0.6997
 4497TP3      O25309   4.851   1.743   2.983  0.2939  0.2173  0.3363
 4497TP3     H125310   4.897   1.812   2.935 -1.3787  1.4907  0.4442
 4497TP3     H225311   4.758   1.760   2.965 -0.2232 -1.2385  1.4241
 4498TP3      O25312   5.262   2.112   0.157  0.5619 -0.4427 -0.1408
 4498TP3     H125313   5.200   2.102   0.084  0.2216  3.4625 -0.5942
 4498TP3     H225314   5.347   2.123   0.114  0.6455 -0.0012  0.1330
 4499TP3      O25315   3.079   3.205   8.279 -0.1949  0.1197 -0.2629
 4499TP3     H125316   3.081   3.291   8.239 -0.5721 -0.5709 -1.8326
 4499TP3     H225317   3.170   3.186   8.301  0.0579  0.4155 -1.0478
 4500TP3      O25318   1.781   2.473   1.922 -0.2488 -0.2793 -0.1049
 4500TP3     H125319   1.694   2.499   1.891 -0.3251  1.4202  1.3893
 4500TP3     H225320   1.805   2.399   1.866 -1.2310  1.2741 -2.8012
 4501TP3      O25321   0.018   2.477   7.457 -0.8744  0.2664  0.3945
 4501TP3     H125322   0.062   2.450   7.376 -0.3810  0.3885  0.6204
 4501TP3     H225323  -0.056   2.530   7.427 -2.2175 -1.7528 -0.0964
 4502TP3      O25324   4.211   3.910   8.946  0.4753  0.3284  0.1839
 4502TP3     H125325   4.173   3.906   9.033  0.7618  1.3855  0.3752
 4502TP3     H225326   4.291   3.857   8.951 -0.6324 -1.4407 -0.0705
 4503TP3      O25327   1.259   1.403   2.157  0.2791  0.1063 -0.2902
 4503TP3     H125328   1.195   1.412   2.227 -0.0583  2.8065 -0.8454
 4503TP3     H225329   1.342   1.427   2.198  0.2715  0.5531 -0.5349
 4504TP3      O25330   2.555   2.889   2.944  0.1495  0.5370 -0.0365
 4504TP3     H125331   2.524   2.819   2.887 -0.8460  1.3529 -0.5185
 4504TP3     H225332   2.476   2.937   2.969  0.7261  1.0138  0.9282
 4505TP3      O25333   0.415   4.548   2.849  0.3008  0.4356  0.4920
 4505TP3     H125334   0.348   4.521   2.912 -0.0946  1.3902  0.4886
 4505TP3     H225335   0.463   4.468   2.830 -1.1918 -0.3950  0.0491
 4506TP3      O25336   3.676   3.068   1.110 -0.1520 -0.3030 -0.0144
 4506TP3     H125337   3.653   3.160   1.105 -0.0183 -0.0737  2.4017
 4506TP3     H225338   3.649   3.041   1.198  1.6169 -2.0552  0.0715
 4507TP3      O25339   3.960   5.176   1.927 -1.0541 -0.3782  0.0300
 4507TP3     H125340   3.895   5.213   1.986 -0.4733 -0.3249  0.6546
 4507TP3     H225341   3.914   5.163   1.845 -1.6293  0.4631  0.2066
 4508TP3      O25342   4.387   3.279   1.373  0.0073  0.2037  0.0411
 4508TP3     H125343   4.407   3.187   1.357 -0.1641  0.1411  0.1826
 4508TP3     H225344   4.293   3.281   1.392  0.0257  0.3961  0.1211
 4509TP3      O25345   3.707   2.904   2.042  0.2192  0.0356 -0.0261
 4509TP3     H125346   3.785   2.913   1.987 -0.1932 -1.9251 -1.0115
 4509TP3     H225347   3.741   2.888   2.130  0.9289 -0.0588 -0.3135
 4510TP3      O25348   5.199   3.724   8.708  0.7054 -0.3734 -0.1371
 4510TP3     H125349   5.105   3.733   8.694  0.4331 -0.3033  1.5127
 4510TP3     H225350   5.238   3.742   8.622 -0.9031 -3.5089 -1.6935
 4511TP3      O25351   1.291   1.495   3.015  0.7964  0.1861  0.0831
 4511TP3     H125352   1.358   1.427   3.006  0.3261 -0.1246 -1.5881
 4511TP3     H225353   1.210   1.446   3.031  0.2136  0.1610 -2.4483
 4512TP3      O25354   0.259   2.887   2.190 -0.3577 -0.1139 -0.6497
 4512TP3     H125355   0.343   2.925   2.216 -0.1885 -1.5339  1.1066
 4512TP3     H225356   0.217   2.955   2.138  0.9928  1.4464  0.2003
 4513TP3      O25357   3.368   1.692   1.994 -0.0014  0.5907 -0.4280
 4513TP3     H125358   3.390   1.599   2.004 -0.2993  0.6376  0.8845
 4513TP3     H225359   3.345   1.701   1.902  0.1349 -0.6122 -0.6035
 4514TP3      O25360   0.687   1.582   2.466 -0.3425 -0.1133 -0.3026
 4514TP3     H125361   0.756   1.641   2.495 -0.6628  1.4217 -2.4313
 4514TP3     H225362   0.732   1.499   2.449  0.0668 -0.6784  2.9908
 4515TP3      O25363   1.374   3.592   2.198 -0.3573  0.2006  0.0195
 4515TP3     H125364   1.415   3.548   2.123  1.7303  3.6722 -1.1273
 4515TP3     H225365   1.291   3.625   2.164 -1.2645 -1.4955  0.4770
 4516TP3      O25366   3.027   3.632   0.169 -0.0391 -0.2652  0.0487
 4516TP3     H125367   3.040   3.717   0.211  3.1201 -0.0585 -1.0810
 4516TP3     H225368   2.964   3.649   0.099  0.0748  1.0105  0.2325
 4517TP3      O25369   4.374   2.045   1.210 -0.8111 -0.2394 -0.4759
 4517TP3     H125370   4.312   1.994   1.263 -2.1076  0.4834 -1.2354
 4517TP3     H225371   4.335   2.133   1.206  0.7055  0.4731 -0.2785
 4518TP3      O25372   4.991   3.146   2.664 -0.0320 -0.1088 -0.3766
 4518TP3     H125373   5.056   3.174   2.729 -0.8762 -0.6260  0.7131
 4518TP3     H225374   5.023   3.062   2.632  2.4501  1.7900 -3.5709
 4519TP3      O25375   1.631   2.671   2.513  0.6203 -0.7699  0.5023
 4519TP3     H125376   1.575   2.668   2.591  1.9157 -0.1819  1.4982
 4519TP3     H225377   1.612   2.756   2.473  0.8966 -0.5157  0.9083
 4520TP3      O25378   5.074   1.153   2.634 -0.2371 -0.4658 -0.3542
 4520TP3     H125379   5.115   1.240   2.631  1.0423 -1.0523 -2.4319
 4520TP3     H225380   5.009   1.155   2.563 -2.1025 -0.3864  1.2898
 4521TP3      O25381   0.950   3.060   1.087 -0.2902  0.5537  0.1538
 4521TP3     H125382   0.995   2.976   1.097  0.3731  0.8509 -0.2128
 4521TP3     H225383   0.936   3.069   0.993  0.5557  1.3016  0.0835
 4522TP3      O25384   4.800   5.289   2.973 -0.2229 -0.0963  0.2964
 4522TP3     H125385   4.778   5.203   3.009  0.4809 -0.3437  0.1544
 4522TP3     H225386   4.892   5.301   2.996  0.0894 -0.0306 -0.9561
 4523TP3      O25387   3.150   1.193   2.235 -0.2045 -0.6681  0.1038
 4523TP3     H125388   3.147   1.201   2.331 -0.3873 -0.4831  0.0856
 4523TP3     H225389   3.243   1.187   2.214 -0.1924 -1.3216  0.3387
 4524TP3      O25390   1.252   3.587   7.479 -0.2063  0.0606  0.2986
 4524TP3     H125391   1.258   3.530   7.402 -1.9902 -0.6542  0.6490
 4524TP3     H225392   1.261   3.527   7.554  0.2122  0.5753  0.6677
 4525TP3      O25393   3.545   3.521   8.229 -0.1314 -1.1070 -0.2565
 4525TP3     H125394   3.591   3.600   8.256 -1.2903  0.3604 -2.2381
 4525TP3     H225395   3.490   3.497   8.304 -0.0168  0.1913  0.2588
 4526TP3      O25396   1.338   1.034   9.674 -0.1904  0.1857  0.3477
 4526TP3     H125397   1.305   1.122   9.690 -1.4430 -0.1066 -0.5300
 4526TP3     H225398   1.433   1.045   9.665  0.0071  1.0432  2.8746
 4527TP3      O25399   0.797   3.562   1.211  0.1307  0.0077  0.0566
 4527TP3     H125400   0.775   3.476   1.175  0.8840 -0.2598  0.2288
 4527TP3     H225401   0.731   3.621   1.174 -1.4041 -0.9102  1.1877
 4528TP3      O25402   3.552   3.797   7.698  0.0515 -0.2562  0.7592
 4528TP3     H125403   3.577   3.716   7.743  1.3651 -0.3432 -0.0600
 4528TP3     H225404   3.524   3.856   7.768 -0.1904 -1.1574  1.4461
 4529TP3      O25405   1.108   4.677   7.754 -0.6156 -0.2545 -1.1095
 4529TP3     H125406   1.184   4.624   7.728  1.3396  1.7432  0.1854
 4529TP3     H225407   1.098   4.660   7.848 -0.3223  1.1488 -0.7971
 4530TP3      O25408   0.874   0.051   2.172 -0.0689 -0.2535  0.3886
 4530TP3     H125409   0.925   0.012   2.101 -1.5562 -1.2279 -0.2050
 4530TP3     H225410   0.916   0.020   2.252  1.2206  0.2969 -0.0495
 4531TP3      O25411   3.151   0.990   7.311  0.0568  1.0754 -0.1871
 4531TP3     H125412   3.132   1.052   7.241  2.3720  2.8777  0.6568
 4531TP3     H225413   3.214   0.930   7.273 -2.2101 -0.9617 -1.0159
 4532TP3      O25414   0.917   4.065   2.694 -0.8608 -0.0196 -0.2957
 4532TP3     H125415   0.962   4.024   2.768 -1.0582 -0.4146 -0.3891
 4532TP3     H225416   0.984   4.117   2.651 -0.4300 -0.7754 -0.5629
 4533TP3      O25417   0.816   2.428   7.429 -0.7024 -0.3627  0.7730
 4533TP3     H125418   0.848   2.402   7.516 -0.8384  1.5515  1.4523
 4533TP3     H225419   0.880   2.392   7.368 -0.4162 -1.4576  1.6726
 4534TP3      O25420   4.093   2.979   3.220 -0.3821 -0.7540 -0.1905
 4534TP3     H125421   4.164   3.042   3.234 -0.0448 -1.3171  0.6953
 4534TP3     H225422   4.128   2.896   3.252 -1.6680 -0.9149  0.8885
 4535TP3      O25423   3.008   4.297   1.814  0.2070 -0.3928 -0.3520
 4535TP3     H125424   2.941   4.296   1.882  0.8033  1.4678  0.3011
 4535TP3     H225425   2.976   4.234   1.749 -2.6557  1.0482 -0.5071
 4536TP3      O25426   0.197   3.144   9.948  0.2037  0.6109 -0.3547
 4536TP3     H125427   0.190   3.050   9.931  1.0785  0.5756 -0.5583
 4536TP3     H225428   0.169   3.154  10.039  0.8424  0.0441 -0.0898
 4537TP3      O25429   2.549   1.419   1.693  0.3237  0.1288  0.0177
 4537TP3     H125430   2.540   1.514   1.688  0.1317  0.0485 -1.7209
 4537TP3     H225431   2.460   1.387   1.709  0.2113  0.1941 -0.4623
 4538TP3      O25432   3.011   3.631   2.772 -0.1081 -0.1344 -0.3223
 4538TP3     H125433   3.082   3.617   2.709  1.3520 -0.5705  1.3295
 4538TP3     H225434   3.008   3.550   2.823 -1.6945 -0.0450 -0.2218
 4539TP3      O25435   4.805   2.202   3.466 -0.1892 -0.6729  0.8883
 4539TP3     H125436   4.819   2.110   3.486  1.2799 -1.0417 -1.3891
 4539TP3     H225437   4.799   2.205   3.371 -2.1745  1.3891  0.9995
 4540TP3      O25438   3.155   0.893   1.513 -0.4037  0.1047  0.4545
 4540TP3     H125439   3.106   0.951   1.571 -2.0653 -2.2091  1.5284
 4540TP3     H225440   3.129   0.805   1.540  0.1389 -1.1355 -2.6578
 4541TP3      O25441   2.963   2.662   9.642  0.1516  0.3305  0.3789
 4541TP3     H125442   2.965   2.690   9.550 -2.6316 -0.5761 -0.0344
 4541TP3     H225443   2.985   2.569   9.639  0.3372  0.3613  0.6966
 4542TP3      O25444   0.474   2.037   3.447  0.7408  0.0026 -0.3679
 4542TP3     H125445   0.451   2.116   3.497  0.9554 -0.1248 -0.0678
 4542TP3     H225446   0.416   2.040   3.371 -0.3146 -0.3418  0.4021
 4543TP3      O25447   5.152   2.710   9.238 -0.0410 -0.6366  0.2974
 4543TP3     H125448   5.227   2.735   9.185 -0.1246 -1.7956 -0.3998
 4543TP3     H225449   5.137   2.785   9.295  2.5863 -0.9633  1.5548
 4544TP3      O25450   4.641   4.559   7.386 -0.3265  0.7564  0.0320
 4544TP3     H125451   4.616   4.561   7.294 -2.2394 -0.0954  0.4886
 4544TP3     H225452   4.735   4.575   7.385 -0.1422 -0.0874 -2.1421
 4545TP3      O25453   3.767   0.568   8.650  0.2560 -0.3565 -0.4002
 4545TP3     H125454   3.682   0.551   8.689 -0.0762  0.0800 -0.9085
 4545TP3     H225455   3.763   0.661   8.625  0.5143 -0.5822 -1.3097
 4546TP3      O25456   0.058   0.987   3.573  0.1799 -0.1006 -0.1823
 4546TP3     H125457   0.117   1.043   3.522  0.6403 -0.9863 -0.6367
 4546TP3     H225458   0.113   0.949   3.641 -0.3010  0.5871  0.6234
 4547TP3      O25459   3.943   1.467   7.264 -0.4194 -0.4139  0.6400
 4547TP3     H125460   3.949   1.459   7.169  0.7348  0.8855  0.5801
 4547TP3     H225461   4.016   1.415   7.297 -0.4574 -0.3636  0.8022
 4548TP3      O25462   5.113   1.025   3.426 -0.0016 -0.2054  0.3540
 4548TP3     H125463   5.186   0.999   3.483  0.4561  1.8581  0.7989
 4548TP3     H225464   5.040   1.040   3.486  0.1787  0.9495  0.3035
 4549TP3      O25465   2.319   0.234   0.973  0.6152 -0.1027 -0.6048
 4549TP3     H125466   2.341   0.326   0.982 -1.1848  0.3289 -0.1979
 4549TP3     H225467   2.336   0.196   1.059  0.5644  0.0440 -0.5306
 4550TP3      O25468   0.438   0.221   0.918 -0.0159  0.1174  0.0139
 4550TP3     H125469   0.358   0.177   0.889 -1.0964  1.1051  1.3488
 4550TP3     H225470   0.448   0.294   0.857 -1.9476  1.8326  1.5805
 4551TP3      O25471   1.068   0.578   9.190  0.0427 -0.0160  0.1747
 4551TP3     H125472   1.137   0.642   9.209 -0.9818  1.1649  0.0572
 4551TP3     H225473   1.022   0.613   9.114 -0.7675 -0.7017  0.3224
 4552TP3      O25474   0.245   2.550   1.647  0.0639 -0.0413  0.1541
 4552TP3     H125475   0.296   2.629   1.664 -0.6244  0.7143 -1.1082
 4552TP3     H225476   0.310   2.481   1.633  0.7179  0.6422 -0.2335
 4553TP3      O25477   2.173   2.055   3.482  0.4297 -0.7460  0.2528
 4553TP3     H125478   2.079   2.053   3.500  0.5303 -2.0840  0.8040
 4553TP3     H225479   2.209   1.988   3.540  1.7575 -0.0970  0.2082
 4554TP3      O25480   2.810   3.257   9.555 -0.0490  0.5897  0.4637
 4554TP3     H125481   2.790   3.173   9.595  0.0275  1.0116  1.4201
 4554TP3     H225482   2.755   3.320   9.601 -0.5195  0.9972 -0.6257
 4555TP3      O25483   1.203   2.524   2.183 -0.2333  0.1493 -0.5342
 4555TP3     H125484   1.298   2.516   2.183  0.0174  2.2592  0.7836
 4555TP3     H225485   1.175   2.473   2.259 -0.1862 -0.4693 -0.9198
 4556TP3      O25486   2.150   3.211   1.839  0.0792  1.1969  0.0568
 4556TP3     H125487   2.094   3.209   1.916 -0.3032 -2.4622 -0.1293
 4556TP3     H225488   2.089   3.213   1.765 -0.0713 -2.6944 -0.1428
 4557TP3      O25489   4.029   3.602   9.261  0.1206  0.0719 -0.2448
 4557TP3     H125490   3.970   3.541   9.215  2.6298 -1.7684 -1.2701
 4557TP3     H225491   4.007   3.591   9.354 -0.7019 -1.0654 -0.5505
 4558TP3      O25492   0.741   1.674   7.506  0.4082  0.0064 -0.2032
 4558TP3     H125493   0.708   1.626   7.581  1.4849 -0.9477 -0.3104
 4558TP3     H225494   0.666   1.684   7.448 -0.1340 -0.3593  0.4283
 4559TP3      O25495   2.955   2.251   8.491 -0.1201  0.0945 -0.4877
 4559TP3     H125496   2.990   2.265   8.579 -0.3878  3.3441 -0.7916
 4559TP3     H225497   2.891   2.180   8.502  0.9932 -0.6871  1.5573
 4560TP3      O25498   2.596   3.837   3.288  0.3396 -0.7094  0.2843
 4560TP3     H125499   2.619   3.875   3.373  0.2725 -1.4097  0.6212
 4560TP3     H225500   2.644   3.755   3.284  0.0589 -0.8576 -0.2034
 4561TP3      O25501   3.011   0.672   1.865  0.2752  0.5347 -0.2338
 4561TP3     H125502   3.094   0.717   1.855 -0.2910  1.4498 -1.0712
 4561TP3     H225503   3.034   0.580   1.880  1.4155  0.7854 -0.3913
 4562TP3      O25504   1.625   3.085   8.458  0.3097 -0.0224 -0.5613
 4562TP3     H125505   1.691   3.049   8.399  1.3851  1.9104 -0.5999
 4562TP3     H225506   1.666   3.162   8.498 -2.3950  2.2564 -1.7902
 4563TP3      O25507   0.547   5.264   2.870  0.4897  0.1782 -0.0960
 4563TP3     H125508   0.502   5.215   2.801  0.9346 -0.1850 -0.1284
 4563TP3     H225509   0.509   5.351   2.865 -1.1132 -0.4393  0.6782
 4564TP3      O25510   4.261   1.326   9.894 -0.2905 -0.4818  0.9261
 4564TP3     H125511   4.169   1.311   9.915 -0.2065 -0.5036  1.2825
 4564TP3     H225512   4.286   1.403   9.945 -1.0187  1.6449 -1.7262
 4565TP3      O25513   0.624   1.686   6.569  0.2704 -0.0599  0.0008
 4565TP3     H125514   0.572   1.637   6.632 -0.0072 -1.2297 -1.0934
 4565TP3     H225515   0.588   1.774   6.571 -0.6468 -0.4320  0.4718
 4566TP3      O25516   3.446   4.671   1.164 -0.1661 -0.7963 -0.0640
 4566TP3     H125517   3.399   4.601   1.210 -0.4730 -0.6287 -0.1235
 4566TP3     H225518   3.443   4.645   1.072 -1.1884 -0.1777 -0.2121
 4567TP3      O25519   3.798   0.218   2.699  0.0386 -0.1069 -0.0217
 4567TP3     H125520   3.758   0.268   2.771  1.4862  0.4599  0.4268
 4567TP3     H225521   3.728   0.209   2.635 -1.2576 -0.4992  1.3886
 4568TP3      O25522   0.100   4.524   0.034 -0.1742 -0.5801 -0.1562
 4568TP3     H125523   0.030   4.461   0.016 -0.7460 -0.3056  1.0626
 4568TP3     H225524   0.118   4.516   0.127 -0.4551  1.2569  0.0976
 4569TP3      O25525   2.656   0.978   6.494 -0.2562  0.6059 -0.1995
 4569TP3     H125526   2.682   1.064   6.528 -0.8561  1.7387 -2.4001
 4569TP3     H225527   2.565   0.990   6.467 -0.2548 -0.6253 -0.7992
 4570TP3      O25528   4.175   0.399   0.007 -0.0331  0.6625  1.1293
 4570TP3     H125529   4.148   0.465   0.071  0.1092 -0.3317  2.2486
 4570TP3     H225530   4.144   0.433  -0.077 -3.5260  0.2855  2.1304
 4571TP3      O25531   1.189   4.468   9.359 -0.4383  0.6176 -0.2640
 4571TP3     H125532   1.254   4.414   9.313 -0.3906  0.1013  0.4009
 4571TP3     H225533   1.241   4.522   9.419 -0.6573 -0.3687  0.8565
 4572TP3      O25534   1.653   0.613   1.212  0.3563  0.2623 -0.0191
 4572TP3     H125535   1.726   0.552   1.203  1.6965  1.5770  1.3578
 4572TP3     H225536   1.612   0.589   1.295  0.9292  1.2183  0.5624
 4573TP3      O25537   1.342   1.099   2.597  0.2756  0.1976 -0.4094
 4573TP3     H125538   1.282   1.145   2.657  1.1682  1.6682 -0.5826
 4573TP3     H225539   1.291   1.026   2.564 -1.8795  2.0641 -1.4877
 4574TP3      O25540   0.534   4.026   9.621  0.1653  0.1055 -0.8019
 4574TP3     H125541   0.521   3.957   9.686 -0.8938  1.8717  0.9682
 4574TP3     H225542   0.455   4.023   9.567  1.3382 -1.8087 -2.5825
 4575TP3      O25543   0.044   3.653   0.538  0.6187 -0.3579 -0.2088
 4575TP3     H125544  -0.026   3.612   0.488  0.6352 -0.3838 -0.2107
 4575TP3     H225545   0.011   3.740   0.560  0.2153 -0.7013  0.5817
 4576TP3      O25546   2.885   0.500   2.145  0.4380  0.3164 -0.0220
 4576TP3     H125547   2.932   0.579   2.173  0.2280 -0.4303  2.6717
 4576TP3     H225548   2.917   0.431   2.203 -2.2076 -0.7399  0.3334
 4577TP3      O25549   3.957   3.336   0.386 -0.0959 -0.4625  0.0972
 4577TP3     H125550   4.013   3.285   0.444  0.0023  0.5446  0.9159
 4577TP3     H225551   3.880   3.356   0.438  0.2750  0.9973  0.1109
 4578TP3      O25552   0.747   4.247   1.169  0.2865 -0.3378 -0.0224
 4578TP3     H125553   0.819   4.202   1.213 -1.0647 -0.8000  1.8743
 4578TP3     H225554   0.679   4.180   1.160 -0.5059  0.4868 -0.2719
 4579TP3      O25555   0.218   2.468   9.963  0.1610  0.0646  0.6927
 4579TP3     H125556   0.158   2.538   9.988  0.5635 -0.2186  2.5566
 4579TP3     H225557   0.293   2.514   9.923  0.2295  0.6789  1.5023
 4580TP3      O25558   4.111   3.577   1.471  0.1569 -0.1013  0.0463
 4580TP3     H125559   4.095   3.563   1.564  0.9051 -0.0217  0.1936
 4580TP3     H225560   4.127   3.490   1.435  1.0454 -0.0353  0.2348
 4581TP3      O25561   3.123   4.911   2.380  0.1081  0.6164  0.3142
 4581TP3     H125562   3.125   4.866   2.295 -1.1000  0.6192  0.2658
 4581TP3     H225563   3.108   5.003   2.358  1.0848  0.8318  0.4872
 4582TP3      O25564   0.780   4.313   0.254 -0.3791 -0.2399  0.1674
 4582TP3     H125565   0.731   4.396   0.255  0.8208  0.4934 -0.5323
 4582TP3     H225566   0.868   4.337   0.227 -0.0732 -1.7973 -0.3078
 4583TP3      O25567   4.538   4.374   9.878 -0.0755 -0.3823 -0.6951
 4583TP3     H125568   4.510   4.353   9.968 -1.4506 -2.3039 -1.5047
 4583TP3     H225569   4.553   4.468   9.880  0.3951 -0.4306  1.6644
 4584TP3      O25570   4.033   0.155   2.518 -0.6702 -0.3311 -0.6029
 4584TP3     H125571   4.091   0.104   2.574 -2.4399 -1.2038  0.5610
 4584TP3     H225572   4.004   0.228   2.573 -0.1305  0.5051 -1.4075
 4585TP3      O25573   4.584   4.292   2.671  0.3995 -0.1076 -0.0506
 4585TP3     H125574   4.613   4.306   2.761  0.2166  0.2829 -0.0544
 4585TP3     H225575   4.605   4.200   2.654  2.4576  0.3502 -0.3415
 4586TP3      O25576   1.648   0.230   1.152 -0.3957 -1.1076  0.1378
 4586TP3     H125577   1.717   0.296   1.148  0.6903 -2.2296 -0.2423
 4586TP3     H225578   1.568   0.280   1.166  0.6779  0.1297  2.3280
 4587TP3      O25579   2.578   3.892   1.972  0.3699  0.1715  0.4364
 4587TP3     H125580   2.529   3.838   2.033 -1.6354  0.9871 -0.3617
 4587TP3     H225581   2.512   3.930   1.914  2.0330  0.6780 -1.2571
 4588TP3      O25582   3.066   3.722   2.197  0.3307  0.1272 -0.0780
 4588TP3     H125583   2.993   3.722   2.135  0.0303  2.7561  0.1773
 4588TP3     H225584   3.042   3.656   2.262 -1.2037  0.0472 -0.6890
 4589TP3      O25585   4.186   2.843   2.932  0.2997 -0.0126  0.0678
 4589TP3     H125586   4.231   2.798   3.003 -1.5524 -0.3034  1.1099
 4589TP3     H225587   4.119   2.895   2.975 -0.1494  0.6812 -1.4083
 4590TP3      O25588   4.923   5.223   1.757  0.1694  0.0084  0.2155
 4590TP3     H125589   4.848   5.165   1.739  1.0310 -1.0561 -0.0478
 4590TP3     H225590   4.920   5.238   1.851 -0.2580 -0.1901  0.2357
 4591TP3      O25591   4.518   0.375   2.111  0.1058 -0.0105  0.1712
 4591TP3     H125592   4.480   0.292   2.139 -0.3120  0.8234  2.2867
 4591TP3     H225593   4.459   0.407   2.043  0.2174 -1.3509 -0.5974
 4592TP3      O25594   4.310   0.564   2.784  0.3303  0.6050  0.3901
 4592TP3     H125595   4.320   0.512   2.704 -0.5028  2.9504 -1.3501
 4592TP3     H225596   4.399   0.595   2.803  0.7804 -1.0783  1.2674
 4593TP3      O25597   3.563   4.049   1.938  0.0763  0.4623 -0.5505
 4593TP3     H125598   3.610   4.117   1.888 -1.2024  0.9341 -1.1564
 4593TP3     H225599   3.608   4.046   2.022  1.5805  0.4533 -1.3079
 4594TP3      O25600   2.810   1.494   3.709 -0.1035 -0.7662  0.3981
 4594TP3     H125601   2.737   1.432   3.714  0.3168 -1.2251  1.1636
 4594TP3     H225602   2.888   1.438   3.708  0.2246 -0.3393 -1.6961
 4595TP3      O25603   0.071   1.557   0.953  0.3934 -0.4582 -0.0806
 4595TP3     H125604   0.020   1.639   0.955 -1.3128 -1.4546 -0.3872
 4595TP3     H225605   0.023   1.498   1.011  0.6596 -1.7478 -1.1187
 4596TP3      O25606   0.776   4.670   7.336  0.4325  0.0487 -0.2912
 4596TP3     H125607   0.808   4.646   7.423  1.2504 -1.1796 -0.8971
 4596TP3     H225608   0.683   4.648   7.338  0.1365  1.2914  0.6876
 4597TP3      O25609   0.758   5.263   3.055 -0.2784  0.6403 -0.4628
 4597TP3     H125610   0.663   5.250   3.053 -0.4787  1.9499 -2.1019
 4597TP3     H225611   0.776   5.304   3.139 -0.8523 -1.4057  0.7231
 4598TP3      O25612   2.925   1.574   2.906  0.0451 -0.0942  0.4658
 4598TP3     H125613   2.831   1.574   2.891 -0.1994  0.8331  1.8676
 4598TP3     H225614   2.935   1.590   2.999  1.6193  2.0912  0.0098
 4599TP3      O25615   1.436   1.956   7.138  0.1674  0.1687 -0.3114
 4599TP3     H125616   1.387   2.038   7.133 -0.5757  0.0146  2.5342
 4599TP3     H225617   1.481   1.961   7.222  1.5563 -1.5943 -0.8988
 4600TP3      O25618   0.339   1.019   7.992  0.3889 -0.1506 -0.1483
 4600TP3     H125619   0.294   1.057   8.067  2.1685  1.1894  0.3166
 4600TP3     H225620   0.423   1.065   7.989  1.4839 -2.0750 -1.3325
 4601TP3      O25621   4.244   2.949   1.499  0.0967 -0.1781 -0.4651
 4601TP3     H125622   4.165   2.961   1.446  1.3585  0.0193 -2.4190
 4601TP3     H225623   4.240   3.017   1.565  0.2749  2.1352 -2.6924
 4602TP3      O25624   3.925   3.083   3.044  0.8637  0.6357  0.4719
 4602TP3     H125625   3.966   3.035   3.116 -0.3970 -1.2957 -0.0446
 4602TP3     H225626   3.863   3.142   3.087  1.1431  0.5378  1.0213
 4603TP3      O25627   2.168   2.544   8.410  0.2338  0.0701  0.8213
 4603TP3     H125628   2.189   2.517   8.320  0.6905  0.0353  0.9350
 4603TP3     H225629   2.109   2.476   8.442  0.6438 -0.3053  0.7915
 4604TP3      O25630   1.983   5.207   1.489  0.1957  0.0232  0.2940
 4604TP3     H125631   1.982   5.114   1.513  1.0893  0.1877  1.0534
 4604TP3     H225632   1.950   5.209   1.400 -1.6578 -0.8243  0.9087
 4605TP3      O25633   1.183   3.185   2.981  0.6550 -0.3456 -0.1038
 4605TP3     H125634   1.235   3.244   3.035 -1.9384  0.1217  2.0632
 4605TP3     H225635   1.217   3.098   3.001  2.4588  0.0963 -0.9884
 4606TP3      O25636   1.762   0.055   1.347  0.3348  0.2380 -0.4753
 4606TP3     H125637   1.718   0.121   1.293  0.1442  1.5078  1.1806
 4606TP3     H225638   1.723   0.064   1.434  2.1699 -0.2366  0.4469
 4607TP3      O25639   1.321   1.714   2.154  0.6246 -0.5502  0.2583
 4607TP3     H125640   1.301   1.772   2.228  1.9513  1.8825 -1.1610
 4607TP3     H225641   1.401   1.668   2.181  0.0008 -1.1975  1.0805
 4608TP3      O25642   1.028   3.500   3.576  0.0331  0.5156  0.1161
 4608TP3     H125643   1.086   3.568   3.612  0.6255  0.2899 -0.3870
 4608TP3     H225644   0.943   3.543   3.567  0.8634  1.8751 -2.1866
 4609TP3      O25645   2.157   0.219   3.040  0.1205  0.0553 -0.1356
 4609TP3     H125646   2.198   0.280   3.101  0.7723 -0.4797 -0.0293
 4609TP3     H225647   2.144   0.139   3.091 -0.7766  0.1107 -0.2565
 4610TP3      O25648   5.182   0.308   1.467  0.0362  0.7660 -0.3532
 4610TP3     H125649   5.265   0.281   1.507  0.7859  2.0336 -0.9930
 4610TP3     H225650   5.126   0.231   1.474  1.8466 -0.7350 -1.5269
 4611TP3      O25651   5.168   2.586   9.525 -0.3895 -0.6265 -0.5571
 4611TP3     H125652   5.242   2.641   9.498 -1.2532  0.4357 -0.8254
 4611TP3     H225653   5.170   2.512   9.465  1.1365 -1.2196  0.1707
 4612TP3      O25654   2.902   0.425   1.614 -0.0684 -1.0056  0.3209
 4612TP3     H125655   2.931   0.439   1.704 -1.2644 -0.8606  0.7032
 4612TP3     H225656   2.862   0.338   1.615 -2.1099 -0.1276  0.5149
 4613TP3      O25657   3.443   5.050   0.899  0.0887  0.5795 -0.0316
 4613TP3     H125658   3.407   5.137   0.883  0.2694  0.7065  0.2469
 4613TP3     H225659   3.448   5.043   0.994  0.5433  0.4572 -0.0625
 4614TP3      O25660   2.321   0.092   8.177  0.2494  0.2158 -0.0117
 4614TP3     H125661   2.302   0.103   8.084  0.1867  0.6034  0.0453
 4614TP3     H225662   2.268   0.160   8.220  1.4769  1.0904  0.1762
 4615TP3      O25663   4.356   4.152   7.083  0.0458  0.3821  0.3398
 4615TP3     H125664   4.371   4.247   7.077 -0.4939  0.3708 -1.8723
 4615TP3     H225665   4.264   4.141   7.058 -0.1763 -0.6688  1.5334
 4616TP3      O25666   0.872   2.618   3.458 -0.7801  0.3776  0.1953
 4616TP3     H125667   0.848   2.698   3.411 -1.1918  0.8138  1.1217
 4616TP3     H225668   0.811   2.614   3.531 -1.6652 -1.5210 -0.5751
 4617TP3      O25669   5.199   3.091   7.775  0.2685 -0.3345 -0.0055
 4617TP3     H125670   5.223   3.089   7.868  1.1046  1.0202 -0.1555
 4617TP3     H225671   5.256   3.026   7.734 -0.2935 -1.1292  0.4588
 4618TP3      O25672   0.953   3.685   2.843  0.7656 -0.4138  0.1002
 4618TP3     H125673   1.009   3.641   2.907  0.7833  0.4878  0.7323
 4618TP3     H225674   0.984   3.775   2.842 -0.0828 -0.1089 -0.2221
 4619TP3      O25675   3.109   0.584   2.329  0.5654 -0.1194  0.0137
 4619TP3     H125676   3.104   0.675   2.360 -0.3746  0.5022 -1.8127
 4619TP3     H225677   3.086   0.531   2.405  1.4006  1.1494  1.1831
 4620TP3      O25678   3.106   1.844   0.694  0.2504  0.1162  0.0044
 4620TP3     H125679   3.157   1.860   0.615 -0.5469 -0.2387 -0.6041
 4620TP3     H225680   3.074   1.754   0.684 -0.2294  0.2224  0.5149
 4621TP3      O25681   2.726   2.941   1.360  0.8192 -0.0245  0.1816
 4621TP3     H125682   2.796   3.003   1.341 -1.2129  2.1647 -0.6355
 4621TP3     H225683   2.675   2.982   1.430 -0.5908 -0.7197 -0.3953
 4622TP3      O25684   2.283   4.683   9.934 -0.2213  0.3095 -0.1965
 4622TP3     H125685   2.324   4.757   9.888  2.4118 -0.7138  0.3582
 4622TP3     H225686   2.276   4.615   9.867 -0.1658  0.1736 -0.0643
 4623TP3      O25687   0.229   2.591   1.295 -0.5819  0.2748 -0.1826
 4623TP3     H125688   0.149   2.575   1.345  0.4310 -1.2282  1.0441
 4623TP3     H225689   0.281   2.511   1.306  1.8091  1.8205  0.4710
 4624TP3      O25690   4.330   2.255   2.792  0.1270 -0.1065  0.0834
 4624TP3     H125691   4.388   2.242   2.717 -0.7961 -1.0538 -0.4947
 4624TP3     H225692   4.387   2.286   2.862  0.9859  0.9498 -1.0426
 4625TP3      O25693   1.926   0.530   9.587  0.1091  0.4888  0.4356
 4625TP3     H125694   1.944   0.581   9.666 -0.3604 -0.0867  0.9154
 4625TP3     H225695   2.009   0.485   9.568  0.2616  0.7322  0.5168
 4626TP3      O25696   0.737   2.981   1.289  0.3240 -0.1153 -0.1611
 4626TP3     H125697   0.791   2.902   1.283  1.3613  0.4908  0.7996
 4626TP3     H225698   0.764   3.034   1.214  0.3966 -0.2175 -0.2071
 4627TP3      O25699   4.018   0.574   1.639  0.7720  0.5123 -0.3327
 4627TP3     H125700   4.071   0.647   1.606 -0.5896  0.8406 -1.9502
 4627TP3     H225701   3.978   0.608   1.719 -0.3087  1.8166 -1.3707
 4628TP3      O25702   1.232   5.276   7.942 -0.3905  0.1782 -0.2214
 4628TP3     H125703   1.187   5.195   7.919 -2.4759  1.0549  0.4770
 4628TP3     H225704   1.306   5.248   7.997  0.8152 -1.4127 -2.5025
 4629TP3      O25705   2.229   2.428   3.028 -0.1833  0.0146 -0.3641
 4629TP3     H125706   2.254   2.373   2.954  0.2995  0.6004 -0.6485
 4629TP3     H225707   2.192   2.507   2.988 -2.5826 -0.8191  0.0340
 4630TP3      O25708   2.477   3.372   2.638  0.1970  0.1523  0.0509
 4630TP3     H125709   2.563   3.348   2.671  0.0239  0.0362  0.4258
 4630TP3     H225710   2.466   3.464   2.664  0.5141  0.3938 -0.6511
 4631TP3      O25711   2.349   1.520   1.965 -0.1958 -0.3784 -0.0521
 4631TP3     H125712   2.351   1.611   1.995  1.9948 -0.8213  1.4267
 4631TP3     H225713   2.270   1.513   1.912 -1.2817  1.9526  1.1432
 4632TP3      O25714   0.804   3.634   3.518  0.1286 -0.9757  0.7336
 4632TP3     H125715   0.709   3.639   3.508  0.1789  1.9181  0.7230
 4632TP3     H225716   0.838   3.695   3.452  2.0396 -2.2731  0.4336
 4633TP3      O25717   0.208   5.218   2.401  0.2081  0.0850  0.1145
 4633TP3     H125718   0.300   5.223   2.427  1.4336  0.7923 -3.7140
 4633TP3     H225719   0.203   5.140   2.345 -0.9587  1.2285 -1.4546
 4634TP3      O25720   1.566   2.854   8.600 -0.1732 -0.7701 -0.0668
 4634TP3     H125721   1.641   2.851   8.659  0.7740 -2.2846 -1.2658
 4634TP3     H225722   1.594   2.912   8.529 -0.9273  0.2409  0.4244
 4635TP3      O25723   0.241   1.983   0.878 -0.0617 -0.5916 -0.5728
 4635TP3     H125724   0.305   2.021   0.818  1.8851 -2.5863  0.1034
 4635TP3     H225725   0.178   1.938   0.821  0.5579 -0.6943 -1.1901
 4636TP3      O25726   1.374   3.562   0.136 -0.1840  0.2598 -0.0044
 4636TP3     H125727   1.391   3.656   0.138 -0.3358  0.3751 -2.0305
 4636TP3     H225728   1.458   3.521   0.155  0.4699  0.8281 -1.5783
 4637TP3      O25729   3.937   5.180   0.457  0.0431 -0.2783 -0.4369
 4637TP3     H125730   3.912   5.253   0.513  0.5914  1.0594 -1.8557
 4637TP3     H225731   3.854   5.140   0.430 -0.2363 -0.5831  0.8440
 4638TP3      O25732   0.893   5.057   8.585 -0.0722 -0.2811 -0.0352
 4638TP3     H125733   0.884   5.034   8.677  0.8697  0.4401  0.2674
 4638TP3     H225734   0.834   5.131   8.573  1.6720  1.3273  0.7016
 4639TP3      O25735   2.817   5.026   2.022 -0.4929 -0.6140 -0.4107
 4639TP3     H125736   2.889   5.052   2.079 -1.3210  2.4693 -0.6274
 4639TP3     H225737   2.855   5.024   1.934 -0.6063  0.8443 -0.5039
 4640TP3      O25738   2.911   0.483   2.630 -0.4836  0.4866  0.1143
 4640TP3     H125739   2.956   0.436   2.559 -2.9359  0.1619 -1.3532
 4640TP3     H225740   2.888   0.414   2.693 -0.8386  0.2932 -0.2219
 4641TP3      O25741   2.546   2.784   1.763 -0.2157  0.0665  0.2935
 4641TP3     H125742   2.624   2.731   1.779 -0.7409 -0.8131  0.0317
 4641TP3     H225743   2.474   2.721   1.765 -0.7782  0.6492 -0.7923
 4642TP3      O25744   0.294   1.940   2.705 -0.3732  0.3016  0.0301
 4642TP3     H125745   0.263   1.973   2.621  0.2854 -1.4422 -0.9454
 4642TP3     H225746   0.386   1.920   2.690  0.2997  1.7874  1.7723
 4643TP3      O25747   2.993   4.360   6.701 -0.4799  0.5633 -0.3623
 4643TP3     H125748   2.948   4.440   6.673 -2.0458  0.4929  1.7214
 4643TP3     H225749   3.051   4.389   6.771 -1.1767 -0.1314  0.5172
 4644TP3      O25750   4.159   0.349   8.426 -0.1434  0.4892 -0.1485
 4644TP3     H125751   4.117   0.337   8.511  0.0397  0.9483  0.0131
 4644TP3     H225752   4.087   0.362   8.365 -0.2412  1.4797  0.1610
 4645TP3      O25753   3.837   1.336   9.487  0.0480  0.3818 -0.1830
 4645TP3     H125754   3.772   1.289   9.435 -0.6700  1.1782 -0.0095
 4645TP3     H225755   3.850   1.419   9.442  2.6217 -0.6117 -1.4760
 4646TP3      O25756   0.591   2.233   2.300  0.1483  0.2607 -0.3757
 4646TP3     H125757   0.503   2.264   2.324  0.5013  0.9187  0.1057
 4646TP3     H225758   0.576   2.149   2.258 -0.6959  0.2282 -0.0291
 4647TP3      O25759   1.996   4.872   7.936 -0.1534  0.1286  0.5832
 4647TP3     H125760   1.966   4.860   7.846  0.3616  0.9085  0.2991
 4647TP3     H225761   2.001   4.784   7.972  2.6433 -0.5165 -1.1242
 4648TP3      O25762   3.105   4.417   0.689 -0.2091  0.1531  0.2632
 4648TP3     H125763   3.040   4.475   0.729 -0.1506  0.0884  0.4514
 4648TP3     H225764   3.071   4.402   0.600 -0.2355  0.4553  0.2187
 4649TP3      O25765   4.296   1.055   0.469 -0.4215 -0.8061  0.1743
 4649TP3     H125766   4.330   1.004   0.396  1.9271  0.6615  0.1273
 4649TP3     H225767   4.308   0.999   0.545 -0.9985 -1.5757 -0.2895
 4650TP3      O25768   0.266   2.358   2.683  0.3097 -0.2428 -0.6280
 4650TP3     H125769   0.357   2.329   2.674  0.6028  0.7894 -1.0379
 4650TP3     H225770   0.266   2.450   2.657 -1.2978 -0.8675 -3.2699
 4651TP3      O25771   0.223   1.395   9.579  0.6607 -0.3157  0.4006
 4651TP3     H125772   0.176   1.449   9.515  2.0021 -0.7616 -1.0394
 4651TP3     H225773   0.177   1.311   9.578 -0.9112  0.4670  2.0163
 4652TP3      O25774   0.647   0.455   2.464 -0.0871  0.3650 -0.1553
 4652TP3     H125775   0.591   0.378   2.450  0.2178  0.1279 -0.0775
 4652TP3     H225776   0.693   0.437   2.546  0.2463  0.4702 -0.3161
 4653TP3      O25777   3.056   0.794   2.968 -0.4074 -0.3857 -0.1813
 4653TP3     H125778   3.059   0.873   2.914 -0.0816 -0.5842 -0.4614
 4653TP3     H225779   3.033   0.825   3.056 -0.2503  0.0228 -0.2842
 4654TP3      O25780   0.103   3.205   3.544 -0.1101 -0.1577 -0.0477
 4654TP3     H125781   0.088   3.257   3.465 -1.4346 -1.9438 -1.0495
 4654TP3     H225782   0.168   3.139   3.517 -1.1024 -1.2282  0.1022
 4655TP3      O25783   1.580   2.706   0.426  0.0685 -0.6065 -0.0116
 4655TP3     H125784   1.649   2.750   0.375  1.4209 -2.5623  0.0335
 4655TP3     H225785   1.602   2.725   0.517  1.0197 -1.8069  0.0362
 4656TP3      O25786   3.215   4.771   3.068 -0.1290 -0.0523  0.1024
 4656TP3     H125787   3.248   4.749   2.981 -1.3679  0.1895 -0.4360
 4656TP3     H225788   3.293   4.765   3.124  1.0178  1.1894 -1.2449
 4657TP3      O25789   3.987   2.462   8.293 -0.4266 -0.3639  0.0851
 4657TP3     H125790   3.957   2.472   8.203 -0.5682 -0.2061  0.1492
 4657TP3     H225791   3.980   2.368   8.310 -1.5601 -0.2543  0.3258
 4658TP3      O25792   3.578   2.344   0.634 -0.5396  0.5846 -0.0395
 4658TP3     H125793   3.598   2.433   0.606 -1.8785  0.5577 -1.1996
 4658TP3     H225794   3.539   2.302   0.557 -2.5310 -0.1241  1.2549
 4659TP3      O25795   4.070   2.841   9.312 -0.2356 -0.1403  0.0695
 4659TP3     H125796   4.075   2.765   9.255 -1.1803 -0.2326  0.0915
 4659TP3     H225797   4.161   2.863   9.333  0.1336 -3.7312  3.3466
 4660TP3      O25798   5.217   0.909   7.896  0.4084  0.0147  0.2934
 4660TP3     H125799   5.202   0.817   7.874 -0.7012 -0.1203  1.4468
 4660TP3     H225800   5.305   0.928   7.863 -0.1706 -0.8165 -1.8891
 4661TP3      O25801   1.847   4.595   7.804  0.1095 -0.0137  0.5170
 4661TP3     H125802   1.804   4.562   7.883 -0.5601  1.5731  0.8557
 4661TP3     H225803   1.793   4.564   7.732 -0.5042  0.3281  0.8258
 4662TP3      O25804   3.425   1.416   8.742 -0.6347  0.2241  0.2111
 4662TP3     H125805   3.455   1.499   8.705 -2.8721  1.2312  0.5486
 4662TP3     H225806   3.456   1.418   8.832 -0.2529  0.4583  0.0780
 4663TP3      O25807   4.012   3.526   9.734  0.0210 -0.1899  0.1799
 4663TP3     H125808   4.074   3.468   9.778 -0.0425 -0.0694  0.4308
 4663TP3     H225809   4.061   3.607   9.719  0.3653 -0.5718 -0.8960
 4664TP3      O25810   4.339   3.588   0.494 -0.2826 -1.0077  0.5083
 4664TP3     H125811   4.432   3.565   0.498 -0.1116 -0.7570 -1.2750
 4664TP3     H225812   4.336   3.679   0.522  0.1477 -0.7169 -0.3801
 4665TP3      O25813   1.384   1.001   2.058 -0.2757  0.9785  0.1704
 4665TP3     H125814   1.378   1.055   2.136  0.8988  0.1111  0.9074
 4665TP3     H225815   1.474   1.012   2.028  0.0175 -0.5782  0.3875
 4666TP3      O25816   5.257   4.191   0.156  0.5377 -0.4910 -0.2428
 4666TP3     H125817   5.162   4.202   0.152  0.6368  0.8308  0.6136
 4666TP3     H225818   5.291   4.277   0.178  2.0260 -0.7399 -1.3756
 4667TP3      O25819   4.566   2.302   1.119  0.3127 -0.3406  0.1358
 4667TP3     H125820   4.516   2.268   1.045 -1.5190 -0.8246  1.5073
 4667TP3     H225821   4.593   2.224   1.168 -0.5091  0.0103  1.1910
 4668TP3      O25822   0.220   4.066   1.909 -0.0840  0.3355 -0.1630
 4668TP3     H125823   0.159   3.992   1.901 -0.3440  0.4939  0.2809
 4668TP3     H225824   0.284   4.037   1.974 -1.0669  1.0644  1.1839
 4669TP3      O25825   2.730   1.228   1.840 -0.4707  0.0181  0.2712
 4669TP3     H125826   2.725   1.231   1.936  0.3950  0.9376  0.3078
 4669TP3     H225827   2.670   1.297   1.811  0.1432  0.5388  0.2070
 4670TP3      O25828   0.248   5.252   8.941 -0.2355 -0.4584  0.4822
 4670TP3     H125829   0.242   5.298   9.024  1.0515  0.2311  0.2187
 4670TP3     H225830   0.303   5.175   8.960 -0.8183 -0.8759  0.4989
 4671TP3      O25831   1.908   0.707   8.809 -0.1392 -0.6607  0.4520
 4671TP3     H125832   1.859   0.718   8.728  0.2767 -2.3156 -0.0748
 4671TP3     H225833   1.842   0.715   8.878 -0.0985  3.5742  0.2529
 4672TP3      O25834   4.644   4.714   2.441  0.3927 -0.2318  0.3121
 4672TP3     H125835   4.699   4.658   2.497  0.5996  0.2946  0.6464
 4672TP3     H225836   4.588   4.653   2.393 -0.5038 -0.6672  1.8346
 4673TP3      O25837   4.399   4.247   2.323  0.6330 -0.1963 -0.3938
 4673TP3     H125838   4.381   4.305   2.397  1.7841 -0.7798  0.3679
 4673TP3     H225839   4.333   4.178   2.330 -0.2368  0.5557 -0.8409
 4674TP3      O25840   1.999   4.582   3.162  0.2195 -0.1008 -0.0635
 4674TP3     H125841   2.073   4.587   3.101  0.1466 -0.5665 -0.1945
 4674TP3     H225842   2.039   4.567   3.247  0.2682 -0.5265 -0.1602
 4675TP3      O25843   3.646   0.234   3.335  0.4111 -0.3864 -0.2300
 4675TP3     H125844   3.576   0.268   3.391  0.2163 -0.6632 -0.2987
 4675TP3     H225845   3.617   0.254   3.246  0.4105 -0.5121 -0.2589
 4676TP3      O25846   4.629   0.444   2.402 -0.1603  0.2489  0.6861
 4676TP3     H125847   4.533   0.452   2.403 -0.0149  3.7467  1.5108
 4676TP3     H225848   4.655   0.453   2.494  0.9908  1.3378  0.2882
 4677TP3      O25849   4.539   4.860   8.673 -0.2597 -0.0237 -0.5041
 4677TP3     H125850   4.524   4.925   8.742  1.2754  0.4232 -0.5677
 4677TP3     H225851   4.459   4.864   8.620 -2.0986 -1.3272  1.9286
 4678TP3      O25852   1.102   2.716   0.054  0.3494  0.0848  0.3596
 4678TP3     H125853   1.069   2.664   0.127  2.8970 -0.0635  1.5154
 4678TP3     H225854   1.112   2.653  -0.018  1.1579 -0.5481  1.0096
 4679TP3      O25855   1.219   0.903   9.923  0.1442 -0.5890  0.1457
 4679TP3     H125856   1.271   0.886  10.002  0.2788  0.2297  0.2371
 4679TP3     H225857   1.280   0.942   9.861 -0.2213 -0.1703  0.0443
 4680TP3      O25858   3.100   4.509   2.309  0.1204 -0.2115 -0.1003
 4680TP3     H125859   3.146   4.549   2.383  0.2001  0.1862 -0.3601
 4680TP3     H225860   3.059   4.431   2.346  1.2125 -0.7051  0.0763
 4681TP3      O25861   0.133   0.057   2.873  0.5451 -0.4147  0.0770
 4681TP3     H125862   0.073   0.054   2.948 -1.0122 -2.8633 -1.1224
 4681TP3     H225863   0.097   0.125   2.816 -0.0838 -0.6654  0.1697
 4682TP3      O25864   1.655   4.401   2.094 -0.9642 -0.1382 -0.5838
 4682TP3     H125865   1.710   4.323   2.092 -0.1783  0.3910 -0.3427
 4682TP3     H225866   1.686   4.455   2.021 -0.1606  0.8018  0.4105
 4683TP3      O25867   4.537   4.675  10.106  0.1776  0.4352 -0.9350
 4683TP3     H125868   4.547   4.629  10.022 -0.8565 -0.8190 -0.3963
 4683TP3     H225869   4.453   4.719  10.100 -0.0323  0.1066 -0.4482
 4684TP3      O25870   1.762   2.635   1.673 -0.4406 -0.0063 -0.2666
 4684TP3     H125871   1.728   2.725   1.670 -0.6258  0.1708  3.1800
 4684TP3     H225872   1.687   2.583   1.702  0.4072 -0.7702  0.5866
 4685TP3      O25873   0.008   4.281   1.577  0.2658  0.0099 -0.6787
 4685TP3     H125874  -0.020   4.268   1.486  0.1125  2.0773 -0.9767
 4685TP3     H225875  -0.012   4.373   1.595 -1.1486 -0.7117  1.9601
 4686TP3      O25876   3.456   1.633   1.294  0.6147 -0.5683 -0.2287
 4686TP3     H125877   3.450   1.543   1.327 -0.5329 -1.6456 -3.0090
 4686TP3     H225878   3.384   1.679   1.337  1.1061 -0.9799  1.0985
 4687TP3      O25879   3.307   1.944   9.415 -0.1432 -0.3131 -0.1779
 4687TP3     H125880   3.216   1.946   9.445  0.1225 -2.2896  0.9686
 4687TP3     H225881   3.320   1.854   9.385  0.8111  0.5171 -2.5009
 4688TP3      O25882   0.401   1.252   1.814  0.1379  0.6387  0.0075
 4688TP3     H125883   0.326   1.303   1.784 -0.9099 -0.0649  1.3168
 4688TP3     H225884   0.477   1.302   1.784 -0.8456  1.8995 -0.4876
 4689TP3      O25885   3.206   2.393   2.290  0.1328 -0.1106  0.3165
 4689TP3     H125886   3.233   2.371   2.201  0.5980 -0.6645  0.5917
 4689TP3     H225887   3.134   2.455   2.279  0.4808  0.1598 -0.4411
 4690TP3      O25888   3.162   0.803   1.051  0.2295  0.2400  0.0287
 4690TP3     H125889   3.090   0.750   1.019  0.7935 -0.2119 -0.5226
 4690TP3     H225890   3.125   0.854   1.123 -0.1779 -1.3558  0.9881
 4691TP3      O25891   0.111   1.777   3.642  0.3862  0.2029  0.4164
 4691TP3     H125892   0.145   1.747   3.558  2.0330 -0.3358  1.2410
 4691TP3     H225893   0.167   1.851   3.666 -0.7496  1.0601  0.5673
 4692TP3      O25894   2.261   2.932   0.799  0.0987 -0.1632 -0.5418
 4692TP3     H125895   2.258   2.986   0.879 -0.0538 -0.4319 -0.3647
 4692TP3     H225896   2.277   2.843   0.831 -1.5444 -0.5418 -0.6787
 4693TP3      O25897   4.673   2.246   3.709  0.4251 -0.0130  0.6900
 4693TP3     H125898   4.752   2.297   3.691  1.7156 -1.3061  2.3874
 4693TP3     H225899   4.675   2.176   3.643 -1.2046  1.8193 -1.4650
 4694TP3      O25900   0.292   4.143   0.438  0.0555  0.5916 -0.0004
 4694TP3     H125901   0.357   4.212   0.449  1.7772 -1.0046  0.5274
 4694TP3     H225902   0.299   4.090   0.518 -1.9265  0.3622  0.0633
 4695TP3      O25903   4.141   1.797   2.704  0.7356 -0.0186 -0.0833
 4695TP3     H125904   4.137   1.853   2.781  1.1982  0.0572 -0.1149
 4695TP3     H225905   4.195   1.845   2.642  1.9095 -0.9055  0.2240
 4696TP3      O25906   2.475   3.646   2.927 -0.5798  0.0900 -0.0310
 4696TP3     H125907   2.571   3.641   2.935 -0.6886 -2.4413  0.7385
 4696TP3     H225908   2.452   3.730   2.965  1.3056  0.4489  0.4193
 4697TP3      O25909   2.026   2.111   2.440  0.1417 -0.3528  0.9308
 4697TP3     H125910   2.078   2.080   2.366 -2.2075 -0.2974 -0.8684
 4697TP3     H225911   2.011   2.203   2.421 -0.4032 -0.3112  1.5383
 4698TP3      O25912   3.596   1.768   1.742  0.8551  0.0891 -0.2921
 4698TP3     H125913   3.501   1.764   1.745  0.8371 -1.0341 -1.2674
 4698TP3     H225914   3.623   1.677   1.728  2.0832  0.3498  0.2290
 4699TP3      O25915   1.065   5.012   1.841 -0.3996 -1.1635 -0.0882
 4699TP3     H125916   1.125   4.970   1.779  1.0731 -0.7921  1.0237
 4699TP3     H225917   1.079   4.964   1.923 -1.2686 -0.7396  0.3206
 4700TP3      O25918   0.845   4.004   3.042 -0.0833  0.2443  0.3231
 4700TP3     H125919   0.916   4.011   2.979 -0.8633  1.0603 -0.5065
 4700TP3     H225920   0.820   3.911   3.040  1.2404 -0.1419  0.9758
 4701TP3      O25921   3.527   4.914   2.476  0.3770  0.2252  0.0624
 4701TP3     H125922   3.480   4.963   2.409  1.8226 -0.2248 -1.3359
 4701TP3     H225923   3.520   4.823   2.448  1.1098  0.0443  0.4443
 4702TP3      O25924   3.750   4.644   2.504  0.2360  0.6046 -0.2735
 4702TP3     H125925   3.760   4.739   2.499  2.3676  0.5252  1.4619
 4702TP3     H225926   3.656   4.631   2.520  0.0818  2.4826  0.6071
 4703TP3      O25927   2.895   4.671   7.951 -0.3033  0.3569 -0.1646
 4703TP3     H125928   2.928   4.583   7.934 -0.0221  0.6842 -1.4364
 4703TP3     H225929   2.800   4.664   7.941 -0.1467  0.5507 -2.1410
 4704TP3      O25930   4.071   0.614   0.159  0.1794  0.0056  0.3730
 4704TP3     H125931   4.037   0.663   0.234  0.6721 -0.1561  0.7051
 4704TP3     H225932   4.164   0.601   0.179  0.2080 -0.4551 -0.0383
 4705TP3      O25933   4.529   2.342   0.633 -0.0456 -0.4867 -0.2740
 4705TP3     H125934   4.597   2.343   0.566 -1.2251 -0.3606 -1.5086
 4705TP3     H225935   4.450   2.314   0.587 -0.3613 -3.0713  1.6386
 4706TP3      O25936   1.609   2.724   3.051  0.4679 -0.2689  0.4206
 4706TP3     H125937   1.702   2.749   3.051  0.8275 -1.4783 -0.9179
 4706TP3     H225938   1.607   2.639   3.095 -0.0560 -0.1409  0.6563
 4707TP3      O25939   4.157   0.295   9.726  0.0478 -0.1112  0.0862
 4707TP3     H125940   4.216   0.222   9.746  0.6177  0.3386  0.0722
 4707TP3     H225941   4.197   0.371   9.768 -0.2453  0.3031 -0.3691
 4708TP3      O25942   5.045   2.341   8.839 -0.3180 -0.2380  0.0966
 4708TP3     H125943   5.000   2.411   8.793  0.7225 -0.4679 -1.3580
 4708TP3     H225944   5.110   2.309   8.776  1.5763 -0.2052  1.9188
 4709TP3      O25945   4.271   1.325   2.576 -0.2286  0.6381  0.3949
 4709TP3     H125946   4.219   1.272   2.636 -0.3192  0.5812  0.2691
 4709TP3     H225947   4.206   1.375   2.526 -0.2477 -0.3594 -0.6235
 4710TP3      O25948   2.517   4.059   1.593  0.0395 -0.1970 -0.5133
 4710TP3     H125949   2.502   4.123   1.524 -0.3013 -1.9816 -2.1680
 4710TP3     H225950   2.612   4.051   1.598  0.1076  0.8839  0.1620
 4711TP3      O25951   4.009   2.091   2.145  0.0698  0.5616 -0.0117
 4711TP3     H125952   4.008   2.045   2.229 -0.1792 -0.4836 -0.5673
 4711TP3     H225953   4.022   2.183   2.168  0.9523  0.1771  1.1146
 4712TP3      O25954   1.622   3.952   0.668 -0.4012  0.5179 -0.9087
 4712TP3     H125955   1.664   4.008   0.733  0.1501  0.6634 -1.3773
 4712TP3     H225956   1.532   3.942   0.699  0.1095 -0.2530  0.4133
 4713TP3      O25957   4.086   2.406   7.563 -0.4067  0.6844 -0.0835
 4713TP3     H125958   3.992   2.421   7.578 -0.5090  0.9098 -0.8896
 4713TP3     H225959   4.127   2.488   7.592 -0.4797  0.6789  0.0398
 4714TP3      O25960   0.645   3.550   1.915 -0.3818  0.1145  0.0628
 4714TP3     H125961   0.598   3.471   1.943  0.2045 -0.0897  0.4720
 4714TP3     H225962   0.576   3.616   1.906 -0.8403 -0.3645 -0.0133
 4715TP3      O25963   0.305   2.581   3.137  0.0852 -0.1594  0.2901
 4715TP3     H125964   0.364   2.591   3.212  2.2772 -1.9022 -1.0583
 4715TP3     H225965   0.346   2.632   3.067 -0.8896 -0.1063 -0.2603
 4716TP3      O25966   0.477   0.039   2.486  0.5261  0.2125 -0.4810
 4716TP3     H125967   0.457   0.129   2.511  1.0606  0.5528 -1.2002
 4716TP3     H225968   0.534   0.048   2.409  0.8174 -0.7354 -0.3961
 4717TP3      O25969   4.076   0.912   7.177  0.4035 -0.2145  0.3537
 4717TP3     H125970   4.159   0.937   7.136 -0.9058  2.2723 -1.0278
 4717TP3     H225971   4.059   0.824   7.144  2.6632 -0.9899  1.0631
 4718TP3      O25972   1.932   5.239   0.021  0.5445 -0.4353 -0.2689
 4718TP3     H125973   1.863   5.304   0.003  1.3837 -0.1290 -2.8138
 4718TP3     H225974   1.892   5.179   0.084 -1.8749  0.0164 -1.2527
 4719TP3      O25975   2.798   0.750   2.719 -0.0812 -0.0055  0.1999
 4719TP3     H125976   2.888   0.763   2.746  0.2243  0.2299 -0.8914
 4719TP3     H225977   2.800   0.674   2.660 -0.9685 -1.4806  1.9630
 4720TP3      O25978   3.266   4.921   7.786  0.4483 -1.3888  0.2086
 4720TP3     H125979   3.283   4.862   7.859 -1.1835 -2.9383 -0.6005
 4720TP3     H225980   3.204   4.874   7.730 -0.0001  0.6140 -1.0962
 4721TP3      O25981   4.667   0.378   1.463  0.6436  0.3018 -0.4594
 4721TP3     H125982   4.627   0.292   1.452 -0.3127  0.5327  1.0052
 4721TP3     H225983   4.761   0.359   1.469  0.3601 -0.7866  1.0758
 4722TP3      O25984   0.019   0.424   9.611 -0.0683 -0.1520 -0.3153
 4722TP3     H125985  -0.071   0.391   9.605 -0.9650  2.2330 -1.2046
 4722TP3     H225986   0.010   0.519   9.600  2.4385  0.3070  0.9570
 4723TP3      O25987   2.539   3.568   1.725  0.2842  0.2939  0.0220
 4723TP3     H125988   2.607   3.507   1.696  1.4707  1.7805 -0.4736
 4723TP3     H225989   2.573   3.655   1.700 -0.5464  1.3106  2.1807
 4724TP3      O25990   2.308   2.362   2.278 -0.2213 -0.9630  0.5608
 4724TP3     H125991   2.381   2.363   2.340  0.3742 -0.7325 -0.1326
 4724TP3     H225992   2.346   2.392   2.196 -0.4206 -3.4788 -0.5619
 4725TP3      O25993   1.909   2.926   7.154 -0.0237  0.0027  0.1717
 4725TP3     H125994   1.925   2.991   7.222 -1.5999 -0.0381  0.6172
 4725TP3     H225995   1.823   2.949   7.119 -0.8972 -2.1834  0.7571
 4726TP3      O25996   3.107   2.711   1.539  0.0294  0.5040 -0.2670
 4726TP3     H125997   3.200   2.735   1.535  0.3907 -0.7925  0.0573
 4726TP3     H225998   3.089   2.674   1.453  0.2475 -0.6961  0.1801
 4727TP3      O25999   0.562   2.924   0.627  0.3283  0.6011  0.5500
 4727TP3     H126000   0.551   2.842   0.579 -1.4596 -0.6269  2.8109
 4727TP3     H226001   0.646   2.958   0.598  0.5269 -1.3522 -1.4294
 4728TP3      O26002   2.321   0.400   2.339  0.2248  0.2481  0.2032
 4728TP3     H126003   2.331   0.306   2.356  0.3704  0.1236 -0.5369
 4728TP3     H226004   2.388   0.419   2.273 -0.6778  0.5920 -0.6356
 4729TP3      O26005   3.102   0.288   0.517 -0.0858  0.0087  0.3513
 4729TP3     H126006   3.134   0.358   0.575  1.3416 -0.7864  0.5458
 4729TP3     H226007   3.026   0.252   0.564 -1.7949  2.3121 -0.4023
 4730TP3      O26008   4.184   2.741   3.356  0.0089  0.0350  0.3992
 4730TP3     H126009   4.217   2.676   3.294  0.0746  1.2198 -0.8452
 4730TP3     H226010   4.257   2.802   3.367  0.4011 -0.6954  2.5128
 4731TP3      O26011   2.135   4.030   1.031 -0.2371  0.1876 -0.4034
 4731TP3     H126012   2.215   3.978   1.027 -0.1902  0.2288 -0.0639
 4731TP3     H226013   2.112   4.046   0.940 -1.2943 -2.0401 -0.6043
 4732TP3      O26014   4.304   2.258   7.625  0.0018 -0.0599  0.5706
 4732TP3     H126015   4.259   2.186   7.670 -0.5572 -1.4660 -2.0791
 4732TP3     H226016   4.235   2.317   7.597  0.1762 -0.1098  0.0288
 4733TP3      O26017   0.945   4.215   6.456 -0.7285 -0.0758  0.5110
 4733TP3     H126018   1.017   4.241   6.398  0.9542 -1.5487  1.8138
 4733TP3     H226019   0.951   4.276   6.530  0.2351 -1.1307  1.3489
 4734TP3      O26020   4.121   1.428   7.968 -0.3249 -1.0451  0.1874
 4734TP3     H126021   4.123   1.408   7.875  0.4770  0.3392 -0.1234
 4734TP3     H226022   4.065   1.360   8.006 -0.6707 -1.6284 -1.2919
 4735TP3      O26023   3.357   5.213   7.196 -0.3079  0.1045 -0.7537
 4735TP3     H126024   3.378   5.130   7.153  0.2144 -0.6974  0.9422
 4735TP3     H226025   3.442   5.248   7.223 -0.6408  0.3102  0.0624
 4736TP3      O26026   2.924   1.067   9.603 -0.0458 -0.2348  0.0173
 4736TP3     H126027   2.829   1.068   9.613  0.1423 -0.7604  2.4693
 4736TP3     H226028   2.945   0.978   9.575 -0.1505 -0.8671  1.8144
 4737TP3      O26029   1.039   4.540   2.197 -0.1543 -0.6488 -0.4729
 4737TP3     H126030   1.128   4.533   2.232 -0.5352 -0.1501  0.6477
 4737TP3     H226031   0.991   4.469   2.238 -0.8228  0.4655  0.7575
 4738TP3      O26032   1.988   2.900   2.734 -0.7759 -0.2723  0.4558
 4738TP3     H126033   2.010   2.914   2.826 -1.3111  0.7467  0.4428
 4738TP3     H226034   2.022   2.978   2.689  0.8701 -1.4736 -0.4652
 4739TP3      O26035   0.070   3.836   1.917  0.0793 -0.5225  0.2679
 4739TP3     H126036  -0.010   3.796   1.883 -1.6655  1.9805  1.1834
 4739TP3     H226037   0.093   3.782   1.993  1.0123 -2.9727 -1.6160
 4740TP3      O26038   2.080   0.788   7.427  0.0071  0.2411  0.4107
 4740TP3     H126039   2.079   0.716   7.364  0.7142  1.3011 -0.8912
 4740TP3     H226040   2.032   0.858   7.382 -1.3569  0.3447  1.9669
 4741TP3      O26041   1.510   1.565   2.280 -0.1975  0.0777  0.3622
 4741TP3     H126042   1.602   1.588   2.294 -0.5260  0.9396  1.2350
 4741TP3     H226043   1.476   1.547   2.367 -1.2153  1.2753  0.2520
 4742TP3      O26044   4.340   1.067   9.760 -0.0378 -0.0023  0.1255
 4742TP3     H126045   4.317   1.149   9.805  0.0629  0.6317 -0.9281
 4742TP3     H226046   4.256   1.033   9.730  0.1201  1.4490 -2.2685
 4743TP3      O26047   3.246   2.210   9.492  0.2612  0.4461 -0.4161
 4743TP3     H126048   3.195   2.191   9.571  0.7965 -0.6380 -0.3096
 4743TP3     H226049   3.278   2.124   9.463 -0.1179  0.7906 -1.9493
 4744TP3      O26050   0.176   0.011   8.398 -0.0526 -0.2327  0.0149
 4744TP3     H126051   0.113   0.049   8.459  2.0491  1.4898  1.2932
 4744TP3     H226052   0.252  -0.011   8.453  1.5501  0.4637 -1.7986
 4745TP3      O26053   0.094   2.747   9.481  0.0996 -0.3508  0.2784
 4745TP3     H126054   0.150   2.752   9.404  0.5369 -1.0555  0.5434
 4745TP3     H226055   0.099   2.835   9.520  1.3995 -0.5252  0.5592
 4746TP3      O26056   2.617   3.313   1.119  0.2682  0.2167 -0.0012
 4746TP3     H126057   2.593   3.234   1.069  1.4560  0.9982 -1.9103
 4746TP3     H226058   2.534   3.360   1.129 -0.1961 -0.5341 -0.1758
 4747TP3      O26059   0.192   3.636   7.384  0.0995 -0.4526  0.4769
 4747TP3     H126060   0.244   3.697   7.436  1.2972  0.5160 -1.7017
 4747TP3     H226061   0.227   3.645   7.295 -2.7527 -0.9675 -0.8116
 4748TP3      O26062   3.864   1.409   2.221 -0.0977  0.3751  0.5257
 4748TP3     H126063   3.939   1.394   2.278 -0.7750 -0.6003  1.1795
 4748TP3     H226064   3.895   1.476   2.159  1.0022  0.6540  1.3402
 4749TP3      O26065   1.305   1.286   9.764  0.0171 -0.0932 -0.2121
 4749TP3     H126066   1.275   1.318   9.849 -1.3500 -0.8686 -0.3693
 4749TP3     H226067   1.400   1.300   9.765 -0.0284  0.2611  1.2795
 4750TP3      O26068   1.459   4.780   2.796 -0.2968 -0.2206 -0.1443
 4750TP3     H126069   1.420   4.846   2.852 -1.0296 -1.5698  0.9978
 4750TP3     H226070   1.525   4.828   2.745  1.3542  0.8678  2.7459
 4751TP3      O26071   0.699   1.654   1.623 -0.5195  0.6646  0.8440
 4751TP3     H126072   0.662   1.734   1.661 -1.5475  0.7022 -0.1932
 4751TP3     H226073   0.647   1.638   1.544  0.8428 -0.0348  0.0514
 4752TP3      O26074   3.686   0.532   0.075  0.0928  0.2782  0.4558
 4752TP3     H126075   3.727   0.603   0.124  1.1817 -1.3869  2.0774
 4752TP3     H226076   3.595   0.559   0.065  0.7221  2.3890  0.0170
 4753TP3      O26077   3.138   0.623   8.128 -0.1503  0.0752  0.5139
 4753TP3     H126078   3.216   0.633   8.074  0.1625  0.8574  1.0843
 4753TP3     H226079   3.171   0.623   8.218 -0.7940  0.3129  0.7594
 4754TP3      O26080   4.596   3.428   3.345  0.0619 -0.2685 -0.3282
 4754TP3     H126081   4.668   3.420   3.283  0.0138 -1.3329 -0.2569
 4754TP3     H226082   4.562   3.339   3.355  1.9490 -0.7790  3.4625
 4755TP3      O26083   1.078   3.724   0.693  0.5458  0.2328  0.5237
 4755TP3     H126084   1.143   3.728   0.763  1.1174 -1.0428  0.0994
 4755TP3     H226085   1.020   3.652   0.718  1.9458 -1.6408 -1.2207
 4756TP3      O26086   3.508   0.503   9.170 -0.4676 -0.5048 -0.1663
 4756TP3     H126087   3.436   0.565   9.183 -1.0899 -1.0722 -0.8171
 4756TP3     H226088   3.550   0.497   9.256 -0.5568  0.6044 -0.0251
 4757TP3      O26089   0.639   0.690   8.917  0.0653 -0.0660 -0.1107
 4757TP3     H126090   0.716   0.736   8.883 -0.9245  0.9584 -1.0773
 4757TP3     H226091   0.594   0.660   8.838 -0.4638 -0.7546  0.4476
 4758TP3      O26092   5.046   2.501   1.847 -0.2640 -0.4555  0.0486
 4758TP3     H126093   4.957   2.532   1.830 -0.7707 -0.5732  2.1816
 4758TP3     H226094   5.084   2.487   1.760 -2.4041 -0.6367 -0.9162
 4759TP3      O26095   0.519   3.487   0.705 -0.3550 -0.3225 -0.0260
 4759TP3     H126096   0.513   3.433   0.784  1.3904 -1.0819 -0.3635
 4759TP3     H226097   0.435   3.473   0.661 -0.9814 -0.6397  1.2069
 4760TP3      O26098   4.583   4.596   8.648 -0.2521 -0.3783 -0.3295
 4760TP3     H126099   4.571   4.690   8.662  1.3840 -0.1323 -0.4708
 4760TP3     H226100   4.551   4.582   8.558 -0.2510  0.0855 -0.4080
 4761TP3      O26101   2.472   1.151   1.499 -0.3152 -0.2142 -0.6929
 4761TP3     H126102   2.513   1.228   1.538 -1.2459  0.0114 -0.1238
 4761TP3     H226103   2.532   1.079   1.519  0.8761  0.4519 -1.7738
 4762TP3      O26104   3.184   0.463   8.373  0.0185  0.2720  0.5377
 4762TP3     H126105   3.180   0.391   8.311 -1.3431  1.3759 -0.7278
 4762TP3     H226106   3.267   0.507   8.354 -0.7357  1.0805 -1.1452
 4763TP3      O26107   2.918   3.098   1.243  0.2585 -0.3479  0.1728
 4763TP3     H126108   2.968   3.152   1.304  1.5324 -0.2734 -0.8892
 4763TP3     H226109   2.892   3.158   1.173  3.5932 -1.3655 -2.1868
 4764TP3      O26110   1.470   2.370   9.124  0.0924  0.3014 -0.2306
 4764TP3     H126111   1.514   2.345   9.205 -1.3602  1.1579  0.8836
 4764TP3     H226112   1.386   2.324   9.127 -1.3042  2.7083  0.3462
 4765TP3      O26113   1.931   1.081  10.103 -0.1992  0.8385 -0.1463
 4765TP3     H126114   2.013   1.085  10.153  0.4155  0.3917 -1.0861
 4765TP3     H226115   1.936   1.156  10.045  1.1173 -0.9017 -2.4830
 4766TP3      O26116   2.145   1.810   3.616  0.0287 -0.2911 -0.2527
 4766TP3     H126117   2.097   1.764   3.546 -0.3551 -0.1779 -0.0648
 4766TP3     H226118   2.208   1.746   3.647 -0.3929 -0.6437 -0.1050
 4767TP3      O26119   0.974   4.339   1.785  0.9964 -0.2732  0.1035
 4767TP3     H126120   0.911   4.274   1.756 -0.8841  0.5451  2.0422
 4767TP3     H226121   0.933   4.381   1.861  2.6136  2.3410 -0.3006
 4768TP3      O26122   4.069   4.343   1.210  0.7527 -0.1818 -0.3198
 4768TP3     H126123   4.048   4.379   1.123  1.0128  1.1333  0.1298
 4768TP3     H226124   4.075   4.249   1.196  1.8041  0.0785 -1.9558
 4769TP3      O26125   0.516   1.307   9.905 -0.1245 -0.2817  0.3588
 4769TP3     H126126   0.529   1.232   9.846  1.3349  1.1222 -1.1991
 4769TP3     H226127   0.423   1.326   9.898 -0.4386 -1.6623  0.4323
 4770TP3      O26128   1.401   2.964   2.462 -0.3631  0.4190 -0.3651
 4770TP3     H126129   1.363   2.940   2.378 -1.8099  1.5778 -0.0748
 4770TP3     H226130   1.335   3.018   2.504  0.6919  0.5927  1.1602
 4771TP3      O26131   4.765   3.231   0.398 -0.2422  0.0812  0.7129
 4771TP3     H126132   4.825   3.230   0.323  0.1490 -0.0452  1.0269
 4771TP3     H226133   4.804   3.170   0.460 -0.5550  0.2070  1.0300
 4772TP3      O26134   0.494   3.460   8.114  0.0469 -0.1786  0.0769
 4772TP3     H126135   0.419   3.405   8.091 -0.3392  0.2969  0.1760
 4772TP3     H226136   0.564   3.398   8.134 -0.3775 -0.6330  0.1676
 4773TP3      O26137   4.996   5.211   8.330  0.0134  0.1502 -0.2420
 4773TP3     H126138   4.902   5.201   8.344  0.1116  0.4101  0.6170
 4773TP3     H226139   5.026   5.122   8.309 -0.7986  0.4297 -3.0661
 4774TP3      O26140   4.629   0.202   7.558  0.1316 -0.4866  0.0185
 4774TP3     H126141   4.684   0.171   7.486 -0.3742 -0.5855 -0.3256
 4774TP3     H226142   4.540   0.184   7.530 -0.1292  0.4881  0.1865
 4775TP3      O26143   3.053   2.896   2.680  0.0801  0.0904 -0.1109
 4775TP3     H126144   3.012   2.924   2.761 -0.2579  1.0450 -0.5935
 4775TP3     H226145   3.125   2.839   2.708  1.3640  2.1175  1.0025
 4776TP3      O26146   1.734   0.343   9.618 -0.8440  0.4732  0.5321
 4776TP3     H126147   1.775   0.261   9.589 -0.3994  1.3941 -1.6693
 4776TP3     H226148   1.806   0.406   9.618 -1.5819  1.3273  0.1523
 4777TP3      O26149   2.957   2.435   1.461 -0.1522  0.3155  0.1961
 4777TP3     H126150   2.882   2.377   1.474 -0.0939  0.2605  0.2917
 4777TP3     H226151   2.938   2.511   1.517  0.5048 -0.3026  1.2981
 4778TP3      O26152   3.662   1.915   0.304  0.2604 -0.1109 -0.1369
 4778TP3     H126153   3.704   1.924   0.218  0.9994  0.1012  0.2434
 4778TP3     H226154   3.573   1.949   0.290  0.2771 -0.3546 -0.8868
 4779TP3      O26155   3.228   0.049   8.155 -0.0818  0.2675  0.3453
 4779TP3     H126156   3.225   0.002   8.238  1.0583 -0.9807 -0.2836
 4779TP3     H226157   3.259  -0.016   8.092  1.0397  1.7399 -0.6740
 4780TP3      O26158   0.806   3.126   0.610  0.3901  0.6034 -0.2387
 4780TP3     H126159   0.774   3.210   0.642 -0.0490 -0.0630  1.1621
 4780TP3     H226160   0.847   3.146   0.526 -1.5761  1.8853 -0.9693
 4781TP3      O26161   3.867   4.743   7.497  0.6597  0.2489 -0.0138
 4781TP3     H126162   3.938   4.805   7.479 -0.1291  1.0707 -0.3914
 4781TP3     H226163   3.862   4.689   7.418  1.1661 -0.1258  0.2040
 4782TP3      O26164   4.778   2.637   9.941  0.1280 -0.4861  0.3729
 4782TP3     H126165   4.838   2.711   9.933  0.4605 -0.8216 -0.2680
 4782TP3     H226166   4.715   2.665  10.008 -0.3771  0.8176 -0.5809
 4783TP3      O26167   4.811   1.596   8.679 -0.5207  0.0846  0.5837
 4783TP3     H126168   4.813   1.635   8.766  0.9991 -0.8321  1.0022
 4783TP3     H226169   4.901   1.604   8.647 -1.1947  1.0299 -1.2153
 4784TP3      O26170   0.857   2.195   1.465  0.0924  0.0581 -0.2105
 4784TP3     H126171   0.925   2.134   1.493 -0.9009 -1.0319 -0.1137
 4784TP3     H226172   0.899   2.249   1.399  0.4498 -2.1610 -1.9319
 4785TP3      O26173   4.189   3.336   2.145 -0.5692 -0.4789  0.3434
 4785TP3     H126174   4.221   3.288   2.069 -0.3696 -1.5041  1.0538
 4785TP3     H226175   4.113   3.385   2.112 -0.2789 -0.6330 -0.5828
 4786TP3      O26176   0.874   3.429   1.854  0.3034  0.2497 -0.1338
 4786TP3     H126177   0.789   3.473   1.864  0.3578  1.1331 -2.8822
 4786TP3     H226178   0.859   3.341   1.889 -1.1185  0.9887  1.3079
 4787TP3      O26179   5.244   3.901   1.322 -0.4251  0.3555 -0.2795
 4787TP3     H126180   5.180   3.830   1.323  1.3403 -1.3143 -0.4013
 4787TP3     H226181   5.253   3.927   1.413 -3.0669  2.4089 -0.4769
 4788TP3      O26182   0.632   5.135   2.082 -0.0039 -0.3784 -0.1494
 4788TP3     H126183   0.542   5.158   2.105 -0.0810 -0.6464 -0.1780
 4788TP3     H226184   0.683   5.159   2.160 -0.0073  0.3579 -0.3737
 4789TP3      O26185   0.584   4.861   8.443 -0.4671  0.0315 -0.5032
 4789TP3     H126186   0.520   4.925   8.474  0.5761  0.5770  0.6007
 4789TP3     H226187   0.537   4.778   8.445 -0.8739  0.2573  1.2744
 4790TP3      O26188   1.892   1.851   2.401  0.0122  0.1883  0.6961
 4790TP3     H126189   1.925   1.938   2.420 -0.1035  0.2692  0.5259
 4790TP3     H226190   1.968   1.803   2.367 -0.3370  0.7825 -1.0430
 4791TP3      O26191   0.823   2.846   3.324 -0.1747 -0.2705 -0.0510
 4791TP3     H126192   0.740   2.888   3.301  0.8287  1.2041 -1.0769
 4791TP3     H226193   0.877   2.854   3.246  2.4706  2.6950  1.8806
 4792TP3      O26194   4.700   3.415   2.592  0.1169 -0.1721 -0.3401
 4792TP3     H126195   4.716   3.389   2.501  0.4987  0.3087 -0.4176
 4792TP3     H226196   4.738   3.503   2.599 -2.0784  0.8259 -0.3621
 4793TP3      O26197   1.894   1.215   2.188 -0.5460  0.6015  0.2100
 4793TP3     H126198   1.985   1.237   2.168  0.0229 -1.6224  0.0703
 4793TP3     H226199   1.850   1.216   2.104 -0.7970  2.0987  0.3265
 4794TP3      O26200   3.065   4.976   3.167  0.1888  0.0461 -0.1475
 4794TP3     H126201   3.122   4.907   3.135  1.0510  0.4910  0.3953
 4794TP3     H226202   3.092   4.991   3.258 -2.2022 -1.1886  0.8616
 4795TP3      O26203   0.348   2.674   2.062  0.2509 -0.4821 -0.1365
 4795TP3     H126204   0.302   2.746   2.105  1.1034 -0.0490  0.0735
 4795TP3     H226205   0.400   2.716   1.993  0.6523 -0.9057 -0.0995
 4796TP3      O26206   3.009   4.021   3.485 -0.0739  0.4716  0.0680
 4796TP3     H126207   3.066   3.949   3.455  0.4988  1.5806 -1.6805
 4796TP3     H226208   2.968   3.987   3.564  1.2554 -1.2527  0.0924
 4797TP3      O26209   4.407   4.327   1.186  0.5495 -0.3182 -0.0169
 4797TP3     H126210   4.314   4.343   1.174  0.4736 -1.1745 -0.6020
 4797TP3     H226211   4.449   4.406   1.152  0.0045  0.8628  1.8658
 4798TP3      O26212   4.246   0.246   2.350 -0.7909 -0.3199  0.1647
 4798TP3     H126213   4.155   0.237   2.379 -1.0485  0.2022 -0.4555
 4798TP3     H226214   4.252   0.190   2.272 -0.2695 -1.2285  0.8363
 4799TP3      O26215   3.961   4.327   1.469 -0.2942 -0.1798  0.1091
 4799TP3     H126216   3.895   4.396   1.470 -1.0284 -0.8331 -0.7983
 4799TP3     H226217   4.010   4.342   1.387 -1.2259 -1.4074 -0.6954
 4800TP3      O26218   2.740   3.356   1.682 -0.0968  0.0559 -0.1313
 4800TP3     H126219   2.812   3.302   1.648  0.9931  0.6028  1.1732
 4800TP3     H226220   2.674   3.293   1.711 -0.4441 -0.4428 -1.8857
 4801TP3      O26221   0.096   0.149   9.187  0.0067 -0.7322  0.0645
 4801TP3     H126222   0.003   0.128   9.178 -0.1870 -0.3300  0.9740
 4801TP3     H226223   0.133   0.076   9.236  0.0315 -0.5877  0.2644
 4802TP3      O26224   5.046   0.544   2.591  0.3594 -0.3527  0.2508
 4802TP3     H126225   5.049   0.636   2.618  0.3308 -0.0032 -0.8896
 4802TP3     H226226   5.120   0.534   2.531 -1.0863 -0.3992 -1.6156
 4803TP3      O26227   0.236   0.982   2.108 -0.4487  0.0658 -0.0388
 4803TP3     H126228   0.182   1.057   2.134  1.8334  1.5854  0.5795
 4803TP3     H226229   0.258   0.999   2.017 -0.5246 -0.2472 -0.1159
 4804TP3      O26230   4.259   0.312   1.993 -0.0265 -0.1580  0.0222
 4804TP3     H126231   4.215   0.292   1.910  2.1983  0.2428 -1.3388
 4804TP3     H226232   4.197   0.369   2.039 -2.2242 -2.0674 -0.3582
 4805TP3      O26233   2.852   5.048   0.365 -0.5173 -0.0397 -0.1435
 4805TP3     H126234   2.936   5.007   0.385 -1.0105 -0.8978  0.2207
 4805TP3     H226235   2.789   4.976   0.368 -1.2290  0.5461 -0.6661
 4806TP3      O26236   3.987   1.592   2.046 -0.2813  0.0819  0.3218
 4806TP3     H126237   4.041   1.671   2.052  0.8951 -0.7033  0.4631
 4806TP3     H226238   4.025   1.543   1.973 -0.4599 -0.7547  0.7856
 4807TP3      O26239   0.587   4.273   9.746 -0.0962  0.2792 -0.3377
 4807TP3     H126240   0.549   4.194   9.708 -0.0770  0.2072 -0.2070
 4807TP3     H226241   0.529   4.343   9.718  1.2660  0.5880 -2.5966
 4808TP3      O26242   1.985   5.252   0.431  0.5645 -0.5193 -0.3330
 4808TP3     H126243   1.955   5.161   0.432  1.4439 -0.8395 -1.0703
 4808TP3     H226244   1.978   5.280   0.522 -0.2923 -1.1276 -0.1972
 4809TP3      O26245   1.105   3.509   2.997 -0.7332 -0.3215 -0.0782
 4809TP3     H126246   1.125   3.423   2.958 -0.6286  0.1262 -1.0344
 4809TP3     H226247   1.160   3.513   3.075 -0.9671 -1.2497  0.1519
 4810TP3      O26248   0.616   1.861   0.582  0.2080 -0.0019  0.5448
 4810TP3     H126249   0.552   1.932   0.583 -1.2511 -1.2763  0.9451
 4810TP3     H226250   0.595   1.812   0.503  1.4008  0.1421  0.1129
 4811TP3      O26251   1.126   1.158   0.686  0.4835  0.7207 -0.2743
 4811TP3     H126252   1.152   1.151   0.778 -0.7122 -2.0708 -0.0437
 4811TP3     H226253   1.138   1.250   0.665 -0.7770  1.8246  3.1463
 4812TP3      O26254   0.586   0.241   2.706  0.2971 -0.0177 -0.1273
 4812TP3     H126255   0.529   0.282   2.642 -1.2031  1.7713  2.2207
 4812TP3     H226256   0.527   0.211   2.775  1.9080 -1.3635  0.7370
 4813TP3      O26257   4.093   0.394   0.839 -0.4444 -0.6907 -0.0507
 4813TP3     H126258   4.106   0.302   0.816  0.2808 -1.0923  1.8160
 4813TP3     H226259   4.004   0.398   0.873 -0.6650 -0.5727 -0.6224
 4814TP3      O26260   1.043   5.107   7.532  0.1056 -0.0164 -0.1657
 4814TP3     H126261   1.036   5.197   7.499 -1.2331  0.2938  0.8847
 4814TP3     H226262   0.965   5.063   7.499 -0.1647 -0.2821  0.7886
 4815TP3      O26263   3.138   2.984   0.319 -0.0183 -0.1348  0.3961
 4815TP3     H126264   3.223   2.990   0.362  0.8136 -1.5700 -0.9441
 4815TP3     H226265   3.122   2.890   0.310 -0.1774  0.0905 -2.3153
 4816TP3      O26266   1.236   2.895   2.805 -0.1549 -0.1087  0.6135
 4816TP3     H126267   1.240   2.988   2.781 -1.3511 -0.4375 -1.0317
 4816TP3     H226268   1.224   2.895   2.900 -0.5137  1.4306  0.5911
 4817TP3      O26269   2.224   1.708   8.247  0.5549 -0.0879 -0.0548
 4817TP3     H126270   2.129   1.698   8.258  0.5045  0.9946  0.5555
 4817TP3     H226271   2.237   1.705   8.153  0.0241 -1.1189 -0.1161
 4818TP3      O26272   2.921   0.081   8.803  0.2218 -0.1876 -0.5118
 4818TP3     H126273   2.923   0.012   8.737 -0.5483  0.5666 -1.3234
 4818TP3     H226274   2.872   0.042   8.876  1.0875 -1.0224 -0.3426
 4819TP3      O26275   5.067   4.400   1.116  0.0620  0.0618 -0.2936
 4819TP3     H126276   5.109   4.486   1.128 -1.8647  1.3222 -1.8528
 4819TP3     H226277   5.080   4.380   1.023  0.2570 -1.2573 -0.0028
 4820TP3      O26278   1.887   2.560   3.141 -0.1347 -0.4632  0.8155
 4820TP3     H126279   1.941   2.538   3.218  3.3494 -0.3277 -1.3549
 4820TP3     H226280   1.864   2.475   3.104  1.0968 -0.5775  0.2409
 4821TP3      O26281   0.493   4.274   0.907 -0.3929  0.0577 -0.3583
 4821TP3     H126282   0.456   4.254   0.993 -0.2284  0.2416 -0.2438
 4821TP3     H226283   0.579   4.233   0.908  0.5949  2.0021  0.4546
 4822TP3      O26284   3.258   1.680   2.650 -0.2770  0.1530 -0.0385
 4822TP3     H126285   3.268   1.676   2.555  1.0963 -1.8854  0.1241
 4822TP3     H226286   3.166   1.655   2.665 -0.7215  1.2369 -0.8283
 4823TP3      O26287   5.121   4.429   2.752  0.2568 -0.3584 -0.0488
 4823TP3     H126288   5.209   4.396   2.734 -0.0665 -1.6917  0.6628
 4823TP3     H226289   5.063   4.377   2.696 -0.3137 -1.3788  1.4308
 4824TP3      O26290   3.564   3.179   7.144 -0.1420 -0.0298 -0.1303
 4824TP3     H126291   3.603   3.177   7.057  1.3090 -0.0412  0.5058
 4824TP3     H226292   3.576   3.270   7.174 -1.4739  0.2230 -0.2949
 4825TP3      O26293   5.082   2.408   1.581 -0.5319 -0.0222 -0.1772
 4825TP3     H126294   5.116   2.319   1.573 -1.0433 -0.1839 -0.5921
 4825TP3     H226295   5.023   2.418   1.507  0.5805  1.1533 -0.9484
 4826TP3      O26296   0.624   1.326   8.200  0.0921  0.2155 -0.0169
 4826TP3     H126297   0.685   1.253   8.211  1.1131  1.2952  2.1182
 4826TP3     H226298   0.538   1.288   8.218  0.4158 -0.7698 -0.4792
 4827TP3      O26299   0.089   1.214   6.633  0.1485  0.4255 -0.4110
 4827TP3     H126300   0.149   1.154   6.679 -0.1913 -0.0983 -0.6520
 4827TP3     H226301   0.010   1.214   6.686  0.3801  1.1839 -0.0488
 4828TP3      O26302   3.543   4.041   7.539 -0.3917 -0.0417 -0.4979
 4828TP3     H126303   3.586   3.984   7.602 -2.4453 -0.3643  0.7167
 4828TP3     H226304   3.546   4.128   7.579 -0.5124  0.0077 -0.5946
 4829TP3      O26305   3.076   0.873   2.186  0.1494  0.4599  0.2767
 4829TP3     H126306   3.108   0.875   2.276 -0.6571  0.1246  0.5744
 4829TP3     H226307   3.068   0.965   2.161  1.2492  0.5543  0.2218
 4830TP3      O26308   0.334   1.047   1.347 -0.6207 -0.2124 -0.2656
 4830TP3     H126309   0.293   1.099   1.416 -0.4283 -0.3349 -0.0575
 4830TP3     H226310   0.339   1.106   1.272 -0.8237 -0.0759 -0.1727
 4831TP3      O26311   0.439   4.108   0.676  0.4312  0.2814 -0.1220
 4831TP3     H126312   0.416   4.169   0.746 -1.9346 -1.4105  0.7349
 4831TP3     H226313   0.529   4.130   0.653  0.5939  2.2487  2.0189
 4832TP3      O26314   4.060   4.260   8.943 -0.2432  0.2525  0.3508
 4832TP3     H126315   4.145   4.297   8.967 -0.2912  1.6081 -1.4028
 4832TP3     H226316   4.010   4.263   9.025  0.9413  0.6463  1.1006
 4833TP3      O26317   2.303   2.682   0.934  0.3534 -0.4016 -0.5487
 4833TP3     H126318   2.334   2.609   0.881  0.0787  0.1783 -1.5415
 4833TP3     H226319   2.338   2.665   1.021 -1.8030 -3.0250 -0.0966
 4834TP3      O26320   4.931   1.620   0.544 -0.3326 -0.1515  0.3174
 4834TP3     H126321   5.003   1.637   0.605 -0.0564  3.8666 -0.8439
 4834TP3     H226322   4.974   1.583   0.467  0.2473  0.6158  0.2645
 4835TP3      O26323   5.133   2.811   1.395 -0.2559  0.4447 -0.4970
 4835TP3     H126324   5.179   2.852   1.321 -0.4953 -0.5535 -1.2197
 4835TP3     H226325   5.058   2.766   1.355 -0.7774  0.4623  0.4401
 4836TP3      O26326   2.493   2.637   2.357 -0.1720  0.6422 -0.9176
 4836TP3     H126327   2.552   2.608   2.427 -0.9147  1.0090 -0.1225
 4836TP3     H226328   2.547   2.698   2.306 -0.1481  1.8336  0.4488
 4837TP3      O26329   2.815   1.176   1.134 -0.2834  0.0535 -0.0760
 4837TP3     H126330   2.766   1.192   1.053  0.5390  0.1404 -0.5608
 4837TP3     H226331   2.781   1.092   1.166  0.0394 -0.4450 -1.0055
 4838TP3      O26332   3.652   3.975   0.133  0.5360  0.1895 -0.2823
 4838TP3     H126333   3.633   3.929   0.051  1.0035  2.7285 -1.9617
 4838TP3     H226334   3.569   3.976   0.180  0.1057 -0.8593 -0.9755
 4839TP3      O26335   0.280   2.330   0.101  0.9203  0.3510  0.0056
 4839TP3     H126336   0.262   2.352   0.010  0.5042 -0.2847 -0.0689
 4839TP3     H226337   0.351   2.265   0.097  0.2290 -0.4257  0.0721
 4840TP3      O26338   1.121   0.596   2.145 -0.2278 -0.1191 -1.0913
 4840TP3     H126339   1.119   0.585   2.240  0.5747  0.6843 -0.9614
 4840TP3     H226340   1.140   0.689   2.132  0.3781 -0.3526 -2.0237
 4841TP3      O26341   4.555   2.957   0.078 -0.0477 -0.3122  0.0333
 4841TP3     H126342   4.468   2.995   0.088 -0.6975 -1.8531  0.4994
 4841TP3     H226343   4.611   3.032   0.058 -1.7115  0.5322 -1.8473
 4842TP3      O26344   2.400   2.832   0.586  0.2754  0.5260  0.4485
 4842TP3     H126345   2.347   2.901   0.626 -1.1744 -1.0205  1.3247
 4842TP3     H226346   2.391   2.848   0.492 -0.7275  1.0420  0.6119
 4843TP3      O26347   5.254   1.171   1.393 -0.0501  0.0273 -0.3476
 4843TP3     H126348   5.282   1.171   1.302  0.1033 -3.7054 -0.4773
 4843TP3     H226349   5.332   1.198   1.443  0.1906  1.0067 -1.2249
 4844TP3      O26350   3.171   4.793   8.985 -0.2371  0.1398 -0.7068
 4844TP3     H126351   3.105   4.850   9.025 -0.5055 -1.0467  0.6080
 4844TP3     H226352   3.237   4.781   9.053  1.1196  0.8745 -1.8275
 4845TP3      O26353   1.426   5.160   8.103  0.5274  0.3192 -0.0348
 4845TP3     H126354   1.409   5.167   8.197  0.1641  0.8478 -0.1345
 4845TP3     H226355   1.519   5.176   8.093  0.3572  1.4964  0.1218
 4846TP3      O26356   5.215   2.127   3.600  0.4312 -0.2807  0.4368
 4846TP3     H126357   5.156   2.202   3.593  1.7068  0.7712  0.3798
 4846TP3     H226358   5.302   2.164   3.581  1.4743 -1.2133  2.9437
 4847TP3      O26359   1.152   5.157   9.727  0.1049  0.1570 -0.4188
 4847TP3     H126360   1.167   5.202   9.644  1.5854 -2.2832 -1.6097
 4847TP3     H226361   1.221   5.091   9.730 -0.4297 -0.3807  2.3930
 4848TP3      O26362   2.016   4.767   1.899  0.0546  0.3326 -0.3339
 4848TP3     H126363   1.993   4.774   1.807  0.9060 -1.9677 -0.7713
 4848TP3     H226364   2.107   4.739   1.900 -0.2083 -0.6071  1.1746
 4849TP3      O26365   3.088   0.315   8.771 -0.2384 -0.4960 -0.6687
 4849TP3     H126366   3.042   0.231   8.780 -1.4584  0.1411 -0.8255
 4849TP3     H226367   3.023   0.374   8.734  0.6450  0.5083 -0.6569
 4850TP3      O26368   2.739   4.761   9.671 -0.0173 -0.3867 -0.0859
 4850TP3     H126369   2.700   4.747   9.758  2.5495  1.6494  1.5812
 4850TP3     H226370   2.801   4.832   9.685  1.6400 -1.0266 -3.2900
 4851TP3      O26371   4.547   1.516   9.293 -0.2818  0.5429 -0.1166
 4851TP3     H126372   4.467   1.532   9.242  0.5282 -1.2862 -2.1564
 4851TP3     H226373   4.543   1.422   9.314  0.0499  0.9892  2.1625
 4852TP3      O26374   0.825   4.427   2.919  0.5852  0.1577  0.6511
 4852TP3     H126375   0.736   4.404   2.946  0.0280  0.9244 -0.4075
 4852TP3     H226376   0.835   4.388   2.832  1.1366  0.4154  0.5914
 4853TP3      O26377   3.651   4.640   0.217 -0.4008 -0.4888  0.1905
 4853TP3     H126378   3.618   4.566   0.268 -0.6457 -1.3347 -1.1568
 4853TP3     H226379   3.609   4.632   0.132  0.6394  0.4066 -0.4396
 4854TP3      O26380   1.723   3.958   9.157  0.4504 -0.2022 -0.0435
 4854TP3     H126381   1.630   3.957   9.133  0.2665 -3.4808  0.3780
 4854TP3     H226382   1.725   3.995   9.245 -0.3098  0.7969 -0.4278
 4855TP3      O26383   0.041   4.909   8.311 -0.0474 -0.2506 -0.3339
 4855TP3     H126384  -0.022   4.838   8.299  1.5824 -1.6741 -1.0025
 4855TP3     H226385   0.022   4.971   8.240 -0.9072 -0.4682 -0.3025
 4856TP3      O26386   3.353   4.654   8.565 -0.3223  0.4745 -0.5721
 4856TP3     H126387   3.388   4.594   8.631  1.0542 -1.2498 -2.7529
 4856TP3     H226388   3.287   4.603   8.518  0.2671  0.9369 -1.9254
 4857TP3      O26389   4.803   0.577   2.879 -0.4561 -0.3577 -0.0263
 4857TP3     H126390   4.799   0.534   2.793  0.5927  0.1847 -0.3688
 4857TP3     H226391   4.776   0.509   2.941 -1.8596 -0.5758 -0.8312
 4858TP3      O26392   5.026   3.274   0.978  0.0114 -0.1285 -0.6568
 4858TP3     H126393   4.978   3.210   1.031  2.0760 -1.2267 -0.0052
 4858TP3     H226394   5.011   3.358   1.022 -1.3582 -0.4050 -0.5488
 4859TP3      O26395   4.973   4.142   7.813 -0.4382  0.4362 -0.3684
 4859TP3     H126396   4.942   4.212   7.755 -0.5660  1.1032  0.4843
 4859TP3     H226397   4.970   4.181   7.900 -1.9017 -1.1082  0.3064
 4860TP3      O26398   2.188   3.849   1.445  0.4674 -0.4200 -0.3871
 4860TP3     H126399   2.122   3.785   1.470  0.9562 -0.1301  1.7880
 4860TP3     H226400   2.142   3.933   1.446  0.3168 -0.4841 -1.2329
 4861TP3      O26401   4.253   4.519   0.446 -0.0490 -0.1882 -0.1527
 4861TP3     H126402   4.209   4.604   0.454 -1.9342 -1.1241 -0.1213
 4861TP3     H226403   4.299   4.523   0.362 -0.0370  0.8827 -0.1065
 4862TP3      O26404   0.513   2.243   8.812 -0.0541 -0.3809 -0.5131
 4862TP3     H126405   0.537   2.285   8.729 -0.2520 -1.5199 -1.1677
 4862TP3     H226406   0.595   2.202   8.842  0.1657  0.5267  0.1793
 4863TP3      O26407   3.353   2.111   0.584 -0.2835  0.0634 -0.4089
 4863TP3     H126408   3.283   2.175   0.599 -0.2262  0.3072 -1.1591
 4863TP3     H226409   3.379   2.084   0.672 -1.1720  0.1337 -0.1126
 4864TP3      O26410   0.528   2.602   9.315 -0.1933 -0.1615  0.5728
 4864TP3     H126411   0.551   2.511   9.335  1.0493 -0.3284 -1.4152
 4864TP3     H226412   0.443   2.597   9.272  0.4816 -0.5709 -0.7748
 4865TP3      O26413   2.940   3.373   2.877 -0.0829 -0.0659  0.0962
 4865TP3     H126414   3.000   3.309   2.913  2.7449  2.4795  0.2661
 4865TP3     H226415   2.906   3.420   2.953  0.4963  0.8000 -0.1695
 4866TP3      O26416   4.950   3.830   8.392  0.2665 -0.3305 -0.4883
 4866TP3     H126417   4.986   3.918   8.383  0.9878 -0.0618  3.2967
 4866TP3     H226418   4.862   3.844   8.429 -0.0856 -1.1923 -0.9750
 4867TP3      O26419   2.369   0.631   0.352 -0.3799  0.0709  0.5045
 4867TP3     H126420   2.345   0.709   0.302 -0.5562  0.4913  1.2372
 4867TP3     H226421   2.291   0.575   0.348 -0.8509  0.6481  1.3538
 4868TP3      O26422   3.975   2.408   9.773 -0.3805 -0.4699  0.1790
 4868TP3     H126423   3.958   2.316   9.793 -1.7141  0.0052  1.3307
 4868TP3     H226424   3.902   2.456   9.812  2.7576  1.6250  4.2301
 4869TP3      O26425   2.333   0.072   8.970  0.6163  0.2955  0.1605
 4869TP3     H126426   2.379   0.144   8.927 -2.4769  2.2182 -0.2697
 4869TP3     H226427   2.272   0.040   8.904 -0.6857 -0.1716  1.5307
 4870TP3      O26428   2.630   3.826   8.989  0.0576  0.1321  0.4508
 4870TP3     H126429   2.600   3.776   8.913 -1.1875  2.1023 -0.4294
 4870TP3     H226430   2.627   3.764   9.061 -1.3524 -1.0912 -0.6051
 4871TP3      O26431   2.391   2.208   3.577  0.5001 -0.3560 -0.1077
 4871TP3     H126432   2.369   2.298   3.603  0.3872  0.0011 -1.3924
 4871TP3     H226433   2.308   2.170   3.551  0.3906 -1.1663  1.3453
 4872TP3      O26434   4.422   3.527   7.998 -0.0150  0.1205  0.4437
 4872TP3     H126435   4.337   3.508   7.958 -0.4721 -0.5743  1.6745
 4872TP3     H226436   4.450   3.609   7.958  0.6509 -1.5831 -2.9534
 4873TP3      O26437   2.694   1.506   0.877 -0.6974  0.0729  0.3490
 4873TP3     H126438   2.692   1.570   0.948 -0.2279 -0.9773  1.3469
 4873TP3     H226439   2.728   1.555   0.802 -1.4097  1.2643  0.7695
 4874TP3      O26440   5.021   4.307   1.367  0.2956 -0.3955 -0.1145
 4874TP3     H126441   5.018   4.365   1.290 -1.1299 -0.0495  0.1713
 4874TP3     H226442   5.050   4.364   1.438 -0.3369 -0.2055  0.0014
 4875TP3      O26443   4.936   0.593   0.405  0.3847 -0.3282  0.0559
 4875TP3     H126444   4.906   0.619   0.493  2.6348 -3.2030  1.8810
 4875TP3     H226445   5.013   0.648   0.389  1.1783 -1.1548  0.8805
 4876TP3      O26446   2.908   1.577   3.177 -0.0751 -0.2285  0.1541
 4876TP3     H126447   2.866   1.659   3.153  1.4456  0.2528 -1.0641
 4876TP3     H226448   2.910   1.578   3.272 -0.1547  1.1206  0.1606
 4877TP3      O26449   3.369   4.432   3.038  0.0008 -0.5930  0.4018
 4877TP3     H126450   3.336   4.443   2.949  2.2600  0.4080 -0.3921
 4877TP3     H226451   3.356   4.339   3.057  0.4147 -1.0666 -1.4158
 4878TP3      O26452   1.121   4.099   1.582 -0.4868  0.1185  0.0476
 4878TP3     H126453   1.127   4.021   1.638  1.1532 -0.1835 -0.4946
 4878TP3     H226454   1.039   4.140   1.608 -0.5409 -0.8531  1.5836
 4879TP3      O26455   2.901   3.656   0.988 -0.4714  0.6467  0.1182
 4879TP3     H126456   2.994   3.679   0.979 -0.3204 -0.5758 -2.4057
 4879TP3     H226457   2.897   3.608   1.071  1.1482  0.7478  0.2895
 4880TP3      O26458   2.241   3.098   1.007  0.3285  0.0107  0.0410
 4880TP3     H126459   2.295   3.069   1.081 -0.9074  1.1680  1.4633
 4880TP3     H226460   2.221   3.190   1.027  1.6481  1.0308 -2.7930
 4881TP3      O26461   2.509   1.836   0.787  0.3647 -0.1452  0.3310
 4881TP3     H126462   2.551   1.829   0.702  0.7452  1.1511  0.3776
 4881TP3     H226463   2.581   1.855   0.848 -0.1970  2.0332  0.4242
 4882TP3      O26464   1.863   1.818   7.167 -0.0349 -0.2109  0.3882
 4882TP3     H126465   1.889   1.778   7.250 -0.7387 -0.7530  0.3614
 4882TP3     H226466   1.788   1.873   7.190 -0.3172 -0.4704  0.0927
 4883TP3      O26467   0.599   1.106   7.961 -0.6700  0.2657  0.5217
 4883TP3     H126468   0.592   1.201   7.970  0.5025  0.2975  1.3019
 4883TP3     H226469   0.655   1.093   7.884 -1.0516  0.1923  0.2519
 4884TP3      O26470   3.635   1.801   0.969  0.3438 -0.0622  0.2107
 4884TP3     H126471   3.588   1.849   0.902  0.7433  0.7918  0.5294
 4884TP3     H226472   3.646   1.864   1.041  0.5966 -0.7223  0.7677
 4885TP3      O26473   4.837   5.220   1.271 -0.1336 -0.2980 -0.3901
 4885TP3     H126474   4.792   5.180   1.346  1.8384  0.4789  1.3202
 4885TP3     H226475   4.840   5.150   1.206 -1.8074 -1.0439  0.2636
 4886TP3      O26476   3.816   0.684   2.421 -0.6094 -0.3458 -0.7892
 4886TP3     H126477   3.761   0.668   2.497  0.0989 -0.3771 -0.2793
 4886TP3     H226478   3.829   0.779   2.421 -0.4921 -0.3619 -0.7881
 4887TP3      O26479   5.161   5.204   0.712  0.3588  0.5129 -0.9987
 4887TP3     H126480   5.246   5.181   0.674  0.9852 -0.5541  0.8680
 4887TP3     H226481   5.178   5.286   0.759  0.8509 -0.4715  0.6598
 4888TP3      O26482   3.830   3.780   2.811 -0.0550 -0.0867 -0.2969
 4888TP3     H126483   3.926   3.781   2.803  0.0681  2.2189  0.5525
 4888TP3     H226484   3.814   3.752   2.902 -0.2639 -1.4879 -0.7472
 4889TP3      O26485   4.236   2.890   0.620  0.5812  0.3175  0.3925
 4889TP3     H126486   4.261   2.847   0.538 -0.0300  0.1406  0.2947
 4889TP3     H226487   4.165   2.836   0.655 -0.8040  1.6903 -0.1716
 4890TP3      O26488   2.969   1.970   9.719 -0.0191  0.6345 -0.0420
 4890TP3     H126489   2.932   1.974   9.807  1.3324  0.6492  0.5490
 4890TP3     H226490   3.013   2.055   9.707  1.0724  0.0794 -0.1249
 4891TP3      O26491   2.547   4.793   0.048  0.0295  0.1673  0.7132
 4891TP3     H126492   2.478   4.848   0.084  0.5129  0.2948  1.4710
 4891TP3     H226493   2.621   4.852   0.035 -0.0322  0.0581 -0.2162
 4892TP3      O26494   4.529   2.090   8.599 -0.1816  0.3503 -0.5621
 4892TP3     H126495   4.601   2.142   8.634 -0.6890  0.6540  0.0459
 4892TP3     H226496   4.559   2.000   8.605 -0.2940  0.3840  0.7633
 4893TP3      O26497   4.822   4.791   0.298  0.5794 -0.4699 -0.1626
 4893TP3     H126498   4.887   4.788   0.368 -1.9222 -0.1851  2.3046
 4893TP3     H226499   4.803   4.700   0.279  0.8891 -0.5427 -0.1375
 4894TP3      O26500   2.443   3.797   0.365  0.0842  0.1020  0.3297
 4894TP3     H126501   2.364   3.834   0.405 -0.6759 -0.5689 -0.4979
 4894TP3     H226502   2.415   3.772   0.276  0.9726 -1.0012  0.3363
 4895TP3      O26503   2.141   2.646   2.896  0.4825  0.1205  0.5793
 4895TP3     H126504   2.127   2.631   2.802  1.2117 -0.0008  0.4841
 4895TP3     H226505   2.117   2.738   2.909 -0.7254 -0.1633  0.5033
 4896TP3      O26506   3.752   1.227   7.882 -0.0742  0.1427  0.4710
 4896TP3     H126507   3.812   1.231   7.956  0.1353  1.2687  0.2622
 4896TP3     H226508   3.774   1.144   7.838  0.9042  0.2406  0.7456
 4897TP3      O26509   3.104   4.860   7.553  0.1278  0.1288 -0.4553
 4897TP3     H126510   3.027   4.909   7.580 -0.2774 -1.2828  1.0644
 4897TP3     H226511   3.110   4.876   7.458 -3.6383 -1.8434 -1.2103
 4898TP3      O26512   2.886   0.253   2.771 -0.0186  0.3861 -0.0078
 4898TP3     H126513   2.793   0.236   2.760  0.0982 -0.8775  0.8501
 4898TP3     H226514   2.922   0.172   2.806  1.2720  1.1081  0.4069
 4899TP3      O26515   1.092   1.188   0.394 -0.0363 -0.0411  0.1777
 4899TP3     H126516   1.136   1.143   0.466  0.3955  1.8440  1.1622
 4899TP3     H226517   1.153   1.256   0.367 -1.7142  1.7501  0.6535
 4900TP3      O26518   0.885   3.386   0.135 -0.5675 -0.0567 -0.3200
 4900TP3     H126519   0.912   3.471   0.101 -2.3400  0.3371 -0.8413
 4900TP3     H226520   0.828   3.406   0.209  1.7385 -0.8919  1.8626
 4901TP3      O26521   0.483   2.840   7.977 -0.4262 -0.7645 -0.3811
 4901TP3     H126522   0.532   2.777   7.923  1.8074  0.7496 -0.2357
 4901TP3     H226523   0.506   2.817   8.067 -1.7818 -1.4050 -0.1738
 4902TP3      O26524   4.410   4.973   1.794  0.0052 -0.4103 -0.2990
 4902TP3     H126525   4.342   5.040   1.788  0.5331  0.0606 -1.2213
 4902TP3     H226526   4.377   4.912   1.861 -0.8088  0.3811  0.0484
 4903TP3      O26527   0.856   1.375   8.987  0.6243 -0.3454 -0.2990
 4903TP3     H126528   0.819   1.288   8.998  0.3863 -0.0232  2.2448
 4903TP3     H226529   0.950   1.362   8.990  0.6569 -0.6783 -1.9550
 4904TP3      O26530   1.481   4.965   3.072  0.7170  0.2167  0.3919
 4904TP3     H126531   1.561   4.995   3.030 -0.5396  1.9148 -0.9263
 4904TP3     H226532   1.421   5.039   3.066 -0.8239 -0.8452  1.7221
 4905TP3      O26533   2.071   2.065   1.025 -0.2098 -0.1105  0.3891
 4905TP3     H126534   2.144   2.024   0.978  0.4405 -0.0459  1.3016
 4905TP3     H226535   2.066   2.153   0.988  1.8101  0.7523  1.9259
 4906TP3      O26536   3.160   3.680   0.607 -0.2410 -0.4131 -0.0810
 4906TP3     H126537   3.162   3.706   0.699 -0.2793  0.2482 -0.2600
 4906TP3     H226538   3.242   3.632   0.593  1.1198  1.8488 -0.3709
 4907TP3      O26539   0.594   5.100   2.610  0.8478  0.0455  0.1831
 4907TP3     H126540   0.534   5.170   2.584  0.4317 -0.2410  0.3457
 4907TP3     H226541   0.674   5.144   2.636  1.4487  0.3406 -1.9672
 4908TP3      O26542   3.657   4.428   7.380 -0.0218  0.5657 -0.1120
 4908TP3     H126543   3.631   4.413   7.289  0.3660 -1.9497  0.1174
 4908TP3     H226544   3.734   4.485   7.373 -1.2592  2.1926 -1.1839
 4909TP3      O26545   0.402   3.670  10.073  0.6301  0.1117 -0.2704
 4909TP3     H126546   0.313   3.703  10.058  0.2038 -1.0521 -0.3621
 4909TP3     H226547   0.410   3.594  10.016  1.6753  0.1684 -0.2180
 4910TP3      O26548   2.037   3.198   9.949 -0.3462 -0.5890  0.6399
 4910TP3     H126549   2.068   3.160  10.031 -0.0610  1.1336  1.3810
 4910TP3     H226550   2.108   3.182   9.887  1.8288  2.4868  2.0757
 4911TP3      O26551   1.459   0.493  10.032 -0.0294 -0.0680 -0.3732
 4911TP3     H126552   1.456   0.558   9.961  0.0646  0.5090  0.1423
 4911TP3     H226553   1.550   0.461  10.031  0.7235  1.7879  1.0854
 4912TP3      O26554   0.511   3.336   2.603 -0.0280 -0.3162 -0.3929
 4912TP3     H126555   0.459   3.399   2.653  1.0487 -1.3230  2.1855
 4912TP3     H226556   0.497   3.252   2.649  1.0002 -1.3283 -1.8500
 4913TP3      O26557   1.360   2.315   8.275  0.0546 -0.1240 -0.2492
 4913TP3     H126558   1.304   2.284   8.347  0.1360 -1.7116 -0.8190
 4913TP3     H226559   1.389   2.234   8.232  1.3192  0.7435 -1.0733
 4914TP3      O26560   0.547   2.821   0.937  0.3673  0.1237 -0.0913
 4914TP3     H126561   0.637   2.789   0.928  0.2122 -0.1988 -0.5465
 4914TP3     H226562   0.519   2.788   1.022  0.6794  0.2318  0.0581
 4915TP3      O26563   2.622   2.048   1.554  0.0727 -0.2997 -0.4904
 4915TP3     H126564   2.626   1.969   1.501 -1.1048 -0.5802 -0.1870
 4915TP3     H226565   2.612   2.016   1.644  1.8892  0.1701 -0.0730
 4916TP3      O26566   1.777   0.368   1.514  0.4266 -0.5045  0.2844
 4916TP3     H126567   1.746   0.413   1.593  0.2810 -0.6950  0.3372
 4916TP3     H226568   1.816   0.287   1.547 -0.6649 -1.1363  0.0788
 4917TP3      O26569   2.524   0.483   7.690  0.1972 -0.1520 -0.2031
 4917TP3     H126570   2.483   0.538   7.757 -0.0363  0.2546 -0.6761
 4917TP3     H226571   2.573   0.417   7.740 -1.1586 -0.7511  0.3771
 4918TP3      O26572   0.835   0.454   2.655  0.2152  0.0886  0.0563
 4918TP3     H126573   0.924   0.485   2.637  0.2555 -0.4050 -0.6546
 4918TP3     H226574   0.845   0.361   2.670 -0.3113 -0.2070 -1.2320
 4919TP3      O26575   3.259   3.829   8.368  0.2370 -0.3355 -0.6228
 4919TP3     H126576   3.325   3.867   8.425 -0.4036  0.3103 -0.2934
 4919TP3     H226577   3.196   3.789   8.428 -1.0064  1.2754 -0.7939
 4920TP3      O26578   2.173   5.081   2.918  0.6425 -0.2967 -0.2582
 4920TP3     H126579   2.229   5.018   2.963 -0.7645 -0.1673  1.8899
 4920TP3     H226580   2.084   5.048   2.934  0.0200 -0.5348 -3.5652
 4921TP3      O26581   1.952   1.545   1.925 -0.6728  0.2397 -0.0921
 4921TP3     H126582   1.962   1.605   1.999 -1.5678  0.1142  0.1529
 4921TP3     H226583   1.942   1.459   1.967 -0.4198  0.0621 -0.3956
 4922TP3      O26584   0.984   1.740   8.679  0.4574 -0.1438  0.6086
 4922TP3     H126585   0.938   1.749   8.596  2.7877  0.9277 -0.6732
 4922TP3     H226586   1.018   1.827   8.697  3.1308 -1.1099  0.7033
 4923TP3      O26587   4.773   5.233   7.990 -0.0295  0.4179  0.3403
 4923TP3     H126588   4.744   5.142   7.988  1.5747 -0.1840  1.7103
 4923TP3     H226589   4.723   5.273   8.061  1.2012 -0.1826  1.6026
 4924TP3      O26590   4.490   4.714   3.130  0.1357  0.4839 -0.4529
 4924TP3     H126591   4.528   4.773   3.195  0.1957  0.9679 -0.9210
 4924TP3     H226592   4.560   4.698   3.067  1.1014 -2.4470  1.1776
 4925TP3      O26593   4.512   4.552   1.908 -0.0599  0.0270  0.4360
 4925TP3     H126594   4.587   4.500   1.933 -1.3148 -1.6909  0.7671
 4925TP3     H226595   4.450   4.489   1.871 -0.9758  1.5207 -0.6965
 4926TP3      O26596   3.410   1.142   2.136 -0.1232  1.0239  0.0356
 4926TP3     H126597   3.396   1.069   2.076  1.8040 -0.4136  1.2317
 4926TP3     H226598   3.482   1.192   2.097  1.1599  0.0626  1.1143
 4927TP3      O26599   0.045   2.195   1.947  0.6442  0.0532 -0.2932
 4927TP3     H126600   0.071   2.287   1.957 -1.7268  1.0238 -2.1603
 4927TP3     H226601   0.085   2.152   2.023  0.3763  2.9499  1.7012
 4928TP3      O26602   0.921   1.588   9.824 -0.1542 -0.1564 -0.5337
 4928TP3     H126603   0.933   1.494   9.814  0.9697 -0.0583 -0.2399
 4928TP3     H226604   0.986   1.627   9.765 -1.3630  0.4555 -1.5089
 4929TP3      O26605   3.735   0.908   2.002 -0.3166  0.0297  0.4821
 4929TP3     H126606   3.667   0.963   1.963  0.5544  0.7190 -0.1077
 4929TP3     H226607   3.781   0.869   1.927 -0.6042 -1.1381  0.8816
 4930TP3      O26608   4.388   4.120   8.998 -0.1925  0.2157 -0.0403
 4930TP3     H126609   4.314   4.061   8.981  0.1961 -0.1125 -0.6137
 4930TP3     H226610   4.348   4.207   9.002 -0.3471  0.3335 -2.6722
 4931TP3      O26611   2.485   1.178   9.826 -0.3651 -0.4550 -0.3415
 4931TP3     H126612   2.396   1.160   9.855  0.5090 -2.9677  1.1201
 4931TP3     H226613   2.523   1.230   9.896 -0.3328 -0.4429 -0.3679
 4932TP3      O26614   0.459   2.844   6.195 -0.3028  0.2683  0.5440
 4932TP3     H126615   0.544   2.826   6.237 -0.2374 -0.8813 -0.0414
 4932TP3     H226616   0.395   2.803   6.253 -0.0825 -3.0405 -1.3022
 4933TP3      O26617   2.793   0.201   1.723 -0.2782  0.8410 -0.3230
 4933TP3     H126618   2.814   0.113   1.693  1.6334  0.6900  1.2186
 4933TP3     H226619   2.704   0.194   1.758 -0.0522 -0.5714  0.0336
 4934TP3      O26620   4.766   0.108   0.536 -0.2480 -0.2945  0.1621
 4934TP3     H126621   4.806   0.193   0.554  0.6629 -0.7769  0.4675
 4934TP3     H226622   4.823   0.068   0.470 -1.5841 -0.0131 -1.2338
 4935TP3      O26623   4.902   3.110   7.749  0.5122 -0.7824 -0.5437
 4935TP3     H126624   4.877   3.044   7.813  0.2841  0.1589  0.3647
 4935TP3     H226625   4.987   3.141   7.779  0.2044 -0.0271 -0.4311
 4936TP3      O26626   2.837   1.670   3.489  0.3811 -0.3947  0.5263
 4936TP3     H126627   2.837   1.622   3.572  0.2652  0.3926  0.9859
 4936TP3     H226628   2.746   1.666   3.459  0.6831 -1.9033 -0.2977
 4937TP3      O26629   1.644   4.703   0.504 -0.1018 -0.3111  0.8162
 4937TP3     H126630   1.568   4.670   0.551  1.6147 -1.4150  3.0273
 4937TP3     H226631   1.684   4.766   0.564  0.1888  1.0771 -0.7422
 4938TP3      O26632   0.725   1.963   7.903 -0.0507  0.0002 -0.3591
 4938TP3     H126633   0.647   2.015   7.885 -1.1779 -1.8577 -1.0966
 4938TP3     H226634   0.773   1.961   7.820 -0.8114 -1.3804 -0.7902
 4939TP3      O26635   2.557   4.946   2.059  0.5141  0.2983 -0.0724
 4939TP3     H126636   2.644   4.984   2.046  0.0944  2.5333  2.6121
 4939TP3     H226637   2.499   5.004   2.009  0.3904 -0.0893 -0.3777
 4940TP3      O26638   4.589   3.236   8.897  0.3005  0.4943 -0.7675
 4940TP3     H126639   4.525   3.269   8.960 -0.5389  0.7562 -1.7381
 4940TP3     H226640   4.653   3.307   8.889  2.8677 -1.0641  2.9112
 4941TP3      O26641   4.837   3.021   1.505 -0.2306  0.7384  0.3272
 4941TP3     H126642   4.824   3.050   1.595 -0.6847 -1.3351  0.9673
 4941TP3     H226643   4.874   3.098   1.461 -0.4324  1.9424  2.1454
 4942TP3      O26644   4.943   4.684   2.663 -0.3834 -0.0876 -0.4117
 4942TP3     H126645   5.002   4.609   2.662  0.4754  0.5744 -0.7004
 4942TP3     H226646   4.857   4.647   2.682  0.0216 -1.1447 -0.5882
 4943TP3      O26647   4.115   4.099   3.100  0.0397 -0.0794 -0.2506
 4943TP3     H126648   4.092   4.185   3.136  0.1584  0.6750 -1.8779
 4943TP3     H226649   4.159   4.054   3.172  1.0015  1.6563  0.3114
 4944TP3      O26650   5.027   3.884   1.717 -0.1111 -0.3506  0.3867
 4944TP3     H126651   5.022   3.964   1.769  0.9853 -1.1552  1.8069
 4944TP3     H226652   5.032   3.914   1.626 -2.6554  1.0831  0.6414
 4945TP3      O26653   1.293   2.947   1.591  0.2675  0.4926  0.6113
 4945TP3     H126654   1.246   2.904   1.663 -1.0697  2.2924  0.8766
 4945TP3     H226655   1.227   2.957   1.522  1.4951 -1.0995 -0.8967
 4946TP3      O26656   1.082   3.767   7.581  0.1735 -0.2901 -0.3126
 4946TP3     H126657   1.125   3.685   7.554  1.6303  0.3355  0.0442
 4946TP3     H226658   1.147   3.812   7.634 -0.9692  0.6748  0.3130
 4947TP3      O26659   4.437   4.599   0.259 -0.4881 -0.0767 -0.3226
 4947TP3     H126660   4.499   4.641   0.319  1.2028 -2.4329 -0.3094
 4947TP3     H226661   4.467   4.624   0.172  1.2413 -2.0577 -0.3609
 4948TP3      O26662   1.958   4.038   2.749  0.1561 -0.4545 -0.0282
 4948TP3     H126663   1.991   3.979   2.681 -0.2480  0.0762 -0.6910
 4948TP3     H226664   1.955   3.984   2.828  2.5634 -0.5541  0.0698
 4949TP3      O26665   2.649   1.379   0.061  0.3353  0.0898  0.4022
 4949TP3     H126666   2.668   1.432   0.138 -0.3998 -0.1350  0.7462
 4949TP3     H226667   2.623   1.294   0.096  2.9014 -1.0501 -0.1540
 4950TP3      O26668   1.367   3.312   0.622  0.1562 -0.5737  0.4851
 4950TP3     H126669   1.457   3.291   0.648  1.4379 -1.1388 -3.6352
 4950TP3     H226670   1.335   3.231   0.582 -1.7616  0.0162  0.7433
 4951TP3      O26671   4.637   1.074   1.769 -0.1903  0.6775 -0.3133
 4951TP3     H126672   4.566   1.010   1.771 -0.5037  0.9348 -1.7023
 4951TP3     H226673   4.671   1.076   1.858 -0.3434 -1.2134 -0.1754
 4952TP3      O26674   5.068   5.119   2.535  0.1700 -0.1388 -0.3804
 4952TP3     H126675   5.087   5.030   2.565 -1.8806  0.0791  1.8095
 4952TP3     H226676   5.034   5.107   2.446  0.9588 -1.3985 -0.5521
 4953TP3      O26677   5.022   2.912   9.389 -0.0508 -0.6280 -0.2296
 4953TP3     H126678   4.935   2.903   9.429 -0.4095 -0.0351 -0.8527
 4953TP3     H226679   5.009   2.973   9.317  0.9028 -0.5002 -0.3084
 4954TP3      O26680   4.147   3.130   2.361  0.2184  0.2344 -0.2069
 4954TP3     H126681   4.055   3.155   2.348 -0.0929 -0.7034  0.0985
 4954TP3     H226682   4.196   3.195   2.310 -0.6112  0.7267 -0.4131
 4955TP3      O26683   3.787   0.905   0.527  0.3735 -0.6298  0.5025
 4955TP3     H126684   3.873   0.863   0.530 -0.1122 -1.6794  0.3554
 4955TP3     H226685   3.775   0.942   0.615  1.4050  0.4548  0.2046
 4956TP3      O26686   3.769   3.503  10.086 -0.0460  0.0534 -0.1232
 4956TP3     H126687   3.773   3.443  10.012  1.0133 -0.1355  0.0721
 4956TP3     H226688   3.781   3.448  10.163 -0.1543  0.3713  0.1230
 4957TP3      O26689   2.177   0.993   2.115 -0.3001  0.3008  0.2004
 4957TP3     H126690   2.126   1.068   2.082 -0.3095  0.2815  0.1705
 4957TP3     H226691   2.265   1.007   2.082  0.2054  1.3703  1.8829
 4958TP3      O26692   3.035   2.829   1.216 -0.3630 -0.5069  0.2812
 4958TP3     H126693   3.016   2.821   1.122  0.0729 -0.8303  0.2147
 4958TP3     H226694   3.002   2.915   1.240 -1.9147 -1.0287  0.1792
 4959TP3      O26695   2.173   4.828   8.569 -0.1177 -0.4769 -0.2559
 4959TP3     H126696   2.152   4.738   8.544  0.5952 -1.1313  1.3682
 4959TP3     H226697   2.246   4.852   8.512  0.5101 -1.3925  0.1331
 4960TP3      O26698   4.903   1.516   6.949  0.2265  0.5578  1.0354
 4960TP3     H126699   4.826   1.569   6.968 -0.8473 -1.4528  2.6277
 4960TP3     H226700   4.976   1.564   6.988 -0.5193  1.4423  1.3630
 4961TP3      O26701   4.447   3.805   1.348 -0.4367 -0.4898 -0.0351
 4961TP3     H126702   4.461   3.899   1.353  1.8608 -0.8498  3.7236
 4961TP3     H226703   4.509   3.775   1.281 -0.7383  0.5519 -0.8122
 4962TP3      O26704   1.786   1.298   1.287 -0.2570 -0.1380 -0.1185
 4962TP3     H126705   1.832   1.350   1.220  0.6042  0.7017  1.0735
 4962TP3     H226706   1.841   1.221   1.300 -0.9585 -0.8218 -1.0898
 4963TP3      O26707   3.099   3.244   9.229 -0.5158  0.2983 -0.3210
 4963TP3     H126708   3.174   3.231   9.287  0.8873  2.6546 -1.4666
 4963TP3     H226709   3.031   3.280   9.286 -0.3907 -0.6918  0.4874
 4964TP3      O26710   4.638   2.834   1.521  0.5903 -0.3061 -0.2711
 4964TP3     H126711   4.591   2.838   1.437 -1.0537 -0.9431  0.5839
 4964TP3     H226712   4.714   2.891   1.508 -1.3768  2.3425 -1.1125
 4965TP3      O26713   2.142   4.851   3.164 -0.1267  0.0954  0.5934
 4965TP3     H126714   2.074   4.895   3.113 -0.0965  0.7428  1.1012
 4965TP3     H226715   2.173   4.781   3.107  0.8166  1.5996 -0.8320
 4966TP3      O26716   1.578   1.017   2.763  0.3658 -0.0289  0.4982
 4966TP3     H126717   1.514   1.042   2.696  1.4688 -1.2025 -1.0919
 4966TP3     H226718   1.527   0.969   2.828 -0.5037 -0.2655 -0.3342
 4967TP3      O26719   3.194   2.019   8.290 -0.2918  0.0661 -0.2210
 4967TP3     H126720   3.271   2.011   8.347 -0.7784 -2.1193  0.2349
 4967TP3     H226721   3.120   1.998   8.348 -1.1318  0.9507 -0.9397
 4968TP3      O26722   0.615   3.774   8.259 -0.2804 -0.5051 -0.0569
 4968TP3     H126723   0.643   3.862   8.284 -1.3990 -0.3082  0.6210
 4968TP3     H226724   0.657   3.757   8.175  0.0205  0.6422 -0.1483
 4969TP3      O26725   2.664   0.623   1.178 -0.2974 -0.2511 -0.0156
 4969TP3     H126726   2.689   0.598   1.089 -2.0110  1.6232 -1.1276
 4969TP3     H226727   2.600   0.557   1.204 -1.2971  0.2706 -1.0330
 4970TP3      O26728   2.888   3.748   8.906  0.1425 -0.3865 -0.0441
 4970TP3     H126729   2.965   3.804   8.919  0.8385 -1.6808  2.1798
 4970TP3     H226730   2.816   3.798   8.943 -0.3589  1.1851 -2.8734
 4971TP3      O26731   5.174   1.395   2.581  0.2457 -0.0012 -0.1422
 4971TP3     H126732   5.265   1.405   2.555  0.6504 -1.6143  0.5198
 4971TP3     H226733   5.123   1.420   2.504  1.0800  3.9145  0.3826
 4972TP3      O26734   4.188   3.910   9.510 -0.3636 -0.1554 -0.6275
 4972TP3     H126735   4.173   3.816   9.510  0.6401 -0.3259 -0.4336
 4972TP3     H226736   4.276   3.920   9.544 -0.3667  0.8424 -0.8869
 4973TP3      O26737   1.146   5.119   0.473  0.4616  0.2452 -0.0757
 4973TP3     H126738   1.238   5.146   0.484  0.2956  0.5261  0.6917
 4973TP3     H226739   1.151   5.031   0.436  1.0853 -0.4667  1.6041
 4974TP3      O26740   1.812   4.865   0.710 -0.1254 -0.1537  0.3914
 4974TP3     H126741   1.725   4.885   0.744 -0.7299 -0.9852 -0.6020
 4974TP3     H226742   1.872   4.912   0.767 -1.1131 -1.1857  2.3625
 4975TP3      O26743   4.849   3.310   8.603  0.2574 -0.4369  0.2986
 4975TP3     H126744   4.889   3.231   8.639  1.6576  0.8493  1.7316
 4975TP3     H226745   4.918   3.349   8.550 -0.6266 -0.4478 -0.9045
 4976TP3      O26746   0.144   2.671   3.497 -0.2181 -0.0704 -1.1460
 4976TP3     H126747   0.062   2.658   3.543  1.3278 -1.8418  1.3656
 4976TP3     H226748   0.159   2.765   3.499 -1.7433  0.1895 -0.9019
 4977TP3      O26749   2.757   3.270   7.730 -0.3972  0.4119 -0.2542
 4977TP3     H126750   2.727   3.357   7.755  0.0287  0.2217  0.9779
 4977TP3     H226751   2.807   3.283   7.650 -2.2362  0.9765 -1.3886
 4978TP3      O26752   3.383   1.294   0.868 -0.1781  0.3480  0.2331
 4978TP3     H126753   3.414   1.380   0.897  0.7944 -0.3285  1.3212
 4978TP3     H226754   3.447   1.233   0.904  0.1591 -0.7173 -2.0040
 4979TP3      O26755   2.911   0.420   8.235 -0.0144 -0.1380  0.2621
 4979TP3     H126756   2.910   0.360   8.309  0.1528 -0.0667  0.3218
 4979TP3     H226757   2.998   0.411   8.197 -0.7275 -1.7161 -1.1755
 4980TP3      O26758   4.528   1.791   0.459 -0.0157 -0.0190  0.4099
 4980TP3     H126759   4.586   1.838   0.519 -0.1637  0.4037  0.2230
 4980TP3     H226760   4.576   1.785   0.377  0.4752 -1.2149  0.7599
 4981TP3      O26761   3.876   3.939   9.627 -0.1308  0.2336  0.1152
 4981TP3     H126762   3.870   4.023   9.673  0.2364  0.0178  0.5635
 4981TP3     H226763   3.939   3.889   9.678  1.3749  0.4931 -1.4070
 4982TP3      O26764   0.838   2.699   9.983  0.2686 -0.2345 -0.5524
 4982TP3     H126765   0.897   2.750   9.927  1.0991 -2.3999 -1.7564
 4982TP3     H226766   0.791   2.765  10.034  1.5318  1.7024 -1.7577
 4983TP3      O26767   3.614   1.557   9.830 -0.9229 -0.7321 -0.0729
 4983TP3     H126768   3.698   1.597   9.806 -0.4537 -2.3174 -1.2822
 4983TP3     H226769   3.632   1.513   9.913 -0.4010 -1.4430 -0.5478
 4984TP3      O26770   0.677   3.606   9.092  0.5477  0.1305 -0.0248
 4984TP3     H126771   0.689   3.529   9.036  0.9492  1.5099 -1.9075
 4984TP3     H226772   0.748   3.601   9.156  1.0916 -0.5858 -0.6762
 4985TP3      O26773   4.821   2.193   2.891 -1.0435  0.1757 -0.5504
 4985TP3     H126774   4.797   2.285   2.904 -2.9190 -0.3439  0.0356
 4985TP3     H226775   4.759   2.162   2.825 -0.0690 -0.5515 -1.1467
 4986TP3      O26776   0.160   1.541   8.471 -0.7010  0.5184 -0.5351
 4986TP3     H126777   0.214   1.619   8.482  1.2732 -0.7278 -0.7488
 4986TP3     H226778   0.167   1.520   8.378 -1.4171  0.2412 -0.5280
 4987TP3      O26779   4.514   1.300   1.664  0.2754 -0.2462  0.0083
 4987TP3     H126780   4.605   1.270   1.656  0.1157 -0.5560 -0.6716
 4987TP3     H226781   4.489   1.277   1.754  0.7477 -0.4980  0.0764
 4988TP3      O26782   4.658   2.639   6.652  0.7443  0.0817 -0.2168
 4988TP3     H126783   4.588   2.582   6.621 -0.2151  1.1728 -0.1306
 4988TP3     H226784   4.737   2.604   6.612  0.4410 -2.2294  1.0652
 4989TP3      O26785   4.366   2.280   9.194 -0.5824  0.1571 -0.1657
 4989TP3     H126786   4.387   2.371   9.218 -0.0363 -0.1567  0.5710
 4989TP3     H226787   4.410   2.268   9.110  1.9237 -0.3313  1.1132
 4990TP3      O26788   1.361   4.395   2.143  0.1399 -0.2471 -0.1460
 4990TP3     H126789   1.456   4.384   2.143 -0.0338 -2.1760 -0.5358
 4990TP3     H226790   1.331   4.340   2.071 -1.3341 -0.4736  0.6026
 4991TP3      O26791   2.726   4.356   9.364 -0.1785 -0.5110 -1.2578
 4991TP3     H126792   2.700   4.441   9.398 -1.9273 -0.9074 -1.4870
 4991TP3     H226793   2.818   4.347   9.388 -0.3335  0.8532 -0.0460
 4992TP3      O26794   5.266   1.820   7.388  0.5650  0.2154 -0.2541
 4992TP3     H126795   5.312   1.772   7.320  1.7021  0.2826  0.4454
 4992TP3     H226796   5.219   1.752   7.437 -0.2528  0.1694 -1.0888
 4993TP3      O26797   2.818   1.106   1.607  0.0962 -0.6549  0.4127
 4993TP3     H126798   2.891   1.146   1.560 -0.3873 -0.9445 -0.6273
 4993TP3     H226799   2.796   1.168   1.677  0.1865  0.2806 -0.3723
 4994TP3      O26800   0.984   3.553   1.398 -0.1592  0.3402 -0.0985
 4994TP3     H126801   1.060   3.572   1.344 -0.7508 -0.8283 -1.4197
 4994TP3     H226802   0.909   3.571   1.341 -0.8014 -1.0332  0.2621
 4995TP3      O26803   4.478   4.189   3.405 -0.7114  0.5876 -0.4006
 4995TP3     H126804   4.394   4.218   3.368 -1.4714  1.5139  1.9274
 4995TP3     H226805   4.500   4.111   3.353 -4.1327 -1.0428  0.3046
 4996TP3      O26806   3.597   4.333   2.583  0.0480 -0.0805 -0.3867
 4996TP3     H126807   3.582   4.401   2.649  1.0149 -0.8560  0.6673
 4996TP3     H226808   3.563   4.371   2.502 -1.2315  0.8824  0.5539
 4997TP3      O26809   1.533   2.473   2.746  0.2258 -0.4764 -0.0921
 4997TP3     H126810   1.536   2.419   2.825  2.7095 -1.0619 -0.4986
 4997TP3     H226811   1.502   2.558   2.777 -1.6412 -1.4475  0.9477
 4998TP3      O26812   2.984   0.916   8.452  0.6314 -0.0144 -0.3751
 4998TP3     H126813   2.961   0.881   8.366 -1.2751 -0.6366  0.3330
 4998TP3     H226814   3.015   0.840   8.501 -1.2235 -0.3327  0.4052
 4999TP3      O26815   3.387   3.439   2.286  0.4486  0.4995 -0.2167
 4999TP3     H126816   3.316   3.395   2.332  0.1870  0.2412 -0.8593
 4999TP3     H226817   3.347   3.472   2.205  1.3171 -0.7113 -1.1718
 5000TP3      O26818   0.200   0.092   0.770  0.1184 -0.4219 -0.0076
 5000TP3     H126819   0.108   0.116   0.784 -0.5254 -0.7450 -3.0119
 5000TP3     H226820   0.196   0.009   0.723  2.0039 -0.8791  0.5701
 5001TP3      O26821   2.252   1.433   1.676 -0.4498  0.8014 -0.3233
 5001TP3     H126822   2.218   1.376   1.745  0.3307  1.5681  0.7375
 5001TP3     H226823   2.197   1.414   1.600 -0.8759 -0.5958  0.2900
 5002TP3      O26824   4.766   5.054   1.582  0.1493 -0.3802 -0.5835
 5002TP3     H126825   4.683   5.092   1.553  1.1870  1.4659 -1.2864
 5002TP3     H226826   4.795   5.002   1.507  0.2656  0.0919 -0.8748
 5003TP3      O26827   1.873   1.850   2.903 -0.1377 -0.1820  0.0921
 5003TP3     H126828   1.914   1.879   2.822  0.2340  0.5709  0.5426
 5003TP3     H226829   1.942   1.804   2.950 -0.5841 -1.3721 -0.3869
 5004TP3      O26830   3.663   3.706   3.464 -0.9702 -0.0258  0.2965
 5004TP3     H126831   3.710   3.687   3.383 -0.0260 -0.9037  1.0187
 5004TP3     H226832   3.571   3.700   3.441 -0.7114 -0.5132 -0.6449
 5005TP3      O26833   2.122   0.181   0.099 -0.4906  0.6485  0.3841
 5005TP3     H126834   2.030   0.202   0.111 -0.8972 -1.0771  0.5934
 5005TP3     H226835   2.122   0.095   0.057  1.0274  1.4172 -1.3222
 5006TP3      O26836   4.717   2.565   0.548 -0.0575  0.3170  0.7394
 5006TP3     H126837   4.699   2.488   0.494 -1.5043  0.2135  1.3376
 5006TP3     H226838   4.779   2.535   0.614  0.5266  0.0559  0.0870
 5007TP3      O26839   0.441   4.310   9.363  0.2523 -0.0890 -0.0921
 5007TP3     H126840   0.513   4.323   9.425  0.6474  2.4280 -0.9716
 5007TP3     H226841   0.483   4.313   9.277 -0.5334 -1.6934 -0.5542
 5008TP3      O26842   5.083   0.633   0.847 -0.0524  0.2491  0.1962
 5008TP3     H126843   5.166   0.587   0.846  0.9685  2.0158 -1.4406
 5008TP3     H226844   5.096   0.706   0.908 -0.5331  0.3210  0.2214
 5009TP3      O26845   1.448   5.035   1.984 -0.6264 -0.0142 -0.4031
 5009TP3     H126846   1.377   4.971   1.997 -0.6376 -0.7977 -3.4831
 5009TP3     H226847   1.406   5.120   1.994 -1.4600 -0.4765  0.1678
 5010TP3      O26848   3.215   4.809   1.230 -0.0814 -0.7396  0.5937
 5010TP3     H126849   3.194   4.822   1.138 -0.4791 -1.5158  0.5650
 5010TP3     H226850   3.308   4.786   1.230 -0.0960 -0.7992  0.3753
 5011TP3      O26851   3.649   1.374   1.289 -0.0063  1.0146 -0.1443
 5011TP3     H126852   3.720   1.436   1.275  1.1563 -0.1094  0.5393
 5011TP3     H226853   3.680   1.317   1.359 -1.4087  0.2161 -0.1313
 5012TP3      O26854   3.549   1.231   1.660  0.2005 -0.0790 -0.1406
 5012TP3     H126855   3.459   1.250   1.633  0.0452 -0.7762 -0.1164
 5012TP3     H226856   3.596   1.215   1.578  0.3736  0.5629 -0.1731
 5013TP3      O26857   1.396   5.032   9.653 -0.2640 -0.1666 -0.2525
 5013TP3     H126858   1.455   5.092   9.698  1.3028 -1.5833 -0.3140
 5013TP3     H226859   1.417   4.946   9.690 -0.2150 -1.1178 -2.3591
 5014TP3      O26860   4.951   5.235   2.271  0.2009  0.4016  0.5426
 5014TP3     H126861   4.885   5.167   2.283  0.5921  0.0243  0.5973
 5014TP3     H226862   4.919   5.287   2.197  0.1849 -0.1946  0.1267
 5015TP3      O26863   1.335   3.934   8.405  0.1881  0.0898 -0.9916
 5015TP3     H126864   1.387   3.903   8.479  0.0240 -0.6037 -1.1560
 5015TP3     H226865   1.245   3.934   8.438  0.1990  0.5056 -0.9583
 5016TP3      O26866   2.402   1.405   9.327  0.3807 -0.0032 -0.0367
 5016TP3     H126867   2.387   1.491   9.288  0.2439 -0.6471 -1.4805
 5016TP3     H226868   2.321   1.386   9.374 -1.3396 -1.0509 -3.1389
 5017TP3      O26869   5.004   3.892   2.631 -0.4872 -0.2607  0.3706
 5017TP3     H126870   5.061   3.949   2.579 -0.1366 -1.0561 -0.1247
 5017TP3     H226871   4.992   3.939   2.714 -1.8110  1.4842 -0.7267
 5018TP3      O26872   1.174   5.253  10.098  0.2754  0.1311 -0.1386
 5018TP3     H126873   1.143   5.302  10.174  0.0037  1.4154 -1.0453
 5018TP3     H226874   1.220   5.318  10.045 -2.1799  0.0755 -2.5689
 5019TP3      O26875   0.348   2.327   1.181  0.2839 -0.0494  0.1666
 5019TP3     H126876   0.392   2.317   1.096 -0.5234 -0.4728 -0.2078
 5019TP3     H226877   0.267   2.277   1.172 -0.0947  0.4071  0.9818
 5020TP3      O26878   2.368   1.582   0.831  0.6484 -0.4360 -0.1732
 5020TP3     H126879   2.428   1.656   0.842  2.6177 -1.7914 -1.2314
 5020TP3     H226880   2.366   1.540   0.917 -0.2768  0.6385  0.3616
 5021TP3      O26881   4.828   1.085   9.599 -0.1295  0.0658  0.5066
 5021TP3     H126882   4.864   1.159   9.550 -0.0139  1.2562  2.2741
 5021TP3     H226883   4.747   1.119   9.638 -0.9424 -1.2628  0.0314
 5022TP3      O26884   4.780   4.971   2.304 -0.0772 -0.1619  0.0957
 5022TP3     H126885   4.768   4.944   2.213  0.2059 -0.1450  0.0514
 5022TP3     H226886   4.751   4.896   2.356 -0.6687 -0.0016  0.0021
 5023TP3      O26887   1.236   4.996   1.295  0.0485 -0.1779 -0.5728
 5023TP3     H126888   1.206   5.085   1.276 -0.2933 -0.1024  0.2731
 5023TP3     H226889   1.316   5.009   1.346 -0.1840 -0.3536 -0.1628
 5024TP3      O26890   1.964   2.457   8.732  0.3106  0.1174 -0.2767
 5024TP3     H126891   1.936   2.549   8.732 -1.7252 -0.4487 -1.6226
 5024TP3     H226892   1.970   2.435   8.825 -0.8322  1.1456  0.0703
 5025TP3      O26893   4.768   4.583   2.180  0.1409 -0.0091 -0.0889
 5025TP3     H126894   4.726   4.572   2.095 -0.7652  1.2503  0.1554
 5025TP3     H226895   4.699   4.562   2.243  0.7065 -0.6164  0.3371
 5026TP3      O26896   2.232   4.349   0.957  0.7556 -0.3654 -0.2465
 5026TP3     H126897   2.242   4.400   0.877 -1.3466 -0.9935 -0.9582
 5026TP3     H226898   2.302   4.283   0.952  0.6677 -0.3763 -1.5528
 5027TP3      O26899   1.648   0.109   1.613 -0.0997  0.0042 -0.1704
 5027TP3     H126900   1.690   0.131   1.696  1.0835 -0.2304 -0.6847
 5027TP3     H226901   1.557   0.092   1.636  0.4546 -1.2610  1.2929
 5028TP3      O26902   0.041   1.100   3.021 -0.6410  0.0585 -0.4675
 5028TP3     H126903   0.059   1.181   2.974 -0.0894  0.4201  0.3401
 5028TP3     H226904   0.001   1.128   3.103 -0.0526 -0.4537  0.0056
 5029TP3      O26905   2.260   0.398   9.556  0.1081  0.3216  0.8083
 5029TP3     H126906   2.245   0.430   9.467  2.5890 -1.2617 -0.2987
 5029TP3     H226907   2.298   0.473   9.602 -3.1507  1.8274  1.3000
 5030TP3      O26908   2.036   4.771   2.864  0.1870 -0.3559 -0.0546
 5030TP3     H126909   2.112   4.743   2.915  0.5710  2.6670  1.2576
 5030TP3     H226910   2.004   4.848   2.911 -0.9805  1.1294 -3.0855
 5031TP3      O26911   0.973   1.665   1.550  0.1417  0.0456  0.1825
 5031TP3     H126912   0.893   1.632   1.590  0.8682 -3.5948 -0.9365
 5031TP3     H226913   0.944   1.706   1.468 -0.6059 -2.1756 -0.7368
 5032TP3      O26914   4.640   4.124   0.569 -0.4273 -0.7967  0.4535
 5032TP3     H126915   4.584   4.199   0.552  1.3084  1.0171  2.3020
 5032TP3     H226916   4.596   4.076   0.639 -1.7428 -1.8454 -1.0028
 5033TP3      O26917   0.958   0.253   0.951  0.2954 -0.2952  0.2794
 5033TP3     H126918   0.871   0.215   0.944  0.3097 -0.4010  0.6226
 5033TP3     H226919   1.013   0.197   0.896 -0.0203  0.3379 -0.7021
 5034TP3      O26920   2.375   0.501   1.044 -0.6637  0.1341  0.3887
 5034TP3     H126921   2.407   0.587   1.016 -1.0920  0.1094 -0.1974
 5034TP3     H226922   2.413   0.489   1.131  0.4165  0.3691 -0.0348
 5035TP3      O26923   4.414   2.602   8.676  0.4948  0.1267  0.5027
 5035TP3     H126924   4.324   2.579   8.655  0.1046  0.3109  1.9339
 5035TP3     H226925   4.466   2.529   8.642  0.0050  0.7661 -1.8002
 5036TP3      O26926   1.832   0.429   1.224  0.1812  0.0078  0.7616
 5036TP3     H126927   1.845   0.427   1.319  1.5065  0.0149  0.5890
 5036TP3     H226928   1.919   0.439   1.188 -0.2369 -0.6470 -0.4881
 5037TP3      O26929   2.614   4.390   1.793  0.5523  0.0119 -0.5384
 5037TP3     H126930   2.613   4.302   1.830 -1.3142 -0.0659 -0.7266
 5037TP3     H226931   2.641   4.378   1.702  0.9566 -0.2764 -0.3844
 5038TP3      O26932   1.145   0.746   8.167  0.0552  0.2166 -0.1873
 5038TP3     H126933   1.138   0.681   8.238  1.0332  1.4323  1.0742
 5038TP3     H226934   1.096   0.821   8.198 -0.8123  0.2342 -1.5136
 5039TP3      O26935   1.316   5.017   1.641 -0.9491 -0.5069 -0.4869
 5039TP3     H126936   1.279   4.934   1.614  1.7304 -1.1532 -2.6407
 5039TP3     H226937   1.355   5.053   1.562 -1.9096  2.8220  0.3825
 5040TP3      O26938   1.812   4.500   1.733  0.1265 -0.3133  0.4637
 5040TP3     H126939   1.767   4.584   1.725 -1.1219 -1.1283 -2.4941
 5040TP3     H226940   1.888   4.507   1.675  0.3881 -1.0183  0.7040
 5041TP3      O26941   1.776   3.536   0.933 -0.2618  0.0922 -0.0750
 5041TP3     H126942   1.762   3.441   0.937 -0.1732  0.0006 -1.4754
 5041TP3     H226943   1.735   3.563   0.851 -0.1829  1.2562  0.2524
 5042TP3      O26944   4.338   0.016   8.873  0.2617  0.1645 -0.0691
 5042TP3     H126945   4.291   0.071   8.936  2.0750 -0.0073  1.5231
 5042TP3     H226946   4.291   0.029   8.791 -2.7772 -0.2926  1.4407
 5043TP3      O26947   3.293   4.101   1.310 -0.5790  0.7607  0.0036
 5043TP3     H126948   3.283   4.190   1.343  0.0379  0.1955  1.8591
 5043TP3     H226949   3.209   4.059   1.327 -0.9403  1.0307 -1.0647
 5044TP3      O26950   1.304   2.076   8.821 -0.3619  0.2555  0.2439
 5044TP3     H126951   1.356   2.143   8.777 -0.2136  0.0114  0.0457
 5044TP3     H226952   1.234   2.125   8.864 -1.1922  0.4103 -1.2171
 5045TP3      O26953   4.216   1.996   9.948 -0.1143 -0.1527  0.5840
 5045TP3     H126954   4.216   2.091   9.954  0.8149 -0.1991  1.8466
 5045TP3     H226955   4.161   1.967  10.020 -1.3419 -0.5755 -0.4921
 5046TP3      O26956   1.791   2.928   2.233  0.4217 -0.3930  0.4077
 5046TP3     H126957   1.765   2.974   2.312  0.4028 -0.0660  0.2104
 5046TP3     H226958   1.886   2.920   2.240  0.5455  0.5907 -0.0499
 5047TP3      O26959   2.126   0.807   0.189 -0.1849 -0.0988 -0.4605
 5047TP3     H126960   2.061   0.744   0.158  0.2759 -0.3593 -0.9191
 5047TP3     H226961   2.118   0.805   0.284 -0.0327 -1.0130 -0.4564
 5048TP3      O26962   5.017   1.875   0.359 -0.3547  0.3330  0.2093
 5048TP3     H126963   5.064   1.822   0.424 -0.9979 -1.1270 -0.4828
 5048TP3     H226964   5.073   1.952   0.346  1.4784 -0.9779 -0.0253
 5049TP3      O26965   2.276   2.016   9.086 -0.0314 -0.1950  0.6726
 5049TP3     H126966   2.296   2.110   9.092  1.3798 -0.4378  0.2232
 5049TP3     H226967   2.362   1.974   9.081 -0.6345 -1.5452  1.2289
 5050TP3      O26968   2.953   3.751   7.823 -0.0141  0.4876 -0.1965
 5050TP3     H126969   2.957   3.658   7.843 -1.4438  0.3298 -0.5358
 5050TP3     H226970   2.884   3.758   7.757  0.9637  1.6333 -1.1355
 5051TP3      O26971   2.499   0.722   0.903  0.3690  0.4251  0.4707
 5051TP3     H126972   2.480   0.724   0.809 -0.7887  1.5572  0.7173
 5051TP3     H226973   2.544   0.805   0.920  1.6077 -0.2726  0.7302
 5052TP3      O26974   0.452   4.882   9.246 -0.6058  0.1321  0.7888
 5052TP3     H126975   0.518   4.895   9.315 -0.2426 -0.1932  0.5012
 5052TP3     H226976   0.495   4.826   9.182 -0.0940  2.2624 -0.8493
 5053TP3      O26977   2.532   3.026   8.695 -0.1716  0.1032 -0.2650
 5053TP3     H126978   2.557   2.975   8.618  0.4193 -3.6636  2.1479
 5053TP3     H226979   2.597   3.096   8.699  0.9377 -0.7416 -2.1516
 5054TP3      O26980   3.139   3.399   3.134 -0.0347 -0.3743 -0.3016
 5054TP3     H126981   3.065   3.449   3.102  0.0652  0.7690  1.1195
 5054TP3     H226982   3.147   3.324   3.074 -0.8319  0.7560 -1.8685
 5055TP3      O26983   3.019   3.849   9.860  0.1350 -0.1467 -0.9249
 5055TP3     H126984   3.049   3.886   9.944  1.2066 -0.2457 -1.2498
 5055TP3     H226985   3.007   3.756   9.878 -1.0012  0.0656 -0.5256
 5056TP3      O26986   1.246   2.296   1.417  0.4275  0.2009  0.0231
 5056TP3     H126987   1.325   2.285   1.365 -0.1498 -0.4998 -0.7386
 5056TP3     H226988   1.181   2.241   1.374 -0.7578  1.5273  0.0110
 5057TP3      O26989   2.740   3.050   2.841  0.3504  1.0982 -0.4949
 5057TP3     H126990   2.833   3.025   2.841  0.6432  2.1399 -0.0053
 5057TP3     H226991   2.701   2.997   2.910  0.9998  2.0872  0.6607
 5058TP3      O26992   1.514   0.818   2.450  0.3625  0.1519 -0.2475
 5058TP3     H126993   1.447   0.879   2.482  1.0940  0.9605 -0.2248
 5058TP3     H226994   1.577   0.874   2.404  1.9236 -0.3621  1.1816
 5059TP3      O26995   3.316   3.124   7.794  0.2713  0.3163 -0.2482
 5059TP3     H126996   3.258   3.175   7.850  0.3099 -1.3875  1.4154
 5059TP3     H226997   3.258   3.061   7.750  0.4984  0.4492 -0.7519
 5060TP3      O26998   0.432   4.965   2.414 -0.2819 -0.5156 -0.5342
 5060TP3     H126999   0.360   4.914   2.450 -0.5158  0.8714  1.1121
 5060TP3     H227000   0.478   4.998   2.491  1.1340  0.0040 -1.5511
 5061TP3      O27001   3.481   2.649   3.339  0.0825 -0.0223 -0.2474
 5061TP3     H127002   3.429   2.569   3.349 -1.4067  1.1328  1.8872
 5061TP3     H227003   3.558   2.621   3.288 -0.5364 -2.7234  0.1641
 5062TP3      O27004   5.005   1.455   1.377  0.3053  0.0178 -0.2967
 5062TP3     H127005   4.922   1.407   1.373  1.0044 -1.3536  0.8214
 5062TP3     H227006   5.025   1.460   1.471  1.3076  0.6599 -0.5317
 5063TP3      O27007   0.652   2.666   2.248 -0.0366  0.9865  0.2920
 5063TP3     H127008   0.743   2.639   2.259 -0.3319 -0.2615 -0.1773
 5063TP3     H227009   0.649   2.707   2.162 -0.0724  0.2961 -0.0409
 5064TP3      O27010   0.155   5.052   3.354 -0.4724 -0.0720  0.2326
 5064TP3     H127011   0.144   5.096   3.270 -1.9236  0.1997  0.5265
 5064TP3     H227012   0.099   5.102   3.414 -1.9185 -2.0705  0.6596
 5065TP3      O27013   3.913   3.431   9.059  0.9308 -0.2750 -0.3760
 5065TP3     H127014   3.839   3.492   9.054  1.6465  0.6544  0.2804
 5065TP3     H227015   3.974   3.462   8.993  0.3335 -1.6476 -1.6446
 5066TP3      O27016   1.621   3.996   9.453  0.2003  0.1322 -0.4850
 5066TP3     H127017   1.614   3.902   9.467 -0.8474  0.3883  0.9363
 5066TP3     H227018   1.711   4.018   9.477  0.0099 -0.2967  0.6688
 5067TP3      O27019   3.769   1.849   1.540  0.4228 -0.1265 -0.6069
 5067TP3     H127020   3.753   1.799   1.460 -0.3918  0.7880 -1.0388
 5067TP3     H227021   3.705   1.816   1.603  2.5793 -2.4989  0.4819
 5068TP3      O27022   3.860   2.270  10.103  0.3830  0.1408  0.8565
 5068TP3     H127023   3.901   2.230  10.026  0.3068 -3.3497  2.4219
 5068TP3     H227024   3.766   2.260  10.089  0.3577 -0.1643  1.2326
 5069TP3      O27025   2.994   3.366   0.033 -0.4660  0.3837 -0.2931
 5069TP3     H127026   2.976   3.448   0.079  1.2703 -0.5836  2.3466
 5069TP3     H227027   2.984   3.298   0.100 -0.2511 -1.4240 -1.9987
 5070TP3      O27028   3.017   3.953   2.598  0.1956 -0.0637  0.0866
 5070TP3     H127029   3.032   3.990   2.511 -0.9382 -1.5951 -0.8011
 5070TP3     H227030   2.922   3.946   2.605  0.2850 -0.1867  1.3687
 5071TP3      O27031   5.200   1.467   0.591 -0.2783  0.1350 -1.0981
 5071TP3     H127032   5.194   1.499   0.681  3.3373 -2.6621  0.3878
 5071TP3     H227033   5.224   1.544   0.540 -0.3087  1.4189  0.7306
 5072TP3      O27034   4.723   3.164   0.051 -0.0665  0.0008  0.2011
 5072TP3     H127035   4.807   3.176   0.095  0.3115  0.3189 -0.5911
 5072TP3     H227036   4.725   3.226  -0.022 -0.3855 -0.9892 -0.6721
 5073TP3      O27037   3.747   3.178   1.609  0.8819 -0.6178  0.8933
 5073TP3     H127038   3.707   3.263   1.590  2.7058 -0.2214 -1.7191
 5073TP3     H227039   3.680   3.131   1.659 -1.0830  1.5322  0.4718
 5074TP3      O27040   0.880   3.142   3.738  0.0594 -0.5400 -0.3471
 5074TP3     H127041   0.892   3.066   3.681  0.3192 -0.1424 -0.8384
 5074TP3     H227042   0.963   3.189   3.733 -0.4576  0.3571 -0.9311
 5075TP3      O27043   2.115   2.827   7.020  0.5623  0.5723 -0.0467
 5075TP3     H127044   2.094   2.856   6.932  0.7504 -0.6379 -0.5088
 5075TP3     H227045   2.049   2.869   7.076 -2.1454 -1.7795 -1.2446
 5076TP3      O27046   4.373   4.362   9.667  0.0953 -0.5447  0.5629
 5076TP3     H127047   4.439   4.347   9.599 -0.1151 -2.6996  0.7634
 5076TP3     H227048   4.423   4.367   9.748  0.1903  0.1419  0.4656
 5077TP3      O27049   1.026   2.363   7.661 -0.0879 -0.4464  0.5689
 5077TP3     H127050   1.024   2.336   7.753 -0.1834  0.6073  0.8856
 5077TP3     H227051   1.079   2.297   7.618 -1.2021 -1.7561  1.1117
 5078TP3      O27052   4.961   3.823   2.008  0.0805 -0.0162 -0.0882
 5078TP3     H127053   4.982   3.743   1.960 -0.0827  0.8862 -1.7232
 5078TP3     H227054   4.899   3.870   1.952 -0.4901  0.8748  1.2212
 5079TP3      O27055   0.144   4.014   8.406 -0.4583 -0.4299 -0.4084
 5079TP3     H127056   0.100   3.952   8.464 -0.5175  0.3804  0.4387
 5079TP3     H227057   0.209   3.962   8.360  1.4473 -0.6707  2.3235
 5080TP3      O27058   3.610   2.386   1.404 -0.1146  0.0822 -0.2941
 5080TP3     H127059   3.555   2.397   1.326 -0.9929 -0.6364  0.2075
 5080TP3     H227060   3.687   2.440   1.386  0.5025 -1.3575 -2.4214
 5081TP3      O27061   0.422   4.080   2.145  0.4597  0.1746  0.1525
 5081TP3     H127062   0.437   4.170   2.172  2.7245  0.0373 -0.4624
 5081TP3     H227063   0.459   4.027   2.216  2.6176 -0.2030 -1.1753
 5082TP3      O27064   1.302   3.062   0.531  0.5161 -0.3325 -0.3932
 5082TP3     H127065   1.210   3.037   0.530  0.5534 -0.5674  0.7651
 5082TP3     H227066   1.340   3.011   0.602  0.9740  1.7027  0.9032
 5083TP3      O27067   4.675   2.806   2.642  0.0750  0.0102  0.5888
 5083TP3     H127068   4.623   2.748   2.697 -1.7332 -0.2152 -1.2441
 5083TP3     H227069   4.626   2.888   2.640  0.0750  0.0026 -0.6669
 5084TP3      O27070   3.013   4.045   1.399  0.4532 -0.2399 -0.4806
 5084TP3     H127071   2.985   4.023   1.488 -1.5323 -0.8858 -1.2279
 5084TP3     H227072   3.033   4.139   1.403 -1.5847  0.2110  0.1863
 5085TP3      O27073   2.691   1.558   1.284  0.5230 -0.2549 -0.2012
 5085TP3     H127074   2.723   1.470   1.303  1.7862 -0.0199 -1.1123
 5085TP3     H227075   2.596   1.553   1.298  0.6892 -1.5132  0.6114
 5086TP3      O27076   3.236   1.938   3.288  0.1478  0.1867  1.0952
 5086TP3     H127077   3.153   1.896   3.310  0.4220 -1.6300 -0.9837
 5086TP3     H227078   3.216   2.032   3.286 -1.8976 -0.2182  0.5061
 5087TP3      O27079   1.976   1.868   0.461  1.1602  0.0273  0.5528
 5087TP3     H127080   1.957   1.785   0.418  1.3008  0.4370 -0.3444
 5087TP3     H227081   1.943   1.934   0.400  1.7216  0.6445  0.9007
 5088TP3      O27082   0.803   2.171   0.048 -0.3523  0.0764  0.4071
 5088TP3     H127083   0.798   2.158   0.143 -1.4352  3.3241  0.9449
 5088TP3     H227084   0.859   2.248   0.038 -1.5954  0.8120 -1.4230
 5089TP3      O27085   0.179   1.980   9.313  0.0082  0.3141 -0.1730
 5089TP3     H127086   0.113   2.029   9.265 -0.8644 -0.5825  0.0928
 5089TP3     H227087   0.175   2.016   9.402  1.7204  2.0721 -0.7282
 5090TP3      O27088   4.388   4.937   8.027  0.2603  0.2664  0.1797
 5090TP3     H127089   4.353   4.971   7.945 -0.9532 -0.3189  0.4322
 5090TP3     H227090   4.324   4.962   8.093  0.0335 -1.2603  0.5789
 5091TP3      O27091   2.494   4.058   1.287 -0.3781 -0.0409  0.2304
 5091TP3     H127092   2.447   3.978   1.312 -1.2202 -0.6621 -2.9231
 5091TP3     H227093   2.425   4.120   1.263  0.3242  0.9839  0.7727
 5092TP3      O27094   0.787   1.505   1.276 -0.7289  0.6035  0.4239
 5092TP3     H127095   0.706   1.546   1.248 -0.3865  0.5596 -0.6463
 5092TP3     H227096   0.841   1.577   1.309 -1.6113  0.4957  2.2032
 5093TP3      O27097   4.980   2.961   3.124 -0.1425 -0.3185  0.0555
 5093TP3     H127098   5.022   2.911   3.194 -1.3260 -1.0372  0.2698
 5093TP3     H227099   4.985   3.052   3.153  0.3545 -0.4942  0.5465
 5094TP3      O27100   4.121   0.210   1.211 -0.0130 -0.1606 -0.3845
 5094TP3     H127101   4.108   0.138   1.150 -3.0892 -1.1935  1.2752
 5094TP3     H227102   4.034   0.248   1.223  0.8937  1.4969  1.5615
 5095TP3      O27103   4.737   2.340   0.857  0.0190 -0.6089  0.1571
 5095TP3     H127104   4.711   2.382   0.939 -0.2570  0.3777 -0.4043
 5095TP3     H227105   4.678   2.265   0.849 -2.2908  1.1597 -0.7185
 5096TP3      O27106   4.643   3.098   9.882 -0.1838 -0.2993  0.2567
 5096TP3     H127107   4.584   3.040   9.835  0.2225 -0.3114 -0.2567
 5096TP3     H227108   4.718   3.042   9.904  0.4840  0.1507 -0.7757
 5097TP3      O27109   5.040   3.678   7.559  0.2109 -0.0754  0.5378
 5097TP3     H127110   5.001   3.594   7.584  0.1154 -0.4881 -0.8916
 5097TP3     H227111   4.970   3.742   7.571 -0.2461 -0.4724  0.0400
 5098TP3      O27112   3.030   3.108   0.795  0.8890  0.8303 -0.0553
 5098TP3     H127113   2.963   3.058   0.748 -1.5262  1.5467  2.3849
 5098TP3     H227114   3.073   3.159   0.727 -1.1428  0.4173 -1.7741
 5099TP3      O27115   4.379   2.554   9.967  0.4129  0.5181  0.4666
 5099TP3     H127116   4.432   2.533   9.890  0.4283  0.3710  0.5164
 5099TP3     H227117   4.438   2.606  10.022  0.6189  0.0703  0.6745
 5100TP3      O27118   0.349   4.461   0.591 -0.3345  0.1069  0.0906
 5100TP3     H127119   0.324   4.460   0.684  0.2027  1.9211  0.2892
 5100TP3     H227120   0.445   4.455   0.593 -0.4062 -1.9461 -0.4682
 5101TP3      O27121   0.097   1.311   2.864  0.0607  0.0131  0.1367
 5101TP3     H127122   0.168   1.363   2.902  0.5102 -1.2094  1.0502
 5101TP3     H227123   0.089   1.343   2.775  0.3395  1.6040  0.6604
 5102TP3      O27124   0.002   4.119   2.757  0.0317 -0.1414  0.1984
 5102TP3     H127125  -0.076   4.098   2.808  0.7926 -1.2142  0.9718
 5102TP3     H227126  -0.025   4.110   2.666 -0.4821 -1.5964  0.4696
 5103TP3      O27127   0.436   5.014   3.458  0.4459 -0.3077  0.7175
 5103TP3     H127128   0.418   4.988   3.549  0.0464 -2.3441  0.1197
 5103TP3     H227129   0.353   5.049   3.426  0.7438  0.9502  1.2891
 5104TP3      O27130   3.954   1.092   0.386  0.0312 -0.0179  0.1268
 5104TP3     H127131   3.915   1.029   0.447 -0.4844 -0.7453 -0.9287
 5104TP3     H227132   3.922   1.177   0.416 -1.7877 -0.5215 -0.2404
 5105TP3      O27133   1.062   1.796   3.196  0.1689  0.0469 -0.3347
 5105TP3     H127134   1.070   1.886   3.166  0.9080 -1.5051 -5.9697
 5105TP3     H227135   0.970   1.774   3.183  0.2240 -0.3050 -0.1342
 5106TP3      O27136   4.639   4.645   2.924  0.1255  0.4474  0.5094
 5106TP3     H127137   4.600   4.565   2.890  1.1958  0.7734 -1.6168
 5106TP3     H227138   4.705   4.614   2.987 -0.7100 -0.2524  1.0541
 5107TP3      O27139   2.464   3.875   7.240 -0.1558  0.0266 -0.5091
 5107TP3     H127140   2.464   3.781   7.222  0.0461  0.1496 -1.1808
 5107TP3     H227141   2.393   3.909   7.186 -2.3945 -0.1427  2.1076
 5108TP3      O27142   5.284   2.940   1.820  0.2018  0.3324 -0.2649
 5108TP3     H127143   5.283   2.846   1.837 -2.3690  0.1997 -0.6536
 5108TP3     H227144   5.353   2.974   1.877  0.1754 -1.5995  1.0159
 5109TP3      O27145   2.055   1.256   1.780  0.0770  0.4291 -0.4799
 5109TP3     H127146   2.131   1.201   1.761 -0.7064 -0.6093 -0.6638
 5109TP3     H227147   1.992   1.236   1.711 -0.8293  0.3840  0.3362
 5110TP3      O27148   4.028   2.898  10.086  0.1272  0.3454 -0.2081
 5110TP3     H127149   4.043   2.804  10.081 -1.4582  0.1078 -0.8723
 5110TP3     H227150   4.033   2.917  10.180  2.3468 -0.0191 -0.1822
 5111TP3      O27151   0.849   2.351   0.689  0.0192 -0.3007  0.3135
 5111TP3     H127152   0.918   2.307   0.740  0.5836  0.9598  0.6631
 5111TP3     H227153   0.788   2.281   0.667 -0.9707 -0.7130  3.8379
 5112TP3      O27154   0.055   2.218   2.535  0.5781  0.1551  0.6600
 5112TP3     H127155   0.012   2.164   2.601 -3.7337  1.9922 -0.3458
 5112TP3     H227156   0.114   2.274   2.586 -2.7030  1.6463  3.1911
 5113TP3      O27157   3.645   4.886   9.203 -0.0952  0.4307 -0.1375
 5113TP3     H127158   3.733   4.853   9.222  0.0006 -0.8586 -2.3983
 5113TP3     H227159   3.606   4.902   9.288  1.1502 -2.1894  1.0316
 5114TP3      O27160   2.235   0.809   7.014  0.0675 -0.1318  0.2019
 5114TP3     H127161   2.211   0.717   7.026 -0.2188  0.1342  1.8713
 5114TP3     H227162   2.281   0.811   6.930  0.8264 -1.9441  0.5248
 5115TP3      O27163   0.823   2.414   0.956 -0.1016  0.2667  0.3554
 5115TP3     H127164   0.870   2.406   0.872  0.5266 -0.3640  0.7579
 5115TP3     H227165   0.872   2.358   1.016 -1.3827 -0.4255  0.7923
 5116TP3      O27166   0.392   2.704   2.895  0.3609 -0.0920  0.0651
 5116TP3     H127167   0.440   2.649   2.832 -0.1057 -1.6576  1.0285
 5116TP3     H227168   0.460   2.759   2.934  1.0790 -0.8839 -0.0136
 5117TP3      O27169   4.061   4.841   8.640  0.0255 -0.1002  1.0616
 5117TP3     H127170   3.989   4.789   8.605 -0.2752  1.2850 -0.5124
 5117TP3     H227171   4.031   4.867   8.728 -1.6359  0.8409  0.2691
 5118TP3      O27172   4.360   2.601   9.257 -0.2624  0.2241 -0.1843
 5118TP3     H127173   4.404   2.567   9.335 -2.2983 -0.2199  0.8394
 5118TP3     H227174   4.431   2.622   9.196  1.2972 -1.3295  1.0082
 5119TP3      O27175   2.630   3.110   0.926 -0.2527  0.1552  0.0981
 5119TP3     H127176   2.621   3.018   0.952  0.5144  0.4266  1.4360
 5119TP3     H227177   2.662   3.106   0.836 -0.4958 -0.8839  0.0401
 5120TP3      O27178   3.910   5.151   8.803  0.5874 -0.4187  0.2513
 5120TP3     H127179   3.853   5.188   8.735 -0.3901 -1.1376  0.6651
 5120TP3     H227180   3.988   5.121   8.755  0.8928  1.0791 -0.2463
 5121TP3      O27181   1.426   0.863   0.696 -1.1726  0.0749  0.0649
 5121TP3     H127182   1.444   0.935   0.756 -2.1680 -0.8669  1.5760
 5121TP3     H227183   1.481   0.880   0.619 -0.1532  1.5338  1.0806
 5122TP3      O27184   0.796   0.868   9.636  0.3620  0.1567  0.2863
 5122TP3     H127185   0.835   0.796   9.587 -0.6581 -0.3797  0.2419
 5122TP3     H227186   0.720   0.895   9.583  0.0344  0.4583  0.8961
 5123TP3      O27187   4.664   4.042   2.577  0.5256  0.0466 -0.1862
 5123TP3     H127188   4.727   4.059   2.506  0.9857 -0.2047  0.1549
 5123TP3     H227189   4.625   3.957   2.554  0.8798 -0.1702  0.0052
 5124TP3      O27190   0.469   4.695   9.774  0.4009 -0.2833  0.1061
 5124TP3     H127191   0.445   4.786   9.755 -0.7952 -0.3336  1.1861
 5124TP3     H227192   0.400   4.665   9.834  2.6563 -0.8123  2.6092
 5125TP3      O27193   4.732   1.767   0.286  0.7294  0.0419 -0.0622
 5125TP3     H127194   4.817   1.766   0.332  1.0928 -0.3577 -0.7268
 5125TP3     H227195   4.736   1.691   0.228  0.1975  0.4283 -0.6144
 5126TP3      O27196   2.429   3.221   1.697 -0.3278 -0.1993  0.4119
 5126TP3     H127197   2.433   3.277   1.619  0.1518 -0.3607  0.3213
 5126TP3     H227198   2.354   3.256   1.746 -1.0023 -0.4603 -0.3989
 5127TP3      O27199   3.317   0.604   1.654  1.1383  0.9310 -0.1506
 5127TP3     H127200   3.400   0.587   1.698 -0.1514 -0.5544  1.8298
 5127TP3     H227201   3.281   0.680   1.699  0.6632  0.5602  0.0956
 5128TP3      O27202   0.521   0.091   7.576  0.0287 -0.0925  0.4409
 5128TP3     H127203   0.532   0.066   7.667 -0.5034 -0.1293  0.4966
 5128TP3     H227204   0.454   0.160   7.577 -1.4894 -1.4757 -0.0980
 5129TP3      O27205   1.265   2.095   3.170 -0.0176  0.3582 -0.3622
 5129TP3     H127206   1.266   2.121   3.262  3.1500 -2.3204  0.5517
 5129TP3     H227207   1.174   2.070   3.154 -0.8229  1.6540  1.7567
 5130TP3      O27208   3.130   4.023   2.370  0.2976 -0.2640  0.5646
 5130TP3     H127209   3.217   4.014   2.410  0.4510 -0.4693  0.1823
 5130TP3     H227210   3.121   3.946   2.314  0.9381  1.0514 -1.4399
 5131TP3      O27211   1.330   2.286   0.740  0.2705 -0.1637 -0.1774
 5131TP3     H127212   1.416   2.257   0.711  0.2106  0.7332 -1.3525
 5131TP3     H227213   1.332   2.381   0.730 -1.3384 -0.2365 -1.7050
 5132TP3      O27214   0.235   1.873   2.398 -0.4018  0.1366  0.1097
 5132TP3     H127215   0.327   1.849   2.401 -0.8491 -1.6807  0.3674
 5132TP3     H227216   0.228   1.928   2.320  0.3835 -2.2865 -1.8241
 5133TP3      O27217   2.497   0.402   1.270  0.2515  0.1041  0.2322
 5133TP3     H127218   2.527   0.422   1.358  0.8123 -0.7154  0.2387
 5133TP3     H227219   2.475   0.309   1.272 -2.4654  0.6674  0.2573
 5134TP3      O27220   2.324   1.345   0.688 -0.2965  0.3630  0.0867
 5134TP3     H127221   2.329   1.417   0.751 -1.6633 -0.0022  0.6365
 5134TP3     H227222   2.236   1.309   0.699 -0.2067 -0.3657 -1.3177
 5135TP3      O27223   4.276   4.365   3.213 -0.1911 -0.1157  0.3965
 5135TP3     H127224   4.189   4.360   3.252 -1.2260  1.5877 -1.5305
 5135TP3     H227225   4.265   4.421   3.136  2.2365 -1.3655 -0.9661
 5136TP3      O27226   1.285   4.711   0.453  0.7011  0.4242  0.3249
 5136TP3     H127227   1.268   4.802   0.428 -2.4102  0.7514  2.9225
 5136TP3     H227228   1.212   4.662   0.417  2.0648 -1.0535 -0.5812
 5137TP3      O27229   4.655   2.583   8.982  0.2249 -0.1803  0.3144
 5137TP3     H127230   4.641   2.636   9.060  0.9560 -3.4509  2.8940
 5137TP3     H227231   4.746   2.554   8.988 -0.3242 -2.3057 -0.4714
 5138TP3      O27232   3.523   0.878   0.004 -0.2204  0.5497  0.2268
 5138TP3     H127233   3.569   0.856  -0.077  0.7699  1.3576  0.5491
 5138TP3     H227234   3.430   0.877  -0.020 -0.2036 -2.6424 -0.0683
 5139TP3      O27235   0.814   5.158  10.029 -0.1900  0.2762  0.0136
 5139TP3     H127236   0.829   5.250  10.009  1.1599 -0.2913 -1.8270
 5139TP3     H227237   0.776   5.122   9.949 -1.6803 -0.5800  1.0624
 5140TP3      O27238   3.857   3.515   2.672 -0.2434 -0.1568 -0.4051
 5140TP3     H127239   3.824   3.501   2.761 -1.2358  2.4017 -0.2590
 5140TP3     H227240   3.946   3.479   2.674  0.1951  0.7946  2.0117
 5141TP3      O27241   1.077   2.858   1.758  0.1442 -0.2758  0.0840
 5141TP3     H127242   1.037   2.776   1.731  0.2595 -0.1712 -0.4166
 5141TP3     H227243   1.020   2.926   1.721 -0.1693 -0.1232  0.8218
 5142TP3      O27244   3.636   1.992   8.208 -0.1785 -0.0488  0.0255
 5142TP3     H127245   3.602   1.948   8.130 -0.2599  0.7451 -0.3984
 5142TP3     H227246   3.720   2.028   8.180  0.4779 -0.9788  0.7291
 5143TP3      O27247   2.312   3.347   2.005  0.3184  0.0537  0.3190
 5143TP3     H127248   2.321   3.418   1.942  1.3835  0.4277  0.8634
 5143TP3     H227249   2.261   3.280   1.959 -0.6544  1.1286 -0.2234
 5144TP3      O27250   0.980   1.799   0.937 -0.0051 -0.5003 -0.4839
 5144TP3     H127251   0.936   1.772   0.857 -0.5953 -1.6731  0.2046
 5144TP3     H227252   0.951   1.889   0.952 -2.6048 -1.3568  0.1806
 5145TP3      O27253   1.536   0.626   7.378 -0.4706 -0.2083 -0.4073
 5145TP3     H127254   1.483   0.650   7.302 -0.0230 -1.8492 -1.3033
 5145TP3     H227255   1.473   0.587   7.439 -0.3854 -2.0319 -1.4137
 5146TP3      O27256   4.683   4.191   0.970  0.2292 -0.1665  0.1303
 5146TP3     H127257   4.698   4.252   1.042 -0.6134 -0.1297  0.2889
 5146TP3     H227258   4.711   4.239   0.892 -1.6678  0.9775  0.0941
 5147TP3      O27259   3.531   4.980   1.775  0.0572  0.4317 -0.2022
 5147TP3     H127260   3.484   5.053   1.816 -0.8451  0.2186 -0.8367
 5147TP3     H227261   3.511   4.988   1.682 -1.1986 -1.4115 -0.1285
 5148TP3      O27262   4.602   3.696   9.067 -0.1455  0.3249 -0.0623
 5148TP3     H127263   4.572   3.734   9.150 -0.4695  1.0551 -0.5030
 5148TP3     H227264   4.550   3.741   9.000  0.2806 -0.0875 -0.6799
 5149TP3      O27265   3.680   1.922   2.411  0.5074 -1.2998  0.5629
 5149TP3     H127266   3.640   1.999   2.450  1.2023  0.3583 -1.7504
 5149TP3     H227267   3.607   1.873   2.374  0.2538 -0.2176 -0.4326
 5150TP3      O27268   1.757   0.761   1.990  0.3231  1.0395  0.1610
 5150TP3     H127269   1.835   0.709   1.971  0.0941  1.1523 -1.1728
 5150TP3     H227270   1.753   0.764   2.086  0.3548 -1.3659  0.2978
 5151TP3      O27271   4.118   2.338   0.140  0.3976 -0.1736  0.7237
 5151TP3     H127272   4.197   2.332   0.086 -0.2345  0.6141 -0.3194
 5151TP3     H227273   4.049   2.300   0.086  0.2458 -1.9854  2.0979
 5152TP3      O27274   1.386   3.576   8.767 -0.2953  0.1253  0.1230
 5152TP3     H127275   1.447   3.513   8.728 -1.5301 -0.4319 -0.9901
 5152TP3     H227276   1.351   3.625   8.693 -2.7385 -0.9826  0.4155
 5153TP3      O27277   0.936   3.114   2.973  0.6507 -0.2618  0.3613
 5153TP3     H127278   1.025   3.149   2.977  1.3182 -1.9727  2.0828
 5153TP3     H227279   0.945   3.023   3.001 -1.5011 -0.7966 -0.5033
 5154TP3      O27280   2.255   2.298   9.985  1.0045 -0.3088  0.3730
 5154TP3     H127281   2.270   2.245   9.907 -0.8216 -1.3070  0.6196
 5154TP3     H227282   2.278   2.241  10.058  1.4843  0.1705  0.6066
 5155TP3      O27283   3.716   0.748   9.426  0.2715  0.5768  0.6653
 5155TP3     H127284   3.673   0.817   9.374 -0.4187  1.0959  1.8963
 5155TP3     H227285   3.780   0.795   9.479 -0.2122  0.2712  1.5252
 5156TP3      O27286   1.123   4.057   9.083 -0.2363  0.0561  0.7014
 5156TP3     H127287   1.055   4.014   9.136 -0.6076 -0.3408 -0.0943
 5156TP3     H227288   1.170   3.986   9.040  0.2508  0.3678  0.7089
 5157TP3      O27289   3.345   3.221   0.926 -0.2534 -0.6579 -0.0296
 5157TP3     H127290   3.372   3.159   0.994  0.2171 -0.5166 -0.0848
 5157TP3     H227291   3.287   3.282   0.970 -1.3767 -1.5936 -0.1408
 5158TP3      O27292   2.116   0.089   7.601 -0.0871  0.0047 -0.2374
 5158TP3     H127293   2.164   0.114   7.522 -0.2908  1.6238  0.1076
 5158TP3     H227294   2.027   0.074   7.570 -0.3854  1.5581 -0.2151
 5159TP3      O27295   2.165   3.745   0.792 -0.3196  0.4914  0.4493
 5159TP3     H127296   2.085   3.741   0.843 -0.3715  2.3260  0.5740
 5159TP3     H227297   2.143   3.798   0.716  1.1749  2.4998  1.3380
 5160TP3      O27298   0.547   3.751   0.202  0.3128 -0.3694 -0.1759
 5160TP3     H127299   0.515   3.718   0.118  0.2956  0.3563 -0.4581
 5160TP3     H227300   0.479   3.727   0.265  0.3884 -1.0316 -0.3405
 5161TP3      O27301   3.721   3.613   7.900 -0.1156  0.4094  0.6326
 5161TP3     H127302   3.778   3.636   7.827 -1.0994  0.3665 -0.1718
 5161TP3     H227303   3.778   3.568   7.962  0.5491 -0.3674 -0.5182
 5162TP3      O27304   1.505   3.401   2.338  0.2429 -0.0432 -0.1082
 5162TP3     H127305   1.571   3.459   2.377  1.0484 -1.4565  0.7083
 5162TP3     H227306   1.430   3.458   2.321  1.2561  1.3678  0.0239
 5163TP3      O27307   1.666   0.123   9.796  0.4127 -0.1950  0.1491
 5163TP3     H127308   1.734   0.097   9.734  0.9602  1.7837 -0.1497
 5163TP3     H227309   1.623   0.198   9.755 -0.5330 -0.0819  1.2948
 5164TP3      O27310   4.376   0.506   8.536 -0.0891 -0.1995 -0.2798
 5164TP3     H127311   4.350   0.527   8.625  1.4568  1.4674 -0.1607
 5164TP3     H227312   4.294   0.479   8.493 -1.1172  0.3150  1.2590
 5165TP3      O27313   4.776   1.164   1.327 -0.3891 -0.0806  0.1440
 5165TP3     H127314   4.858   1.116   1.327  0.7430  1.7564  0.4890
 5165TP3     H227315   4.782   1.223   1.403 -2.2497 -0.2498  0.4842
 5166TP3      O27316   4.280   2.239   1.975 -0.4934  0.3155  0.2445
 5166TP3     H127317   4.213   2.281   2.029 -1.2588  0.4872 -0.7977
 5166TP3     H227318   4.351   2.303   1.972 -1.1074  0.9977 -0.2473
 5167TP3      O27319   3.024   2.345   8.249 -0.4012  0.4602  0.3369
 5167TP3     H127320   3.099   2.289   8.226 -1.0226  0.0569 -0.7767
 5167TP3     H227321   2.990   2.307   8.330 -1.0280 -1.0175 -0.5866
 5168TP3      O27322   0.209   1.205   0.705  0.4783 -0.4251 -0.3657
 5168TP3     H127323   0.258   1.205   0.787 -0.0051  0.8078 -0.0483
 5168TP3     H227324   0.178   1.116   0.695 -1.6168 -0.0791  2.1353
 5169TP3      O27325   3.345   4.731   2.830 -0.5573  0.0855 -0.2047
 5169TP3     H127326   3.293   4.760   2.755 -1.0113  0.5407  0.2759
 5169TP3     H227327   3.431   4.770   2.815 -0.7667  0.5377 -0.2770
 5170TP3      O27328   2.551   1.939   1.163  0.0077 -1.1303  0.5670
 5170TP3     H127329   2.491   1.972   1.230 -0.1575 -0.9149  0.3146
 5170TP3     H227330   2.549   2.006   1.094  0.8188 -0.9346  0.7172
 5171TP3      O27331   0.177   3.073   1.315  0.4293  0.2425 -0.1807
 5171TP3     H127332   0.217   3.018   1.383 -0.2943 -0.4382 -0.2841
 5171TP3     H227333   0.082   3.061   1.328  0.2313  1.8946  0.1388
 5172TP3      O27334   0.156   2.199   1.691  0.5442  0.1012 -0.3708
 5172TP3     H127335   0.075   2.217   1.645 -0.2500 -0.8672  0.6036
 5172TP3     H227336   0.132   2.199   1.784  1.9403  1.1921  0.0249
 5173TP3      O27337   2.151   4.201   0.558 -0.5318 -0.0116 -0.0550
 5173TP3     H127338   2.244   4.222   0.565 -0.4373 -0.3839 -0.1777
 5173TP3     H227339   2.116   4.270   0.501 -0.8029  1.4837  1.8471
 5174TP3      O27340   2.137   1.803   2.281  0.1863 -0.5314 -0.0577
 5174TP3     H127341   2.211   1.847   2.321  0.8130 -1.9713  0.4215
 5174TP3     H227342   2.130   1.843   2.194  2.6266 -1.5205 -0.7982
 5175TP3      O27343   1.173   4.999   9.219 -0.2539 -0.3170 -0.3060
 5175TP3     H127344   1.171   4.906   9.195 -0.6507 -0.0386 -1.4361
 5175TP3     H227345   1.146   5.044   9.139 -1.3812  0.6993  0.6261
 5176TP3      O27346   4.017   0.530   2.521 -0.2734  0.1737 -0.5113
 5176TP3     H127347   3.990   0.554   2.610 -0.1330  0.2541 -0.4910
 5176TP3     H227348   3.951   0.569   2.465 -1.0039 -0.8293 -0.3768
 5177TP3      O27349   1.695   2.851   2.784 -0.2350 -0.0555 -0.4143
 5177TP3     H127350   1.705   2.945   2.769  0.1266  0.1906  1.1796
 5177TP3     H227351   1.745   2.834   2.864  1.9693 -2.1092 -2.0802
 5178TP3      O27352   3.901   4.727   1.775  0.9351 -0.3144  0.1864
 5178TP3     H127353   3.988   4.690   1.785  1.3529  0.3860 -0.7079
 5178TP3     H227354   3.893   4.791   1.845  0.7303 -1.0950  0.8981
 5179TP3      O27355   4.176   3.416   3.232  0.4644  0.3158 -0.1901
 5179TP3     H127356   4.228   3.338   3.251 -0.0791 -0.4590 -1.7726
 5179TP3     H227357   4.224   3.461   3.162 -0.9456 -0.4190 -1.6835
 5180TP3      O27358   1.652   5.142   9.785 -0.0963 -0.2683  0.3377
 5180TP3     H127359   1.633   5.235   9.776 -2.1786 -0.6690  0.0866
 5180TP3     H227360   1.747   5.136   9.773 -0.1688  1.5564 -1.9711
 5181TP3      O27361   4.831   2.721   2.231 -0.2814 -0.1756 -0.5539
 5181TP3     H127362   4.817   2.788   2.165 -0.9306  0.9069  0.6231
 5181TP3     H227363   4.749   2.719   2.281 -0.4788 -2.2368 -0.8810
 5182TP3      O27364   2.347   1.896   2.972  0.2626  0.1466  0.3123
 5182TP3     H127365   2.423   1.864   3.022  0.8053 -1.0097 -1.1539
 5182TP3     H227366   2.353   1.850   2.888 -2.6790 -0.8203  0.5116
 5183TP3      O27367   5.175   3.680   1.760 -0.8027  0.0481  0.3900
 5183TP3     H127368   5.123   3.758   1.747  0.1241  0.6703  0.3300
 5183TP3     H227369   5.244   3.684   1.694  1.1525  0.8519  2.3243
 5184TP3      O27370   4.039   2.503   8.575 -0.1887 -0.3958  0.0163
 5184TP3     H127371   3.979   2.437   8.609  0.6499 -0.0623  2.2789
 5184TP3     H227372   4.058   2.474   8.486 -4.2925 -0.0578 -1.1679
 5185TP3      O27373   1.856   5.159   1.783  0.0905 -0.0621  0.3994
 5185TP3     H127374   1.780   5.103   1.796 -0.5047  0.8008  0.7726
 5185TP3     H227375   1.824   5.247   1.803  0.4561  0.7097 -2.0323
 5186TP3      O27376   0.829   2.989   9.198 -0.3734  0.2970 -0.2969
 5186TP3     H127377   0.747   3.036   9.188  0.5582  1.8038 -1.0656
 5186TP3     H227378   0.892   3.055   9.225  0.6239 -0.8209  0.2291
 5187TP3      O27379   3.906   0.107   0.627 -0.4716 -0.1069 -0.3819
 5187TP3     H127380   3.860   0.190   0.613 -1.4543 -0.2738  1.4810
 5187TP3     H227381   3.998   0.131   0.637 -0.7048  0.7290 -0.2096
 5188TP3      O27382   2.140   3.027   0.571  0.1957 -0.5253 -0.1675
 5188TP3     H127383   2.180   3.022   0.657 -0.3159 -1.4531  0.0375
 5188TP3     H227384   2.047   3.045   0.588  0.4569  1.4160 -0.6260
 5189TP3      O27385   1.900   3.009   1.450  0.3046 -0.5417  0.0890
 5189TP3     H127386   1.919   3.027   1.358 -1.1278 -0.1923 -0.1624
 5189TP3     H227387   1.808   2.985   1.451 -0.3465  1.7043  1.7158
 5190TP3      O27388   2.562   5.164   9.948  0.7000 -0.0621  0.0792
 5190TP3     H127389   2.474   5.128   9.946  0.3759  0.7307 -1.4512
 5190TP3     H227390   2.595   5.153   9.859  2.7195 -1.6268  0.9506
 5191TP3      O27391   0.528   3.892   2.621 -0.1417  0.1191  0.9018
 5191TP3     H127392   0.616   3.863   2.596  0.1222  0.0081  1.9302
 5191TP3     H227393   0.484   3.812   2.652 -0.6569  0.1473  0.2728
 5192TP3      O27394   1.423   1.822   9.750  0.2701 -0.2817 -0.2241
 5192TP3     H127395   1.476   1.887   9.704 -1.3566 -0.1834 -2.0583
 5192TP3     H227396   1.437   1.741   9.702 -0.6333 -0.4167 -0.2774
 5193TP3      O27397   0.176   3.754   1.292  0.5272 -0.4731 -0.0483
 5193TP3     H127398   0.248   3.758   1.229  0.4264 -1.0489 -0.2039
 5193TP3     H227399   0.117   3.824   1.265  0.6200 -0.5370 -0.4241
 5194TP3      O27400   1.325   4.502   2.912 -0.6481  0.3742 -0.1382
 5194TP3     H127401   1.298   4.423   2.866 -1.7901  0.1648  0.8361
 5194TP3     H227402   1.246   4.557   2.913 -0.0430  1.2753 -0.2648
 5195TP3      O27403   0.603   2.565   7.358 -0.0394  0.1501  0.1661
 5195TP3     H127404   0.609   2.636   7.422 -0.2909  0.8403 -0.5607
 5195TP3     H227405   0.665   2.499   7.390 -0.1257  0.5034  1.0881
 5196TP3      O27406   1.886   2.730   8.767 -0.0099 -0.2650 -0.2540
 5196TP3     H127407   1.807   2.701   8.815 -0.4647  0.8368 -0.3197
 5196TP3     H227408   1.948   2.752   8.836 -0.5355  0.9647 -0.1501
 5197TP3      O27409   2.867   2.681   1.648 -0.0086 -0.2653  0.3969
 5197TP3     H127410   2.952   2.724   1.640 -0.2216 -0.2167 -2.3346
 5197TP3     H227411   2.859   2.662   1.742  2.4881  0.7331  0.8892
 5198TP3      O27412   3.194   2.068   0.129 -0.1365  0.4241 -0.0063
 5198TP3     H127413   3.102   2.060   0.151 -0.0477  0.5889  0.4377
 5198TP3     H227414   3.206   2.009   0.055 -0.6125  0.4634 -0.1187
 5199TP3      O27415   4.996   3.286   2.162  0.0430 -0.0003 -0.6008
 5199TP3     H127416   4.927   3.315   2.222 -0.1791 -0.9437 -0.3865
 5199TP3     H227417   4.961   3.206   2.122  1.6271 -1.4006  0.6688
 5200TP3      O27418   4.674   4.912   2.848 -0.2733  0.2686  0.1279
 5200TP3     H127419   4.687   4.961   2.929  0.7054  0.9410 -0.4037
 5200TP3     H227420   4.667   4.821   2.876  0.3352  0.4574  0.9475
 5201TP3      O27421   2.781   4.758   0.310  0.6985  0.0166 -0.1686
 5201TP3     H127422   2.801   4.664   0.301  0.8767  0.1283 -0.9638
 5201TP3     H227423   2.686   4.763   0.295  0.6589 -0.0569  0.0508
 5202TP3      O27424   4.215   4.777   1.534 -0.0567  0.2687 -0.4813
 5202TP3     H127425   4.280   4.707   1.524 -1.9346 -1.4512 -1.5842
 5202TP3     H227426   4.145   4.736   1.584 -0.4411  1.9750  0.4140
 5203TP3      O27427   3.769   3.014   2.557 -0.6830 -0.5706 -0.0482
 5203TP3     H127428   3.703   3.083   2.544  0.2339  0.2659 -0.4020
 5203TP3     H227429   3.827   3.049   2.625 -0.1125 -0.9240 -0.3507
 5204TP3      O27430   2.458   3.736   2.142 -0.2094  0.4161  0.5229
 5204TP3     H127431   2.488   3.648   2.167  2.5997  0.3916 -2.2937
 5204TP3     H227432   2.492   3.793   2.211 -0.0325 -0.4588  1.1703
 5205TP3      O27433   3.623   4.346   1.231 -0.2257  0.1579 -0.4802
 5205TP3     H127434   3.535   4.351   1.194  0.7128  0.7163 -2.8654
 5205TP3     H227435   3.620   4.273   1.292 -2.0709 -0.5382 -1.3330
 5206TP3      O27436   4.957   3.234   8.080  0.0212  0.0423 -0.7131
 5206TP3     H127437   4.992   3.290   8.150 -1.7891  1.3746 -0.8157
 5206TP3     H227438   4.975   3.282   7.999  1.9687 -1.4237 -1.2387
 5207TP3      O27439   0.597   3.227   0.195 -0.5084 -0.3486  0.1635
 5207TP3     H127440   0.561   3.279   0.267  0.7842 -1.7967  1.9477
 5207TP3     H227441   0.529   3.161   0.177 -1.1482  0.4738 -0.4813
 5208TP3      O27442   5.245   2.690   9.788 -0.5714 -0.5158  0.1023
 5208TP3     H127443   5.215   2.648   9.707 -0.6410 -0.4775  0.1079
 5208TP3     H227444   5.238   2.622   9.855  0.6305 -0.9175 -0.1497
 5209TP3      O27445   1.625   1.944   2.793 -0.3425  0.4638 -0.1554
 5209TP3     H127446   1.615   2.025   2.843  0.6031  0.1517  0.5976
 5209TP3     H227447   1.692   1.895   2.842  0.0124 -0.2194 -1.2831
 5210TP3      O27448   3.165   1.760   7.808  0.2786 -0.6556 -0.2877
 5210TP3     H127449   3.073   1.767   7.833 -0.1073  0.5921 -1.8901
 5210TP3     H227450   3.208   1.726   7.887 -1.6032 -1.7843  0.3401
 5211TP3      O27451   2.766   1.494   1.945  0.0287  0.0404  0.2445
 5211TP3     H127452   2.838   1.465   1.888  0.4668  0.4223  0.6031
 5211TP3     H227453   2.809   1.546   2.013 -0.6137  0.4828  0.3156
 5212TP3      O27454   3.277   0.616   1.378  0.1055 -0.1639  0.4950
 5212TP3     H127455   3.322   0.647   1.457  2.2042 -4.9270  1.5404
 5212TP3     H227456   3.186   0.607   1.404  0.0309  1.8366  1.0837
 5213TP3      O27457   3.815   0.009   0.859  0.7215  0.0421 -0.0465
 5213TP3     H127458   3.758  -0.064   0.836 -1.1548  0.9218  1.5341
 5213TP3     H227459   3.849   0.040   0.775  1.1539 -2.2675 -0.7992
 5214TP3      O27460   1.512   3.483   9.664 -0.5762 -0.1208 -0.2356
 5214TP3     H127461   1.599   3.492   9.704  0.4879 -0.9915 -2.2388
 5214TP3     H227462   1.451   3.497   9.737  1.2327 -0.2359  1.3800
 5215TP3      O27463   2.176   0.137   1.936  0.4614  0.4480 -0.1764
 5215TP3     H127464   2.158   0.092   2.018 -1.1837  1.7512  0.2244
 5215TP3     H227465   2.181   0.068   1.871 -0.2215 -0.4426  0.6976
 5216TP3      O27466   4.686   3.060   9.239 -0.0355 -0.0970  0.1950
 5216TP3     H127467   4.776   3.075   9.209  0.4832 -1.6909  0.8976
 5216TP3     H227468   4.641   3.026   9.161  0.1030  0.1395  0.0069
 5217TP3      O27469   3.266   0.422   9.469 -0.2375 -0.1954  0.5115
 5217TP3     H127470   3.352   0.437   9.431 -0.9967  0.2572 -1.1178
 5217TP3     H227471   3.231   0.510   9.484 -0.9540 -0.3599 -0.1440
 5218TP3      O27472   4.585   3.686   1.146 -0.8905 -0.1809 -0.1725
 5218TP3     H127473   4.630   3.639   1.076 -1.4402 -0.1990 -0.5219
 5218TP3     H227474   4.506   3.634   1.163  0.5651 -1.7511  2.4249
 5219TP3      O27475   0.133   2.739   0.789 -0.3577  0.1637 -0.0564
 5219TP3     H127476   0.228   2.734   0.792 -0.2573  1.7171  0.0629
 5219TP3     H227477   0.113   2.832   0.794 -1.9160 -0.1624  0.7505
 5220TP3      O27478   1.355   0.235   9.371 -0.1647 -0.1732  0.3177
 5220TP3     H127479   1.417   0.306   9.358  1.3060 -1.1034  1.9707
 5220TP3     H227480   1.283   0.275   9.420 -1.2727  1.0595 -2.1492
 5221TP3      O27481   2.853   5.005   1.444  0.1512 -0.1546  0.3886
 5221TP3     H127482   2.898   5.081   1.405  0.2184  0.8072  2.2287
 5221TP3     H227483   2.901   4.930   1.410  1.0767  0.6991 -0.2830
 5222TP3      O27484   5.172   0.970   9.768  0.3938  0.2637 -0.5120
 5222TP3     H127485   5.251   0.996   9.815 -0.8939 -0.0416  1.9989
 5222TP3     H227486   5.141   1.050   9.726  0.5249  1.0434  0.8421
 5223TP3      O27487   2.915   0.095   0.905 -0.0923  0.3168  0.1367
 5223TP3     H127488   2.896   0.006   0.934 -2.5936  0.7130 -0.0843
 5223TP3     H227489   2.863   0.151   0.962 -0.8586  1.4181 -1.5475
 5224TP3      O27490   1.028   0.063   2.411 -0.1213  0.3194  0.1910
 5224TP3     H127491   0.946   0.089   2.452 -0.5935  0.7852 -0.9911
 5224TP3     H227492   1.085   0.038   2.484 -0.9517  1.0050  1.1012
 5225TP3      O27493   3.058   1.635   9.215  0.5802 -0.0578 -0.2055
 5225TP3     H127494   3.091   1.717   9.177 -0.2273  0.0380 -0.7336
 5225TP3     H227495   3.136   1.591   9.248  0.9486  1.2861  0.8143
 5226TP3      O27496   0.539   0.230   1.445 -0.0881  0.0939 -0.6644
 5226TP3     H127497   0.476   0.185   1.500  0.9564 -1.9216 -1.0253
 5226TP3     H227498   0.572   0.302   1.499 -0.9698 -0.2650  0.3643
 5227TP3      O27499   1.901   0.229   8.492  0.0801  0.1572 -0.2164
 5227TP3     H127500   1.959   0.160   8.459  1.8385  1.0176  0.9177
 5227TP3     H227501   1.958   0.286   8.543 -1.9423  0.5119  1.8331
 5228TP3      O27502   1.440   2.137   2.407 -0.4412  0.7013 -0.0111
 5228TP3     H127503   1.531   2.110   2.421 -0.6217 -0.1130 -0.3732
 5228TP3     H227504   1.442   2.232   2.415  0.3334  0.6456  0.5967
 5229TP3      O27505   3.956   2.373   0.386  0.1813  0.2412 -0.0695
 5229TP3     H127506   4.017   2.377   0.313 -0.0586  1.1478 -0.2362
 5229TP3     H227507   3.930   2.281   0.391 -0.1733  0.2488 -1.4441
 5230TP3      O27508   4.949   4.927   7.490  0.3768  0.0488  0.5147
 5230TP3     H127509   5.042   4.948   7.500  0.4190 -0.7684  2.0804
 5230TP3     H227510   4.904   5.008   7.516  0.6200  0.5776 -0.6220
 5231TP3      O27511   4.909   3.842   9.897  0.0306  0.2283  0.5460
 5231TP3     H127512   4.912   3.938   9.895 -0.9414  0.3054 -2.9090
 5231TP3     H227513   5.001   3.815   9.906  0.4384  1.4965  0.3663
 5232TP3      O27514   0.571   1.910   2.681  0.1149 -0.0717 -0.3472
 5232TP3     H127515   0.625   1.861   2.744  0.0189 -1.6840 -1.4647
 5232TP3     H227516   0.624   1.916   2.602  0.5279  2.5933  0.0345
 5233TP3      O27517   4.451   4.927   1.534  0.4682  0.3052 -0.2585
 5233TP3     H127518   4.450   4.946   1.628  0.6911 -1.3342  0.1055
 5233TP3     H227519   4.381   4.863   1.522  1.0768 -0.2338 -1.0313
 5234TP3      O27520   1.413   4.481   3.285  0.4323 -0.3478  0.2701
 5234TP3     H127521   1.366   4.535   3.222 -1.0044 -2.5610 -0.6815
 5234TP3     H227522   1.489   4.533   3.310 -0.2492  1.5815 -1.4484
 5235TP3      O27523   1.511   3.799   0.207  0.0525  0.5375  0.0107
 5235TP3     H127524   1.487   3.866   0.270  1.5869 -0.0230  1.2610
 5235TP3     H227525   1.566   3.738   0.256  0.4247 -0.5097 -1.6075
 5236TP3      O27526   5.260   2.585   0.923  0.6625 -0.3582  0.0846
 5236TP3     H127527   5.354   2.601   0.936  0.4409  0.0354  1.3245
 5236TP3     H227528   5.220   2.671   0.927  0.4490 -0.2219 -2.7900
 5237TP3      O27529   4.368   5.288   0.743 -0.2426  0.3076  0.5475
 5237TP3     H127530   4.459   5.291   0.772 -0.2295  0.5717  0.4828
 5237TP3     H227531   4.323   5.237   0.810 -0.0493  0.1903  0.5874
 5238TP3      O27532   4.534   0.689   8.424  0.2121 -0.2698 -0.6039
 5238TP3     H127533   4.474   0.622   8.455  0.2757 -0.8414 -1.6482
 5238TP3     H227534   4.599   0.641   8.372  0.3032  0.5738 -1.3068
 5239TP3      O27535   0.591   5.142   7.792 -0.2845 -0.5855  0.1343
 5239TP3     H127536   0.539   5.144   7.712 -0.0123  2.4796 -0.0686
 5239TP3     H227537   0.617   5.050   7.801 -0.5629 -1.0978 -3.1322
 5240TP3      O27538   1.843   0.560   2.823  0.0584  0.5959  0.0606
 5240TP3     H127539   1.890   0.519   2.896  0.3226  0.9507  0.0926
 5240TP3     H227540   1.909   0.614   2.780 -0.4000  1.3824  0.3171
 5241TP3      O27541   0.159   1.200   8.986 -0.1212  0.0058  0.0264
 5241TP3     H127542   0.209   1.142   9.044 -0.6263 -0.7347 -0.2581
 5241TP3     H227543   0.146   1.148   8.906 -1.2038  0.2385  0.0359
 5242TP3      O27544   0.465   2.961   0.124  0.3396 -0.1032 -0.0298
 5242TP3     H127545   0.417   2.922   0.051 -0.0437  0.9125 -0.3232
 5242TP3     H227546   0.435   2.911   0.200  0.0208 -0.5292 -0.4242
 5243TP3      O27547   0.826   5.116   8.280  0.0061 -0.0298 -0.1168
 5243TP3     H127548   0.900   5.175   8.263 -0.3178  0.4922  0.2387
 5243TP3     H227549   0.856   5.059   8.350  0.3898 -0.4207 -0.5901
 5244TP3      O27550   4.255   4.360   1.927  0.0219  0.1003  0.2939
 5244TP3     H127551   4.188   4.298   1.956  0.0207 -0.6595 -1.2195
 5244TP3     H227552   4.328   4.346   1.987 -1.0755  0.8105  1.8498
 5245TP3      O27553   0.047   2.501   1.478  0.0774 -0.1655  0.6090
 5245TP3     H127554  -0.033   2.476   1.524  1.3265 -1.5227  2.1669
 5245TP3     H227555   0.108   2.524   1.548  1.7742 -1.4254 -0.3977
 5246TP3      O27556   1.592   0.588   2.733  0.2662  0.0599 -0.8511
 5246TP3     H127557   1.676   0.580   2.779 -0.5925 -0.9915  0.6518
 5246TP3     H227558   1.528   0.607   2.803 -0.6818  1.4113 -2.0256
 5247TP3      O27559   3.858   0.059   9.559  0.0535 -0.4237 -0.2236
 5247TP3     H127560   3.906   0.022   9.633 -0.7625  1.4277  1.2835
 5247TP3     H227561   3.913   0.130   9.527 -0.1301 -0.4903 -0.7083
 5248TP3      O27562   0.866   2.910   2.111  0.1502 -0.0668  0.2970
 5248TP3     H127563   0.922   2.835   2.091  1.1019  1.1713 -1.9924
 5248TP3     H227564   0.777   2.877   2.099  0.4970 -1.1607  0.6349
 5249TP3      O27565   4.686   1.866   8.299 -0.4035 -0.3381 -0.2831
 5249TP3     H127566   4.723   1.783   8.331 -0.3998 -0.0208  0.5371
 5249TP3     H227567   4.618   1.838   8.238 -1.3695 -0.9960  1.0319
 5250TP3      O27568   4.761   0.224   2.365  0.2403  0.2081  0.4929
 5250TP3     H127569   4.715   0.155   2.316  0.9485 -0.0001  0.1165
 5250TP3     H227570   4.696   0.294   2.372  0.0471  0.1633 -0.5678
 5251TP3      O27571   3.671   1.142   7.433 -0.3920  0.0361 -0.1453
 5251TP3     H127572   3.593   1.152   7.377  0.0656  0.2268 -0.7663
 5251TP3     H227573   3.700   1.052   7.418 -0.2335  0.1063 -0.2603
 5252TP3      O27574   0.671   1.863   2.007  0.4424 -0.0124  0.3811
 5252TP3     H127575   0.697   1.794   2.068 -1.1397  0.1217  1.2560
 5252TP3     H227576   0.618   1.923   2.059 -0.1650  0.6054 -0.9101
 5253TP3      O27577   4.746   4.607   1.677  0.6574  0.2329 -0.3729
 5253TP3     H127578   4.809   4.541   1.705 -0.3642 -0.1831  1.0290
 5253TP3     H227579   4.682   4.559   1.625  1.7639  0.7641 -2.3700
 5254TP3      O27580   1.024   0.631   1.322 -0.5453  0.5902  0.2459
 5254TP3     H127581   0.985   0.669   1.243 -1.6925  1.8726  1.3669
 5254TP3     H227582   0.949   0.610   1.378  0.0400 -3.0768 -0.0983
 5255TP3      O27583   4.019   3.969   1.724 -0.1757 -0.7109 -0.4008
 5255TP3     H127584   3.958   4.012   1.663 -1.1309 -0.4203  0.7212
 5255TP3     H227585   3.969   3.961   1.805  0.6031 -2.3422 -0.0478
 5256TP3      O27586   0.043   0.638   9.299 -0.4687 -0.2191 -0.4709
 5256TP3     H127587   0.032   0.662   9.391  0.8032  2.0809 -0.8424
 5256TP3     H227588   0.115   0.574   9.300 -1.1267 -0.9722  0.1947
 5257TP3      O27589   0.557   2.837   3.068  0.6319  0.5782 -0.0553
 5257TP3     H127590   0.501   2.912   3.049 -0.6961 -0.1929  0.6295
 5257TP3     H227591   0.566   2.838   3.163 -0.4572 -0.8163  0.0972
 5258TP3      O27592   5.124   4.260   8.045  0.1198 -0.6226  0.1419
 5258TP3     H127593   5.156   4.347   8.022  0.0944 -0.6401  0.0413
 5258TP3     H227594   5.202   4.204   8.038 -0.0590 -0.7807 -0.7151
 5259TP3      O27595   4.601   1.738   2.867  0.1836 -0.2965  0.4125
 5259TP3     H127596   4.531   1.673   2.864  1.3473 -1.5436 -0.4300
 5259TP3     H227597   4.578   1.800   2.798 -0.0400 -0.7606  0.0644
 5260TP3      O27598   0.867   3.668   0.112 -0.0198 -0.1044 -0.9475
 5260TP3     H127599   0.946   3.723   0.121  0.1796 -0.4283 -0.7238
 5260TP3     H227600   0.817   3.711   0.042 -0.0912  0.6317 -0.4565
 5261TP3      O27601   4.901   3.439   7.618 -0.1786 -0.0807 -0.0270
 5261TP3     H127602   4.885   3.349   7.589 -0.3338 -0.4376  1.1288
 5261TP3     H227603   4.816   3.470   7.647 -0.0945  0.3954 -0.2828
 5262TP3      O27604   3.863   4.839  10.010  0.1112 -0.2549 -0.1691
 5262TP3     H127605   3.931   4.891  10.053 -1.0976  0.5015  0.8819
 5262TP3     H227606   3.784   4.857  10.060 -1.2616  0.2765 -2.4187
 5263TP3      O27607   2.858   0.702   9.025  0.6448  0.2316  0.1083
 5263TP3     H127608   2.869   0.733   8.935  0.6023 -1.7010 -0.6030
 5263TP3     H227609   2.839   0.609   9.016 -1.3748  0.3888  2.0429
 5264TP3      O27610   0.858   1.468   0.631 -0.6301  0.5309  0.4402
 5264TP3     H127611   0.849   1.512   0.547 -1.0263 -0.6701 -0.1817
 5264TP3     H227612   0.950   1.441   0.634 -0.4282  1.2280  0.7481
 5265TP3      O27613   3.001   3.507   2.336  0.2110 -1.0497  0.3498
 5265TP3     H127614   3.037   3.418   2.331  0.4105 -1.1184  2.1434
 5265TP3     H227615   2.918   3.496   2.383 -0.6586 -0.4911 -1.0121
 5266TP3      O27616   5.288   0.021   2.538 -0.1872 -0.1047 -0.1075
 5266TP3     H127617   5.375  -0.008   2.508 -0.7868 -0.3779 -1.7172
 5266TP3     H227618   5.238  -0.060   2.546 -0.2962  0.0534  0.8246
 5267TP3      O27619   4.616   0.867   9.716 -0.0849  0.0342  0.1619
 5267TP3     H127620   4.662   0.931   9.661  0.3616  1.0069  1.6044
 5267TP3     H227621   4.528   0.864   9.679  0.0847  0.9688 -0.3661
 5268TP3      O27622   2.808   3.696   2.588  0.1572 -0.0937 -0.1408
 5268TP3     H127623   2.890   3.694   2.637 -0.6502  0.6976  1.2732
 5268TP3     H227624   2.759   3.769   2.625 -0.7965  0.0646 -1.6334
 5269TP3      O27625   5.036   0.147  10.083 -0.5101 -0.2869 -0.0612
 5269TP3     H127626   5.020   0.165   9.991  0.6702 -0.3298 -0.2895
 5269TP3     H227627   4.948   0.141  10.122 -1.0139  0.4276 -1.0331
 5270TP3      O27628   1.718   0.627   0.528  0.0212 -0.2906 -0.3475
 5270TP3     H127629   1.762   0.655   0.607  0.7437 -1.5689 -0.2650
 5270TP3     H227630   1.748   0.537   0.514 -1.2094 -0.5988 -1.2628
 5271TP3      O27631   5.193   0.065   2.289  0.6036  0.0116 -0.2975
 5271TP3     H127632   5.126  -0.001   2.305  0.0263  0.4556 -0.8762
 5271TP3     H227633   5.234   0.078   2.375  0.4674 -0.8066 -0.0927
 5272TP3      O27634   0.118   1.838   1.227 -0.1053  0.3922  0.0430
 5272TP3     H127635   0.082   1.862   1.142  0.2064  1.6009  0.2383
 5272TP3     H227636   0.042   1.808   1.277 -0.4109  0.3885 -0.4182
 5273TP3      O27637   1.891   1.691   1.387 -0.3628 -0.3283 -0.2158
 5273TP3     H127638   1.912   1.663   1.476  1.1730 -1.4235 -0.8914
 5273TP3     H227639   1.936   1.775   1.376 -2.7377  1.2227  0.8736
 5274TP3      O27640   0.753   0.453   0.136  0.4056  0.0129  0.2773
 5274TP3     H127641   0.797   0.458   0.220  1.6141  1.6510 -0.3937
 5274TP3     H227642   0.806   0.392   0.084  1.3025  1.1182 -0.1582
 5275TP3      O27643   3.464   5.163   0.547 -0.0529  0.4064  0.0831
 5275TP3     H127644   3.513   5.224   0.492  1.0531  0.7928  1.4574
 5275TP3     H227645   3.529   5.126   0.606 -1.2744  0.3104  1.4144
 5276TP3      O27646   4.230   1.718   6.812 -0.3256  0.1869 -0.6616
 5276TP3     H127647   4.228   1.653   6.882 -0.3081 -1.0079 -1.7289
 5276TP3     H227648   4.197   1.798   6.852  2.2411  0.3201  1.4580
 5277TP3      O27649   4.181   5.124   9.167 -0.5682 -0.8793 -0.6949
 5277TP3     H127650   4.267   5.131   9.125 -0.9791  0.4441 -1.3857
 5277TP3     H227651   4.195   5.153   9.257 -0.4157  0.0676 -1.0107
 5278TP3      O27652   0.916   0.700   1.644 -0.0260  0.3655 -0.0569
 5278TP3     H127653   0.886   0.671   1.558  2.6195  2.6081 -1.9085
 5278TP3     H227654   0.847   0.672   1.704 -1.4850 -2.2448 -2.6969
 5279TP3      O27655   5.024   4.421   2.142  0.0951  0.0592  0.5236
 5279TP3     H127656   5.001   4.344   2.090  1.2906  0.3158 -0.4489
 5279TP3     H227657   5.070   4.386   2.218  0.6719 -0.2008  0.0624
 5280TP3      O27658   1.389   1.991   0.615 -0.0054 -0.4178  0.0291
 5280TP3     H127659   1.443   2.068   0.601 -1.6742  0.4807 -2.0350
 5280TP3     H227660   1.344   2.008   0.698  0.3464  0.3710  0.0659
 5281TP3      O27661   3.440   1.876   9.057  0.5609 -0.4438 -0.2900
 5281TP3     H127662   3.460   1.856   8.965  0.1433 -1.6114 -0.1513
 5281TP3     H227663   3.479   1.803   9.106  1.9249  0.8325  0.6040
 5282TP3      O27664   3.938   3.464   9.476  0.0894  0.0618  0.2963
 5282TP3     H127665   3.941   3.497   9.566  0.7923  0.1151  0.2586
 5282TP3     H227666   3.898   3.377   9.485 -2.6579  1.2059  0.2798
 5283TP3      O27667   0.317   1.638   1.678 -0.0045 -0.1168  0.6968
 5283TP3     H127668   0.352   1.698   1.744  0.9872  1.2900 -1.0100
 5283TP3     H227669   0.388   1.627   1.615 -0.3088 -2.8157  0.7091
 5284TP3      O27670   1.136   4.916   0.309 -0.9219  0.0998 -0.2103
 5284TP3     H127671   1.070   4.867   0.260  1.2611 -0.3236 -3.0216
 5284TP3     H227672   1.181   4.968   0.243  1.3849  0.5540  1.5892
 5285TP3      O27673   0.738   3.942   9.437 -0.4539 -0.2990 -0.6638
 5285TP3     H127674   0.833   3.945   9.442 -0.4935 -0.3288  0.1603
 5285TP3     H227675   0.707   3.979   9.519 -1.1395 -1.1345 -0.5195
 5286TP3      O27676   0.236   4.751   2.365 -0.2751  0.0898 -0.8474
 5286TP3     H127677   0.227   4.797   2.281 -2.0964 -1.3724 -1.5277
 5286TP3     H227678   0.148   4.718   2.384  0.4188 -0.8937  0.8892
 5287TP3      O27679   1.378   3.563   1.346 -0.3966 -0.2224  0.4015
 5287TP3     H127680   1.464   3.529   1.325  0.0854  0.4956  1.1324
 5287TP3     H227681   1.352   3.516   1.426 -1.4383 -1.6576 -0.7368
 5288TP3      O27682   0.465   2.094   1.060  0.0723 -0.5762 -0.3236
 5288TP3     H127683   0.395   2.028   1.056  0.8468 -1.3555 -1.8915
 5288TP3     H227684   0.457   2.131   1.148 -1.6149 -1.4048 -0.0711
 5289TP3      O27685   2.873   3.214   0.998 -0.3749 -0.4038 -0.3401
 5289TP3     H127686   2.933   3.171   0.937  0.4010 -1.7839  1.3100
 5289TP3     H227687   2.793   3.162   0.992  0.4796 -2.0447  1.4670
 5290TP3      O27688   0.178   1.733   8.955 -0.3058  0.4786  0.3081
 5290TP3     H127689   0.273   1.743   8.954 -0.1444 -0.8747  0.3259
 5290TP3     H227690   0.153   1.750   9.046  0.1396 -0.8148  0.6940
 5291TP3      O27691   2.981   2.570   1.922  0.1754  0.4130 -0.5181
 5291TP3     H127692   3.036   2.584   1.999  0.3841  0.2743 -0.6390
 5291TP3     H227693   3.040   2.529   1.858 -0.1119  0.1151 -0.5934
 5292TP3      O27694   0.756   3.445   0.390 -0.4151 -0.5956  0.2562
 5292TP3     H127695   0.825   3.420   0.452  0.7154  0.5569 -0.4734
 5292TP3     H227696   0.681   3.391   0.414  0.2857 -0.8641  2.0014
 5293TP3      O27697   3.718   0.841   8.586 -0.1228  0.5784 -1.1328
 5293TP3     H127698   3.674   0.923   8.561 -1.7760  0.7429  1.8277
 5293TP3     H227699   3.778   0.866   8.656 -2.2333 -0.8841  1.3824
 5294TP3      O27700   2.877   2.743  10.073 -0.2138 -0.3395 -0.0594
 5294TP3     H127701   2.944   2.709  10.013  0.2930 -0.2712  0.4597
 5294TP3     H227702   2.884   2.687  10.150 -0.3986  0.0025  0.2064
 5295TP3      O27703   1.505   0.955   9.957 -0.1940 -0.3301  0.0163
 5295TP3     H127704   1.582   0.899   9.944  0.6674  0.8860 -0.2726
 5295TP3     H227705   1.464   0.921  10.037  0.5055 -1.1368  0.0451
 5296TP3      O27706   3.499   4.635   3.162  0.5706  0.2641  0.3767
 5296TP3     H127707   3.581   4.643   3.114  0.0851  1.1775 -0.3304
 5296TP3     H227708   3.450   4.567   3.114  1.4015 -1.2107  1.5507
 5297TP3      O27709   2.896   0.556   7.928  0.1213  0.2596 -0.6854
 5297TP3     H127710   2.966   0.585   7.986 -0.9399 -0.0314  0.8243
 5297TP3     H227711   2.916   0.464   7.909  1.1915  0.7258 -1.9317
 5298TP3      O27712   2.019   1.311   9.882  0.8917 -0.4295 -0.1292
 5298TP3     H127713   2.013   1.335   9.790  0.7732  0.4125  0.0826
 5298TP3     H227714   1.949   1.363   9.924  1.3671 -0.3023  0.5195
 5299TP3      O27715   3.848   0.921   8.825  0.7428 -0.0403 -0.1888
 5299TP3     H127716   3.929   0.944   8.871  0.5081  0.6030 -0.0889
 5299TP3     H227717   3.789   0.892   8.894  0.6393  0.2149 -0.1678
 5300TP3      O27718   1.218   3.602   0.433 -0.0400 -1.1002  0.0905
 5300TP3     H127719   1.271   3.618   0.512  1.2611 -1.7401 -0.6227
 5300TP3     H227720   1.280   3.565   0.370 -1.2656 -1.4724 -0.9276
 5301TP3      O27721   1.251   0.233   7.539  0.2581  0.2613 -0.2937
 5301TP3     H127722   1.179   0.173   7.557 -0.8685  2.4213  3.5520
 5301TP3     H227723   1.211   0.303   7.487  0.0909  0.4209  0.0448
 5302TP3      O27724   2.852   3.869   8.655 -0.0463  0.1294  0.2449
 5302TP3     H127725   2.827   3.811   8.727  0.9311 -0.6907 -0.0568
 5302TP3     H227726   2.769   3.890   8.612 -0.5747  0.1558  1.2496
 5303TP3      O27727   0.503   2.085   7.803  0.1873  0.1756  0.2494
 5303TP3     H127728   0.505   2.171   7.761 -1.3309 -0.8441 -2.1281
 5303TP3     H227729   0.410   2.068   7.819  0.2995 -1.5404 -0.6182
 5304TP3      O27730   0.263   3.999   9.586 -0.3036  0.1793 -0.2767
 5304TP3     H127731   0.239   3.906   9.585  0.9840 -0.2644  1.9688
 5304TP3     H227732   0.210   4.037   9.656  1.4160  0.3577  1.0115
 5305TP3      O27733   4.919   2.525   0.824 -0.3245  0.0980 -0.2863
 5305TP3     H127734   4.858   2.453   0.841 -0.2891  0.2466  0.4681
 5305TP3     H227735   4.967   2.536   0.905  0.1196  0.5527 -0.6053
 5306TP3      O27736   0.138   5.081   3.027 -0.4215  0.2756 -0.2189
 5306TP3     H127737   0.115   5.154   3.085  0.1068 -0.7348  1.3111
 5306TP3     H227738   0.187   5.122   2.955 -0.7827  1.5112  0.2195
 5307TP3      O27739   0.205   4.204   9.385 -0.2157  0.2971  0.6740
 5307TP3     H127740   0.232   4.134   9.444  0.4370  0.5500  0.6747
 5307TP3     H227741   0.286   4.248   9.360 -0.2096 -1.0448 -2.0275
 5308TP3      O27742   4.157   4.127   3.434 -1.1423  0.4608 -0.2488
 5308TP3     H127743   4.103   4.191   3.387  0.1207  0.6328 -1.5183
 5308TP3     H227744   4.171   4.056   3.371 -0.1738  0.2586  0.1788
 5309TP3      O27745   3.523   1.230   1.095 -0.0007  0.8268 -0.0020
 5309TP3     H127746   3.446   1.185   1.129  1.2174 -1.2338  0.1740
 5309TP3     H227747   3.566   1.266   1.172  0.2312  0.2857  0.1256
 5310TP3      O27748   3.401   1.752   3.118 -0.0261 -0.1254 -0.0385
 5310TP3     H127749   3.357   1.811   3.180 -0.9098  0.4833 -1.2102
 5310TP3     H227750   3.330   1.701   3.079  0.4647 -0.1281 -0.9431
 5311TP3      O27751   2.087   4.146   7.331  0.1009 -0.2779 -0.1672
 5311TP3     H127752   2.093   4.050   7.327 -1.0058 -0.3894  0.4725
 5311TP3     H227753   2.117   4.175   7.245 -1.1724 -1.2960 -0.9937
 5312TP3      O27754   2.570   0.005   8.264 -0.3780  0.3269 -0.7050
 5312TP3     H127755   2.617  -0.017   8.184 -1.1886 -0.7433 -0.9076
 5312TP3     H227756   2.480   0.023   8.236 -0.4382  0.9226 -0.1563
 5313TP3      O27757   1.565   3.316   3.370  0.2709 -0.2710 -0.1202
 5313TP3     H127758   1.584   3.332   3.277  0.7350  0.2980  0.0700
 5313TP3     H227759   1.573   3.402   3.411 -0.9038 -0.3374  0.2886
 5314TP3      O27760   4.099   2.486   0.958  1.1160 -0.5269  0.3338
 5314TP3     H127761   4.112   2.426   0.884  1.4988  0.5248 -0.4737
 5314TP3     H227762   4.009   2.470   0.987  0.5900 -0.2084 -1.0516
 5315TP3      O27763   4.413   5.056   9.624 -0.0553  0.7489 -0.3381
 5315TP3     H127764   4.354   5.090   9.556  0.5434  2.8058  0.0817
 5315TP3     H227765   4.358   5.000   9.678 -1.1044  0.9165 -1.1972
 5316TP3      O27766   1.160   3.105   1.859  0.1401 -0.4022 -0.8735
 5316TP3     H127767   1.098   3.123   1.788  0.7634  0.5640 -1.1892
 5316TP3     H227768   1.192   3.017   1.842 -1.6143 -1.1947 -0.3426
 5317TP3      O27769   1.126   4.823   8.307 -0.3589 -0.0566 -0.3132
 5317TP3     H127770   1.206   4.789   8.266 -1.5190 -1.4106 -1.5606
 5317TP3     H227771   1.081   4.744   8.339 -1.5141  0.6107 -0.2490
 5318TP3      O27772   2.382   4.797   9.071  0.0602  0.1800 -0.3028
 5318TP3     H127773   2.469   4.760   9.081  0.5300  1.3127 -0.0843
 5318TP3     H227774   2.377   4.822   8.979 -0.6334 -1.2949 -0.7007
 5319TP3      O27775   0.306   5.069   0.312 -0.1824 -0.5141 -0.1121
 5319TP3     H127776   0.357   5.012   0.370 -1.1504 -0.6285  0.6499
 5319TP3     H227777   0.215   5.041   0.326 -0.4087 -0.8501 -2.0223
 5320TP3      O27778   3.478   0.236   9.134 -0.2631 -0.2224 -0.2358
 5320TP3     H127779   3.461   0.329   9.144 -1.0849 -0.4759  0.8658
 5320TP3     H227780   3.392   0.196   9.124 -0.1101 -1.0953  1.5195
 5321TP3      O27781   0.871   4.371   2.310 -0.3699 -0.0775 -0.0403
 5321TP3     H127782   0.795   4.314   2.300 -0.2676 -0.2572  0.1944
 5321TP3     H227783   0.853   4.421   2.390 -0.7163  0.6214 -0.5461
 5322TP3      O27784   2.391   2.574   1.183  0.5344 -0.3747  0.0719
 5322TP3     H127785   2.351   2.497   1.224  0.4809  0.0822  0.9171
 5322TP3     H227786   2.484   2.555   1.181  0.7957  0.3651  2.2462
 5323TP3      O27787   3.702   4.616   2.968  0.0569 -0.1304 -0.1298
 5323TP3     H127788   3.720   4.710   2.960 -2.0809  0.4016  0.6914
 5323TP3     H227789   3.789   4.576   2.976  1.0318  1.7195 -0.9031
 5324TP3      O27790   0.992   1.389   1.968  0.0402 -0.0972 -0.3036
 5324TP3     H127791   1.052   1.404   1.895  1.8226  0.8677  1.2906
 5324TP3     H227792   0.999   1.467   2.022 -0.1830 -1.3296  1.6183
 5325TP3      O27793   3.289   3.873   2.122  0.0966 -0.6109  0.3878
 5325TP3     H127794   3.209   3.823   2.141 -0.6333  0.5715  0.5518
 5325TP3     H227795   3.263   3.935   2.054  0.4989  0.6341  1.3078
 5326TP3      O27796   4.391   1.985   2.233 -0.1600  0.0846 -0.1545
 5326TP3     H127797   4.370   1.968   2.141 -2.9573  0.2258  0.3670
 5326TP3     H227798   4.460   2.051   2.230  1.3294 -1.4508 -2.1190
 5327TP3      O27799   5.235   5.062   0.938 -0.3289 -0.3114  0.4717
 5327TP3     H127800   5.223   5.149   0.977  1.2544 -0.1966  0.7562
 5327TP3     H227801   5.202   5.072   0.848  2.9065  1.6513 -0.6763
 5328TP3      O27802   1.947   0.603   7.923  0.5698 -0.1698  0.1385
 5328TP3     H127803   2.022   0.558   7.962  0.4031 -0.2351  0.3841
 5328TP3     H227804   1.977   0.628   7.836  0.3022 -1.7825 -0.4674
 5329TP3      O27805   3.955   4.717   3.862  0.1795 -0.0215  0.1446
 5329TP3     H127806   3.899   4.782   3.818  0.8731  0.2180 -0.4085
 5329TP3     H227807   3.936   4.635   3.817  0.0585  0.0041  0.1485
 5330TP3      O27808   4.035   1.050   0.664  0.1019 -0.2245 -0.4234
 5330TP3     H127809   4.110   1.007   0.623  0.7851 -0.4742  1.0446
 5330TP3     H227810   4.037   1.021   0.755 -1.2069  0.5503 -0.1191
 5331TP3      O27811   3.113   4.310   1.342  0.5818  0.4251  0.6437
 5331TP3     H127812   3.194   4.360   1.335  1.1713 -0.6174 -0.2313
 5331TP3     H227813   3.066   4.329   1.261  0.6829 -0.1916  0.4324
 5332TP3      O27814   3.551   1.242   2.628 -0.0461  0.4223  0.1500
 5332TP3     H127815   3.551   1.223   2.535  1.2900 -1.3977  0.4867
 5332TP3     H227816   3.475   1.300   2.640 -0.7879 -0.0433 -1.8916
 5333TP3      O27817   2.129   1.518   2.245 -0.0652  0.1747 -0.1685
 5333TP3     H127818   2.069   1.486   2.313 -1.4061 -0.4911 -1.5908
 5333TP3     H227819   2.133   1.612   2.258 -1.6888  0.2720 -0.2031
 5334TP3      O27820   3.775   2.774   8.563 -0.0008 -1.0093 -0.1067
 5334TP3     H127821   3.758   2.777   8.657  2.1719 -1.4676  0.3495
 5334TP3     H227822   3.771   2.681   8.541  1.0441 -1.0645 -0.1204
 5335TP3      O27823   3.043   2.587   9.904 -0.4686 -0.3183  0.1080
 5335TP3     H127824   3.006   2.632   9.828  0.6381 -1.6124 -1.2630
 5335TP3     H227825   2.974   2.527   9.933 -0.8558  0.1020  0.0547
 5336TP3      O27826   3.986   2.110   7.122  0.6056  0.3247  0.3393
 5336TP3     H127827   3.986   2.057   7.042  0.0976 -2.1683  1.9052
 5336TP3     H227828   4.038   2.187   7.098  0.0973 -0.0849 -2.5179
 5337TP3      O27829   0.770   0.610   1.418 -0.0445  0.1049 -0.0517
 5337TP3     H127830   0.693   0.658   1.387 -0.0198 -0.3821 -0.9099
 5337TP3     H227831   0.734   0.543   1.477 -0.2919 -0.1491 -0.4828
 5338TP3      O27832   2.634   3.027   1.640 -0.0543  0.0576 -0.0450
 5338TP3     H127833   2.598   2.944   1.672 -1.8845  0.3699 -1.1675
 5338TP3     H227834   2.568   3.092   1.662  0.1825  0.8051 -1.4187
 5339TP3      O27835   0.355   4.209   8.953 -0.3674  0.7123  0.1808
 5339TP3     H127836   0.263   4.197   8.977 -0.3773  0.2433 -0.0820
 5339TP3     H227837   0.394   4.123   8.965 -0.0825  0.7846 -0.2325
 5340TP3      O27838   4.345   4.935   2.213  0.2498 -0.8063 -0.4711
 5340TP3     H127839   4.285   4.990   2.162 -0.2796 -1.5217 -0.6540
 5340TP3     H227840   4.395   4.996   2.267  1.1391  0.0296 -2.1503
 5341TP3      O27841   3.460   3.240   0.493  0.9826  0.1830  0.2192
 5341TP3     H127842   3.502   3.314   0.450  0.7388  1.1782  1.6364
 5341TP3     H227843   3.530   3.177   0.508  1.7662  1.3232  1.4953
 5342TP3      O27844   1.112   3.316   1.142  0.1809  0.6481  0.2040
 5342TP3     H127845   1.066   3.251   1.089  1.4406  0.3716 -0.5946
 5342TP3     H227846   1.094   3.399   1.098  0.7590  0.4885 -0.3543
 5343TP3      O27847   0.542   5.242   8.320  0.1459 -0.3364 -0.1175
 5343TP3     H127848   0.464   5.221   8.269 -0.2779  1.9707 -0.5114
 5343TP3     H227849   0.615   5.211   8.266 -0.4158 -1.7082 -0.1430
 5344TP3      O27850   3.767   2.788   9.675 -0.2308  0.0068 -1.0630
 5344TP3     H127851   3.853   2.791   9.634 -1.3506  0.7664 -3.5576
 5344TP3     H227852   3.746   2.694   9.678  0.4221 -0.1452 -0.9647
 5345TP3      O27853   4.805   3.484   0.172  0.0263 -0.1994  0.2283
 5345TP3     H127854   4.713   3.456   0.166  0.4570 -1.3121 -1.8163
 5345TP3     H227855   4.802   3.579   0.158 -0.8233 -0.1780  0.4757
 5346TP3      O27856   2.895   5.240   0.065  0.1623 -0.0468 -0.0716
 5346TP3     H127857   2.981   5.278   0.086  0.3220 -1.0020  1.1776
 5346TP3     H227858   2.837   5.275   0.133 -0.3918  0.4177 -0.7814
 5347TP3      O27859   2.470   5.000   3.149 -0.2434  0.4315 -0.2879
 5347TP3     H127860   2.439   4.992   3.239 -1.6294  1.7151 -0.6161
 5347TP3     H227861   2.492   5.092   3.139  1.3561  0.0253 -0.8511
 5348TP3      O27862   2.540   5.260   1.053  0.0728 -0.2593 -0.2937
 5348TP3     H127863   2.572   5.175   1.085  1.2465  0.6134  0.9472
 5348TP3     H227864   2.455   5.240   1.013 -0.7149 -1.6660  1.9249
 5349TP3      O27865   3.699   4.528   1.790  0.3320  0.7650  0.3877
 5349TP3     H127866   3.752   4.608   1.791  1.2398  0.1857  0.0449
 5349TP3     H227867   3.627   4.548   1.730  1.2969  0.8835 -0.7754
 5350TP3      O27868   5.271   2.430   2.132  0.0301 -0.2311  0.6725
 5350TP3     H127869   5.343   2.463   2.185  1.2019  2.1244 -2.0597
 5350TP3     H227870   5.278   2.479   2.050 -2.3394 -2.7547 -1.2238
 5351TP3      O27871   0.863   4.558   1.974 -0.1281  0.4413 -0.1518
 5351TP3     H127872   0.908   4.553   2.058 -1.2642  0.9880  0.5146
 5351TP3     H227873   0.912   4.624   1.924 -0.1398  0.9719  0.5282
 5352TP3      O27874   5.286   0.513   2.013 -0.0725  0.0346  0.2324
 5352TP3     H127875   5.366   0.566   2.016  0.4474 -0.7750  1.4323
 5352TP3     H227876   5.278   0.487   1.922  0.7318  0.5693 -0.0063
 5353TP3      O27877   4.611   0.130   0.286  0.3432 -0.1597 -0.5383
 5353TP3     H127878   4.533   0.086   0.320 -1.4679  2.5863 -0.8878
 5353TP3     H227879   4.668   0.140   0.362  0.1183 -1.6166 -0.1445
 5354TP3      O27880   2.811   2.003   6.838  0.3494  0.5475  0.6528
 5354TP3     H127881   2.728   2.007   6.886  0.8902  0.6922  1.5965
 5354TP3     H227882   2.876   2.037   6.899  1.4269 -1.3524  0.6508
 5355TP3      O27883   1.514   0.054   2.628 -0.4489 -0.5780 -0.5656
 5355TP3     H127884   1.511  -0.006   2.703 -3.4731  1.9260  1.6040
 5355TP3     H227885   1.522   0.141   2.667  1.4255  0.6885 -3.4422
 5356TP3      O27886   2.174   1.846   3.179  0.3787  0.2924 -0.6156
 5356TP3     H127887   2.145   1.757   3.160  1.8624 -0.7766  1.7470
 5356TP3     H227888   2.247   1.861   3.119  0.5853 -0.3821 -0.5412
 5357TP3      O27889   1.406   0.224   0.925 -0.5773  0.1094 -0.1132
 5357TP3     H127890   1.439   0.274   1.000 -1.0393  3.6828 -2.0831
 5357TP3     H227891   1.347   0.160   0.964  0.9991  0.1862  2.7091
 5358TP3      O27892   2.999   3.026   9.496 -0.1972  0.0143  0.3348
 5358TP3     H127893   3.042   3.058   9.575 -0.1582  2.2616 -0.5279
 5358TP3     H227894   2.907   3.020   9.519 -0.5023  2.6309  0.0321
 5359TP3      O27895   2.493   1.506   9.979 -0.2100  0.0086 -0.0467
 5359TP3     H127896   2.541   1.452  10.042  0.1056 -0.5311 -0.7306
 5359TP3     H227897   2.402   1.499  10.007  0.1667  1.7622  1.7863
 5360TP3      O27898   0.999   3.589   2.380  0.0881 -0.0127  0.0559
 5360TP3     H127899   0.997   3.569   2.287  2.0048 -2.1415  0.3850
 5360TP3     H227900   0.921   3.547   2.416 -1.2184  1.6674 -0.6496
 5361TP3      O27901   3.363   3.819   2.486  0.2584  0.0763 -0.5550
 5361TP3     H127902   3.406   3.842   2.404  0.0161 -0.0781 -0.7269
 5361TP3     H227903   3.423   3.848   2.554  0.3081  0.4999 -0.7816
 5362TP3      O27904   4.405   4.971  10.019  0.4335  0.5096  0.5743
 5362TP3     H127905   4.414   4.961  10.113  2.3702 -0.1849  0.3664
 5362TP3     H227906   4.421   5.064  10.002 -2.6933  1.2845  1.1073
 5363TP3      O27907   2.921   4.011   7.638  0.7446 -0.2089 -0.3191
 5363TP3     H127908   2.905   4.017   7.733  1.2576  0.0143 -0.2439
 5363TP3     H227909   2.912   3.917   7.619  1.2131 -0.3357  0.0578
 5364TP3      O27910   2.522   1.446   9.706 -0.1358 -0.0018  0.0760
 5364TP3     H127911   2.516   1.359   9.666 -1.4441  0.2417 -0.2932
 5364TP3     H227912   2.544   1.428   9.797 -1.0456 -0.7543  0.1593
 5365TP3      O27913   5.209   4.404   3.397 -0.0746  0.3334 -0.1714
 5365TP3     H127914   5.179   4.440   3.480  0.1965  1.0104 -0.3585
 5365TP3     H227915   5.210   4.479   3.337  0.5131  0.0182 -0.5695
 5366TP3      O27916   2.417   1.512   3.030  0.0510 -0.3999 -0.0319
 5366TP3     H127917   2.328   1.536   3.004  0.4631  0.3768 -0.7758
 5366TP3     H227918   2.462   1.596   3.042  0.1462 -0.7228  2.3565
 5367TP3      O27919   2.298   3.518   3.433 -0.2550 -0.2640  0.3704
 5367TP3     H127920   2.296   3.604   3.390  0.8851  0.1768  1.1628
 5367TP3     H227921   2.333   3.535   3.520 -1.5185 -1.3113  1.1225
 5368TP3      O27922   1.868   3.552   7.583 -0.3774  0.4359  0.7506
 5368TP3     H127923   1.825   3.573   7.501  0.5575  0.7614  0.3282
 5368TP3     H227924   1.933   3.621   7.595  1.0029 -0.7847  0.6428
 5369TP3      O27925   0.911   4.733   1.445 -0.5359 -0.4896  0.2515
 5369TP3     H127926   0.852   4.676   1.495 -1.0160 -0.2353 -0.0236
 5369TP3     H227927   0.857   4.806   1.417 -0.1180 -0.3107 -0.1075
 5370TP3      O27928   5.206   3.173   1.411 -0.1173  0.0913  0.1017
 5370TP3     H127929   5.188   3.138   1.499 -1.2429  0.0995 -0.1075
 5370TP3     H227930   5.119   3.187   1.373  0.3609 -0.5963 -1.3001
 5371TP3      O27931   1.125   1.845   9.710  0.2138 -0.2916  0.8920
 5371TP3     H127932   1.116   1.936   9.684  1.2326 -0.6026 -0.7028
 5371TP3     H227933   1.220   1.828   9.706 -0.0601 -1.7832 -0.2812
 5372TP3      O27934   0.375   4.095   0.008 -0.3632  0.1699  0.6546
 5372TP3     H127935   0.342   4.162  -0.052 -2.1674 -1.4384 -0.2830
 5372TP3     H227936   0.447   4.054  -0.039 -0.9454 -0.2461  0.1185
 5373TP3      O27937   3.459   1.218  10.070  0.4162 -0.0780 -0.2631
 5373TP3     H127938   3.382   1.273  10.076  0.6281  0.0901  1.4459
 5373TP3     H227939   3.425   1.129  10.064  0.0790 -0.0124  0.5832
 5374TP3      O27940   2.648   1.245   0.925 -0.2559 -0.1741 -0.0596
 5374TP3     H127941   2.668   1.338   0.920  0.3821  0.0796  3.9325
 5374TP3     H227942   2.575   1.239   0.986  1.1872 -2.3416  1.6275
 5375TP3      O27943   0.901   4.927   0.947  0.1474 -0.0984 -0.4586
 5375TP3     H127944   0.829   4.864   0.954 -1.3234  1.1170 -3.2736
 5375TP3     H227945   0.871   4.991   0.883  2.7578  1.9018  0.1514
 5376TP3      O27946   0.389   3.746   1.903 -0.1448  0.3598  0.1397
 5376TP3     H127947   0.350   3.774   1.986 -1.9994  1.9643 -1.1916
 5376TP3     H227948   0.349   3.660   1.885  1.0365 -0.4829  1.3362
 5377TP3      O27949   3.091   2.215   9.723  0.1476  0.0155  0.5508
 5377TP3     H127950   3.039   2.293   9.702  0.1430 -0.0484  0.3165
 5377TP3     H227951   3.109   2.223   9.816  0.6364  0.5912  0.4126
 5378TP3      O27952   1.025   2.215   7.903  0.2752  0.3435 -0.1453
 5378TP3     H127953   1.051   2.298   7.944  1.2641  1.4379 -2.7527
 5378TP3     H227954   1.085   2.150   7.939  0.0767  0.9049  1.2645
 5379TP3      O27955   3.588   5.159   2.566 -0.1350  0.1936  0.3827
 5379TP3     H127956   3.658   5.156   2.631  0.2692 -1.0964 -0.0759
 5379TP3     H227957   3.573   5.068   2.542 -1.2512  0.5302 -0.3039
 5380TP3      O27958   5.020   3.451   7.208 -0.3680  0.7567  0.1550
 5380TP3     H127959   5.088   3.482   7.268  0.8915 -0.1272 -0.7487
 5380TP3     H227960   4.943   3.504   7.229 -0.0475  0.3914  2.6400
 5381TP3      O27961   4.827   2.146   3.163  0.5031 -0.2058  0.0166
 5381TP3     H127962   4.848   2.184   3.077  0.8841 -1.9479 -0.7115
 5381TP3     H227963   4.735   2.123   3.157  0.6383 -0.7346 -0.1117
 5382TP3      O27964   4.373   0.985   9.389 -0.1018 -0.2846  0.3586
 5382TP3     H127965   4.403   0.923   9.457 -0.7044  0.5129  1.3830
 5382TP3     H227966   4.396   0.942   9.307  1.6360 -0.8213  1.0550
 5383TP3      O27967   1.070   0.108   3.021  0.0354  0.2221 -0.5864
 5383TP3     H127968   1.076   0.025   2.975  0.3736 -0.6117  0.9040
 5383TP3     H227969   1.153   0.152   3.001  0.7041 -0.6572  0.1827
 5384TP3      O27970   3.404   1.108   9.644 -0.3544 -0.0616  0.4431
 5384TP3     H127971   3.455   1.187   9.660 -3.3217  2.2485 -0.4514
 5384TP3     H227972   3.327   1.117   9.700 -0.6731 -2.5253  0.5418
 5385TP3      O27973   2.096   1.541   0.302 -0.0336  0.3172  1.0941
 5385TP3     H127974   2.104   1.449   0.277 -0.9096 -0.0859  2.1948
 5385TP3     H227975   2.139   1.546   0.387  1.1746  1.2272  0.4486
 5386TP3      O27976   1.979   3.380   9.763 -0.2071 -0.3702  0.1648
 5386TP3     H127977   2.070   3.412   9.755  0.2044 -0.6779  2.6818
 5386TP3     H227978   1.985   3.307   9.825 -1.9451 -1.6384 -1.0913
 5387TP3      O27979   2.677   3.965   3.550  0.4848  0.1294 -0.0637
 5387TP3     H127980   2.757   3.935   3.595 -1.1491  0.7332  3.6112
 5387TP3     H227981   2.688   4.060   3.544 -0.1484  0.2916  1.0339
 5388TP3      O27982   0.692   4.613   1.548  0.2964 -0.4913  0.6915
 5388TP3     H127983   0.688   4.636   1.641  1.7265  1.8887  0.2605
 5388TP3     H227984   0.605   4.634   1.514  0.0552 -0.4775  1.3037
 5389TP3      O27985   3.749   4.408   0.532 -0.1779 -0.3981 -0.1688
 5389TP3     H127986   3.829   4.457   0.552  0.3962 -1.5388  0.3791
 5389TP3     H227987   3.776   4.344   0.466 -0.4006 -1.4161  0.7057
 5390TP3      O27988   4.890   0.305   8.918  0.6140 -0.3299 -0.0419
 5390TP3     H127989   4.826   0.235   8.926  0.6791 -0.6841 -2.1478
 5390TP3     H227990   4.966   0.264   8.876  0.7325  0.9400 -1.1340
 5391TP3      O27991   1.318   4.400   2.632 -0.7926 -0.6467 -0.3795
 5391TP3     H127992   1.376   4.473   2.656 -1.3701 -0.3338  0.1051
 5391TP3     H227993   1.371   4.322   2.648 -0.5811 -0.3773  0.2834
 5392TP3      O27994   5.059   4.198   3.618  0.3987  0.8254  0.3637
 5392TP3     H127995   5.111   4.277   3.631 -0.4076  1.2084  1.4039
 5392TP3     H227996   5.117   4.138   3.571  1.1769  1.8604 -0.0254
 5393TP3      O27997   1.444   4.110   8.661  0.4031  0.3874 -0.1112
 5393TP3     H127998   1.497   4.031   8.655  1.2120  0.9682 -0.8967
 5393TP3     H227999   1.379   4.090   8.728  2.1813 -0.0236  1.5946
 5394TP3      O28000   0.841   3.647   8.089 -0.2286  0.1848  1.0332
 5394TP3     H128001   0.933   3.673   8.089  0.1034 -0.9231  0.4096
 5394TP3     H228002   0.843   3.552   8.083 -1.4362  0.2225 -0.6074
 5395TP3      O28003   2.491   0.684   3.389  0.4756 -0.2295 -0.1164
 5395TP3     H128004   2.432   0.686   3.314  0.0883 -0.7582  0.1711
 5395TP3     H228005   2.509   0.591   3.404  1.1954 -0.0912 -0.0553
 5396TP3      O28006   1.623   1.771   0.016 -0.3678  0.1732 -0.1863
 5396TP3     H128007   1.592   1.850   0.061 -0.5489 -0.0407  0.0690
 5396TP3     H228008   1.676   1.804  -0.056 -2.6793  0.6165 -1.7656
 5397TP3      O28009   3.525   0.427   2.590 -1.3420 -0.2893 -0.2119
 5397TP3     H128010   3.514   0.414   2.684  1.2586 -2.0828 -0.0562
 5397TP3     H228011   3.481   0.352   2.550 -0.0617 -1.0652 -0.2201
 5398TP3      O28012   2.605   2.490   0.361  0.2716 -0.8026 -0.0458
 5398TP3     H128013   2.550   2.528   0.430  0.7627 -0.3895  0.1332
 5398TP3     H228014   2.677   2.449   0.409  0.8857 -0.0785 -0.3134
 5399TP3      O28015   1.558   4.957   0.821  0.3249  0.0682 -0.3025
 5399TP3     H128016   1.471   4.997   0.811  0.1485 -0.2003  0.1340
 5399TP3     H228017   1.544   4.885   0.882  0.5522 -0.9303 -1.3871
 5400TP3      O28018   4.720   1.554   1.475  0.3938  0.1004 -0.3743
 5400TP3     H128019   4.788   1.619   1.488  1.0614 -0.6478 -0.0015
 5400TP3     H228020   4.652   1.576   1.538  1.3464 -0.5058  0.9151
 5401TP3      O28021   0.978   0.586   1.929  0.0863 -0.2087  1.1649
 5401TP3     H128022   1.008   0.605   2.018 -0.8288  0.5060  1.3313
 5401TP3     H228023   0.902   0.642   1.917  0.2913 -0.1804 -0.1324
 5402TP3      O28024   2.300   2.449   7.598  0.1025  0.0365  0.0830
 5402TP3     H128025   2.316   2.535   7.559  2.9017 -0.0545  0.8021
 5402TP3     H228026   2.228   2.412   7.547 -1.5496  2.9587  0.0909
 5403TP3      O28027   2.556   4.641   0.826 -0.1841  0.3042 -0.0518
 5403TP3     H128028   2.481   4.582   0.838  1.7746 -2.3993 -0.2980
 5403TP3     H228029   2.577   4.672   0.914  0.9998 -2.4155  0.7229
 5404TP3      O28030   4.701   5.035   7.358 -1.1698  0.6863 -0.0124
 5404TP3     H128031   4.785   5.053   7.315 -1.3609 -0.0935 -0.7377
 5404TP3     H228032   4.699   5.095   7.432  0.8135 -0.4194  1.0521
 5405TP3      O28033   0.753   1.304   7.120  0.3658  0.4349  0.4176
 5405TP3     H128034   0.765   1.375   7.057 -2.0733  0.9211  0.4115
 5405TP3     H228035   0.748   1.225   7.066  0.5771  0.5664  0.2048
 5406TP3      O28036   3.849   4.057   3.379 -0.4481 -0.3576 -0.7537
 5406TP3     H128037   3.851   4.148   3.409  0.5768 -0.5099 -0.3098
 5406TP3     H228038   3.793   4.013   3.442  0.9935 -0.4985  0.4810
 5407TP3      O28039   3.136   2.322   0.342 -0.1859  0.1795  0.2602
 5407TP3     H128040   3.210   2.264   0.329 -0.4163  0.0662 -0.5721
 5407TP3     H228041   3.139   2.344   0.436  0.5115 -0.3292  0.3624
 5408TP3      O28042   4.723   4.454   0.425  0.9371 -0.0991  0.1397
 5408TP3     H128043   4.713   4.463   0.330  1.3852 -2.8797 -0.2666
 5408TP3     H228044   4.634   4.454   0.459  0.7230 -0.1924 -0.4094
 5409TP3      O28045   3.381   0.899   2.463 -0.9351  0.2007  0.5803
 5409TP3     H128046   3.404   0.806   2.462 -0.8572  0.2216  0.2161
 5409TP3     H228047   3.454   0.942   2.419 -1.7372  0.2392 -0.7780
 5410TP3      O28048   5.106   3.601   0.056  0.1017 -0.1263  0.0074
 5410TP3     H128049   5.158   3.596  -0.024 -0.0914  0.5311 -0.1592
 5410TP3     H228050   5.048   3.524   0.051  0.8848 -0.7384  0.0877
 5411TP3      O28051   3.030   1.993   9.464  0.2294  0.6141  0.2001
 5411TP3     H128052   2.995   1.954   9.544  0.3350  1.2523  0.5637
 5411TP3     H228053   2.954   2.031   9.421  0.3170  1.1731  0.5207
 5412TP3      O28054   0.880   4.786   0.314  0.7003 -0.1500  0.1547
 5412TP3     H128055   0.845   4.860   0.264  3.5780  0.1980 -1.6209
 5412TP3     H228056   0.870   4.812   0.405  0.6804  2.0050 -0.4075
 5413TP3      O28057   3.843   0.973   9.538 -0.1152 -0.3140 -0.2631
 5413TP3     H128058   3.790   0.991   9.460 -0.0473  0.2244 -0.1869
 5413TP3     H228059   3.933   0.987   9.510 -0.1069  0.1385 -0.0219
 5414TP3      O28060   3.249   2.499   2.553 -0.9997  0.0740 -0.1907
 5414TP3     H128061   3.250   2.440   2.477  0.7647  0.0231 -0.1657
 5414TP3     H228062   3.281   2.445   2.625  2.3332  1.3744 -0.5084
 5415TP3      O28063   0.397   3.101   9.654 -0.4263  0.1943  0.1354
 5415TP3     H128064   0.492   3.104   9.666 -0.7157  1.3825  3.0007
 5415TP3     H228065   0.384   3.101   9.559  2.4184 -0.5030 -0.3382
 5416TP3      O28066   3.874   3.276   1.307 -0.7704 -0.5274  0.4603
 5416TP3     H128067   3.806   3.303   1.369 -0.7521 -1.1593  0.7623
 5416TP3     H228068   3.845   3.312   1.223 -0.1965  1.3746  1.0131
 5417TP3      O28069   1.799   3.464   1.598 -0.1341  0.0485 -0.5674
 5417TP3     H128070   1.720   3.515   1.613  0.1370  0.0860  0.9985
 5417TP3     H228071   1.808   3.411   1.678  0.3931 -1.3534 -1.5205
 5418TP3      O28072   4.693   1.751   9.463 -0.6686  0.0257  0.4823
 5418TP3     H128073   4.668   1.691   9.393 -0.5079 -0.5789  0.9299
 5418TP3     H228074   4.610   1.785   9.497 -0.7469  0.3092  0.0152
 5419TP3      O28075   3.572   2.627   0.549 -0.0769  0.0676 -0.0663
 5419TP3     H128076   3.491   2.666   0.516 -1.3940 -2.4017  0.0054
 5419TP3     H228077   3.630   2.623   0.473 -1.1752 -0.9066 -0.8700
 5420TP3      O28078   0.335   4.870   8.844  0.1561  0.1679 -0.2620
 5420TP3     H128079   0.424   4.874   8.810 -0.0255  1.6212 -0.6592
 5420TP3     H228080   0.285   4.926   8.784 -0.5102  1.4626  1.4418
 5421TP3      O28081   0.337   3.966   8.726 -0.6586  0.5067 -0.3714
 5421TP3     H128082   0.361   3.899   8.662  0.4360  1.4029 -0.9373
 5421TP3     H228083   0.284   3.919   8.791  1.3484 -1.2589  0.0977
 5422TP3      O28084   5.226   2.835   0.164  0.8765  0.5092 -0.3457
 5422TP3     H128085   5.275   2.898   0.217 -0.0078 -0.5990  1.9755
 5422TP3     H228086   5.134   2.850   0.188  0.5858 -1.0652 -0.3644
 5423TP3      O28087   3.674   3.760   0.460  0.6730  0.0400 -0.0420
 5423TP3     H128088   3.726   3.758   0.379 -0.5284  0.2985 -0.8533
 5423TP3     H228089   3.729   3.717   0.525  0.5998 -2.7340 -1.6440
 5424TP3      O28090   4.906   2.730   1.239  0.0283  0.0379 -0.5951
 5424TP3     H128091   4.849   2.657   1.264 -1.0790  0.9183 -0.4842
 5424TP3     H228092   4.848   2.792   1.195  1.0407  0.6636 -1.0846
 5425TP3      O28093   3.127   4.102   8.534  0.1955  0.3893  1.0030
 5425TP3     H128094   3.084   4.114   8.619 -1.0343  0.1470  0.4337
 5425TP3     H228095   3.058   4.068   8.477  1.2130 -0.2488  0.1171
 5426TP3      O28096   0.941   4.833   3.051 -0.6984 -0.2578 -0.1900
 5426TP3     H128097   0.937   4.817   3.145  0.1502  0.3223 -0.0332
 5426TP3     H228098   1.005   4.905   3.042 -1.0444 -0.0530 -1.1735
 5427TP3      O28099   4.670   4.147   9.944  0.5072 -0.0818  0.0501
 5427TP3     H128100   4.609   4.116  10.011 -0.0209 -0.3951 -0.5672
 5427TP3     H228101   4.635   4.231   9.916 -0.7770 -1.1498 -1.7060
 5428TP3      O28102   3.815   4.951   9.748  0.0581  0.1574 -0.3674
 5428TP3     H128103   3.847   4.906   9.827  1.8432 -1.6752 -2.0280
 5428TP3     H228104   3.851   5.039   9.755 -0.7394  0.4004  1.3621
 5429TP3      O28105   2.066   1.688   9.348 -0.1737  0.7141 -0.0709
 5429TP3     H128106   2.081   1.740   9.269  3.2948 -1.1117 -0.7755
 5429TP3     H228107   2.145   1.701   9.400 -0.4122 -1.6548  0.9933
 5430TP3      O28108   0.760   3.482   2.178 -0.3732  0.2694  0.2217
 5430TP3     H128109   0.760   3.511   2.087  1.5189  2.1038  0.7094
 5430TP3     H228110   0.823   3.410   2.179 -0.1735  0.4368  0.0972
 5431TP3      O28111   2.646   3.526   7.792  0.5411  0.6462  0.1609
 5431TP3     H128112   2.552   3.547   7.794 -0.5626 -3.3848  1.3281
 5431TP3     H228113   2.681   3.565   7.872 -0.7428  0.1408  0.9963
 5432TP3      O28114   0.043   4.363   0.535 -0.5896 -0.5565  0.2375
 5432TP3     H128115   0.134   4.390   0.527 -0.3018 -2.0356 -3.4691
 5432TP3     H228116   0.039   4.317   0.619  1.3211  1.8644  1.7734
 5433TP3      O28117   5.034   1.961   0.083 -0.4204  0.2562 -0.6681
 5433TP3     H128118   5.075   1.891   0.032 -0.0573  0.6416 -0.9082
 5433TP3     H228119   4.997   1.916   0.159  1.4499  0.0426  0.1591
 5434TP3      O28120   5.251   1.351   1.860 -0.0531  0.2330 -0.1367
 5434TP3     H128121   5.185   1.286   1.881 -1.5576  0.8550 -2.5686
 5434TP3     H228122   5.244   1.417   1.930 -0.9702 -0.4323  0.4052
 5435TP3      O28123   2.245   4.285   7.827  0.3086 -0.7995  0.2675
 5435TP3     H128124   2.218   4.275   7.735 -0.2396  0.0846  0.3217
 5435TP3     H228125   2.163   4.298   7.875  0.6918  0.2740  0.6655
 5436TP3      O28126   1.086   4.230   9.669  0.1896  0.5054 -0.1695
 5436TP3     H128127   1.170   4.184   9.667 -1.4293 -2.7822  0.4978
 5436TP3     H228128   1.101   4.304   9.727  1.8921 -1.8700  2.7485
 5437TP3      O28129   4.139   3.492   1.704 -0.4213 -0.1840  0.2098
 5437TP3     H128130   4.071   3.476   1.769  0.6617  1.4908  1.8639
 5437TP3     H228131   4.221   3.464   1.746  0.3774  1.4751 -0.1203
 5438TP3      O28132   4.690   2.246   2.511  0.6449  0.5594  0.7193
 5438TP3     H128133   4.634   2.308   2.465  0.6565  0.6800  0.8657
 5438TP3     H228134   4.778   2.283   2.500  0.5573  1.0204  1.5212
 5439TP3      O28135   1.992   3.035   9.019 -0.9044 -0.8426  0.1346
 5439TP3     H128136   2.006   2.967   8.953 -0.4277  0.4054 -1.1153
 5439TP3     H228137   2.079   3.069   9.037 -1.2284  0.1054 -0.0224
 5440TP3      O28138   1.878   1.928   1.997  0.6624  0.7617  0.2277
 5440TP3     H128139   1.879   2.024   1.996  2.0000  0.7736  0.6081
 5440TP3     H228140   1.883   1.903   1.904 -2.5322  0.9901 -0.1320
 5441TP3      O28141   2.789   2.338   9.244 -0.0037  0.4072  0.2630
 5441TP3     H128142   2.824   2.251   9.258 -0.7363  0.2633  1.2995
 5441TP3     H228143   2.866   2.395   9.236  0.4703 -0.2777 -0.1601
 5442TP3      O28144   0.505   3.806   2.343 -0.0381  0.1267  0.0301
 5442TP3     H128145   0.599   3.792   2.333 -0.0814 -0.5569  0.5064
 5442TP3     H228146   0.497   3.864   2.419 -0.0132 -0.0829  0.1936
 5443TP3      O28147   4.153   1.728   9.398  0.2680 -0.2874  0.0885
 5443TP3     H128148   4.212   1.790   9.356 -1.0609 -0.0673 -1.5554
 5443TP3     H228149   4.202   1.646   9.401  0.5068 -0.2444 -1.7066
 5444TP3      O28150   0.619   2.148   1.323 -0.0201 -0.4827 -0.1194
 5444TP3     H128151   0.638   2.057   1.301 -0.6566 -0.4571 -0.7667
 5444TP3     H228152   0.698   2.178   1.369 -0.3085 -1.7392  1.2636
 5445TP3      O28153   1.215   3.994   2.594 -0.9519 -0.1814 -0.0834
 5445TP3     H128154   1.245   3.995   2.685 -0.7913  0.7793 -0.1318
 5445TP3     H228155   1.233   4.083   2.562 -1.6898 -0.2875 -0.8285
 5446TP3      O28156   4.126   3.458   8.237 -0.2498 -0.0880  0.0927
 5446TP3     H128157   4.070   3.399   8.288 -1.2688 -1.0872 -2.0882
 5446TP3     H228158   4.209   3.459   8.285 -1.5329  0.0303  2.4468
 5447TP3      O28159   3.955   1.181   2.521  0.1842 -0.0440  0.0744
 5447TP3     H128160   3.981   1.193   2.613 -1.2827  0.7940  0.4258
 5447TP3     H228161   3.865   1.149   2.526  0.6849 -1.7670 -1.0841
 5448TP3      O28162   3.216   4.145  10.044 -0.2790  0.3333  0.2372
 5448TP3     H128163   3.229   4.052  10.066 -1.3230  0.0587 -0.2794
 5448TP3     H228164   3.274   4.160   9.970 -1.5540 -0.4325 -0.9448
 5449TP3      O28165   1.116   0.069   1.719 -0.0537  0.1838  0.2170
 5449TP3     H128166   1.054   0.026   1.660 -0.1550  2.7923 -1.7726
 5449TP3     H228167   1.060   0.112   1.784 -0.1117 -0.2711  0.4726
 5450TP3      O28168   2.251   5.285   3.221 -0.1795 -0.6290  0.1425
 5450TP3     H128169   2.223   5.252   3.306 -0.6305 -0.7856 -0.0662
 5450TP3     H228170   2.319   5.349   3.241 -1.7433  0.9158  0.7404
 5451TP3      O28171   2.305   0.368   0.524 -0.1198  0.0684  0.1858
 5451TP3     H128172   2.291   0.343   0.615  0.3818 -0.3422  0.1508
 5451TP3     H228173   2.230   0.332   0.477 -1.3377  1.7881  0.6863
 5452TP3      O28174   3.906   3.480   2.962  0.6434  0.1319 -0.4875
 5452TP3     H128175   3.837   3.501   3.025 -1.9038 -2.3889 -2.1635
 5452TP3     H228176   3.928   3.388   2.980  1.4015  0.0042 -1.9008
 5453TP3      O28177   3.286   1.228   1.370 -0.1077 -1.1221  0.0931
 5453TP3     H128178   3.255   1.266   1.287 -1.7353 -0.9050  0.7471
 5453TP3     H228179   3.308   1.138   1.348 -0.2964 -1.0016 -0.6338
 5454TP3      O28180   1.384   0.069   1.352  0.8038 -0.2383  0.7115
 5454TP3     H128181   1.297   0.050   1.385  0.5759  1.0337  0.9041
 5454TP3     H228182   1.394   0.164   1.364  2.3948 -0.4298  1.1715
 5455TP3      O28183   4.973   3.864   2.282  0.3506  0.1525  0.5820
 5455TP3     H128184   5.035   3.792   2.275 -0.8107 -0.8850  0.6055
 5455TP3     H228185   4.959   3.893   2.192  0.4139 -0.0190  0.5163
 5456TP3      O28186   4.211   2.074   9.524 -0.0299 -0.3115 -0.4397
 5456TP3     H128187   4.191   2.144   9.462 -1.1935  0.5534  0.8549
 5456TP3     H228188   4.156   2.001   9.497 -0.7112  0.1408 -0.2908
 5457TP3      O28189   1.288   2.596   9.682 -0.0407  0.5504  0.0016
 5457TP3     H128190   1.372   2.552   9.697 -0.8552 -1.5638 -1.2926
 5457TP3     H228191   1.302   2.646   9.601 -0.2929 -0.5731 -0.7491
 5458TP3      O28192   0.098   5.154   1.665  0.2838 -0.2926  0.4575
 5458TP3     H128193   0.015   5.115   1.692  0.4809 -0.6487  0.5727
 5458TP3     H228194   0.097   5.242   1.703 -1.0716  0.6231 -1.5365
 5459TP3      O28195   4.851   4.039   9.464  0.4677 -0.1744  0.3355
 5459TP3     H128196   4.903   3.989   9.401 -1.4784  0.3651 -1.8077
 5459TP3     H228197   4.797   3.974   9.508  0.3386 -0.3297 -0.0498
 5460TP3      O28198   1.557   2.192   0.605 -0.3257  0.1644 -0.6203
 5460TP3     H128199   1.612   2.259   0.646 -0.7823  0.8782 -1.1297
 5460TP3     H228200   1.575   2.200   0.512 -0.5724 -0.2510 -0.7056
 5461TP3      O28201   0.235   0.024   3.213  1.0052  0.1376 -0.2533
 5461TP3     H128202   0.263   0.113   3.195  0.1128  0.2939 -0.9565
 5461TP3     H228203   0.140   0.026   3.200  0.0127  0.3757  4.9698
 5462TP3      O28204   1.138   4.072   7.513  0.1998  0.2677 -0.4809
 5462TP3     H128205   1.205   4.031   7.459  0.4601 -0.4879  0.3878
 5462TP3     H228206   1.111   4.003   7.574 -0.0900  1.0792  0.3326
 5463TP3      O28207   4.559   3.737   0.663 -0.0003  0.1702 -0.3098
 5463TP3     H128208   4.612   3.802   0.709 -0.9523  0.2550  0.7399
 5463TP3     H228209   4.474   3.779   0.651 -0.9798 -1.1580  1.3105
 5464TP3      O28210   1.210   3.326   8.337  0.1169  0.2424 -0.2405
 5464TP3     H128211   1.237   3.237   8.314 -1.8732 -0.0631 -1.6239
 5464TP3     H228212   1.122   3.316   8.374  0.0439  1.5884  0.0123
 5465TP3      O28213   0.671   2.737   1.993  0.3237 -0.4523 -0.7385
 5465TP3     H128214   0.612   2.786   1.936  0.2000 -1.8310 -1.8680
 5465TP3     H228215   0.685   2.654   1.947  0.4362 -1.5234  1.1350
 5466TP3      O28216   3.613   1.155   0.289  0.1770  0.3372 -0.0848
 5466TP3     H128217   3.673   1.170   0.362 -1.2464  0.4388  1.1085
 5466TP3     H228218   3.670   1.142   0.213  1.6994  0.1358  1.0546
 5467TP3      O28219   0.608   0.368   7.827  0.6926  0.0460  0.6803
 5467TP3     H128220   0.670   0.295   7.833  0.0391 -0.5042  0.8236
 5467TP3     H228221   0.598   0.399   7.917 -0.3561 -0.8230  0.8841
 5468TP3      O28222   4.733   4.529   0.162  0.4089 -0.0536 -0.1381
 5468TP3     H128223   4.805   4.483   0.119 -1.0771 -1.5491 -1.0989
 5468TP3     H228224   4.676   4.556   0.091 -0.7445 -0.2051  0.7056
 5469TP3      O28225   0.571   2.545   2.775 -0.5325  0.0472 -0.1201
 5469TP3     H128226   0.578   2.531   2.681 -0.6563  1.2917 -0.3378
 5469TP3     H228227   0.657   2.523   2.809  0.0560  1.1941 -0.7798
 5470TP3      O28228   2.318   3.483   0.246 -0.0859  0.4104 -0.5169
 5470TP3     H128229   2.272   3.402   0.226 -0.0321  0.8735 -2.8064
 5470TP3     H228230   2.261   3.529   0.308 -0.7020 -0.8108 -0.1520
 5471TP3      O28231   3.881   1.597   0.204  0.0748  0.1513 -0.5514
 5471TP3     H128232   3.933   1.549   0.139  1.4842 -0.2938  0.8211
 5471TP3     H228233   3.946   1.640   0.260 -1.0384 -0.0108  0.9451
 5472TP3      O28234   4.153   4.840   0.186 -0.3022 -0.1633  0.9702
 5472TP3     H128235   4.134   4.814   0.277 -3.4715  0.4741  0.6084
 5472TP3     H228236   4.080   4.896   0.162  0.8303  0.2639 -1.7923
 5473TP3      O28237   3.771   3.660   9.009 -0.3086 -0.1475  0.2391
 5473TP3     H128238   3.715   3.685   8.936  0.5059 -2.1973 -1.2003
 5473TP3     H228239   3.859   3.687   8.983 -0.1649  0.1775  1.0250
 5474TP3      O28240   2.851   1.678   7.533 -0.0139 -0.1661 -1.0464
 5474TP3     H128241   2.792   1.614   7.495 -0.8737 -0.0434  0.0237
 5474TP3     H228242   2.899   1.630   7.600  1.1770 -0.2780 -1.9427
 5475TP3      O28243   4.558   0.972   9.980  0.3098 -0.7049 -0.0142
 5475TP3     H128244   4.472   0.969  10.022  1.0684 -1.0726  1.6204
 5475TP3     H228245   4.543   0.940   9.891 -0.6993 -4.3207  1.2699
 5476TP3      O28246   5.206   0.173   0.484  0.1262 -0.1469 -0.4156
 5476TP3     H128247   5.239   0.191   0.573  0.5576 -0.3205 -0.5383
 5476TP3     H228248   5.112   0.190   0.490  0.1587 -0.1088  0.0642
 5477TP3      O28249   4.618   1.269   0.804 -0.3032  0.7587  0.5797
 5477TP3     H128250   4.544   1.260   0.744  0.6193 -0.1648 -0.4716
 5477TP3     H228251   4.658   1.353   0.781 -0.6438  0.9596  0.7150
 5478TP3      O28252   0.171   2.786   8.018  0.1470 -0.1352 -0.0077
 5478TP3     H128253   0.079   2.809   8.008 -0.4252 -1.5939  1.5169
 5478TP3     H228254   0.174   2.692   8.004  0.9468 -0.5432  2.4550
 5479TP3      O28255   1.997   0.002   0.704 -0.2158  0.0058 -0.2781
 5479TP3     H128256   2.042  -0.074   0.741  0.4380  1.1438  1.4319
 5479TP3     H228257   1.917   0.010   0.756  0.7876  1.7150  1.1625
 5480TP3      O28258   4.262   0.729   1.337  0.2537 -0.0105  0.2566
 5480TP3     H128259   4.220   0.656   1.383  3.1182  0.0279  3.4356
 5480TP3     H228260   4.347   0.694   1.311 -0.4309  0.6855 -3.3562
 5481TP3      O28261   0.638   4.885   1.936  0.4919 -0.0947 -0.1700
 5481TP3     H128262   0.668   4.969   1.971  0.9922 -0.6017  0.6652
 5481TP3     H228263   0.625   4.900   1.843  0.8310  0.8350 -0.0723
 5482TP3      O28264   4.994   1.680   7.986  0.0676 -0.7848  0.7335
 5482TP3     H128265   5.003   1.774   7.996 -1.8752 -0.7046  2.2489
 5482TP3     H228266   4.947   1.669   7.903 -0.2004 -0.4048  0.8346
 5483TP3      O28267   4.431   0.845   9.152  0.0027  0.2015  0.5333
 5483TP3     H128268   4.361   0.780   9.141 -0.9881  1.6372 -3.1401
 5483TP3     H228269   4.511   0.799   9.128 -0.2368 -0.4524  0.9720
 5484TP3      O28270   4.808   1.322   1.592  0.4640  0.0151 -0.4735
 5484TP3     H128271   4.828   1.341   1.684  0.7546 -0.0960 -0.5115
 5484TP3     H228272   4.779   1.406   1.556 -0.0575 -0.0338 -0.1766
 5485TP3      O28273   1.446   0.689   1.714  0.1766  0.1084 -0.5971
 5485TP3     H128274   1.462   0.679   1.807 -1.9199  0.4167 -0.1718
 5485TP3     H228275   1.358   0.654   1.700  0.5806 -0.2429 -2.5182
 5486TP3      O28276   3.962   1.656   9.108  0.1102 -0.0966  0.6636
 5486TP3     H128277   3.973   1.675   9.015  1.5427  0.4950  0.9307
 5486TP3     H228278   4.013   1.576   9.121 -0.4006 -0.3911  0.8758
 5487TP3      O28279   1.176   1.211   2.787 -0.2543 -0.4036  0.7625
 5487TP3     H128280   1.143   1.269   2.857  0.0607 -1.1527  1.5528
 5487TP3     H228281   1.228   1.146   2.834  2.4577  0.7643 -0.4198
 5488TP3      O28282   4.802   4.057   2.347 -0.4022  0.0704  0.0679
 5488TP3     H128283   4.845   3.978   2.315 -1.5097 -0.2242 -0.7166
 5488TP3     H228284   4.872   4.123   2.346  0.4074 -0.7558  0.2529
 5489TP3      O28285   4.476   4.287   2.054 -0.5264  0.6345  0.1057
 5489TP3     H128286   4.569   4.265   2.063 -1.2188 -2.9022 -0.0750
 5489TP3     H228287   4.442   4.284   2.144 -0.9219 -0.8316 -0.0600
 5490TP3      O28288   4.322   2.896   7.530 -0.0152  0.4161 -0.0034
 5490TP3     H128289   4.329   2.992   7.524  0.0859  0.3728 -0.6942
 5490TP3     H228290   4.360   2.865   7.448 -0.6585 -0.1896 -0.0717
 5491TP3      O28291   1.527   1.163   0.303 -0.3779  0.3863  0.2355
 5491TP3     H128292   1.496   1.162   0.394  0.8916  2.2938  0.7471
 5491TP3     H228293   1.456   1.123   0.254 -1.3112 -0.2586  2.0010
 5492TP3      O28294   1.478   4.510   1.003  0.3943 -0.5838 -0.0904
 5492TP3     H128295   1.459   4.603   0.988  1.5179 -0.1109  1.1675
 5492TP3     H228296   1.410   4.463   0.955  0.0181  0.8862 -1.0412
 5493TP3      O28297   0.482   0.874   3.117 -0.5369  0.0611 -0.2030
 5493TP3     H128298   0.489   0.907   3.206  2.8162 -1.8271  0.3930
 5493TP3     H228299   0.573   0.871   3.085 -1.5367 -0.1573 -3.3781
 5494TP3      O28300   1.632   0.566   2.272  0.1773 -0.3290  0.3548
 5494TP3     H128301   1.598   0.644   2.314 -2.8904 -2.0814  1.4712
 5494TP3     H228302   1.711   0.544   2.322 -0.2445  0.7420  1.5429
 5495TP3      O28303   4.455   4.367   0.586 -0.3937 -0.4721  0.0021
 5495TP3     H128304   4.455   4.373   0.682 -0.6737  0.6871 -0.0555
 5495TP3     H228305   4.363   4.353   0.563 -0.6657  1.3449 -0.1774
 5496TP3      O28306   1.976   0.723   8.494  0.6383  0.0157 -0.0093
 5496TP3     H128307   1.982   0.706   8.400  0.8817  1.0753 -0.2085
 5496TP3     H228308   2.034   0.659   8.534  0.9469 -0.1031 -0.6333
 5497TP3      O28309   0.146   3.001   9.275 -0.4849  0.3087 -0.4545
 5497TP3     H128310   0.100   2.946   9.212  0.5288  0.8294 -1.6820
 5497TP3     H228311   0.088   3.076   9.287 -0.9130 -0.0292 -0.3683
 5498TP3      O28312   0.525   2.534   2.470  0.4251 -0.0882  0.1956
 5498TP3     H128313   0.559   2.447   2.447  1.1773  0.4987 -1.0115
 5498TP3     H228314   0.563   2.593   2.405 -0.9270  0.9936  0.3218
 5499TP3      O28315   4.571   5.049   0.438 -0.5376  0.2570 -0.4934
 5499TP3     H128316   4.524   5.044   0.521 -0.3042  1.9099 -0.2294
 5499TP3     H228317   4.653   5.094   0.460  0.5281 -1.2483 -1.2228
 5500TP3      O28318   3.691   2.279   2.903  0.3193 -0.5663 -0.0352
 5500TP3     H128319   3.656   2.319   2.983 -1.6718 -4.4471  1.2910
 5500TP3     H228320   3.777   2.247   2.928  0.3741 -0.3437  0.0637
 5501TP3      O28321   4.283   0.087   3.519  0.2449  0.1257  0.0359
 5501TP3     H128322   4.277   0.182   3.524 -0.4540  0.0665  0.4257
 5501TP3     H228323   4.202   0.055   3.559 -0.3711 -0.6062 -1.6808
 5502TP3      O28324   0.933   5.289   0.564  0.1504  0.0204  0.5493
 5502TP3     H128325   0.989   5.224   0.521 -3.2680 -1.6563 -1.9479
 5502TP3     H228326   0.932   5.364   0.505 -1.5240 -0.7108 -0.4271
 5503TP3      O28327   1.382   1.042   9.027 -0.0419  0.1952 -0.8492
 5503TP3     H128328   1.448   1.083   8.971  0.9463  0.1921  0.2751
 5503TP3     H228329   1.429   1.019   9.107 -1.3446 -0.0925 -0.1354
 5504TP3      O28330   4.269   1.992   2.881 -0.0803 -0.5672 -0.2409
 5504TP3     H128331   4.282   2.083   2.856  0.1738 -0.2784  0.8984
 5504TP3     H228332   4.261   1.994   2.977  2.4573 -1.9839  0.0958
 5505TP3      O28333   0.293   4.643   9.010  0.9778  0.2374  0.2460
 5505TP3     H128334   0.318   4.732   8.986 -1.2823  0.9789  0.4181
 5505TP3     H228335   0.338   4.587   8.946  1.6641  1.5495 -0.4631
 5506TP3      O28336   2.666   2.560   9.157  0.0340 -0.3865  0.2700
 5506TP3     H128337   2.756   2.590   9.172  0.6787 -1.7086 -0.7283
 5506TP3     H228338   2.673   2.465   9.153 -1.4771 -0.5217  0.5066
 5507TP3      O28339   1.841   3.691   2.628  0.2752  0.0331  0.0858
 5507TP3     H128340   1.907   3.752   2.595  0.4103 -0.0298  0.2358
 5507TP3     H228341   1.872   3.667   2.716  0.4308 -0.5494 -0.1205
 5508TP3      O28342   3.379   4.578   9.457  0.0195 -0.0448 -0.0159
 5508TP3     H128343   3.345   4.493   9.484 -0.2095 -0.0076 -0.1896
 5508TP3     H228344   3.323   4.642   9.502 -1.2894  0.0364 -1.6885
 5509TP3      O28345   4.904   0.753   2.345  0.1380 -0.2355  0.1792
 5509TP3     H128346   4.992   0.791   2.348  0.4245 -0.8888  0.1196
 5509TP3     H228347   4.906   0.694   2.270 -0.3455 -0.2582  0.1852
 5510TP3      O28348   1.641   0.453   8.801 -0.1368 -0.4000 -0.2114
 5510TP3     H128349   1.603   0.493   8.880 -2.9154 -1.2219 -1.0152
 5510TP3     H228350   1.642   0.359   8.821  1.8526 -0.3941 -0.1299
 5511TP3      O28351   3.202   2.276  10.015  0.0012 -0.2804 -0.0299
 5511TP3     H128352   3.181   2.228  10.095  0.3177  0.6485  0.6250
 5511TP3     H228353   3.205   2.367  10.042  1.4749 -0.0675 -0.8129
 5512TP3      O28354   3.995   4.912   0.783  0.1601 -0.7679  0.5631
 5512TP3     H128355   3.927   4.939   0.845  0.7356  1.3437  0.3486
 5512TP3     H228356   3.946   4.884   0.705 -0.4969 -0.2638  0.7833
 5513TP3      O28357   4.235   4.149   2.502  0.1259  0.0479 -0.1774
 5513TP3     H128358   4.253   4.137   2.595 -1.1717 -0.9084 -0.0198
 5513TP3     H228359   4.149   4.109   2.489 -0.0617  0.8435 -1.6380
 5514TP3      O28360   4.361   2.269   2.474 -0.8564  0.0643  0.3992
 5514TP3     H128361   4.403   2.283   2.389  0.0999 -0.9959  0.6808
 5514TP3     H228362   4.312   2.188   2.463 -0.6347 -0.1379  0.8975
 5515TP3      O28363   1.491   0.919   1.534 -0.2629  0.5782 -0.1738
 5515TP3     H128364   1.446   0.881   1.610 -0.2922  1.2782  0.1662
 5515TP3     H228365   1.425   0.918   1.465 -0.5919  0.9737  0.1314
 5516TP3      O28366   0.272   4.262   1.699  0.2762 -0.6318 -0.5328
 5516TP3     H128367   0.189   4.288   1.661 -0.9001 -1.0987  1.5334
 5516TP3     H228368   0.250   4.189   1.757  2.5202 -2.2899 -1.6382
 5517TP3      O28369   3.302   3.875   1.495  0.6633 -0.3663  0.2732
 5517TP3     H128370   3.339   3.813   1.558  2.2239 -0.7086 -0.9281
 5517TP3     H228371   3.378   3.920   1.459 -0.4284  2.6414  1.4149
 5518TP3      O28372   3.191   5.085   0.689  0.1288 -0.2025  0.3153
 5518TP3     H128373   3.274   5.131   0.695  0.3828 -0.8128  2.4728
 5518TP3     H228374   3.135   5.142   0.638  0.9826  1.6552  1.3736
 5519TP3      O28375   5.194   3.019   9.611 -0.5277  0.4279  0.3675
 5519TP3     H128376   5.163   2.974   9.532 -1.9915 -0.7645  1.5493
 5519TP3     H228377   5.289   3.008   9.609 -0.5285  0.3877 -1.1827
 5520TP3      O28378   0.742   0.845   3.023 -0.4772  0.4076  0.1607
 5520TP3     H128379   0.825   0.887   2.998  0.3003 -2.2317 -2.2072
 5520TP3     H228380   0.764   0.798   3.103  0.1206  0.3582 -0.0201
 5521TP3      O28381   4.916   0.418   1.213 -0.4993 -0.4201 -0.0590
 5521TP3     H128382   4.863   0.482   1.164  0.5807  1.8351  1.5159
 5521TP3     H228383   4.999   0.414   1.166 -0.0394  0.5209  0.6346
 5522TP3      O28384   3.620   4.067   8.018 -0.0567  0.8691  0.0824
 5522TP3     H128385   3.593   3.976   8.033  0.7798  0.1838 -2.1500
 5522TP3     H228386   3.680   4.087   8.091  0.7315 -0.8225 -0.0529
 5523TP3      O28387   0.956   1.978   2.612 -0.0917  0.4545 -0.0560
 5523TP3     H128388   1.026   2.031   2.575 -0.0822  0.9257  0.6315
 5523TP3     H228389   0.986   1.956   2.700 -0.5687  0.2108  0.0496
 5524TP3      O28390   3.938   2.265   1.334 -0.4049  0.2137  0.0023
 5524TP3     H128391   3.948   2.357   1.358 -0.7517  0.2346  0.0776
 5524TP3     H228392   3.921   2.221   1.418 -0.3739  0.1028 -0.0498
 5525TP3      O28393   2.799   1.070   3.210 -0.3814  0.1833  0.2207
 5525TP3     H128394   2.731   1.118   3.257 -1.5147  1.0741 -2.1432
 5525TP3     H228395   2.870   1.133   3.200  1.3598 -1.0380  3.5347
 5526TP3      O28396   3.202   1.747   0.394 -0.1595  0.3889  0.6544
 5526TP3     H128397   3.231   1.834   0.368 -0.4040  0.1264 -0.5345
 5526TP3     H228398   3.278   1.709   0.439 -0.4759  1.6727  2.3836
 5527TP3      O28399   4.708   1.901   8.640 -0.4218  0.7589 -0.3126
 5527TP3     H128400   4.755   1.842   8.583 -0.9695  0.4752 -0.4800
 5527TP3     H228401   4.760   1.905   8.720 -0.3516  0.1007 -0.3256
 5528TP3      O28402   0.612   0.905   1.631  0.1463  0.2156  0.2733
 5528TP3     H128403   0.579   0.937   1.715  0.4887 -1.1951  0.9834
 5528TP3     H228404   0.534   0.881   1.582 -0.1277  2.1191 -0.3187
 5529TP3      O28405   2.317   1.238   8.886 -0.0315  0.5406  0.1256
 5529TP3     H128406   2.259   1.166   8.861 -1.2620  1.1606  1.1238
 5529TP3     H228407   2.363   1.205   8.964  0.1426  0.4776 -0.0015
 5530TP3      O28408   2.564   2.431   1.692  0.0117  0.1254 -0.2307
 5530TP3     H128409   2.611   2.501   1.739  2.1922 -0.4804 -1.3923
 5530TP3     H228410   2.529   2.376   1.762  1.3706  0.4001  0.7233
 5531TP3      O28411   1.996   0.443   2.997  0.4271 -0.3879 -0.5103
 5531TP3     H128412   2.059   0.487   3.053  0.9332 -0.0239 -1.3476
 5531TP3     H228413   2.044   0.367   2.963  0.0911 -0.6650 -0.3654
 5532TP3      O28414   2.953   0.640   1.450 -0.2028 -0.3268 -0.8374
 5532TP3     H128415   2.936   0.567   1.510  0.4893 -0.3779 -0.6913
 5532TP3     H228416   2.950   0.601   1.363  1.2663 -0.7737 -0.7131
 5533TP3      O28417   2.571   4.717   1.076 -0.4812 -0.3354 -0.3873
 5533TP3     H128418   2.488   4.762   1.090 -0.0976  0.2128  0.2265
 5533TP3     H228419   2.601   4.695   1.165 -0.0060 -0.5769 -0.6066
 5534TP3      O28420   2.404   2.238   1.516 -0.0126 -0.1829  0.0740
 5534TP3     H128421   2.475   2.179   1.491 -0.1829 -0.9552  1.3060
 5534TP3     H228422   2.408   2.241   1.612 -0.4661  1.2605  0.0725
 5535TP3      O28423   4.394   2.466   0.900 -0.6870  0.2119  0.3190
 5535TP3     H128424   4.465   2.423   0.853 -1.6134  0.4062 -1.3270
 5535TP3     H228425   4.329   2.397   0.914 -1.9977  0.8791 -1.9697
 5536TP3      O28426   2.582   5.157   2.795  0.1358  1.0248  0.3191
 5536TP3     H128427   2.593   5.125   2.706  1.8722  2.1503  0.0923
 5536TP3     H228428   2.500   5.117   2.825  0.3010 -0.5779 -1.2337
 5537TP3      O28429   0.654   4.628   0.452 -0.1194 -0.3637  0.0123
 5537TP3     H128430   0.632   4.556   0.512  0.7524 -1.0474 -0.4502
 5537TP3     H228431   0.651   4.588   0.365 -1.2196  0.5794 -0.4022
 5538TP3      O28432   0.156   4.516   8.121 -0.4484 -0.1128 -0.0410
 5538TP3     H128433   0.205   4.433   8.124 -0.5613 -0.1918 -0.3405
 5538TP3     H228434   0.182   4.555   8.038  0.0586  0.4358  0.3669
 5539TP3      O28435   3.020   0.451   0.717  0.4395 -0.1869  0.2995
 5539TP3     H128436   3.071   0.479   0.793  0.8124 -0.4790  0.1621
 5539TP3     H228437   2.966   0.379   0.748  1.0600 -0.7301  0.1412
 5540TP3      O28438   1.330   1.193   7.825  0.0425  0.0578 -0.3944
 5540TP3     H128439   1.298   1.283   7.823 -2.5630 -0.7732 -0.1033
 5540TP3     H228440   1.385   1.189   7.903 -1.1303  1.0242  0.5282
 5541TP3      O28441   4.466   3.838   9.284 -0.3223  0.0608  0.6501
 5541TP3     H128442   4.503   3.926   9.282 -0.9751  0.3663  1.4000
 5541TP3     H228443   4.371   3.852   9.285 -0.4269 -0.6443  0.9862
 5542TP3      O28444   4.575   2.380   1.633 -0.3069 -0.1763  0.0173
 5542TP3     H128445   4.568   2.475   1.637  1.1784 -0.0400 -0.0874
 5542TP3     H228446   4.558   2.359   1.541 -0.7443 -0.0187  0.0634
 5543TP3      O28447   0.170   2.875   9.911 -0.3786  1.3894 -0.0471
 5543TP3     H128448   0.227   2.839   9.978 -0.1861  1.8208  0.0223
 5543TP3     H228449   0.103   2.807   9.898  0.3717  0.7163 -0.4202
 5544TP3      O28450   3.898   2.189   3.574  0.2857 -0.2397 -0.4401
 5544TP3     H128451   3.934   2.231   3.496  2.2574  3.0120  1.9415
 5544TP3     H228452   3.841   2.255   3.613 -0.1514 -1.5000  1.1700
 5545TP3      O28453   0.360   4.118   7.596  0.3498 -0.1343 -0.3380
 5545TP3     H128454   0.271   4.097   7.626 -0.3872  1.2802 -1.3901
 5545TP3     H228455   0.371   4.063   7.518  0.7050 -0.8543  0.2081
 5546TP3      O28456   4.285   1.775   0.572 -0.3148 -0.6440 -0.2145
 5546TP3     H128457   4.249   1.693   0.538 -2.0072  0.8641 -2.2988
 5546TP3     H228458   4.375   1.776   0.539 -0.6272 -1.1611 -1.1285
 5547TP3      O28459   4.818   3.425   2.352  0.2377 -0.3537  0.9537
 5547TP3     H128460   4.757   3.447   2.282 -0.9390 -1.2223  1.6849
 5547TP3     H228461   4.860   3.508   2.373  0.9962 -0.1442 -1.0917
 5548TP3      O28462   4.510   0.901   7.689  0.0174 -0.0933 -0.5525
 5548TP3     H128463   4.493   0.832   7.625  0.9322  1.9199 -3.1309
 5548TP3     H228464   4.425   0.943   7.704 -0.2116 -0.6180 -0.3579
 5549TP3      O28465   4.707   2.548   1.213  0.0257 -0.3662  0.6109
 5549TP3     H128466   4.629   2.494   1.224 -0.8458  0.7245  0.0323
 5549TP3     H228467   4.750   2.512   1.136  0.0200 -0.8932  0.8515
 5550TP3      O28468   0.331   4.994   1.667 -0.2363 -0.3028 -0.3395
 5550TP3     H128469   0.344   4.989   1.572 -2.2958 -2.4117 -0.6094
 5550TP3     H228470   0.239   5.017   1.678  0.0087  0.0928  1.1721
 5551TP3      O28471   2.303   5.018   1.565  0.4023  0.3822  0.4115
 5551TP3     H128472   2.229   5.020   1.626  0.5990  0.8062  0.6381
 5551TP3     H228473   2.370   4.968   1.611  0.2441 -0.0402  0.1879
 5552TP3      O28474   0.454   0.652   2.714 -0.2661 -0.0824  0.1772
 5552TP3     H128475   0.393   0.600   2.765  0.8186 -0.0334  1.6030
 5552TP3     H228476   0.405   0.678   2.636 -1.3556 -1.7851  0.2582
 5553TP3      O28477   0.721   5.250   1.132  0.5616 -0.3738 -0.4873
 5553TP3     H128478   0.717   5.280   1.223  1.7413 -0.5420 -0.3616
 5553TP3     H228479   0.806   5.207   1.125  0.1857 -0.9925 -1.4903
 5554TP3      O28480   2.053   2.845   2.331 -0.3749  0.5654 -0.7705
 5554TP3     H128481   1.984   2.813   2.388 -0.8897  1.0232 -1.1301
 5554TP3     H228482   2.097   2.766   2.300 -0.4146  0.2947 -0.1483
 5555TP3      O28483   3.837   0.464   2.186 -0.4231 -0.6587  0.6934
 5555TP3     H128484   3.826   0.398   2.254  0.9470  0.4752  2.1011
 5555TP3     H228485   3.834   0.547   2.233  0.4326  0.1584 -0.6497
 5556TP3      O28486   2.821   1.502   8.593 -0.6450 -0.5230  0.2319
 5556TP3     H128487   2.789   1.417   8.624 -4.0137  1.4642  2.8317
 5556TP3     H228488   2.853   1.546   8.672  0.2005  0.9993 -0.8989
 5557TP3      O28489   3.772   2.369   2.305 -0.0417  0.9228 -0.2703
 5557TP3     H128490   3.809   2.300   2.360 -0.1005  0.7009 -0.5040
 5557TP3     H228491   3.678   2.347   2.301 -0.0030  0.8194 -0.6266
 5558TP3      O28492   5.092   1.120   1.798  0.2317  0.3420 -0.2264
 5558TP3     H128493   5.074   1.074   1.716 -2.4601  0.6899  0.0732
 5558TP3     H228494   5.165   1.073   1.836  0.1504 -1.1853 -1.8158
 5559TP3      O28495   3.795   3.273   3.181  0.4999 -0.1006 -0.4814
 5559TP3     H128496   3.836   3.335   3.241 -0.1729  0.8039 -0.9303
 5559TP3     H228497   3.740   3.218   3.237 -1.5253  1.8645 -0.3927
 5560TP3      O28498   2.553   4.607   1.539 -0.2439 -0.5419 -0.1073
 5560TP3     H128499   2.506   4.527   1.515 -0.2744 -1.1840  1.9630
 5560TP3     H228500   2.636   4.577   1.575 -0.7354  0.2319  1.8173
 5561TP3      O28501   4.109   4.063   1.116  0.1286  0.4341 -0.0070
 5561TP3     H128502   4.151   4.011   1.184 -0.3017 -0.4488 -0.4012
 5561TP3     H228503   4.038   4.008   1.084  0.5559  0.6738 -1.4472
 5562TP3      O28504   3.986   4.194   0.758  0.8623 -0.5197 -0.2273
 5562TP3     H128505   3.981   4.269   0.816 -0.5457  0.5187 -1.5951
 5562TP3     H228506   3.907   4.143   0.777  1.1133 -0.9280 -0.2527
 5563TP3      O28507   4.579   1.188   2.300 -0.5160 -0.0924 -0.4091
 5563TP3     H128508   4.595   1.094   2.297  2.3229  0.2245  0.9628
 5563TP3     H228509   4.548   1.204   2.389 -0.1017  0.3443 -0.3383
 5564TP3      O28510   3.072   1.015   1.762  0.0467  0.0696 -0.7374
 5564TP3     H128511   3.118   1.092   1.799 -0.5478 -0.3040  0.8680
 5564TP3     H228512   2.990   1.011   1.810 -0.1448 -1.3070 -1.1391
 5565TP3      O28513   2.367   3.897   9.784 -0.1611  0.0126 -0.9655
 5565TP3     H128514   2.447   3.883   9.733  1.6222  0.2068  1.5891
 5565TP3     H228515   2.383   3.979   9.831 -0.0500 -1.8843  2.6171
 5566TP3      O28516   3.068   1.327   2.810  0.0606 -0.4746  0.5533
 5566TP3     H128517   3.148   1.353   2.856  0.8001  0.8477 -1.3919
 5566TP3     H228518   3.001   1.384   2.845  0.6086  0.4977  0.0504
 5567TP3      O28519   4.132   4.776   0.468 -0.2571 -0.2780  0.3893
 5567TP3     H128520   4.162   4.860   0.504 -0.7747 -0.0781  0.3715
 5567TP3     H228521   4.038   4.773   0.489 -0.3851 -0.5505 -0.1824
 5568TP3      O28522   0.194   1.280   8.528 -0.3051 -0.2371 -0.6385
 5568TP3     H128523   0.288   1.264   8.520 -0.3196 -0.6530 -0.0955
 5568TP3     H228524   0.187   1.369   8.561  0.0045 -0.9299  1.4693
 5569TP3      O28525   0.178   4.533   1.278  0.6678  0.0859 -0.0506
 5569TP3     H128526   0.180   4.577   1.363 -1.5760  2.0871 -0.8965
 5569TP3     H228527   0.270   4.528   1.251  1.3115  0.6424  1.8761
 5570TP3      O28528   4.676   0.700   1.874  0.0898  0.4306 -0.0784
 5570TP3     H128529   4.607   0.634   1.882 -1.0838  1.6035 -0.1324
 5570TP3     H228530   4.712   0.707   1.963  0.1152 -0.1439 -0.0361
 5571TP3      O28531   0.076   2.127   0.513  0.5781  0.2014 -0.5027
 5571TP3     H128532   0.067   2.222   0.504 -0.0732  0.0030 -2.1046
 5571TP3     H228533   0.026   2.090   0.440  0.0823 -1.4124  0.5919
 5572TP3      O28534   3.743   0.114   7.992  0.0097 -0.5056  0.4748
 5572TP3     H128535   3.750   0.203   7.959  0.8380 -0.3201  1.1532
 5572TP3     H228536   3.649   0.099   8.001 -0.1563  0.0735 -0.2242
 5573TP3      O28537   4.822   0.851   1.105 -0.6722 -0.1816 -0.1630
 5573TP3     H128538   4.796   0.918   1.042  0.8260  1.2623  0.6667
 5573TP3     H228539   4.788   0.882   1.188 -1.8095 -1.5840 -0.0726
 5574TP3      O28540   1.171   0.846   9.600 -0.0432 -0.0091  0.0474
 5574TP3     H128541   1.235   0.775   9.596  0.0112 -0.0423  1.2470
 5574TP3     H228542   1.223   0.922   9.628 -0.2719  0.2950 -0.3465
 5575TP3      O28543   3.663   2.965   1.374 -0.3432 -0.2752 -0.1788
 5575TP3     H128544   3.664   2.905   1.448  0.8108 -2.2510 -1.7069
 5575TP3     H228545   3.632   3.048   1.411  3.4817 -0.0880  3.3097
 5576TP3      O28546   1.041   2.018   0.004 -0.2183 -0.3851  0.1994
 5576TP3     H128547   0.946   2.020   0.016 -0.1581  0.3047  0.6074
 5576TP3     H228548   1.058   1.932  -0.034 -0.9471 -0.7235  0.6203
 5577TP3      O28549   4.273   3.169   1.684 -0.1376  0.4292  0.0094
 5577TP3     H128550   4.326   3.237   1.644 -1.0915  0.1602 -1.8127
 5577TP3     H228551   4.184   3.205   1.686 -0.3030  0.0063  0.9184
 5578TP3      O28552   0.974   1.973   1.778  0.4720 -0.1685  0.4308
 5578TP3     H128553   1.028   2.043   1.741 -0.7100 -0.3203 -1.6891
 5578TP3     H228554   0.986   1.899   1.719 -0.2799 -0.9504  1.2229
 5579TP3      O28555   0.377   3.534   8.834  0.0999  0.2089  0.4322
 5579TP3     H128556   0.405   3.601   8.897 -0.8740 -0.1867  1.3185
 5579TP3     H228557   0.293   3.502   8.868 -0.3781 -0.1433 -0.9832
 5580TP3      O28558   1.896   1.251   1.565 -0.2764  0.3018 -0.1910
 5580TP3     H128559   1.952   1.303   1.508  1.5747  0.7200  1.8833
 5580TP3     H228560   1.834   1.314   1.602 -1.3926  0.0525 -1.5582
 5581TP3      O28561   0.572   3.072   9.305  0.1838  0.6155  0.2515
 5581TP3     H128562   0.502   3.131   9.333  1.0936  0.7878  2.3567
 5581TP3     H228563   0.554   2.990   9.352  0.2551 -0.0184 -0.8036
 5582TP3      O28564   1.090   1.508   1.093 -0.3143 -0.3420 -0.0690
 5582TP3     H128565   0.999   1.511   1.065 -0.6059 -2.8418  0.3707
 5582TP3     H228566   1.102   1.419   1.125  2.1063  0.1366  0.5456
 5583TP3      O28567   2.795   4.212   1.315 -0.4698  0.0965  0.5680
 5583TP3     H128568   2.716   4.158   1.314  0.0657 -0.7627 -1.4505
 5583TP3     H228569   2.867   4.149   1.306  0.3313  1.0009  0.4314
 5584TP3      O28570   4.453   5.237   2.634  0.1987 -0.1463  0.5740
 5584TP3     H128571   4.493   5.180   2.568  0.0856  1.8088 -1.3029
 5584TP3     H228572   4.525   5.291   2.666 -0.4099  2.1048 -1.4706
 5585TP3      O28573   4.268   2.593   0.648  0.2907  0.5752 -0.2585
 5585TP3     H128574   4.251   2.549   0.731 -0.0488 -1.8416 -1.5203
 5585TP3     H228575   4.351   2.640   0.662  0.2109  0.2808  1.4237
 5586TP3      O28576   5.091   2.738   1.678 -0.3872  0.7565 -0.7222
 5586TP3     H128577   5.011   2.721   1.628  0.4490  0.1529 -1.8968
 5586TP3     H228578   5.157   2.757   1.611  0.0129  3.3149  0.2813
 5587TP3      O28579   2.864   3.384   7.132 -0.3068  0.0184  0.1662
 5587TP3     H128580   2.775   3.418   7.145 -0.1975  0.5839 -0.5317
 5587TP3     H228581   2.922   3.452   7.165 -0.1265 -0.4855  0.9166
 5588TP3      O28582   1.384   0.719   0.349  0.2184  0.2679 -0.5336
 5588TP3     H128583   1.457   0.779   0.361  0.9698 -0.5454 -0.9097
 5588TP3     H228584   1.311   0.760   0.396  0.9381  1.0430 -0.0656
 5589TP3      O28585   3.942   2.993   1.925  0.1915 -0.5506 -0.2754
 5589TP3     H128586   3.947   3.032   1.838  2.4761  0.8707  0.3948
 5589TP3     H228587   4.030   2.960   1.942 -0.6983 -2.5707  0.7744
 5590TP3      O28588   3.910   0.620  10.040 -0.0511 -0.1003 -0.1452
 5590TP3     H128589   3.959   0.601  10.119  0.5026 -2.4958 -0.9804
 5590TP3     H228590   3.820   0.593  10.060 -0.4488  1.4807  0.3807
 5591TP3      O28591   3.165   1.945   1.806  0.2193  0.3909  0.1224
 5591TP3     H128592   3.176   1.851   1.791  2.6255  0.9426 -2.5015
 5591TP3     H228593   3.249   1.973   1.844  0.3424  1.7475 -1.0484
 5592TP3      O28594   4.407   2.867   8.604 -0.0613  0.3522  0.1615
 5592TP3     H128595   4.366   2.880   8.519  0.1399 -0.2734 -0.0349
 5592TP3     H228596   4.419   2.772   8.611  0.0395  0.4088  0.8292
 5593TP3      O28597   1.358   0.786   7.695  0.0620  0.5800 -0.1463
 5593TP3     H128598   1.285   0.823   7.646  0.3568  0.2799 -0.8225
 5593TP3     H228599   1.330   0.789   7.786 -0.7031  0.6676 -0.3842
 5594TP3      O28600   3.330   4.168   3.097  0.0244  0.2300  0.5561
 5594TP3     H128601   3.381   4.178   3.177  3.5534 -0.6969 -1.3774
 5594TP3     H228602   3.342   4.077   3.072 -2.6988 -0.0623 -0.0932
 5595TP3      O28603   1.771   1.512   2.344  0.2630  0.5165  0.3054
 5595TP3     H128604   1.826   1.447   2.389 -0.8144 -0.5447  0.1504
 5595TP3     H228605   1.830   1.555   2.283  1.2205  0.3622  1.0957
 5596TP3      O28606   1.321   0.006   0.661  0.4065  0.0186  0.1576
 5596TP3     H128607   1.389   0.026   0.725  0.0875  1.3566  0.1146
 5596TP3     H228608   1.362   0.023   0.576  0.0906  0.6677  0.1242
 5597TP3      O28609   1.281   2.316   2.648 -0.1010 -0.1310  0.2583
 5597TP3     H128610   1.263   2.410   2.642  0.2320 -0.1640 -2.2270
 5597TP3     H228611   1.375   2.311   2.666 -0.3136 -0.0322  1.5345
 5598TP3      O28612   2.362   1.050   2.491  0.3111 -0.6756  0.2354
 5598TP3     H128613   2.442   0.998   2.487 -0.0531 -1.1593 -2.2751
 5598TP3     H228614   2.297   0.998   2.444 -0.8794  0.7184  0.2577
 5599TP3      O28615   4.673   3.960   9.734  0.4544 -0.0769 -0.1036
 5599TP3     H128616   4.665   4.011   9.815  0.4279 -0.4193  0.1076
 5599TP3     H228617   4.593   3.981   9.686  0.6888  0.4988 -0.2567
 5600TP3      O28618   4.234   0.073   1.710  0.5343 -0.0494 -0.4098
 5600TP3     H128619   4.283   0.127   1.648 -0.2115  2.7320  1.2407
 5600TP3     H228620   4.178   0.135   1.757  0.8912 -2.0048  2.9240
 5601TP3      O28621   3.949   0.653   3.547  0.3944  0.6120 -0.2410
 5601TP3     H128622   4.045   0.646   3.553  0.3433  0.0030 -0.0844
 5601TP3     H228623   3.932   0.670   3.455  0.6349  0.3220 -0.3411
 5602TP3      O28624   1.622   3.600   0.720  0.0075  1.0807 -0.0723
 5602TP3     H128625   1.606   3.566   0.632 -0.1468 -2.6123  1.2161
 5602TP3     H228626   1.553   3.664   0.735 -1.8276 -0.4493 -1.5711
 5603TP3      O28627   3.210   1.819   1.443 -0.3363  0.8974  0.2415
 5603TP3     H128628   3.158   1.899   1.459  0.0066  1.1738 -0.0050
 5603TP3     H228629   3.217   1.778   1.529 -2.7415 -0.2612 -0.0312
 5604TP3      O28630   3.662   2.576   9.372  0.3651 -0.2275 -0.8730
 5604TP3     H128631   3.712   2.655   9.391  0.9870  0.4347 -4.5095
 5604TP3     H228632   3.724   2.504   9.384  0.8924  0.1826 -1.1255
 5605TP3      O28633   3.251   4.542   2.552 -0.5116 -0.2712 -0.0454
 5605TP3     H128634   3.267   4.492   2.633  1.4622  0.1383 -0.1252
 5605TP3     H228635   3.210   4.623   2.582 -0.5304 -0.4670  0.4734
 5606TP3      O28636   1.476   2.760   8.331  0.2548  0.1734  0.5071
 5606TP3     H128637   1.504   2.794   8.416 -0.0913  0.4570  0.5073
 5606TP3     H228638   1.485   2.834   8.271 -0.4136  0.2410  0.4906
 5607TP3      O28639   0.653   2.292   3.573  0.3936 -0.1545  0.0300
 5607TP3     H128640   0.650   2.343   3.492  1.5141  0.6288  0.4486
 5607TP3     H228641   0.744   2.262   3.579  1.0931  2.0548  2.2831
 5608TP3      O28642   2.641   1.125   0.672 -0.0730  0.3505  0.4957
 5608TP3     H128643   2.735   1.108   0.684  0.5856  1.5167 -2.2101
 5608TP3     H228644   2.615   1.170   0.752  2.4744  2.7169  0.1540
 5609TP3      O28645   2.233   0.395   1.863  0.0362  0.5922 -0.0289
 5609TP3     H128646   2.229   0.311   1.909  0.3814  1.6861  2.1186
 5609TP3     H228647   2.187   0.379   1.781  1.4015 -2.0928 -0.3808
 5610TP3      O28648   2.938   0.278   8.467 -0.5367  0.0351 -0.3759
 5610TP3     H128649   3.013   0.234   8.508 -1.2247  1.6550  2.9284
 5610TP3     H228650   2.873   0.208   8.456 -0.1385 -0.5866  0.9264
 5611TP3      O28651   4.077   0.642   8.663 -0.0420  0.1321  0.0869
 5611TP3     H128652   4.061   0.649   8.569  0.9743  1.5481 -0.0081
 5611TP3     H228653   4.075   0.548   8.681  0.2358 -0.1815 -1.4236
 5612TP3      O28654   3.827   0.585   9.771 -0.6437 -0.1281 -0.3215
 5612TP3     H128655   3.889   0.579   9.844  0.4704  1.5761 -1.0752
 5612TP3     H228656   3.882   0.599   9.694 -1.8095 -1.5654 -1.4986
 5613TP3      O28657   4.783   0.541   8.584 -0.0402  0.5655 -0.3508
 5613TP3     H128658   4.875   0.514   8.593 -0.0787  0.7053  0.5575
 5613TP3     H228659   4.758   0.512   8.497  0.8646  0.4986 -0.6000
 5614TP3      O28660   4.738   4.419   1.933 -0.4231  0.0751 -0.1384
 5614TP3     H128661   4.746   4.350   1.999  0.5091  0.2081 -0.1033
 5614TP3     H228662   4.787   4.387   1.858 -1.8800 -0.2873 -0.9753
 5615TP3      O28663   1.871   1.551   0.567 -0.1778 -0.9128  0.0560
 5615TP3     H128664   1.876   1.623   0.628 -0.4587 -1.9150  1.3068
 5615TP3     H228665   1.782   1.517   0.577 -0.2042 -1.1547 -0.8552
 5616TP3      O28666   5.076   1.600   8.673 -0.3266 -0.1113  0.0003
 5616TP3     H128667   5.136   1.663   8.712 -0.8262 -0.9272  2.2300
 5616TP3     H228668   5.121   1.570   8.594  1.7710  0.0369  1.0731
 5617TP3      O28669   4.642   4.989   8.042  0.0488 -0.0163  0.2494
 5617TP3     H128670   4.553   4.956   8.033 -0.3285  1.2658 -1.0575
 5617TP3     H228671   4.647   5.018   8.134 -0.7829 -0.3397  0.4066
 5618TP3      O28672   3.929   3.302   8.359 -0.1542 -0.4673 -0.4427
 5618TP3     H128673   3.843   3.299   8.402 -0.7385 -0.6875 -1.5997
 5618TP3     H228674   3.954   3.210   8.350  0.6217 -0.3886  0.6596
 5619TP3      O28675   0.446   2.211   3.719  0.0322  0.2633  0.1483
 5619TP3     H128676   0.379   2.278   3.729  0.7821  1.0451  0.0447
 5619TP3     H228677   0.517   2.255   3.672 -0.9571 -1.6003 -3.4336
 5620TP3      O28678   2.898   3.349   8.572 -0.3054  0.3047  0.1982
 5620TP3     H128679   2.910   3.428   8.520  2.6097 -1.0017 -1.3207
 5620TP3     H228680   2.920   3.375   8.662  1.6697  1.0371 -0.4513
 5621TP3      O28681   4.494   2.688   3.349 -0.2153  0.1856  0.5552
 5621TP3     H128682   4.552   2.667   3.276  0.0684  0.3109  0.7384
 5621TP3     H228683   4.466   2.778   3.332  0.0356  0.2973  0.7151
 5622TP3      O28684   3.975   4.371   7.998 -0.1906  0.4792  0.2818
 5622TP3     H128685   3.989   4.444   7.938 -0.8597 -0.6449 -1.3076
 5622TP3     H228686   3.920   4.408   8.068 -1.4709  1.2522 -1.0721
 5623TP3      O28687   5.192   3.055  10.051 -0.2559 -0.1860 -0.0788
 5623TP3     H128688   5.166   3.055   9.958  1.8827  0.1228 -0.7247
 5623TP3     H228689   5.201   2.962  10.072 -0.4820 -0.2505 -0.2558
 5624TP3      O28690   3.950   3.125   2.747  0.4575  0.7388 -0.1208
 5624TP3     H128691   4.024   3.171   2.707  0.9849 -0.7805 -0.9651
 5624TP3     H228692   3.985   3.086   2.827  0.8438 -0.7613 -0.9965
 5625TP3      O28693   2.658   1.007   9.697  0.0413  0.5015 -0.5366
 5625TP3     H128694   2.601   1.046   9.763 -0.4101 -0.1613 -0.5263
 5625TP3     H228695   2.628   1.046   9.615  0.0849  0.7396 -0.4387
 5626TP3      O28696   4.786   4.463   9.054 -0.1903 -0.0659 -0.1366
 5626TP3     H128697   4.802   4.379   9.011  0.6237  0.2944 -0.5589
 5626TP3     H228698   4.789   4.527   8.983 -2.8336  0.1551 -0.1550
 5627TP3      O28699   3.146   0.304   2.514  0.4520 -0.1482  0.2997
 5627TP3     H128700   3.225   0.301   2.461  1.5450  2.7729  1.5381
 5627TP3     H228701   3.171   0.264   2.597  0.6954  0.8050  0.7033
 5628TP3      O28702   3.483   4.435   9.237  0.6854  0.1966  0.2052
 5628TP3     H128703   3.444   4.484   9.309 -0.5549  0.5573 -0.6765
 5628TP3     H228704   3.543   4.374   9.279 -0.2122  0.2080  1.5633
 5629TP3      O28705   2.780   0.066   8.440  0.4708 -0.2243 -0.0136
 5629TP3     H128706   2.825  -0.019   8.436  1.2541  0.2299 -2.0845
 5629TP3     H228707   2.704   0.054   8.384  1.8138  1.0720 -2.2291
 5630TP3      O28708   0.841   1.187   0.996  0.1862 -0.0628  0.4272
 5630TP3     H128709   0.747   1.165   0.997  0.1429 -0.1675 -1.6589
 5630TP3     H228710   0.862   1.205   1.087 -1.4757 -1.6858  1.1974
 5631TP3      O28711   0.139   3.407   2.102  0.1498 -0.2846 -0.8491
 5631TP3     H128712   0.069   3.386   2.164  1.0330 -1.0496 -0.0806
 5631TP3     H228713   0.094   3.420   2.018 -1.0817  0.8793 -0.0428
 5632TP3      O28714   2.296   3.184   7.701  0.3435  0.1339  0.0941
 5632TP3     H128715   2.213   3.231   7.690  0.0750 -0.7760 -2.1937
 5632TP3     H228716   2.361   3.254   7.712 -0.4963  0.9084  0.3369
 5633TP3      O28717   3.453   4.436   2.379  0.4421  0.1624  0.0700
 5633TP3     H128718   3.384   4.490   2.416  0.6513  0.3794  0.1415
 5633TP3     H228719   3.515   4.498   2.340  1.3471  0.0538  1.2719
 5634TP3      O28720   2.813   0.951   0.478 -0.6443 -0.0179  0.3191
 5634TP3     H128721   2.758   1.025   0.456 -1.6962 -0.5543  1.0321
 5634TP3     H228722   2.883   0.951   0.412  0.5047  2.7080  1.3884
 5635TP3      O28723   3.982   3.209   1.697  0.3263  0.1428 -0.3491
 5635TP3     H128724   3.893   3.210   1.664  0.0886  0.5789  0.2837
 5635TP3     H228725   3.976   3.249   1.784  1.0696 -0.1789 -0.1368
 5636TP3      O28726   0.983   2.793   1.151 -0.4877 -0.0211 -0.2563
 5636TP3     H128727   0.976   2.718   1.209 -0.2525  0.3673  0.2754
 5636TP3     H228728   0.921   2.774   1.080 -0.7647 -0.4975  0.1100
 5637TP3      O28729   3.254   1.599   0.161  0.1918 -0.1151  0.2529
 5637TP3     H128730   3.221   1.659   0.228  1.0259  1.1399 -0.4294
 5637TP3     H228731   3.329   1.644   0.122  1.0508 -1.7354 -0.0851
 5638TP3      O28732   3.721   0.873   3.467 -0.1116  0.7836 -0.2006
 5638TP3     H128733   3.790   0.874   3.532 -0.3128 -0.1666  0.0507
 5638TP3     H228734   3.765   0.893   3.384  0.2496  1.3746  0.1327
 5639TP3      O28735   4.542   2.217   9.988  0.1015  0.2939  0.0330
 5639TP3     H128736   4.570   2.216   9.896  1.3625 -1.5544  0.3934
 5639TP3     H228737   4.620   2.192  10.037 -0.9583 -0.2920  1.4882
 5640TP3      O28738   2.358   0.954   9.038 -0.0887  0.1958  0.5886
 5640TP3     H128739   2.378   0.923   8.949 -0.9214 -1.1686  0.8466
 5640TP3     H228740   2.443   0.959   9.082  0.2007 -0.3940  0.1049
 5641TP3      O28741   4.340   4.527   1.578 -0.1851 -0.0440 -0.1243
 5641TP3     H128742   4.326   4.508   1.671 -1.2184  0.0806 -0.2477
 5641TP3     H228743   4.356   4.441   1.539 -0.2575 -0.1526  0.0797
 5642TP3      O28744   5.252   2.109   2.793 -0.3755  0.2777  0.5565
 5642TP3     H128745   5.309   2.032   2.801  0.5079  1.0648  2.6466
 5642TP3     H228746   5.173   2.086   2.842  0.0552  0.8029  1.5311
 5643TP3      O28747   4.758   4.692   3.683  0.1811  0.0763  0.0309
 5643TP3     H128748   4.773   4.705   3.589 -2.8422 -1.2281 -0.7550
 5643TP3     H228749   4.704   4.767   3.709  1.9900  1.0687  1.0774
 5644TP3      O28750   4.168   0.288   7.393 -0.0480 -0.3638  0.4643
 5644TP3     H128751   4.082   0.248   7.380  0.7224 -1.8567 -0.3391
 5644TP3     H228752   4.201   0.303   7.305  1.3285 -1.7092  0.7053
 5645TP3      O28753   0.000   0.508   1.738  0.5794  0.1882  0.2116
 5645TP3     H128754  -0.083   0.518   1.692  0.3092 -1.8101  0.1610
 5645TP3     H228755   0.038   0.427   1.704  1.5800 -0.0181  1.6697
 5646TP3      O28756   1.503   3.206   1.347  0.0998  0.2790  0.2590
 5646TP3     H128757   1.553   3.251   1.415  1.0783  0.5119 -0.5873
 5646TP3     H228758   1.521   3.256   1.267 -0.6449 -0.2696 -0.2708
 5647TP3      O28759   4.270   2.612   1.384 -0.4941 -0.5827  0.1945
 5647TP3     H128760   4.190   2.655   1.414 -1.2200 -0.5145 -1.7429
 5647TP3     H228761   4.282   2.644   1.295  1.9971 -0.1846  0.6022
 5648TP3      O28762   0.561   2.878   2.379  0.8302 -0.3312 -0.2539
 5648TP3     H128763   0.570   2.799   2.326  0.9022 -0.3733 -0.1799
 5648TP3     H228764   0.613   2.860   2.457 -0.7577 -0.9986  0.6926
 5649TP3      O28765   1.482   4.110   2.263 -0.3409 -0.8692 -0.3596
 5649TP3     H128766   1.491   4.016   2.281 -0.6055 -1.2416 -1.9819
 5649TP3     H228767   1.545   4.127   2.193 -0.2186  0.1873 -0.0041
 5650TP3      O28768   3.455   3.661   1.580  0.1056  0.2719 -0.3136
 5650TP3     H128769   3.502   3.702   1.652  1.6956 -0.5347 -0.8458
 5650TP3     H228770   3.379   3.621   1.621  0.1868  1.0760  0.6752
 5651TP3      O28771   1.701   2.501   7.527  0.4298  0.0304 -0.5591
 5651TP3     H128772   1.664   2.535   7.445  2.2585 -1.3217 -2.0580
 5651TP3     H228773   1.765   2.567   7.553 -0.4641  0.6739  0.0634
 5652TP3      O28774   2.753   0.219   1.359  0.4850 -0.3200  0.0138
 5652TP3     H128775   2.767   0.129   1.388  0.6725 -0.2644  0.0960
 5652TP3     H228776   2.706   0.260   1.431 -0.8645 -0.7271 -0.5931
 5653TP3      O28777   5.096   1.467   1.633  0.2605  0.0031  0.4323
 5653TP3     H128778   5.159   1.432   1.696 -1.0520  0.8564  2.3504
 5653TP3     H228779   5.035   1.517   1.687 -0.9691  0.7668 -1.5636
 5654TP3      O28780   0.427   4.903   0.017  0.2876  0.2606 -0.3506
 5654TP3     H128781   0.341   4.911   0.059  0.0134  0.9432 -1.0167
 5654TP3     H228782   0.453   4.812   0.032 -1.1108 -0.3178 -1.2196
 5655TP3      O28783   1.994   1.039   0.606  0.0823  0.1576  0.0449
 5655TP3     H128784   2.005   1.132   0.625  2.4465  0.4413 -2.1814
 5655TP3     H228785   1.899   1.025   0.608 -0.2731  2.2881  1.6331
 5656TP3      O28786   1.676   4.041   2.710  0.2288  0.3067  0.2832
 5656TP3     H128787   1.760   4.007   2.738  1.1979  1.6335 -0.8268
 5656TP3     H228788   1.674   4.026   2.615 -1.2164 -0.5540  0.4174
 5657TP3      O28789   1.330   4.719   2.139 -0.8757  0.5070 -0.1310
 5657TP3     H128790   1.424   4.709   2.149 -0.3646  3.1978 -1.4181
 5657TP3     H228791   1.292   4.663   2.207  1.6336 -0.2807  0.7113
 5658TP3      O28792   5.181   2.495   1.201 -0.3502  0.1856 -0.5003
 5658TP3     H128793   5.252   2.516   1.262 -1.0536 -0.1547  0.4726
 5658TP3     H228794   5.220   2.506   1.114  1.0416 -0.4902 -0.0048
 5659TP3      O28795   0.377   3.414   1.611 -0.2337 -0.2346 -0.3047
 5659TP3     H128796   0.462   3.443   1.578  1.4037 -3.1940  0.8574
 5659TP3     H228797   0.373   3.449   1.700  0.5298 -1.2451  0.1607
 5660TP3      O28798   4.140   5.031   2.531 -0.4846  0.0290 -0.1612
 5660TP3     H128799   4.147   5.066   2.442 -1.2985 -0.3120 -0.3697
 5660TP3     H228800   4.078   4.958   2.523 -0.5815  0.0088  0.6878
 5661TP3      O28801   1.333   1.154   8.375 -0.1166 -0.2927 -0.7231
 5661TP3     H128802   1.396   1.130   8.443  1.6601 -0.5063 -2.3695
 5661TP3     H228803   1.343   1.249   8.365 -1.8643  0.1044  0.6625
 5662TP3      O28804   2.108   1.549   1.211  0.6762  0.2282 -0.6801
 5662TP3     H128805   2.135   1.624   1.157  0.7660  0.6928 -0.0002
 5662TP3     H228806   2.034   1.511   1.164  0.2064  1.1491 -0.6996
 5663TP3      O28807   1.693   5.220   8.079 -0.5593 -0.7544 -0.2504
 5663TP3     H128808   1.750   5.194   8.152  0.6794 -0.3029 -1.0322
 5663TP3     H228809   1.712   5.156   8.010 -2.0757 -1.4744 -0.0496
 5664TP3      O28810   1.662   0.089   1.954 -0.6208  0.1813  0.2131
 5664TP3     H128811   1.622   0.171   1.983 -0.3494  0.2028  0.5424
 5664TP3     H228812   1.591   0.024   1.961 -1.0941  0.5486 -0.9204
 5665TP3      O28813   4.689   1.167   8.021  0.1314  0.0627 -0.2029
 5665TP3     H128814   4.610   1.169   7.966  0.5750 -1.1813 -0.9335
 5665TP3     H228815   4.698   1.075   8.046  0.4747  0.4586  1.1960
 5666TP3      O28816   1.269   2.581   0.920 -0.0923 -0.4799 -0.1963
 5666TP3     H128817   1.309   2.652   0.969 -0.0497  2.2069 -3.7128
 5666TP3     H228818   1.175   2.590   0.936 -0.0653  0.2729 -0.4091
 5667TP3      O28819   4.098   2.580   9.145 -0.5766 -0.4778 -0.3349
 5667TP3     H128820   4.173   2.580   9.204 -0.5785 -0.1407 -0.3322
 5667TP3     H228821   4.125   2.526   9.071  0.1652  0.7362 -0.9740
 5668TP3      O28822   1.734   0.004   2.246 -0.4047 -0.3226  0.2902
 5668TP3     H128823   1.651   0.025   2.290 -0.7985 -0.0139 -0.5641
 5668TP3     H228824   1.756   0.084   2.198  0.2050 -0.5248  0.2309
 5669TP3      O28825   2.461   0.815   9.347 -0.1582  0.7965 -0.4016
 5669TP3     H128826   2.506   0.785   9.425 -0.7598 -0.5906 -0.5542
 5669TP3     H228827   2.531   0.841   9.287  0.4413 -0.9038 -0.4752
 5670TP3      O28828   0.249   0.516   9.851 -0.4601 -0.1110 -0.2528
 5670TP3     H128829   0.289   0.537   9.767 -0.2930  0.7758  0.0380
 5670TP3     H228830   0.210   0.598   9.881 -0.7087 -0.4657  0.4346
 5671TP3      O28831   2.410   0.394   8.733 -0.2413  0.2217  0.1334
 5671TP3     H128832   2.325   0.356   8.714  0.2066 -0.9624  0.3959
 5671TP3     H228833   2.473   0.328   8.705  0.5609  0.6276  0.9150
 5672TP3      O28834   3.885   4.812   3.548 -0.2723  0.2683 -0.1098
 5672TP3     H128835   3.814   4.784   3.606 -1.1076  0.3038 -1.0861
 5672TP3     H228836   3.848   4.806   3.460  0.0705  2.7688 -0.4929
 5673TP3      O28837   2.286   1.784   2.033 -0.4517  0.1837  0.2898
 5673TP3     H128838   2.330   1.868   2.042 -0.0848 -0.0100  0.3667
 5673TP3     H228839   2.220   1.798   1.966  0.2856  0.2667 -0.4384
 5674TP3      O28840   2.780   3.663   9.416 -0.3507  0.3434  0.1850
 5674TP3     H128841   2.834   3.716   9.357 -0.2394  1.0044  0.8596
 5674TP3     H228842   2.834   3.651   9.493 -1.3800  1.5711  1.1431
 5675TP3      O28843   4.533   3.825   2.482 -0.3147 -0.2499 -0.4763
 5675TP3     H128844   4.443   3.811   2.514 -0.0274  0.0432  0.4818
 5675TP3     H228845   4.522   3.841   2.388 -1.2395 -0.5125 -0.4270
 5676TP3      O28846   2.960   1.411   1.124  0.4716  0.2601  0.0799
 5676TP3     H128847   2.898   1.396   1.053 -0.1066  0.9005  0.4391
 5676TP3     H228848   2.963   1.328   1.172 -1.2356  0.6449  0.9259
 5677TP3      O28849   2.074   3.766   7.583 -0.2132 -0.0859  0.3874
 5677TP3     H128850   2.141   3.717   7.535 -0.8351 -0.4865 -0.0777
 5677TP3     H228851   2.029   3.816   7.516  0.9069  1.7590  0.9362
 5678TP3      O28852   0.153   0.844   3.158  0.0966  0.2022  0.3480
 5678TP3     H128853   0.109   0.921   3.122  1.1888  0.1894 -1.1110
 5678TP3     H228854   0.204   0.809   3.085  0.4547 -1.3031  1.2687
 5679TP3      O28855   3.039   1.985   2.570  0.6420  0.5067  0.1718
 5679TP3     H128856   3.013   1.917   2.508 -0.3037  1.1047 -0.1094
 5679TP3     H228857   3.115   2.026   2.529  0.7592  0.1044 -0.0144
 5680TP3      O28858   5.146   4.806   9.930  0.1764 -0.1848 -0.8545
 5680TP3     H128859   5.165   4.763   9.847  1.5890 -0.3926 -0.4512
 5680TP3     H228860   5.230   4.805   9.977 -0.1101  1.7075 -0.2260
 5681TP3      O28861   2.065   3.721   9.238  0.0899 -0.2091  0.0337
 5681TP3     H128862   2.076   3.815   9.222  0.0172 -0.1358  0.4164
 5681TP3     H228863   1.976   3.702   9.208 -0.5531  0.2033  1.5741
 5682TP3      O28864   4.337   2.206   0.476  0.1051  0.0673 -0.3905
 5682TP3     H128865   4.282   2.148   0.528  2.0170 -1.9568 -0.4657
 5682TP3     H228866   4.355   2.156   0.396  4.1943 -0.6577  0.7661
 5683TP3      O28867   2.695   4.933   1.749 -0.5321  0.2785  0.3626
 5683TP3     H128868   2.781   4.975   1.750 -1.1088  1.5279 -0.3336
 5683TP3     H228869   2.714   4.840   1.761  1.1785  0.1344 -2.5794
 5684TP3      O28870   2.931   3.641   9.634 -0.3909  0.6047  0.2810
 5684TP3     H128871   3.013   3.683   9.608 -0.7255 -0.4793 -2.9125
 5684TP3     H228872   2.948   3.610   9.723  2.8191  0.0723 -0.3824
 5685TP3      O28873   2.757   5.282   0.297 -0.3413 -0.4042 -0.4378
 5685TP3     H128874   2.663   5.287   0.280 -0.1919  1.3423 -0.9398
 5685TP3     H228875   2.773   5.190   0.316 -2.3871 -0.5220  1.0630
 5686TP3      O28876   2.959   3.139   7.209  0.1864  0.2506  0.0126
 5686TP3     H128877   2.999   3.189   7.280 -1.8705 -1.3198  2.4375
 5686TP3     H228878   2.898   3.200   7.168 -0.0319  0.6281  0.8878
 5687TP3      O28879   2.303   0.014   0.443 -0.4872  0.2288  0.2606
 5687TP3     H128880   2.315  -0.049   0.515  0.4032  1.7315  1.5046
 5687TP3     H228881   2.222   0.059   0.465 -1.5667 -0.9631 -1.0656
 5688TP3      O28882   3.550   1.093   2.376 -0.0272  0.2894  1.0137
 5688TP3     H128883   3.510   1.113   2.292 -1.1407  0.1700  1.4885
 5688TP3     H228884   3.639   1.065   2.355  0.5987  2.7386  0.0826
 5689TP3      O28885   3.305   1.717   2.375  0.2765 -0.0681  0.0121
 5689TP3     H128886   3.228   1.702   2.320 -0.7697 -0.9692  1.6359
 5689TP3     H228887   3.314   1.812   2.379 -0.7938  0.0473 -0.1671
 5690TP3      O28888   4.422   2.654   3.014 -0.4692 -0.3505  0.3265
 5690TP3     H128889   4.509   2.668   3.050 -0.6316 -0.8907  0.9528
 5690TP3     H228890   4.399   2.565   3.041 -0.7030 -0.6875 -0.8994
 5691TP3      O28891   4.469   4.054   8.409 -0.2219  0.2051  0.0099
 5691TP3     H128892   4.543   4.069   8.352 -0.1846  0.6617  0.1697
 5691TP3     H228893   4.394   4.042   8.350 -0.2216  0.8855 -0.1319
 5692TP3      O28894   1.478   3.978   0.418 -0.5282 -0.6618 -0.0419
 5692TP3     H128895   1.410   3.951   0.480 -1.1965  0.8278 -0.0816
 5692TP3     H228896   1.555   3.992   0.473 -0.9783  0.1506  0.4022
 5693TP3      O28897   2.663   0.989   2.525  0.4875 -0.2168  0.0583
 5693TP3     H128898   2.634   0.937   2.450 -1.0049  1.1941 -0.4073
 5693TP3     H228899   2.663   0.927   2.598 -0.1635 -1.1321 -0.6903
 5694TP3      O28900   4.583   1.995   3.588 -0.6099 -1.0762 -0.0190
 5694TP3     H128901   4.590   1.987   3.493 -0.2796 -1.9286  0.0650
 5694TP3     H228902   4.669   1.968   3.620  0.2175  1.7454  0.4232
 5695TP3      O28903   1.611   3.398   0.098  0.5044 -0.3854 -0.3243
 5695TP3     H128904   1.707   3.394   0.100  0.6979  2.3026 -0.7954
 5695TP3     H228905   1.587   3.357   0.015  1.4375  0.9033 -1.2678
 5696TP3      O28906   0.857   5.157   2.815  0.4128 -0.5150 -0.0217
 5696TP3     H128907   0.949   5.149   2.838  0.5409 -3.0823 -1.1320
 5696TP3     H228908   0.817   5.200   2.890  2.7156  2.1575 -0.1647
 5697TP3      O28909   1.134   0.280   2.238  0.7178  0.3191 -0.4924
 5697TP3     H128910   1.142   0.284   2.143 -1.3895 -1.1346 -0.8035
 5697TP3     H228911   1.081   0.201   2.254 -0.7879  1.6776  1.7274
 5698TP3      O28912   0.892   2.159   2.068  0.8608  0.2395  0.5286
 5698TP3     H128913   0.850   2.229   2.119 -0.3235 -0.4483  0.5292
 5698TP3     H228914   0.910   2.199   1.983 -1.0884  0.1724  0.0451
 5699TP3      O28915   4.692   5.170   8.291  0.3881 -0.0540  0.6777
 5699TP3     H128916   4.641   5.145   8.367 -1.6089  1.5825 -0.0482
 5699TP3     H228917   4.660   5.257   8.267  1.8902  0.0520 -1.2347
 5700TP3      O28918   1.499   3.500   1.945 -0.6139 -0.4667 -0.1544
 5700TP3     H128919   1.508   3.568   1.878 -1.2986  0.1431  0.3535
 5700TP3     H228920   1.441   3.434   1.905 -1.5490  0.2046  0.0484
 5701TP3      O28921   5.083   2.013   1.344  0.2859 -0.4390  0.3120
 5701TP3     H128922   5.110   1.923   1.361 -1.7781 -1.1808 -0.1055
 5701TP3     H228923   5.135   2.040   1.269  0.7096 -1.3968  0.2489
 5702TP3      O28924   2.491   0.860   0.213 -0.0612  0.0422 -0.3718
 5702TP3     H128925   2.475   0.845   0.306 -0.9843  0.9899 -0.3616
 5702TP3     H228926   2.587   0.866   0.206 -0.0302  2.0595  0.9023
 5703TP3      O28927   0.231   4.450   3.035  0.3394  0.2745  0.0736
 5703TP3     H128928   0.198   4.536   3.060  1.0528  0.0911  1.7387
 5703TP3     H228929   0.273   4.416   3.114  0.3595 -1.4729 -0.6487
 5704TP3      O28930   1.823   4.426   0.025 -0.8181 -0.1986 -0.7015
 5704TP3     H128931   1.866   4.389   0.103 -2.4180 -0.6371  0.0061
 5704TP3     H228932   1.847   4.519   0.026 -0.9383 -0.1699  0.3981
 5705TP3      O28933   3.167   1.143   9.789  0.3318  0.0051  0.6245
 5705TP3     H128934   3.104   1.210   9.813 -0.3814  0.4196 -2.1161
 5705TP3     H228935   3.114   1.065   9.771  0.6354  0.1470 -0.9996
 5706TP3      O28936   3.841   2.538   1.404 -0.1547  0.4044 -0.0023
 5706TP3     H128937   3.787   2.600   1.354 -2.1477  1.1676  2.8676
 5706TP3     H228938   3.915   2.589   1.435 -0.1388  0.5162 -0.2200
 5707TP3      O28939   4.291   3.738   8.480 -0.3566 -0.1446 -0.3007
 5707TP3     H128940   4.260   3.814   8.431 -0.1835  0.1485  0.0331
 5707TP3     H228941   4.372   3.768   8.521 -0.2160 -0.5534 -0.2760
 5708TP3      O28942   2.882   1.903   0.419  0.1349 -0.6991 -0.1098
 5708TP3     H128943   2.862   1.944   0.503 -0.7438 -0.1576 -0.5672
 5708TP3     H228944   2.910   1.976   0.363 -0.0943 -0.9298 -0.5330
 5709TP3      O28945   2.433   2.580   1.485  0.1887  1.3134 -0.2791
 5709TP3     H128946   2.519   2.622   1.480  0.7835  0.1103 -0.7198
 5709TP3     H228947   2.446   2.506   1.545 -0.7564  1.5807  0.2767
 5710TP3      O28948   3.252   1.821   1.152  0.2534  0.1691  0.2521
 5710TP3     H128949   3.222   1.807   1.242  1.0701 -1.5943  0.3058
 5710TP3     H228950   3.346   1.806   1.156 -0.0183 -2.7003 -1.3047
 5711TP3      O28951   3.447   1.813   2.847 -0.2496  0.1653  0.3274
 5711TP3     H128952   3.426   1.826   2.940  0.9107  0.1194  0.6074
 5711TP3     H228953   3.365   1.781   2.809 -0.6946  0.0059  1.3756
 5712TP3      O28954   4.295   3.336   0.089 -0.3345 -0.2596 -0.0940
 5712TP3     H128955   4.200   3.330   0.074 -0.1496 -1.5891 -0.9098
 5712TP3     H228956   4.333   3.329   0.001  0.5285 -0.0624  0.2612
 5713TP3      O28957   0.389   1.892   8.616 -0.1368  0.7151  0.4120
 5713TP3     H128958   0.411   1.804   8.647  0.6850  1.5785  2.4422
 5713TP3     H228959   0.315   1.879   8.557 -0.7966 -1.2015  1.5884
 5714TP3      O28960   2.897   2.435   0.430 -0.9577  0.2125  0.6225
 5714TP3     H128961   2.930   2.395   0.349 -0.0780  1.5343  0.2835
 5714TP3     H228962   2.938   2.385   0.500  0.3055  0.6197  0.2123
 5715TP3      O28963   3.210   1.129   0.710  0.2555  0.6486  0.0915
 5715TP3     H128964   3.247   1.194   0.649  0.6406  0.8238  0.5088
 5715TP3     H228965   3.248   1.151   0.795  0.3418 -0.0867  0.2508
 5716TP3      O28966   3.322   1.317   0.558 -0.1709 -0.3778  0.1058
 5716TP3     H128967   3.305   1.358   0.474 -1.2360 -0.7384  0.1284
 5716TP3     H228968   3.387   1.373   0.600 -0.6613  0.5746 -0.3877
 5717TP3      O28969   0.681   3.909   0.829  0.0106  0.0073  0.2767
 5717TP3     H128970   0.598   3.875   0.798 -0.3287  0.5993  0.5239
 5717TP3     H228971   0.744   3.884   0.762 -0.1652 -1.3699  0.5985
 5718TP3      O28972   5.201   2.328   7.671  0.2470  0.1473 -0.0659
 5718TP3     H128973   5.221   2.379   7.593 -0.2921 -1.9433 -1.6567
 5718TP3     H228974   5.262   2.254   7.668 -1.5612 -1.4209 -0.0490
 5719TP3      O28975   4.052   4.368   2.711 -0.0567  0.1529 -0.4951
 5719TP3     H128976   4.096   4.287   2.737 -1.4756 -0.3397  0.5122
 5719TP3     H228977   4.019   4.404   2.793  0.3431  1.6516 -0.9615
 5720TP3      O28978   4.203   4.153   2.810 -0.2248  0.0810  0.0678
 5720TP3     H128979   4.173   4.062   2.808  1.7158 -0.6119  0.2012
 5720TP3     H228980   4.242   4.164   2.896  2.2460  0.0694 -0.9846
 5721TP3      O28981   3.064   0.613   9.191  0.6492  0.2027  0.5017
 5721TP3     H128982   2.983   0.641   9.148  0.2205  0.3392  1.3621
 5721TP3     H228983   3.082   0.527   9.154  0.2841  0.3104  0.0629
 5722TP3      O28984   1.550   0.541   7.738 -0.0030 -0.5025 -0.2768
 5722TP3     H128985   1.502   0.619   7.709 -1.0452 -1.1192 -0.2323
 5722TP3     H228986   1.614   0.526   7.668  0.0883  0.2850 -0.3742
 5723TP3      O28987   1.419   4.494   8.441 -0.5373 -0.3081  0.0809
 5723TP3     H128988   1.436   4.524   8.530 -2.3978 -0.4032  0.5165
 5723TP3     H228989   1.504   4.495   8.398  0.1244  1.4269  1.3330
 5724TP3      O28990   2.591   3.711   0.759 -0.1052  0.2030 -0.5853
 5724TP3     H128991   2.641   3.712   0.677  0.4680  0.6317 -0.2390
 5724TP3     H228992   2.637   3.646   0.814  1.5244  2.2060  0.5875
 5725TP3      O28993   1.560   1.702   8.293  0.4170 -0.4078  0.0745
 5725TP3     H128994   1.594   1.711   8.203  0.5746  0.6529  0.2209
 5725TP3     H228995   1.628   1.743   8.347 -1.0902  1.8455  0.3757
 5726TP3      O28996   2.358   2.297   1.829 -0.2068 -0.7294 -0.1239
 5726TP3     H128997   2.279   2.246   1.847 -1.7854  1.5515 -0.1696
 5726TP3     H228998   2.419   2.272   1.898 -0.8647 -2.6503 -0.1652
 5727TP3      O28999   3.394   3.939   9.332  0.2015 -0.5440 -0.3934
 5727TP3     H129000   3.458   3.921   9.263  0.8115 -1.4401  0.3705
 5727TP3     H229001   3.448   3.956   9.410 -0.4548  1.1973 -0.2851
 5728TP3      O29002   1.318   3.909   1.463 -0.5385 -0.9538  0.0953
 5728TP3     H129003   1.252   3.971   1.493  1.9557  1.1126  1.6535
 5728TP3     H229004   1.308   3.908   1.367 -1.6343  0.7149  0.1524
 5729TP3      O29005   0.999   0.701   0.407  0.0754  0.0868  0.4228
 5729TP3     H129006   1.071   0.641   0.387 -0.8905 -0.9844  0.1193
 5729TP3     H229007   0.923   0.645   0.421 -1.2707  1.2598 -1.6196
 5730TP3      O29008   4.350   3.334   0.845 -0.3992  0.7195  0.7953
 5730TP3     H129009   4.436   3.368   0.819 -0.3415  0.2912  0.4230
 5730TP3     H229010   4.332   3.264   0.782 -1.5461  1.5652  0.1666
 5731TP3      O29011   1.429   4.826   2.435 -0.1404  0.3905  0.0725
 5731TP3     H129012   1.492   4.895   2.456  0.5529  0.2132 -1.2967
 5731TP3     H229013   1.479   4.745   2.439 -1.3401 -0.3537  3.4734
 5732TP3      O29014   1.098   3.251   8.047 -0.3543 -0.1871  0.7279
 5732TP3     H129015   1.171   3.308   8.022  0.4585 -1.5916 -0.2270
 5732TP3     H229016   1.053   3.232   7.965 -1.8920  0.7463  1.3257
 5733TP3      O29017   5.191   1.552   8.449  0.0201 -0.3092  0.2121
 5733TP3     H129018   5.280   1.546   8.484  0.1652  3.0775  0.8014
 5733TP3     H229019   5.201   1.600   8.367 -1.2398  0.2326  0.3549
 5734TP3      O29020   3.100   1.442   9.011 -0.3761  0.4006 -0.3259
 5734TP3     H129021   3.060   1.510   9.065  2.1034  1.7470 -0.0332
 5734TP3     H229022   3.066   1.360   9.045 -1.5398  1.3896  0.9678
 5735TP3      O29023   1.361   3.254   0.966 -0.0133  0.3996  0.1887
 5735TP3     H129024   1.420   3.208   0.906  1.0964  2.7797 -0.7019
 5735TP3     H229025   1.281   3.267   0.915 -0.2160 -0.2711  0.3352
 5736TP3      O29026   5.207   1.833   9.116 -0.4050 -0.3632 -0.1637
 5736TP3     H129027   5.139   1.799   9.174  0.0783 -0.8442  0.1343
 5736TP3     H229028   5.194   1.928   9.117 -0.3993 -0.3598  0.7469
 5737TP3      O29029   1.949   2.512   1.528  0.0590 -0.6343  0.3228
 5737TP3     H129030   1.908   2.539   1.446  0.8775 -0.2081  0.0472
 5737TP3     H229031   1.899   2.558   1.596  0.4262  0.3198 -0.0455
 5738TP3      O29032   5.267   4.305   3.146 -0.2979  0.0358  0.5261
 5738TP3     H129033   5.349   4.352   3.156  0.2966 -1.1639  1.5665
 5738TP3     H229034   5.215   4.330   3.223  0.1954 -1.2849  1.3247
 5739TP3      O29035   4.833   4.519   1.008  0.5311  0.4188 -0.0443
 5739TP3     H129036   4.903   4.475   1.056  2.3958  3.6066  0.3892
 5739TP3     H229037   4.865   4.522   0.918  0.4338  0.9132 -0.0626
 5740TP3      O29038   1.211   3.248   2.372 -0.2454  0.2658 -0.1890
 5740TP3     H129039   1.154   3.176   2.399  0.9466 -0.2437  1.1184
 5740TP3     H229040   1.218   3.240   2.277  0.1907 -1.6271 -0.0303
 5741TP3      O29041   1.781   1.709   2.674 -0.7511  0.4822 -0.3222
 5741TP3     H129042   1.796   1.740   2.584 -0.6220  0.2033 -0.3960
 5741TP3     H229043   1.723   1.775   2.712 -2.0506 -0.1630 -1.0932
 5742TP3      O29044   0.651   2.486   3.377  0.5601  0.0218 -0.5158
 5742TP3     H129045   0.629   2.523   3.291 -3.0137  0.2094  0.3188
 5742TP3     H229046   0.727   2.537   3.405  0.3816  1.5847 -2.5656
 5743TP3      O29047   1.131   5.255   1.377  0.0326 -0.0816  0.3958
 5743TP3     H129048   1.084   5.314   1.318  0.0432 -1.0797 -0.6534
 5743TP3     H229049   1.063   5.221   1.435 -0.1508  0.1951  0.3455
 5744TP3      O29050   2.485   1.112   1.134 -0.5636 -0.2695 -0.1269
 5744TP3     H129051   2.485   1.056   1.212 -0.3753 -0.5637 -0.3399
 5744TP3     H229052   2.426   1.068   1.073 -1.8173  0.6702  0.3525
 5745TP3      O29053   2.474   2.872   9.674 -0.1072 -0.1958  0.0619
 5745TP3     H129054   2.554   2.829   9.644 -0.0050 -1.2231  1.6701
 5745TP3     H229055   2.404   2.809   9.655 -0.3385  0.0972 -0.0589
 5746TP3      O29056   4.499   3.002   1.701  0.8614 -0.3973 -0.1646
 5746TP3     H129057   4.539   2.954   1.629  0.7464  2.5579 -2.3456
 5746TP3     H229058   4.426   3.049   1.661 -1.1514 -0.9398  2.5255
 5747TP3      O29059   4.175   5.191   0.032 -0.0686 -0.0054  0.5471
 5747TP3     H129060   4.244   5.125   0.031 -0.0252  0.0327  1.0187
 5747TP3     H229061   4.180   5.230   0.119  0.4189  1.1569  0.0191
 5748TP3      O29062   0.609   0.093   3.245 -0.5775 -0.0133  0.3871
 5748TP3     H129063   0.552   0.164   3.217 -0.0681  0.9111  1.5885
 5748TP3     H229064   0.554   0.037   3.299 -0.6022  0.3309  0.7219
 5749TP3      O29065   3.103   2.938   1.972 -0.3436 -0.1720 -0.3050
 5749TP3     H129066   3.034   2.887   2.016 -0.4054 -0.6892 -0.9789
 5749TP3     H229067   3.180   2.927   2.028 -0.8710  0.6600  0.6225
 5750TP3      O29068   4.231   1.959   2.476  0.1186  0.1693 -0.5521
 5750TP3     H129069   4.296   1.920   2.417  0.2539 -0.7324  0.1724
 5750TP3     H229070   4.149   1.956   2.427  0.1359 -0.9999 -0.5306
 5751TP3      O29071   2.976   2.246   2.652 -0.2194 -0.0492 -0.1532
 5751TP3     H129072   2.990   2.163   2.605  0.7972  0.1714 -0.2672
 5751TP3     H229073   3.059   2.292   2.643 -0.8296  1.0597 -0.2201
 5752TP3      O29074   4.097   5.188   8.119  0.2286 -0.2985 -0.3371
 5752TP3     H129075   4.183   5.211   8.156  0.6084 -1.1393 -0.6642
 5752TP3     H229076   4.089   5.094   8.135 -0.5184 -0.2755 -0.5510
 5753TP3      O29077   2.261   0.866   2.782  0.1956 -0.0082 -0.0994
 5753TP3     H129078   2.247   0.877   2.876 -0.3226 -0.6082 -0.1017
 5753TP3     H229079   2.354   0.846   2.774  0.5052  1.2277  0.1719
 5754TP3      O29080   3.528   4.556   2.712 -0.2051 -0.4718 -0.4340
 5754TP3     H129081   3.433   4.553   2.724 -0.0461 -0.7151  1.0265
 5754TP3     H229082   3.562   4.583   2.798  1.0439 -0.3821 -0.9344
 5755TP3      O29083   2.644   3.890   9.664 -0.1136 -0.0558  0.4651
 5755TP3     H129084   2.690   3.972   9.681 -0.8282  0.1130  1.6689
 5755TP3     H229085   2.708   3.822   9.684  1.1223  0.1362 -2.3072
 5756TP3      O29086   1.839   0.651   3.575  1.0171  0.2098 -0.1831
 5756TP3     H129087   1.834   0.609   3.661  2.2296 -0.4051 -0.3992
 5756TP3     H229088   1.852   0.579   3.514  0.0959  0.6315 -0.9192
 5757TP3      O29089   4.794   2.664   1.807  0.1128 -0.2993  0.2783
 5757TP3     H129090   4.822   2.753   1.828 -0.8073 -0.2199  1.2712
 5757TP3     H229091   4.698   2.669   1.801 -0.0007 -1.3125  0.8950
 5758TP3      O29092   1.679   0.890   3.587 -0.3134  0.0892 -0.4720
 5758TP3     H129093   1.734   0.812   3.588 -0.0701  0.2596  0.3088
 5758TP3     H229094   1.740   0.963   3.580 -0.5746  0.1927 -1.7772
 5759TP3      O29095   0.464   0.386   0.115  0.3959  0.5187 -0.1232
 5759TP3     H129096   0.416   0.457   0.157  0.5332  1.4308 -1.4404
 5759TP3     H229097   0.555   0.400   0.141  0.1628 -0.4254  1.2944
 5760TP3      O29098   2.369   1.952   2.461 -0.8029 -0.4122  0.0045
 5760TP3     H129099   2.309   2.010   2.508  1.5162  1.8891  0.3140
 5760TP3     H229100   2.419   2.010   2.403 -0.3957 -2.5460 -1.9319
 5761TP3      O29101   3.001   0.330   3.002  0.2052 -0.1125  0.1542
 5761TP3     H129102   2.995   0.319   2.907 -1.7073  4.1173 -0.4649
 5761TP3     H229103   3.093   0.354   3.018  0.4131 -0.3114 -0.7064
 5762TP3      O29104   2.698   0.201   2.365  0.1367  0.1606 -0.5269
 5762TP3     H129105   2.780   0.236   2.329  0.4019 -0.3426 -0.4235
 5762TP3     H229106   2.636   0.274   2.358  0.8092  0.8144  0.1597
 5763TP3      O29107   3.825   0.166   3.549  0.4002 -0.1498 -0.5740
 5763TP3     H129108   3.796   0.253   3.576  1.0754  1.6973 -4.9673
 5763TP3     H229109   3.750   0.131   3.501 -0.4049 -2.8203  2.3029
 5764TP3      O29110   0.446   0.359   8.995  0.1106  0.7855 -0.4012
 5764TP3     H129111   0.427   0.284   9.051 -2.0189  0.2351 -1.7630
 5764TP3     H229112   0.368   0.414   9.001  1.1000  2.2662 -0.4680
 5765TP3      O29113   1.413   0.913   3.625  0.3869  0.1940  0.2470
 5765TP3     H129114   1.421   0.976   3.697 -0.6476 -0.4433  0.9424
 5765TP3     H229115   1.503   0.899   3.596  0.6282  2.1951 -0.1243
 5766TP3      O29116   3.047   4.661   8.201  0.2675  0.0702 -0.3597
 5766TP3     H129117   3.021   4.676   8.110  2.4234 -0.9335 -1.2313
 5766TP3     H229118   3.056   4.748   8.239 -2.3047  0.4807 -0.5343
 5767TP3      O29119   0.483   3.197   8.250 -0.0176 -0.1998  0.2525
 5767TP3     H129120   0.424   3.201   8.326 -0.3981 -0.8182 -0.0084
 5767TP3     H229121   0.568   3.172   8.287  0.3068  1.4603  0.7396
 5768TP3      O29122   4.113   3.149   0.553  0.1343  0.6887 -0.0496
 5768TP3     H129123   4.149   3.062   0.570 -0.8560  0.5412  1.4323
 5768TP3     H229124   4.190   3.206   0.550  0.8164 -0.2308 -1.2291
 5769TP3      O29125   1.051   1.149   3.359 -0.2002  0.1463 -0.4844
 5769TP3     H129126   1.022   1.223   3.305 -0.4201 -0.4410 -1.1878
 5769TP3     H229127   1.122   1.185   3.413 -0.2316  0.8369 -0.8897
 5770TP3      O29128   3.301   0.326   9.768  0.0394  0.0124 -0.3192
 5770TP3     H129129   3.262   0.407   9.736 -1.4474 -1.2403 -1.9263
 5770TP3     H229130   3.249   0.302   9.844 -0.1273  0.0676 -0.4162
 5771TP3      O29131   3.896   1.590   9.395  0.4130  0.1034  0.7994
 5771TP3     H129132   3.882   1.619   9.305  0.4525  0.2511  0.8413
 5771TP3     H229133   3.989   1.607   9.411  0.8479 -1.5640  0.2656
 5772TP3      O29134   3.275   4.236   2.013  0.2028  0.4390  0.0415
 5772TP3     H129135   3.183   4.219   2.033  0.5206 -0.7818  0.5513
 5772TP3     H229136   3.296   4.173   1.944  0.6838  0.6494 -0.0080
 5773TP3      O29137   1.291   0.315   3.106 -0.5414  0.7460  0.0296
 5773TP3     H129138   1.256   0.303   3.194 -0.3797  0.6996  0.0870
 5773TP3     H229139   1.371   0.367   3.119 -1.1175  1.7205 -0.1870
 5774TP3      O29140   5.008   1.557   3.348 -0.9902 -0.3239  0.0340
 5774TP3     H129141   5.096   1.519   3.349 -0.6796  0.2927 -1.3219
 5774TP3     H229142   4.959   1.506   3.413  0.1465 -1.1932  0.2422
 5775TP3      O29143   3.727   0.447   3.576  0.1130  0.0983  0.5004
 5775TP3     H129144   3.681   0.501   3.512  3.0735 -0.7894 -2.7082
 5775TP3     H229145   3.805   0.499   3.599 -0.1046 -0.2799  2.2326
 5776TP3      O29146   2.524   2.595   0.617 -0.2963  0.6039 -0.1914
 5776TP3     H129147   2.615   2.622   0.634 -0.1279  0.3530 -0.6953
 5776TP3     H229148   2.475   2.678   0.619 -0.6674  0.4886  3.5764
 5777TP3      O29149   0.039   4.252   0.806  0.3048 -0.1128 -0.3194
 5777TP3     H129150   0.100   4.244   0.880 -2.5713 -2.1505  2.1091
 5777TP3     H229151   0.022   4.161   0.780 -0.1684  0.4957 -2.2849
 5778TP3      O29152   0.981   0.916   1.487  0.1252 -0.3184  0.6609
 5778TP3     H129153   0.990   1.009   1.508 -0.8027  0.0044 -0.2715
 5778TP3     H229154   0.957   0.875   1.570  1.1587  0.1580  1.2233
 5779TP3      O29155   4.025   1.820   2.993 -0.3909 -0.5457  0.1033
 5779TP3     H129156   4.109   1.856   3.022 -0.9568  1.4199 -0.5376
 5779TP3     H229157   4.016   1.738   3.041  2.0158 -0.9554 -0.0225
 5780TP3      O29158   4.161   1.176   1.504 -0.1998 -0.0637 -0.3097
 5780TP3     H129159   4.249   1.142   1.520 -0.6336 -1.1864 -0.1610
 5780TP3     H229160   4.142   1.153   1.413 -0.2110  0.4857 -0.4499
 5781TP3      O29161   1.185   1.718   2.891 -0.2810  0.3383  0.5544
 5781TP3     H129162   1.221   1.656   2.953  1.8832  0.6074 -0.3458
 5781TP3     H229163   1.158   1.665   2.816 -1.2102  0.1970  0.9850
 5782TP3      O29164   1.180   3.685   1.251  0.2274 -0.3183  0.8111
 5782TP3     H129165   1.206   3.775   1.228  1.3310 -0.6258  0.8354
 5782TP3     H229166   1.261   3.642   1.276 -0.3617 -1.2149  1.2164
 5783TP3      O29167   2.590   4.588   8.999 -0.3243 -0.0808  0.0017
 5783TP3     H129168   2.663   4.630   9.044 -0.6591  0.4758  0.0264
 5783TP3     H229169   2.596   4.618   8.908 -3.0292  3.5474  0.8032
 5784TP3      O29170   0.286   1.511   2.945  0.5179  0.1911 -0.2357
 5784TP3     H129171   0.252   1.575   3.008 -0.7097  1.0305 -1.6788
 5784TP3     H229172   0.330   1.563   2.878 -1.8259 -0.2054 -2.2584
 5785TP3      O29173   4.006   5.038   3.608 -0.4385 -0.0164  0.1301
 5785TP3     H129174   4.022   5.041   3.514 -1.1829  2.0401  0.0173
 5785TP3     H229175   3.963   4.954   3.623  2.1173 -1.6060 -0.8942
 5786TP3      O29176   1.153   1.268   1.237  0.4216 -0.2114  0.0672
 5786TP3     H129177   1.060   1.283   1.254  0.4005  1.3819 -1.2089
 5786TP3     H229178   1.177   1.198   1.297 -1.4452 -0.2163  0.8847
 5787TP3      O29179   4.721   1.748   2.151  0.9016 -0.3113  0.3995
 5787TP3     H129180   4.809   1.747   2.189  1.0036 -0.6812  0.1604
 5787TP3     H229181   4.677   1.675   2.194  0.6431  0.0098  0.6788
 5788TP3      O29182   1.086   1.550   3.330  0.2195 -0.0407  0.1517
 5788TP3     H129183   1.025   1.490   3.288  0.0789 -0.3027  0.7294
 5788TP3     H229184   1.080   1.630   3.278 -0.2890 -0.2130 -0.0580
 5789TP3      O29185   4.820   4.868   1.782  0.1356 -0.1234  0.0708
 5789TP3     H129186   4.791   4.792   1.731 -2.1713  1.1389 -0.6407
 5789TP3     H229187   4.772   4.941   1.744 -0.7355  1.0890  3.2599
 5790TP3      O29188   1.042   3.024   2.386  0.0440 -0.0798  0.2863
 5790TP3     H129189   1.051   3.033   2.481  1.6585 -0.4503  0.2005
 5790TP3     H229190   1.037   2.929   2.372  1.9216 -0.1584 -0.1140
 5791TP3      O29191   2.395   0.302   2.725  0.4253 -0.4766 -0.1882
 5791TP3     H129192   2.471   0.265   2.679 -0.1641  0.1675 -1.7718
 5791TP3     H229193   2.346   0.225   2.755 -0.3604 -1.0744 -2.7325
 5792TP3      O29194   1.460   4.211   1.580  0.0141 -0.0907  0.3960
 5792TP3     H129195   1.504   4.263   1.512 -0.1756 -1.7905 -1.0971
 5792TP3     H229196   1.518   4.219   1.657  0.6874  1.1749 -0.2073
 5793TP3      O29197   1.695   2.299   1.468 -0.4249  0.1830 -0.3182
 5793TP3     H129198   1.697   2.205   1.453 -0.4405 -0.4803  3.0568
 5793TP3     H229199   1.781   2.330   1.441 -0.4223 -0.7742 -1.4561
 5794TP3      O29200   2.660   4.167   2.202 -0.2969 -0.5490 -0.1785
 5794TP3     H129201   2.709   4.246   2.227 -1.5853 -0.0635  0.8993
 5794TP3     H229202   2.710   4.131   2.129 -0.4227  2.0362 -1.6717
 5795TP3      O29203   5.021   2.473   9.218 -0.5234 -0.4301 -0.5126
 5795TP3     H129204   5.093   2.424   9.177  0.4658 -0.4094  1.0963
 5795TP3     H229205   5.057   2.561   9.231  0.3874 -1.1441  3.0069
 5796TP3      O29206   4.896   0.837   8.614  0.5523  0.1486 -0.1255
 5796TP3     H129207   4.979   0.813   8.573  0.3526 -0.2859 -0.2968
 5796TP3     H229208   4.855   0.752   8.635 -0.4279  0.3188 -1.2499
 5797TP3      O29209   0.821   1.740   0.732  0.4864 -0.1259 -0.2006
 5797TP3     H129210   0.817   1.645   0.724  0.5804 -0.3533  2.0031
 5797TP3     H229211   0.734   1.770   0.704  0.0847 -0.9553  0.1228
 5798TP3      O29212   1.300   4.268   9.172 -0.6130 -0.0588  0.2056
 5798TP3     H129213   1.245   4.216   9.114  0.4106 -0.5641 -0.3521
 5798TP3     H229214   1.323   4.209   9.243 -0.3264 -0.0399  0.1313
 5799TP3      O29215   4.582   4.768   0.407  0.3664  0.2931 -0.2107
 5799TP3     H129216   4.670   4.770   0.370 -0.6763 -1.2213 -3.0996
 5799TP3     H229217   4.563   4.859   0.429  2.3198  0.7778 -0.3471
 5800TP3      O29218   0.390   4.615   1.937 -0.0355 -0.1257 -0.1487
 5800TP3     H129219   0.476   4.598   1.976  0.0770 -0.8437 -0.6961
 5800TP3     H229220   0.329   4.565   1.991  0.1582 -1.3809 -1.0574
 5801TP3      O29221   0.941   3.015   3.513 -0.2294  0.4660 -0.5031
 5801TP3     H129222   0.897   2.971   3.439 -1.5133  1.4132 -0.3537
 5801TP3     H229223   1.019   2.963   3.530 -0.3108 -0.2100 -2.0445
 5802TP3      O29224   4.174   1.279   0.334  0.3598 -0.1814 -0.5520
 5802TP3     H129225   4.224   1.214   0.384  0.9064  0.2241 -0.5599
 5802TP3     H229226   4.086   1.242   0.328 -0.7502  1.2693  3.6499
 5803TP3      O29227   5.140   3.632   8.389  0.0463 -0.5418  0.1660
 5803TP3     H129228   5.065   3.691   8.398 -1.4951 -2.3668  0.1364
 5803TP3     H229229   5.203   3.681   8.337 -0.9954  1.1894  0.4442
 5804TP3      O29230   1.309   3.072   9.967  0.3246 -0.3413  0.1052
 5804TP3     H129231   1.311   2.978   9.945  0.8150 -0.6010  1.2266
 5804TP3     H229232   1.215   3.093   9.969  0.1671 -1.0546  0.8465
 5805TP3      O29233   1.821   0.705   2.513  0.5218  0.3409  0.0642
 5805TP3     H129234   1.753   0.718   2.580 -0.3759 -1.1619 -0.5088
 5805TP3     H229235   1.901   0.691   2.563  0.0588  0.2555  0.8112
 5806TP3      O29236   0.287   1.430   7.639 -0.2865 -0.1475  0.0138
 5806TP3     H129237   0.258   1.461   7.725 -0.3716  0.4023 -0.2056
 5806TP3     H229238   0.218   1.457   7.579  0.8627  1.6128 -0.5966
 5807TP3      O29239   4.451   3.012   1.335 -0.2105  0.0032 -0.3950
 5807TP3     H129240   4.373   2.974   1.376 -0.5025  0.6145 -0.3714
 5807TP3     H229241   4.496   2.937   1.295  0.1348 -0.6277  1.0984
 5808TP3      O29242   2.495   2.962   9.930  0.2230  0.0058 -0.4418
 5808TP3     H129243   2.433   2.904   9.975 -0.5266  0.9340 -0.2569
 5808TP3     H229244   2.477   2.948   9.837  0.3831 -0.4154 -0.4122
 5809TP3      O29245   0.140   3.981   0.080  0.1105 -0.4362 -0.2811
 5809TP3     H129246   0.082   4.044   0.122  0.7776 -0.8438  1.3256
 5809TP3     H229247   0.222   4.029   0.066  0.6436 -0.9300  1.0089
 5810TP3      O29248   3.619   4.120   3.552  0.0972 -0.2251  0.0045
 5810TP3     H129249   3.630   4.054   3.620 -0.7179 -0.0868  0.2787
 5810TP3     H229250   3.654   4.201   3.590  0.4374 -0.3382 -0.0662
 5811TP3      O29251   1.357   0.373   1.678 -0.8351 -0.4041 -0.2095
 5811TP3     H129252   1.417   0.356   1.605 -1.1258  1.9667 -1.1029
 5811TP3     H229253   1.270   0.365   1.640 -0.9965  0.1633  0.0258
 5812TP3      O29254   2.821   2.574   3.348  0.5945  0.0353  0.0370
 5812TP3     H129255   2.872   2.603   3.424  2.3369 -0.6149 -0.8414
 5812TP3     H229256   2.735   2.552   3.385  1.7880 -1.5884  2.1155
 5813TP3      O29257   4.811   4.891   1.361 -0.1978 -0.0778 -0.0455
 5813TP3     H129258   4.782   4.904   1.271 -0.6962  0.7991  0.2339
 5813TP3     H229259   4.810   4.796   1.373  0.0292 -0.2094 -1.0093
 5814TP3      O29260   2.584   2.110   9.097  0.3227  0.1119  0.5887
 5814TP3     H129261   2.629   2.132   9.016 -0.4190 -1.9784 -0.4691
 5814TP3     H229262   2.535   2.189   9.120  1.4433  1.1240 -0.3394
 5815TP3      O29263   3.765   0.257   1.949 -0.1994 -0.7167 -0.4575
 5815TP3     H129264   3.759   0.344   1.911  1.0610 -0.3848  0.0550
 5815TP3     H229265   3.732   0.267   2.038  1.1495 -0.4507  0.0336
 5816TP3      O29266   3.193   2.408   2.936 -0.0596  0.5551  0.0905
 5816TP3     H129267   3.200   2.408   2.840 -1.9335  0.7751 -0.0761
 5816TP3     H229268   3.279   2.439   2.966  0.5350  0.5659 -1.5085
 5817TP3      O29269   4.537   2.777   1.229 -0.5221  0.6013 -0.0612
 5817TP3     H129270   4.490   2.744   1.152 -0.1565 -0.7943  0.2879
 5817TP3     H229271   4.606   2.712   1.244  0.0010  1.3575  0.8774
 5818TP3      O29272   3.024   3.889   1.841  0.1513  0.1665 -0.3544
 5818TP3     H129273   2.967   3.964   1.822  0.2253  0.8918  1.9984
 5818TP3     H229274   2.975   3.836   1.903  0.4309 -1.3928 -1.3896
 5819TP3      O29275   4.143   2.337   2.234 -0.3144  0.3202  0.2943
 5819TP3     H129276   4.103   2.418   2.266 -2.5364 -1.2646  1.8091
 5819TP3     H229277   4.220   2.325   2.289 -0.1415  1.2289  0.2645
 5820TP3      O29278   2.063   4.932   8.202 -0.0929  0.2054  0.3274
 5820TP3     H129279   2.023   4.856   8.244  1.3789 -0.7961 -0.0376
 5820TP3     H229280   2.046   4.921   8.109  0.6859 -0.0356  0.2062
 5821TP3      O29281   4.721   4.498   2.601  0.8265  0.5020 -0.8634
 5821TP3     H129282   4.661   4.455   2.662 -0.2792  3.2606  0.1876
 5821TP3     H229283   4.711   4.451   2.519 -1.2272 -0.4347 -0.1370
 5822TP3      O29284   3.309   3.119   2.510  0.1619 -0.5130 -0.0714
 5822TP3     H129285   3.246   3.113   2.582 -0.3258 -0.9053 -0.5181
 5822TP3     H229286   3.262   3.166   2.441  1.4720  2.1825  0.7394
 5823TP3      O29287   4.306   3.832   0.541  0.2995 -0.2104  0.0436
 5823TP3     H129288   4.215   3.807   0.555  0.3234 -0.5444 -0.3821
 5823TP3     H229289   4.318   3.911   0.595  1.0104 -2.5660  3.6935
 5824TP3      O29290   0.236   4.045   3.408 -0.4523  0.2742  0.2396
 5824TP3     H129291   0.269   3.988   3.478  0.5783  1.6977  0.9468
 5824TP3     H229292   0.147   4.066   3.436 -1.5331 -2.2885 -0.8844
 5825TP3      O29293   3.924   4.202   9.263  0.6130 -0.4167 -0.1446
 5825TP3     H129294   3.979   4.183   9.339 -0.3455 -0.9277  0.4373
 5825TP3     H229295   3.946   4.133   9.200  1.0293 -0.3006 -0.1254
 5826TP3      O29296   1.859   0.795   2.276 -0.5434 -0.6842 -0.2208
 5826TP3     H129297   1.848   0.761   2.365  0.6137  0.5787  0.4381
 5826TP3     H229298   1.833   0.887   2.283 -1.7936 -0.8959 -1.5356
 5827TP3      O29299   5.204   4.046   2.498 -0.5898  0.3146 -0.1168
 5827TP3     H129300   5.237   4.010   2.416 -0.1415  1.1679 -0.3240
 5827TP3     H229301   5.154   4.124   2.473 -0.0799  0.8412  0.4331
 5828TP3      O29302   3.682   2.792   8.088  0.0636 -0.2581 -0.2225
 5828TP3     H129303   3.603   2.827   8.129  1.1932 -1.2254  3.0658
 5828TP3     H229304   3.753   2.848   8.119  0.9133 -0.3245 -1.8984
 5829TP3      O29305   4.159   2.420   3.078 -0.5546 -0.2691 -0.0204
 5829TP3     H129306   4.068   2.437   3.105 -0.5099  0.2487 -0.1791
 5829TP3     H229307   4.175   2.329   3.102 -0.7211 -0.0072  1.1601
 5830TP3      O29308   1.688   3.459   8.738 -0.1995 -0.4388  0.2174
 5830TP3     H129309   1.728   3.523   8.797 -0.9115  0.1619  0.0567
 5830TP3     H229310   1.652   3.392   8.797  1.0459 -1.0192  0.3617
 5831TP3      O29311   3.128   2.123   9.071  0.5207  0.0367  0.2075
 5831TP3     H129312   3.216   2.158   9.087  0.4523  0.3908 -0.1629
 5831TP3     H229313   3.070   2.199   9.081  0.4531  0.2320 -1.4199
 5832TP3      O29314   2.025   0.019   2.176 -0.0457 -0.1758 -0.3027
 5832TP3     H129315   1.996   0.110   2.182 -0.2525 -0.3228  1.0533
 5832TP3     H229316   1.957  -0.031   2.221  0.6114 -0.8913 -0.0852
 5833TP3      O29317   1.102   4.098   0.510  0.1330  0.2409 -0.2120
 5833TP3     H129318   1.103   4.096   0.414  0.5682 -0.8913 -0.1924
 5833TP3     H229319   1.152   4.021   0.536 -0.8619 -0.0429  0.9322
 5834TP3      O29320   3.532   2.982   0.635  0.3064  0.5750 -0.3521
 5834TP3     H129321   3.539   2.980   0.730  0.8790 -1.6382 -0.3751
 5834TP3     H229322   3.623   2.975   0.604  0.1266  1.2701 -1.0767
 5835TP3      O29323   0.801   3.808   3.291  0.0615  0.2289  0.6654
 5835TP3     H129324   0.781   3.777   3.203 -0.3251  0.3769  0.6971
 5835TP3     H229325   0.794   3.903   3.285  0.8982  0.2930  0.6514
 5836TP3      O29326   4.966   3.905   0.317 -0.5226  0.4062  0.0286
 5836TP3     H129327   4.906   3.906   0.392 -0.5659  0.0510 -0.0017
 5836TP3     H229328   4.965   3.995   0.285 -0.0892  0.6940  0.7884
 5837TP3      O29329   4.534   1.555   1.239 -0.2817 -0.0216  0.2506
 5837TP3     H129330   4.591   1.560   1.316  0.2451  0.7132 -0.1781
 5837TP3     H229331   4.489   1.639   1.237 -0.5176 -0.1537 -0.0705
 5838TP3      O29332   0.869   4.519   3.532 -0.2947  0.0673 -0.7714
 5838TP3     H129333   0.784   4.563   3.526  0.1459  1.5102  1.9434
 5838TP3     H229334   0.847   4.430   3.558 -1.0152  0.5731  0.4515
 5839TP3      O29335   1.725   4.878   2.761  0.2945 -0.1204 -0.2264
 5839TP3     H129336   1.703   4.932   2.837  0.8943 -0.8074  0.4587
 5839TP3     H229337   1.773   4.804   2.798 -0.3191 -1.0101 -1.1640
 5840TP3      O29338   0.713   4.285   3.575 -0.1666  0.0372  0.9003
 5840TP3     H129339   0.644   4.245   3.628 -1.7138  0.4475 -0.7139
 5840TP3     H229340   0.680   4.281   3.485  1.7615  0.6074  0.1093
 5841TP3      O29341   4.007   4.566   4.124 -0.3347 -0.0807 -0.7263
 5841TP3     H129342   4.098   4.588   4.103 -0.0919  0.7482  1.0082
 5841TP3     H229343   3.955   4.627   4.071  0.2594  2.0426  0.9786
 5842TP3      O29344   0.034   4.022   3.128  0.5089  0.4009  0.3317
 5842TP3     H129345  -0.034   3.979   3.180  1.6369 -0.0247  1.5246
 5842TP3     H229346   0.011   4.115   3.130 -1.7389 -0.0206 -1.9369
 5843TP3      O29347   0.245   4.816   3.229 -0.0616 -0.4589  0.7164
 5843TP3     H129348   0.190   4.774   3.163 -0.8911 -1.8247  2.2218
 5843TP3     H229349   0.203   4.900   3.245  0.6428  0.2900 -1.0799
 5844TP3      O29350   0.832   3.171   1.971  0.2131  0.2811 -0.1780
 5844TP3     H129351   0.817   3.167   2.065  0.4612  0.8644 -0.1084
 5844TP3     H229352   0.848   3.080   1.945  1.1294  0.2326  0.5100
 5845TP3      O29353   0.460   1.375   9.362  0.2898 -0.2295  0.2719
 5845TP3     H129354   0.533   1.329   9.404  0.1781 -0.1724  0.5324
 5845TP3     H229355   0.405   1.304   9.328  0.0135 -0.3042  0.8511
 5846TP3      O29356   0.717   4.116   8.169  0.4865 -0.1707 -0.2408
 5846TP3     H129357   0.647   4.073   8.119 -0.6140  0.3880  0.7873
 5846TP3     H229358   0.673   4.186   8.217  1.9582  0.9381 -0.4640
 5847TP3      O29359   0.916   4.762   3.323  0.1392 -0.0744  0.1556
 5847TP3     H129360   0.931   4.714   3.404 -1.8742 -1.1166 -0.0207
 5847TP3     H229361   0.857   4.833   3.347 -0.7198 -0.5760 -0.4333
 5848TP3      O29362   0.498   4.305   2.825  0.4215  0.1263 -0.8254
 5848TP3     H129363   0.526   4.317   2.916  2.5747  3.1061 -1.7214
 5848TP3     H229364   0.554   4.235   2.792  2.6647  1.8137 -0.8596
 5849TP3      O29365   3.411   4.903   3.230  0.1572  0.2912 -0.0094
 5849TP3     H129366   3.384   4.867   3.315 -0.7473  0.6603 -0.1252
 5849TP3     H229367   3.472   4.838   3.195  1.0006  0.4214  1.1728
 5850TP3      O29368   2.209   3.254   3.447 -0.3454  0.1116 -0.4356
 5850TP3     H129369   2.279   3.197   3.478 -0.8254  0.3386  1.1464
 5850TP3     H229370   2.250   3.340   3.437 -0.4736  0.3696  1.0090
 5851TP3      O29371   0.750   4.178   0.800  0.0932 -0.3946  0.1466
 5851TP3     H129372   0.843   4.195   0.781  0.2349  0.5969  1.5323
 5851TP3     H229373   0.750   4.091   0.840  0.6834  0.2301  1.5932
 5852TP3      O29374   3.192   2.666   0.385  0.2419  0.7935 -0.4506
 5852TP3     H129375   3.099   2.650   0.373  0.1477  1.5493 -0.8004
 5852TP3     H229376   3.198   2.723   0.461  0.4588  0.3229 -0.1118
 5853TP3      O29377   2.761   3.429   2.453  0.1424  0.2997 -0.3527
 5853TP3     H129378   2.714   3.367   2.509 -0.9464 -0.6537 -2.2365
 5853TP3     H229379   2.766   3.509   2.505 -1.5139 -0.3101  0.8152
 5854TP3      O29380   3.926   3.614   1.117  0.5450  0.6814 -0.1493
 5854TP3     H129381   3.936   3.553   1.190 -2.6579  1.9774  1.5695
 5854TP3     H229382   3.899   3.560   1.043  3.7306 -0.6381 -0.5367
 5855TP3      O29383   1.919   4.535   1.988 -0.2241  0.5565 -0.0184
 5855TP3     H129384   1.888   4.503   1.903 -0.0868  2.3003 -0.7638
 5855TP3     H229385   1.972   4.611   1.967  3.1297 -1.1752  1.3427
 5856TP3      O29386   2.398   1.633   9.203  0.0528 -0.7399  0.0358
 5856TP3     H129387   2.468   1.653   9.141 -1.1066 -0.9480 -1.4063
 5856TP3     H229388   2.381   1.716   9.247 -0.4622 -0.0475 -1.3953
 5857TP3      O29389   2.400   5.069   8.023 -0.0157 -0.0577  0.2428
 5857TP3     H129390   2.359   5.075   8.110  0.4682  1.1957  0.3998
 5857TP3     H229391   2.344   5.008   7.975 -1.1262  0.3528  0.9701
 5858TP3      O29392   0.169   1.420   2.593 -0.3500 -0.1608  0.0617
 5858TP3     H129393   0.241   1.362   2.568 -0.1271 -0.7908  1.9673
 5858TP3     H229394   0.211   1.501   2.622 -0.4829 -0.0703  0.0049
 5859TP3      O29395   0.005   2.376   0.672  0.4209  0.2966  0.2798
 5859TP3     H129396   0.025   2.301   0.727 -1.0164  1.1014  2.0046
 5859TP3     H229397   0.053   2.449   0.712 -1.2539  1.0477  1.0218
 5860TP3      O29398   1.983   0.826   1.776  0.4249 -0.2297  0.0695
 5860TP3     H129399   2.025   0.772   1.709  0.0790 -1.2120  0.6240
 5860TP3     H229400   2.047   0.832   1.846  1.1162  1.4904 -0.6451
 5861TP3      O29401   3.737   3.352   1.056 -0.5277 -0.4377 -0.4021
 5861TP3     H129402   3.793   3.352   0.978 -1.4465 -2.2645 -1.1278
 5861TP3     H229403   3.694   3.438   1.054  1.8856  0.8638 -0.0195
 5862TP3      O29404   0.287   2.766   0.022 -0.2855 -0.1490  0.0056
 5862TP3     H129405   0.305   2.713   0.100 -1.0294  0.4038  0.5701
 5862TP3     H229406   0.197   2.744  -0.002 -0.9906  1.6061  0.8796
 5863TP3      O29407   0.084   1.228   1.114 -0.1238 -0.3140 -0.4019
 5863TP3     H129408   0.053   1.163   1.051  1.3099 -0.3530 -1.1185
 5863TP3     H229409   0.022   1.300   1.107 -0.9480 -1.0321 -0.6076
 5864TP3      O29410   1.814   3.267   8.064  0.2155 -0.3791 -0.2971
 5864TP3     H129411   1.779   3.345   8.109 -0.9739 -0.9695 -0.1811
 5864TP3     H229412   1.882   3.235   8.123  2.5299  1.9646 -1.4791
 5865TP3      O29413   2.481   3.182   3.563 -1.1135 -0.4776 -0.2075
 5865TP3     H129414   2.574   3.199   3.551 -1.2052 -0.5443 -1.0617
 5865TP3     H229415   2.472   3.087   3.557 -1.1393 -0.5323  0.6224
 5866TP3      O29416   3.328   5.062   9.646  0.2359 -0.1778 -0.1461
 5866TP3     H129417   3.271   5.128   9.685 -0.9662 -1.6111  0.6153
 5866TP3     H229418   3.370   5.020   9.721  1.0067 -0.2713 -0.6223
 5867TP3      O29419   4.484   3.504   3.686  0.3696  0.5118  0.1455
 5867TP3     H129420   4.406   3.489   3.740 -0.3216  0.7753 -0.7527
 5867TP3     H229421   4.462   3.581   3.634  1.4769  0.9621  0.3016
 5868TP3      O29422   3.361   0.739   3.361 -0.0698  0.0424  0.0139
 5868TP3     H129423   3.315   0.823   3.358 -0.3834 -0.0940  0.8335
 5868TP3     H229424   3.323   0.689   3.288  1.7538  1.4086 -1.9917
 5869TP3      O29425   4.235   4.648   3.961 -0.1153  0.1282  0.1372
 5869TP3     H129426   4.167   4.689   3.906 -0.2844  0.9652  0.9484
 5869TP3     H229427   4.239   4.557   3.930 -1.0936  0.2544 -0.4077
 5870TP3      O29428   4.515   4.755   9.148 -0.3451 -0.5727 -0.5003
 5870TP3     H129429   4.555   4.674   9.180  0.1752 -1.8115 -3.9140
 5870TP3     H229430   4.424   4.749   9.177  0.3646 -0.7392  1.9990
 5871TP3      O29431   0.559   2.497   9.863  0.7505 -0.1089  1.1144
 5871TP3     H129432   0.551   2.448   9.945  1.5298 -0.6049  0.9065
 5871TP3     H229433   0.651   2.526   9.862  0.6498  0.1979  0.5846
 5872TP3      O29434   4.777   4.742   3.427 -0.1254  0.5975  0.7305
 5872TP3     H129435   4.717   4.793   3.372 -1.1963  0.0651  1.3667
 5872TP3     H229436   4.849   4.719   3.369 -1.3531 -0.1815 -0.5334
 5873TP3      O29437   5.144   1.250   9.694 -0.1794 -0.2012  0.1807
 5873TP3     H129438   5.087   1.303   9.750 -0.7152  0.0439 -0.5856
 5873TP3     H229439   5.100   1.248   9.609  1.2762  0.5587 -0.6468
 5874TP3      O29440   0.861   1.518   8.714 -0.0910  0.1804 -0.5976
 5874TP3     H129441   0.877   1.467   8.793 -0.7068 -0.0274 -0.6006
 5874TP3     H229442   0.916   1.596   8.724  0.9278 -0.5277 -0.6398
 5875TP3      O29443   3.726   3.892   3.673 -0.1998 -0.2136 -0.5853
 5875TP3     H129444   3.809   3.848   3.690 -1.4321 -1.9354  1.4348
 5875TP3     H229445   3.671   3.826   3.632 -0.8329  0.6842 -1.2202
 5876TP3      O29446   5.203   1.207   3.247  0.0153  0.3734 -0.7110
 5876TP3     H129447   5.214   1.277   3.311 -1.5320  0.0214 -0.0065
 5876TP3     H229448   5.177   1.130   3.299 -0.5758 -0.1058 -1.6733
 5877TP3      O29449   4.295   5.056   3.556 -0.6100 -0.5185 -0.4014
 5877TP3     H129450   4.219   5.057   3.498 -0.7760  0.2276 -0.1828
 5877TP3     H229451   4.312   5.148   3.575 -0.1395 -0.7199  0.1953
 5878TP3      O29452   4.552   0.148   9.740  0.1007 -0.0605  0.4848
 5878TP3     H129453   4.627   0.188   9.784  0.7732  0.4652 -1.0482
 5878TP3     H229454   4.541   0.063   9.784  2.0190 -0.4322  0.3407
 5879TP3      O29455   5.184   3.694   2.266 -0.6482  0.3045  0.1866
 5879TP3     H129456   5.276   3.721   2.272 -0.0442 -1.2447 -1.3578
 5879TP3     H229457   5.179   3.612   2.315 -1.0220 -0.0390 -0.4146
 5880TP3      O29458   4.297   4.184   3.674 -0.2371  0.5115  0.3181
 5880TP3     H129459   4.285   4.160   3.582 -0.5252  1.3064  0.1384
 5880TP3     H229460   4.283   4.103   3.723 -0.4873  0.1715 -0.3134
 5881TP3      O29461   2.612   3.446   9.756 -0.5764 -0.1041  0.3865
 5881TP3     H129462   2.564   3.465   9.675 -2.4066  1.5467  1.7838
 5881TP3     H229463   2.549   3.399   9.811  0.3818 -0.4969  1.1715
 5882TP3      O29464   3.909   3.881   9.340  0.1313 -0.4412  0.0368
 5882TP3     H129465   3.843   3.813   9.356 -1.1484  0.8413  0.3110
 5882TP3     H229466   3.922   3.922   9.425 -2.2827  2.4491 -0.8531
 5883TP3      O29467   2.184   2.085   1.844  0.2748  0.9421 -0.1681
 5883TP3     H129468   2.177   2.006   1.791  1.5003  1.2335 -0.7939
 5883TP3     H229469   2.104   2.135   1.824 -1.2824 -0.7522  1.3682
   5.29071   5.29071  10.10828
